;
;   File g6npncore_petim_betagalactose.itp  was generated
;   By user: sairam (1000)
;   On host: sairam
;   At date: Tue. September  2 22:21:32 2023
;
;   This is a standalone topology file
;
;   Created by:
;   ParmEd:       amb2gro_top_gro.py, VERSION 3.4.1
;   Executable:   amb2gro_top_gro.py
;   Library dir:  /usr/local/gromacs/share/gromacs/top
;   Command line:
;     ./amb2gro_top_gro.py -p g6npncore_petim_betagalactose.prmtop -c g6npncore_petim_betagalactose.inpcrd -t g6npncore_petim_betagalactose.itp -g g6npncore_petim_betagalactose.gro -b g6npncore_petim_betagalactose.pdb
;

;[ defaults ]
;; nbfunc        comb-rule       gen-pairs       fudgeLJ fudgeQQ
;1               2               yes             0.5          0.83333333  
;
;[ atomtypes ]
;; name    at.num    mass    charge ptype  sigma      epsilon
;n3             7  14.010000  0.00000000  A     0.32499985        0.71128
;c3             6  12.010000  0.00000000  A     0.33996695      0.4577296
;h1             1   1.008000  0.00000000  A      0.2471353      0.0656888
;hc             1   1.008000  0.00000000  A     0.26495328      0.0656888
;os             8  16.000000  0.00000000  A     0.30000123        0.71128
;h2             1   1.008000  0.00000000  A     0.22931733      0.0656888
;oh             8  16.000000  0.00000000  A     0.30664734      0.8803136
;ho             1   1.008000  0.00000000  A              0              0


[ moleculetype ]
; Name            nrexcl
g6npncore_petim_betagalactose      3

[ atoms ]
;   nr       type  resnr residue  atom   cgnr    charge       mass  typeB    chargeB      massB
; residue    1 aaa rtp aaa q 0.0
    1         n3      1    aaa     N1      1 -0.65416500  14.010000   ; qtot -0.654165
    2         c3      1    aaa     C1      2 0.05178400  12.010000   ; qtot -0.602381
    3         h1      1    aaa     H1      3 0.06475500   1.008000   ; qtot -0.537626
    4         h1      1    aaa     H2      4 0.06475500   1.008000   ; qtot -0.472871
    5         c3      1    aaa     C2      5 0.05178400  12.010000   ; qtot -0.421087
    6         h1      1    aaa     H3      6 0.06475500   1.008000   ; qtot -0.356332
    7         h1      1    aaa     H4      7 0.06475500   1.008000   ; qtot -0.291577
    8         c3      1    aaa     C3      8 0.05178400  12.010000   ; qtot -0.239793
    9         h1      1    aaa     H5      9 0.06475500   1.008000   ; qtot -0.175038
   10         h1      1    aaa     H6     10 0.06475500   1.008000   ; qtot -0.110283
   11         c3      1    aaa     C4     11 0.07871100  12.010000   ; qtot -0.031572
   12         hc      1    aaa     H7     12 0.08683700   1.008000   ; qtot 0.055265
   13         hc      1    aaa     H8     13 0.08683700   1.008000   ; qtot 0.142102
   14         c3      1    aaa     C5     14 0.07871100  12.010000   ; qtot 0.220813
   15         hc      1    aaa     H9     15 0.08683700   1.008000   ; qtot 0.307650
   16         hc      1    aaa    H10     16 0.08683700   1.008000   ; qtot 0.394487
   17         c3      1    aaa     C6     17 0.07871100  12.010000   ; qtot 0.473198
   18         hc      1    aaa    H11     18 0.08683700   1.008000   ; qtot 0.560035
   19         hc      1    aaa    H12     19 0.08683700   1.008000   ; qtot 0.646872
   20         c3      1    aaa     C7     20 -0.74941200  12.010000   ; qtot -0.102540
   21         h1      1    aaa    H13     21 0.26689400   1.008000   ; qtot 0.164354
   22         h1      1    aaa    H14     22 0.26689400   1.008000   ; qtot 0.431248
   23         c3      1    aaa     C8     23 -0.74941200  12.010000   ; qtot -0.318164
   24         h1      1    aaa    H15     24 0.26689400   1.008000   ; qtot -0.051270
   25         h1      1    aaa    H16     25 0.26689400   1.008000   ; qtot 0.215624
   26         c3      1    aaa     C9     26 -0.74941200  12.010000   ; qtot -0.533788
   27         h1      1    aaa    H17     27 0.26689400   1.008000   ; qtot -0.266894
   28         h1      1    aaa    H18     28 0.26689400   1.008000   ; qtot 0.000000
; residue    2 bbb rtp bbb q -0.0
   29         n3      2    bbb     N1     29 -0.59685800  14.010000   ; qtot -0.596858
   30         c3      2    bbb     C1     30 0.10137000  12.010000   ; qtot -0.495488
   31         h1      2    bbb     H1     31 0.04411300   1.008000   ; qtot -0.451375
   32         h1      2    bbb     H2     32 0.04411300   1.008000   ; qtot -0.407262
   33         c3      2    bbb     C2     33 0.10137000  12.010000   ; qtot -0.305892
   34         h1      2    bbb     H3     34 0.04411300   1.008000   ; qtot -0.261779
   35         h1      2    bbb     H4     35 0.04411300   1.008000   ; qtot -0.217666
   36         c3      2    bbb     C3     36 -0.00195300  12.010000   ; qtot -0.219619
   37         h1      2    bbb     H5     37 0.05064400   1.008000   ; qtot -0.168975
   38         h1      2    bbb     H6     38 0.05064400   1.008000   ; qtot -0.118331
   39         c3      2    bbb     C4     39 -0.01612100  12.010000   ; qtot -0.134452
   40         hc      2    bbb     H7     40 0.04936100   1.008000   ; qtot -0.085091
   41         hc      2    bbb     H8     41 0.04936100   1.008000   ; qtot -0.035730
   42         c3      2    bbb     C5     42 0.11363000  12.010000   ; qtot 0.077900
   43         hc      2    bbb     H9     43 0.06265900   1.008000   ; qtot 0.140559
   44         hc      2    bbb    H10     44 0.06265900   1.008000   ; qtot 0.203218
   45         c3      2    bbb     C6     45 0.11363000  12.010000   ; qtot 0.316848
   46         hc      2    bbb    H11     46 0.06265900   1.008000   ; qtot 0.379507
   47         hc      2    bbb    H12     47 0.06265900   1.008000   ; qtot 0.442166
   48         c3      2    bbb     C7     48 0.05858200  12.010000   ; qtot 0.500748
   49         h1      2    bbb    H13     49 0.06123400   1.008000   ; qtot 0.561982
   50         h1      2    bbb    H14     50 0.06123400   1.008000   ; qtot 0.623216
   51         c3      2    bbb     C8     51 -0.72423400  12.010000   ; qtot -0.101018
   52         h1      2    bbb    H15     52 0.25637600   1.008000   ; qtot 0.155358
   53         h1      2    bbb    H16     53 0.25637600   1.008000   ; qtot 0.411734
   54         c3      2    bbb     C9     54 -0.72423400  12.010000   ; qtot -0.312500
   55         h1      2    bbb    H17     55 0.25637600   1.008000   ; qtot -0.056124
   56         h1      2    bbb    H18     56 0.25637600   1.008000   ; qtot 0.200252
   57         os      2    bbb     O1     57 -0.20025300  16.000000   ; qtot -0.000001
; residue    3 bbb rtp bbb q -0.0
   58         n3      3    bbb     N1     58 -0.59685800  14.010000   ; qtot -0.596859
   59         c3      3    bbb     C1     59 0.10137000  12.010000   ; qtot -0.495489
   60         h1      3    bbb     H1     60 0.04411300   1.008000   ; qtot -0.451376
   61         h1      3    bbb     H2     61 0.04411300   1.008000   ; qtot -0.407263
   62         c3      3    bbb     C2     62 0.10137000  12.010000   ; qtot -0.305893
   63         h1      3    bbb     H3     63 0.04411300   1.008000   ; qtot -0.261780
   64         h1      3    bbb     H4     64 0.04411300   1.008000   ; qtot -0.217667
   65         c3      3    bbb     C3     65 -0.00195300  12.010000   ; qtot -0.219620
   66         h1      3    bbb     H5     66 0.05064400   1.008000   ; qtot -0.168976
   67         h1      3    bbb     H6     67 0.05064400   1.008000   ; qtot -0.118332
   68         c3      3    bbb     C4     68 -0.01612100  12.010000   ; qtot -0.134453
   69         hc      3    bbb     H7     69 0.04936100   1.008000   ; qtot -0.085092
   70         hc      3    bbb     H8     70 0.04936100   1.008000   ; qtot -0.035731
   71         c3      3    bbb     C5     71 0.11363000  12.010000   ; qtot 0.077899
   72         hc      3    bbb     H9     72 0.06265900   1.008000   ; qtot 0.140558
   73         hc      3    bbb    H10     73 0.06265900   1.008000   ; qtot 0.203217
   74         c3      3    bbb     C6     74 0.11363000  12.010000   ; qtot 0.316847
   75         hc      3    bbb    H11     75 0.06265900   1.008000   ; qtot 0.379506
   76         hc      3    bbb    H12     76 0.06265900   1.008000   ; qtot 0.442165
   77         c3      3    bbb     C7     77 0.05858200  12.010000   ; qtot 0.500747
   78         h1      3    bbb    H13     78 0.06123400   1.008000   ; qtot 0.561981
   79         h1      3    bbb    H14     79 0.06123400   1.008000   ; qtot 0.623215
   80         c3      3    bbb     C8     80 -0.72423400  12.010000   ; qtot -0.101019
   81         h1      3    bbb    H15     81 0.25637600   1.008000   ; qtot 0.155357
   82         h1      3    bbb    H16     82 0.25637600   1.008000   ; qtot 0.411733
   83         c3      3    bbb     C9     83 -0.72423400  12.010000   ; qtot -0.312501
   84         h1      3    bbb    H17     84 0.25637600   1.008000   ; qtot -0.056125
   85         h1      3    bbb    H18     85 0.25637600   1.008000   ; qtot 0.200251
   86         os      3    bbb     O1     86 -0.20025300  16.000000   ; qtot -0.000002
; residue    4 bbb rtp bbb q -0.0
   87         n3      4    bbb     N1     87 -0.59685800  14.010000   ; qtot -0.596860
   88         c3      4    bbb     C1     88 0.10137000  12.010000   ; qtot -0.495490
   89         h1      4    bbb     H1     89 0.04411300   1.008000   ; qtot -0.451377
   90         h1      4    bbb     H2     90 0.04411300   1.008000   ; qtot -0.407264
   91         c3      4    bbb     C2     91 0.10137000  12.010000   ; qtot -0.305894
   92         h1      4    bbb     H3     92 0.04411300   1.008000   ; qtot -0.261781
   93         h1      4    bbb     H4     93 0.04411300   1.008000   ; qtot -0.217668
   94         c3      4    bbb     C3     94 -0.00195300  12.010000   ; qtot -0.219621
   95         h1      4    bbb     H5     95 0.05064400   1.008000   ; qtot -0.168977
   96         h1      4    bbb     H6     96 0.05064400   1.008000   ; qtot -0.118333
   97         c3      4    bbb     C4     97 -0.01612100  12.010000   ; qtot -0.134454
   98         hc      4    bbb     H7     98 0.04936100   1.008000   ; qtot -0.085093
   99         hc      4    bbb     H8     99 0.04936100   1.008000   ; qtot -0.035732
  100         c3      4    bbb     C5    100 0.11363000  12.010000   ; qtot 0.077898
  101         hc      4    bbb     H9    101 0.06265900   1.008000   ; qtot 0.140557
  102         hc      4    bbb    H10    102 0.06265900   1.008000   ; qtot 0.203216
  103         c3      4    bbb     C6    103 0.11363000  12.010000   ; qtot 0.316846
  104         hc      4    bbb    H11    104 0.06265900   1.008000   ; qtot 0.379505
  105         hc      4    bbb    H12    105 0.06265900   1.008000   ; qtot 0.442164
  106         c3      4    bbb     C7    106 0.05858200  12.010000   ; qtot 0.500746
  107         h1      4    bbb    H13    107 0.06123400   1.008000   ; qtot 0.561980
  108         h1      4    bbb    H14    108 0.06123400   1.008000   ; qtot 0.623214
  109         c3      4    bbb     C8    109 -0.72423400  12.010000   ; qtot -0.101020
  110         h1      4    bbb    H15    110 0.25637600   1.008000   ; qtot 0.155356
  111         h1      4    bbb    H16    111 0.25637600   1.008000   ; qtot 0.411732
  112         c3      4    bbb     C9    112 -0.72423400  12.010000   ; qtot -0.312502
  113         h1      4    bbb    H17    113 0.25637600   1.008000   ; qtot -0.056126
  114         h1      4    bbb    H18    114 0.25637600   1.008000   ; qtot 0.200250
  115         os      4    bbb     O1    115 -0.20025300  16.000000   ; qtot -0.000003
; residue    5 bbb rtp bbb q -0.0
  116         n3      5    bbb     N1    116 -0.59685800  14.010000   ; qtot -0.596861
  117         c3      5    bbb     C1    117 0.10137000  12.010000   ; qtot -0.495491
  118         h1      5    bbb     H1    118 0.04411300   1.008000   ; qtot -0.451378
  119         h1      5    bbb     H2    119 0.04411300   1.008000   ; qtot -0.407265
  120         c3      5    bbb     C2    120 0.10137000  12.010000   ; qtot -0.305895
  121         h1      5    bbb     H3    121 0.04411300   1.008000   ; qtot -0.261782
  122         h1      5    bbb     H4    122 0.04411300   1.008000   ; qtot -0.217669
  123         c3      5    bbb     C3    123 -0.00195300  12.010000   ; qtot -0.219622
  124         h1      5    bbb     H5    124 0.05064400   1.008000   ; qtot -0.168978
  125         h1      5    bbb     H6    125 0.05064400   1.008000   ; qtot -0.118334
  126         c3      5    bbb     C4    126 -0.01612100  12.010000   ; qtot -0.134455
  127         hc      5    bbb     H7    127 0.04936100   1.008000   ; qtot -0.085094
  128         hc      5    bbb     H8    128 0.04936100   1.008000   ; qtot -0.035733
  129         c3      5    bbb     C5    129 0.11363000  12.010000   ; qtot 0.077897
  130         hc      5    bbb     H9    130 0.06265900   1.008000   ; qtot 0.140556
  131         hc      5    bbb    H10    131 0.06265900   1.008000   ; qtot 0.203215
  132         c3      5    bbb     C6    132 0.11363000  12.010000   ; qtot 0.316845
  133         hc      5    bbb    H11    133 0.06265900   1.008000   ; qtot 0.379504
  134         hc      5    bbb    H12    134 0.06265900   1.008000   ; qtot 0.442163
  135         c3      5    bbb     C7    135 0.05858200  12.010000   ; qtot 0.500745
  136         h1      5    bbb    H13    136 0.06123400   1.008000   ; qtot 0.561979
  137         h1      5    bbb    H14    137 0.06123400   1.008000   ; qtot 0.623213
  138         c3      5    bbb     C8    138 -0.72423400  12.010000   ; qtot -0.101021
  139         h1      5    bbb    H15    139 0.25637600   1.008000   ; qtot 0.155355
  140         h1      5    bbb    H16    140 0.25637600   1.008000   ; qtot 0.411731
  141         c3      5    bbb     C9    141 -0.72423400  12.010000   ; qtot -0.312503
  142         h1      5    bbb    H17    142 0.25637600   1.008000   ; qtot -0.056127
  143         h1      5    bbb    H18    143 0.25637600   1.008000   ; qtot 0.200249
  144         os      5    bbb     O1    144 -0.20025300  16.000000   ; qtot -0.000004
; residue    6 bbb rtp bbb q -0.0
  145         n3      6    bbb     N1    145 -0.59685800  14.010000   ; qtot -0.596862
  146         c3      6    bbb     C1    146 0.10137000  12.010000   ; qtot -0.495492
  147         h1      6    bbb     H1    147 0.04411300   1.008000   ; qtot -0.451379
  148         h1      6    bbb     H2    148 0.04411300   1.008000   ; qtot -0.407266
  149         c3      6    bbb     C2    149 0.10137000  12.010000   ; qtot -0.305896
  150         h1      6    bbb     H3    150 0.04411300   1.008000   ; qtot -0.261783
  151         h1      6    bbb     H4    151 0.04411300   1.008000   ; qtot -0.217670
  152         c3      6    bbb     C3    152 -0.00195300  12.010000   ; qtot -0.219623
  153         h1      6    bbb     H5    153 0.05064400   1.008000   ; qtot -0.168979
  154         h1      6    bbb     H6    154 0.05064400   1.008000   ; qtot -0.118335
  155         c3      6    bbb     C4    155 -0.01612100  12.010000   ; qtot -0.134456
  156         hc      6    bbb     H7    156 0.04936100   1.008000   ; qtot -0.085095
  157         hc      6    bbb     H8    157 0.04936100   1.008000   ; qtot -0.035734
  158         c3      6    bbb     C5    158 0.11363000  12.010000   ; qtot 0.077896
  159         hc      6    bbb     H9    159 0.06265900   1.008000   ; qtot 0.140555
  160         hc      6    bbb    H10    160 0.06265900   1.008000   ; qtot 0.203214
  161         c3      6    bbb     C6    161 0.11363000  12.010000   ; qtot 0.316844
  162         hc      6    bbb    H11    162 0.06265900   1.008000   ; qtot 0.379503
  163         hc      6    bbb    H12    163 0.06265900   1.008000   ; qtot 0.442162
  164         c3      6    bbb     C7    164 0.05858200  12.010000   ; qtot 0.500744
  165         h1      6    bbb    H13    165 0.06123400   1.008000   ; qtot 0.561978
  166         h1      6    bbb    H14    166 0.06123400   1.008000   ; qtot 0.623212
  167         c3      6    bbb     C8    167 -0.72423400  12.010000   ; qtot -0.101022
  168         h1      6    bbb    H15    168 0.25637600   1.008000   ; qtot 0.155354
  169         h1      6    bbb    H16    169 0.25637600   1.008000   ; qtot 0.411730
  170         c3      6    bbb     C9    170 -0.72423400  12.010000   ; qtot -0.312504
  171         h1      6    bbb    H17    171 0.25637600   1.008000   ; qtot -0.056128
  172         h1      6    bbb    H18    172 0.25637600   1.008000   ; qtot 0.200248
  173         os      6    bbb     O1    173 -0.20025300  16.000000   ; qtot -0.000005
; residue    7 bbb rtp bbb q -0.0
  174         n3      7    bbb     N1    174 -0.59685800  14.010000   ; qtot -0.596863
  175         c3      7    bbb     C1    175 0.10137000  12.010000   ; qtot -0.495493
  176         h1      7    bbb     H1    176 0.04411300   1.008000   ; qtot -0.451380
  177         h1      7    bbb     H2    177 0.04411300   1.008000   ; qtot -0.407267
  178         c3      7    bbb     C2    178 0.10137000  12.010000   ; qtot -0.305897
  179         h1      7    bbb     H3    179 0.04411300   1.008000   ; qtot -0.261784
  180         h1      7    bbb     H4    180 0.04411300   1.008000   ; qtot -0.217671
  181         c3      7    bbb     C3    181 -0.00195300  12.010000   ; qtot -0.219624
  182         h1      7    bbb     H5    182 0.05064400   1.008000   ; qtot -0.168980
  183         h1      7    bbb     H6    183 0.05064400   1.008000   ; qtot -0.118336
  184         c3      7    bbb     C4    184 -0.01612100  12.010000   ; qtot -0.134457
  185         hc      7    bbb     H7    185 0.04936100   1.008000   ; qtot -0.085096
  186         hc      7    bbb     H8    186 0.04936100   1.008000   ; qtot -0.035735
  187         c3      7    bbb     C5    187 0.11363000  12.010000   ; qtot 0.077895
  188         hc      7    bbb     H9    188 0.06265900   1.008000   ; qtot 0.140554
  189         hc      7    bbb    H10    189 0.06265900   1.008000   ; qtot 0.203213
  190         c3      7    bbb     C6    190 0.11363000  12.010000   ; qtot 0.316843
  191         hc      7    bbb    H11    191 0.06265900   1.008000   ; qtot 0.379502
  192         hc      7    bbb    H12    192 0.06265900   1.008000   ; qtot 0.442161
  193         c3      7    bbb     C7    193 0.05858200  12.010000   ; qtot 0.500743
  194         h1      7    bbb    H13    194 0.06123400   1.008000   ; qtot 0.561977
  195         h1      7    bbb    H14    195 0.06123400   1.008000   ; qtot 0.623211
  196         c3      7    bbb     C8    196 -0.72423400  12.010000   ; qtot -0.101023
  197         h1      7    bbb    H15    197 0.25637600   1.008000   ; qtot 0.155353
  198         h1      7    bbb    H16    198 0.25637600   1.008000   ; qtot 0.411729
  199         c3      7    bbb     C9    199 -0.72423400  12.010000   ; qtot -0.312505
  200         h1      7    bbb    H17    200 0.25637600   1.008000   ; qtot -0.056129
  201         h1      7    bbb    H18    201 0.25637600   1.008000   ; qtot 0.200247
  202         os      7    bbb     O1    202 -0.20025300  16.000000   ; qtot -0.000006
; residue    8 bbb rtp bbb q -0.0
  203         n3      8    bbb     N1    203 -0.59685800  14.010000   ; qtot -0.596864
  204         c3      8    bbb     C1    204 0.10137000  12.010000   ; qtot -0.495494
  205         h1      8    bbb     H1    205 0.04411300   1.008000   ; qtot -0.451381
  206         h1      8    bbb     H2    206 0.04411300   1.008000   ; qtot -0.407268
  207         c3      8    bbb     C2    207 0.10137000  12.010000   ; qtot -0.305898
  208         h1      8    bbb     H3    208 0.04411300   1.008000   ; qtot -0.261785
  209         h1      8    bbb     H4    209 0.04411300   1.008000   ; qtot -0.217672
  210         c3      8    bbb     C3    210 -0.00195300  12.010000   ; qtot -0.219625
  211         h1      8    bbb     H5    211 0.05064400   1.008000   ; qtot -0.168981
  212         h1      8    bbb     H6    212 0.05064400   1.008000   ; qtot -0.118337
  213         c3      8    bbb     C4    213 -0.01612100  12.010000   ; qtot -0.134458
  214         hc      8    bbb     H7    214 0.04936100   1.008000   ; qtot -0.085097
  215         hc      8    bbb     H8    215 0.04936100   1.008000   ; qtot -0.035736
  216         c3      8    bbb     C5    216 0.11363000  12.010000   ; qtot 0.077894
  217         hc      8    bbb     H9    217 0.06265900   1.008000   ; qtot 0.140553
  218         hc      8    bbb    H10    218 0.06265900   1.008000   ; qtot 0.203212
  219         c3      8    bbb     C6    219 0.11363000  12.010000   ; qtot 0.316842
  220         hc      8    bbb    H11    220 0.06265900   1.008000   ; qtot 0.379501
  221         hc      8    bbb    H12    221 0.06265900   1.008000   ; qtot 0.442160
  222         c3      8    bbb     C7    222 0.05858200  12.010000   ; qtot 0.500742
  223         h1      8    bbb    H13    223 0.06123400   1.008000   ; qtot 0.561976
  224         h1      8    bbb    H14    224 0.06123400   1.008000   ; qtot 0.623210
  225         c3      8    bbb     C8    225 -0.72423400  12.010000   ; qtot -0.101024
  226         h1      8    bbb    H15    226 0.25637600   1.008000   ; qtot 0.155352
  227         h1      8    bbb    H16    227 0.25637600   1.008000   ; qtot 0.411728
  228         c3      8    bbb     C9    228 -0.72423400  12.010000   ; qtot -0.312506
  229         h1      8    bbb    H17    229 0.25637600   1.008000   ; qtot -0.056130
  230         h1      8    bbb    H18    230 0.25637600   1.008000   ; qtot 0.200246
  231         os      8    bbb     O1    231 -0.20025300  16.000000   ; qtot -0.000007
; residue    9 bbb rtp bbb q -0.0
  232         n3      9    bbb     N1    232 -0.59685800  14.010000   ; qtot -0.596865
  233         c3      9    bbb     C1    233 0.10137000  12.010000   ; qtot -0.495495
  234         h1      9    bbb     H1    234 0.04411300   1.008000   ; qtot -0.451382
  235         h1      9    bbb     H2    235 0.04411300   1.008000   ; qtot -0.407269
  236         c3      9    bbb     C2    236 0.10137000  12.010000   ; qtot -0.305899
  237         h1      9    bbb     H3    237 0.04411300   1.008000   ; qtot -0.261786
  238         h1      9    bbb     H4    238 0.04411300   1.008000   ; qtot -0.217673
  239         c3      9    bbb     C3    239 -0.00195300  12.010000   ; qtot -0.219626
  240         h1      9    bbb     H5    240 0.05064400   1.008000   ; qtot -0.168982
  241         h1      9    bbb     H6    241 0.05064400   1.008000   ; qtot -0.118338
  242         c3      9    bbb     C4    242 -0.01612100  12.010000   ; qtot -0.134459
  243         hc      9    bbb     H7    243 0.04936100   1.008000   ; qtot -0.085098
  244         hc      9    bbb     H8    244 0.04936100   1.008000   ; qtot -0.035737
  245         c3      9    bbb     C5    245 0.11363000  12.010000   ; qtot 0.077893
  246         hc      9    bbb     H9    246 0.06265900   1.008000   ; qtot 0.140552
  247         hc      9    bbb    H10    247 0.06265900   1.008000   ; qtot 0.203211
  248         c3      9    bbb     C6    248 0.11363000  12.010000   ; qtot 0.316841
  249         hc      9    bbb    H11    249 0.06265900   1.008000   ; qtot 0.379500
  250         hc      9    bbb    H12    250 0.06265900   1.008000   ; qtot 0.442159
  251         c3      9    bbb     C7    251 0.05858200  12.010000   ; qtot 0.500741
  252         h1      9    bbb    H13    252 0.06123400   1.008000   ; qtot 0.561975
  253         h1      9    bbb    H14    253 0.06123400   1.008000   ; qtot 0.623209
  254         c3      9    bbb     C8    254 -0.72423400  12.010000   ; qtot -0.101025
  255         h1      9    bbb    H15    255 0.25637600   1.008000   ; qtot 0.155351
  256         h1      9    bbb    H16    256 0.25637600   1.008000   ; qtot 0.411727
  257         c3      9    bbb     C9    257 -0.72423400  12.010000   ; qtot -0.312507
  258         h1      9    bbb    H17    258 0.25637600   1.008000   ; qtot -0.056131
  259         h1      9    bbb    H18    259 0.25637600   1.008000   ; qtot 0.200245
  260         os      9    bbb     O1    260 -0.20025300  16.000000   ; qtot -0.000008
; residue   10 bbb rtp bbb q -0.0
  261         n3     10    bbb     N1    261 -0.59685800  14.010000   ; qtot -0.596866
  262         c3     10    bbb     C1    262 0.10137000  12.010000   ; qtot -0.495496
  263         h1     10    bbb     H1    263 0.04411300   1.008000   ; qtot -0.451383
  264         h1     10    bbb     H2    264 0.04411300   1.008000   ; qtot -0.407270
  265         c3     10    bbb     C2    265 0.10137000  12.010000   ; qtot -0.305900
  266         h1     10    bbb     H3    266 0.04411300   1.008000   ; qtot -0.261787
  267         h1     10    bbb     H4    267 0.04411300   1.008000   ; qtot -0.217674
  268         c3     10    bbb     C3    268 -0.00195300  12.010000   ; qtot -0.219627
  269         h1     10    bbb     H5    269 0.05064400   1.008000   ; qtot -0.168983
  270         h1     10    bbb     H6    270 0.05064400   1.008000   ; qtot -0.118339
  271         c3     10    bbb     C4    271 -0.01612100  12.010000   ; qtot -0.134460
  272         hc     10    bbb     H7    272 0.04936100   1.008000   ; qtot -0.085099
  273         hc     10    bbb     H8    273 0.04936100   1.008000   ; qtot -0.035738
  274         c3     10    bbb     C5    274 0.11363000  12.010000   ; qtot 0.077892
  275         hc     10    bbb     H9    275 0.06265900   1.008000   ; qtot 0.140551
  276         hc     10    bbb    H10    276 0.06265900   1.008000   ; qtot 0.203210
  277         c3     10    bbb     C6    277 0.11363000  12.010000   ; qtot 0.316840
  278         hc     10    bbb    H11    278 0.06265900   1.008000   ; qtot 0.379499
  279         hc     10    bbb    H12    279 0.06265900   1.008000   ; qtot 0.442158
  280         c3     10    bbb     C7    280 0.05858200  12.010000   ; qtot 0.500740
  281         h1     10    bbb    H13    281 0.06123400   1.008000   ; qtot 0.561974
  282         h1     10    bbb    H14    282 0.06123400   1.008000   ; qtot 0.623208
  283         c3     10    bbb     C8    283 -0.72423400  12.010000   ; qtot -0.101026
  284         h1     10    bbb    H15    284 0.25637600   1.008000   ; qtot 0.155350
  285         h1     10    bbb    H16    285 0.25637600   1.008000   ; qtot 0.411726
  286         c3     10    bbb     C9    286 -0.72423400  12.010000   ; qtot -0.312508
  287         h1     10    bbb    H17    287 0.25637600   1.008000   ; qtot -0.056132
  288         h1     10    bbb    H18    288 0.25637600   1.008000   ; qtot 0.200244
  289         os     10    bbb     O1    289 -0.20025300  16.000000   ; qtot -0.000009
; residue   11 bbb rtp bbb q -0.0
  290         n3     11    bbb     N1    290 -0.59685800  14.010000   ; qtot -0.596867
  291         c3     11    bbb     C1    291 0.10137000  12.010000   ; qtot -0.495497
  292         h1     11    bbb     H1    292 0.04411300   1.008000   ; qtot -0.451384
  293         h1     11    bbb     H2    293 0.04411300   1.008000   ; qtot -0.407271
  294         c3     11    bbb     C2    294 0.10137000  12.010000   ; qtot -0.305901
  295         h1     11    bbb     H3    295 0.04411300   1.008000   ; qtot -0.261788
  296         h1     11    bbb     H4    296 0.04411300   1.008000   ; qtot -0.217675
  297         c3     11    bbb     C3    297 -0.00195300  12.010000   ; qtot -0.219628
  298         h1     11    bbb     H5    298 0.05064400   1.008000   ; qtot -0.168984
  299         h1     11    bbb     H6    299 0.05064400   1.008000   ; qtot -0.118340
  300         c3     11    bbb     C4    300 -0.01612100  12.010000   ; qtot -0.134461
  301         hc     11    bbb     H7    301 0.04936100   1.008000   ; qtot -0.085100
  302         hc     11    bbb     H8    302 0.04936100   1.008000   ; qtot -0.035739
  303         c3     11    bbb     C5    303 0.11363000  12.010000   ; qtot 0.077891
  304         hc     11    bbb     H9    304 0.06265900   1.008000   ; qtot 0.140550
  305         hc     11    bbb    H10    305 0.06265900   1.008000   ; qtot 0.203209
  306         c3     11    bbb     C6    306 0.11363000  12.010000   ; qtot 0.316839
  307         hc     11    bbb    H11    307 0.06265900   1.008000   ; qtot 0.379498
  308         hc     11    bbb    H12    308 0.06265900   1.008000   ; qtot 0.442157
  309         c3     11    bbb     C7    309 0.05858200  12.010000   ; qtot 0.500739
  310         h1     11    bbb    H13    310 0.06123400   1.008000   ; qtot 0.561973
  311         h1     11    bbb    H14    311 0.06123400   1.008000   ; qtot 0.623207
  312         c3     11    bbb     C8    312 -0.72423400  12.010000   ; qtot -0.101027
  313         h1     11    bbb    H15    313 0.25637600   1.008000   ; qtot 0.155349
  314         h1     11    bbb    H16    314 0.25637600   1.008000   ; qtot 0.411725
  315         c3     11    bbb     C9    315 -0.72423400  12.010000   ; qtot -0.312509
  316         h1     11    bbb    H17    316 0.25637600   1.008000   ; qtot -0.056133
  317         h1     11    bbb    H18    317 0.25637600   1.008000   ; qtot 0.200243
  318         os     11    bbb     O1    318 -0.20025300  16.000000   ; qtot -0.000010
; residue   12 bbb rtp bbb q -0.0
  319         n3     12    bbb     N1    319 -0.59685800  14.010000   ; qtot -0.596868
  320         c3     12    bbb     C1    320 0.10137000  12.010000   ; qtot -0.495498
  321         h1     12    bbb     H1    321 0.04411300   1.008000   ; qtot -0.451385
  322         h1     12    bbb     H2    322 0.04411300   1.008000   ; qtot -0.407272
  323         c3     12    bbb     C2    323 0.10137000  12.010000   ; qtot -0.305902
  324         h1     12    bbb     H3    324 0.04411300   1.008000   ; qtot -0.261789
  325         h1     12    bbb     H4    325 0.04411300   1.008000   ; qtot -0.217676
  326         c3     12    bbb     C3    326 -0.00195300  12.010000   ; qtot -0.219629
  327         h1     12    bbb     H5    327 0.05064400   1.008000   ; qtot -0.168985
  328         h1     12    bbb     H6    328 0.05064400   1.008000   ; qtot -0.118341
  329         c3     12    bbb     C4    329 -0.01612100  12.010000   ; qtot -0.134462
  330         hc     12    bbb     H7    330 0.04936100   1.008000   ; qtot -0.085101
  331         hc     12    bbb     H8    331 0.04936100   1.008000   ; qtot -0.035740
  332         c3     12    bbb     C5    332 0.11363000  12.010000   ; qtot 0.077890
  333         hc     12    bbb     H9    333 0.06265900   1.008000   ; qtot 0.140549
  334         hc     12    bbb    H10    334 0.06265900   1.008000   ; qtot 0.203208
  335         c3     12    bbb     C6    335 0.11363000  12.010000   ; qtot 0.316838
  336         hc     12    bbb    H11    336 0.06265900   1.008000   ; qtot 0.379497
  337         hc     12    bbb    H12    337 0.06265900   1.008000   ; qtot 0.442156
  338         c3     12    bbb     C7    338 0.05858200  12.010000   ; qtot 0.500738
  339         h1     12    bbb    H13    339 0.06123400   1.008000   ; qtot 0.561972
  340         h1     12    bbb    H14    340 0.06123400   1.008000   ; qtot 0.623206
  341         c3     12    bbb     C8    341 -0.72423400  12.010000   ; qtot -0.101028
  342         h1     12    bbb    H15    342 0.25637600   1.008000   ; qtot 0.155348
  343         h1     12    bbb    H16    343 0.25637600   1.008000   ; qtot 0.411724
  344         c3     12    bbb     C9    344 -0.72423400  12.010000   ; qtot -0.312510
  345         h1     12    bbb    H17    345 0.25637600   1.008000   ; qtot -0.056134
  346         h1     12    bbb    H18    346 0.25637600   1.008000   ; qtot 0.200242
  347         os     12    bbb     O1    347 -0.20025300  16.000000   ; qtot -0.000011
; residue   13 bbb rtp bbb q -0.0
  348         n3     13    bbb     N1    348 -0.59685800  14.010000   ; qtot -0.596869
  349         c3     13    bbb     C1    349 0.10137000  12.010000   ; qtot -0.495499
  350         h1     13    bbb     H1    350 0.04411300   1.008000   ; qtot -0.451386
  351         h1     13    bbb     H2    351 0.04411300   1.008000   ; qtot -0.407273
  352         c3     13    bbb     C2    352 0.10137000  12.010000   ; qtot -0.305903
  353         h1     13    bbb     H3    353 0.04411300   1.008000   ; qtot -0.261790
  354         h1     13    bbb     H4    354 0.04411300   1.008000   ; qtot -0.217677
  355         c3     13    bbb     C3    355 -0.00195300  12.010000   ; qtot -0.219630
  356         h1     13    bbb     H5    356 0.05064400   1.008000   ; qtot -0.168986
  357         h1     13    bbb     H6    357 0.05064400   1.008000   ; qtot -0.118342
  358         c3     13    bbb     C4    358 -0.01612100  12.010000   ; qtot -0.134463
  359         hc     13    bbb     H7    359 0.04936100   1.008000   ; qtot -0.085102
  360         hc     13    bbb     H8    360 0.04936100   1.008000   ; qtot -0.035741
  361         c3     13    bbb     C5    361 0.11363000  12.010000   ; qtot 0.077889
  362         hc     13    bbb     H9    362 0.06265900   1.008000   ; qtot 0.140548
  363         hc     13    bbb    H10    363 0.06265900   1.008000   ; qtot 0.203207
  364         c3     13    bbb     C6    364 0.11363000  12.010000   ; qtot 0.316837
  365         hc     13    bbb    H11    365 0.06265900   1.008000   ; qtot 0.379496
  366         hc     13    bbb    H12    366 0.06265900   1.008000   ; qtot 0.442155
  367         c3     13    bbb     C7    367 0.05858200  12.010000   ; qtot 0.500737
  368         h1     13    bbb    H13    368 0.06123400   1.008000   ; qtot 0.561971
  369         h1     13    bbb    H14    369 0.06123400   1.008000   ; qtot 0.623205
  370         c3     13    bbb     C8    370 -0.72423400  12.010000   ; qtot -0.101029
  371         h1     13    bbb    H15    371 0.25637600   1.008000   ; qtot 0.155347
  372         h1     13    bbb    H16    372 0.25637600   1.008000   ; qtot 0.411723
  373         c3     13    bbb     C9    373 -0.72423400  12.010000   ; qtot -0.312511
  374         h1     13    bbb    H17    374 0.25637600   1.008000   ; qtot -0.056135
  375         h1     13    bbb    H18    375 0.25637600   1.008000   ; qtot 0.200241
  376         os     13    bbb     O1    376 -0.20025300  16.000000   ; qtot -0.000012
; residue   14 bbb rtp bbb q -0.0
  377         n3     14    bbb     N1    377 -0.59685800  14.010000   ; qtot -0.596870
  378         c3     14    bbb     C1    378 0.10137000  12.010000   ; qtot -0.495500
  379         h1     14    bbb     H1    379 0.04411300   1.008000   ; qtot -0.451387
  380         h1     14    bbb     H2    380 0.04411300   1.008000   ; qtot -0.407274
  381         c3     14    bbb     C2    381 0.10137000  12.010000   ; qtot -0.305904
  382         h1     14    bbb     H3    382 0.04411300   1.008000   ; qtot -0.261791
  383         h1     14    bbb     H4    383 0.04411300   1.008000   ; qtot -0.217678
  384         c3     14    bbb     C3    384 -0.00195300  12.010000   ; qtot -0.219631
  385         h1     14    bbb     H5    385 0.05064400   1.008000   ; qtot -0.168987
  386         h1     14    bbb     H6    386 0.05064400   1.008000   ; qtot -0.118343
  387         c3     14    bbb     C4    387 -0.01612100  12.010000   ; qtot -0.134464
  388         hc     14    bbb     H7    388 0.04936100   1.008000   ; qtot -0.085103
  389         hc     14    bbb     H8    389 0.04936100   1.008000   ; qtot -0.035742
  390         c3     14    bbb     C5    390 0.11363000  12.010000   ; qtot 0.077888
  391         hc     14    bbb     H9    391 0.06265900   1.008000   ; qtot 0.140547
  392         hc     14    bbb    H10    392 0.06265900   1.008000   ; qtot 0.203206
  393         c3     14    bbb     C6    393 0.11363000  12.010000   ; qtot 0.316836
  394         hc     14    bbb    H11    394 0.06265900   1.008000   ; qtot 0.379495
  395         hc     14    bbb    H12    395 0.06265900   1.008000   ; qtot 0.442154
  396         c3     14    bbb     C7    396 0.05858200  12.010000   ; qtot 0.500736
  397         h1     14    bbb    H13    397 0.06123400   1.008000   ; qtot 0.561970
  398         h1     14    bbb    H14    398 0.06123400   1.008000   ; qtot 0.623204
  399         c3     14    bbb     C8    399 -0.72423400  12.010000   ; qtot -0.101030
  400         h1     14    bbb    H15    400 0.25637600   1.008000   ; qtot 0.155346
  401         h1     14    bbb    H16    401 0.25637600   1.008000   ; qtot 0.411722
  402         c3     14    bbb     C9    402 -0.72423400  12.010000   ; qtot -0.312512
  403         h1     14    bbb    H17    403 0.25637600   1.008000   ; qtot -0.056136
  404         h1     14    bbb    H18    404 0.25637600   1.008000   ; qtot 0.200240
  405         os     14    bbb     O1    405 -0.20025300  16.000000   ; qtot -0.000013
; residue   15 bbb rtp bbb q -0.0
  406         n3     15    bbb     N1    406 -0.59685800  14.010000   ; qtot -0.596871
  407         c3     15    bbb     C1    407 0.10137000  12.010000   ; qtot -0.495501
  408         h1     15    bbb     H1    408 0.04411300   1.008000   ; qtot -0.451388
  409         h1     15    bbb     H2    409 0.04411300   1.008000   ; qtot -0.407275
  410         c3     15    bbb     C2    410 0.10137000  12.010000   ; qtot -0.305905
  411         h1     15    bbb     H3    411 0.04411300   1.008000   ; qtot -0.261792
  412         h1     15    bbb     H4    412 0.04411300   1.008000   ; qtot -0.217679
  413         c3     15    bbb     C3    413 -0.00195300  12.010000   ; qtot -0.219632
  414         h1     15    bbb     H5    414 0.05064400   1.008000   ; qtot -0.168988
  415         h1     15    bbb     H6    415 0.05064400   1.008000   ; qtot -0.118344
  416         c3     15    bbb     C4    416 -0.01612100  12.010000   ; qtot -0.134465
  417         hc     15    bbb     H7    417 0.04936100   1.008000   ; qtot -0.085104
  418         hc     15    bbb     H8    418 0.04936100   1.008000   ; qtot -0.035743
  419         c3     15    bbb     C5    419 0.11363000  12.010000   ; qtot 0.077887
  420         hc     15    bbb     H9    420 0.06265900   1.008000   ; qtot 0.140546
  421         hc     15    bbb    H10    421 0.06265900   1.008000   ; qtot 0.203205
  422         c3     15    bbb     C6    422 0.11363000  12.010000   ; qtot 0.316835
  423         hc     15    bbb    H11    423 0.06265900   1.008000   ; qtot 0.379494
  424         hc     15    bbb    H12    424 0.06265900   1.008000   ; qtot 0.442153
  425         c3     15    bbb     C7    425 0.05858200  12.010000   ; qtot 0.500735
  426         h1     15    bbb    H13    426 0.06123400   1.008000   ; qtot 0.561969
  427         h1     15    bbb    H14    427 0.06123400   1.008000   ; qtot 0.623203
  428         c3     15    bbb     C8    428 -0.72423400  12.010000   ; qtot -0.101031
  429         h1     15    bbb    H15    429 0.25637600   1.008000   ; qtot 0.155345
  430         h1     15    bbb    H16    430 0.25637600   1.008000   ; qtot 0.411721
  431         c3     15    bbb     C9    431 -0.72423400  12.010000   ; qtot -0.312513
  432         h1     15    bbb    H17    432 0.25637600   1.008000   ; qtot -0.056137
  433         h1     15    bbb    H18    433 0.25637600   1.008000   ; qtot 0.200239
  434         os     15    bbb     O1    434 -0.20025300  16.000000   ; qtot -0.000014
; residue   16 bbb rtp bbb q -0.0
  435         n3     16    bbb     N1    435 -0.59685800  14.010000   ; qtot -0.596872
  436         c3     16    bbb     C1    436 0.10137000  12.010000   ; qtot -0.495502
  437         h1     16    bbb     H1    437 0.04411300   1.008000   ; qtot -0.451389
  438         h1     16    bbb     H2    438 0.04411300   1.008000   ; qtot -0.407276
  439         c3     16    bbb     C2    439 0.10137000  12.010000   ; qtot -0.305906
  440         h1     16    bbb     H3    440 0.04411300   1.008000   ; qtot -0.261793
  441         h1     16    bbb     H4    441 0.04411300   1.008000   ; qtot -0.217680
  442         c3     16    bbb     C3    442 -0.00195300  12.010000   ; qtot -0.219633
  443         h1     16    bbb     H5    443 0.05064400   1.008000   ; qtot -0.168989
  444         h1     16    bbb     H6    444 0.05064400   1.008000   ; qtot -0.118345
  445         c3     16    bbb     C4    445 -0.01612100  12.010000   ; qtot -0.134466
  446         hc     16    bbb     H7    446 0.04936100   1.008000   ; qtot -0.085105
  447         hc     16    bbb     H8    447 0.04936100   1.008000   ; qtot -0.035744
  448         c3     16    bbb     C5    448 0.11363000  12.010000   ; qtot 0.077886
  449         hc     16    bbb     H9    449 0.06265900   1.008000   ; qtot 0.140545
  450         hc     16    bbb    H10    450 0.06265900   1.008000   ; qtot 0.203204
  451         c3     16    bbb     C6    451 0.11363000  12.010000   ; qtot 0.316834
  452         hc     16    bbb    H11    452 0.06265900   1.008000   ; qtot 0.379493
  453         hc     16    bbb    H12    453 0.06265900   1.008000   ; qtot 0.442152
  454         c3     16    bbb     C7    454 0.05858200  12.010000   ; qtot 0.500734
  455         h1     16    bbb    H13    455 0.06123400   1.008000   ; qtot 0.561968
  456         h1     16    bbb    H14    456 0.06123400   1.008000   ; qtot 0.623202
  457         c3     16    bbb     C8    457 -0.72423400  12.010000   ; qtot -0.101032
  458         h1     16    bbb    H15    458 0.25637600   1.008000   ; qtot 0.155344
  459         h1     16    bbb    H16    459 0.25637600   1.008000   ; qtot 0.411720
  460         c3     16    bbb     C9    460 -0.72423400  12.010000   ; qtot -0.312514
  461         h1     16    bbb    H17    461 0.25637600   1.008000   ; qtot -0.056138
  462         h1     16    bbb    H18    462 0.25637600   1.008000   ; qtot 0.200238
  463         os     16    bbb     O1    463 -0.20025300  16.000000   ; qtot -0.000015
; residue   17 bbb rtp bbb q -0.0
  464         n3     17    bbb     N1    464 -0.59685800  14.010000   ; qtot -0.596873
  465         c3     17    bbb     C1    465 0.10137000  12.010000   ; qtot -0.495503
  466         h1     17    bbb     H1    466 0.04411300   1.008000   ; qtot -0.451390
  467         h1     17    bbb     H2    467 0.04411300   1.008000   ; qtot -0.407277
  468         c3     17    bbb     C2    468 0.10137000  12.010000   ; qtot -0.305907
  469         h1     17    bbb     H3    469 0.04411300   1.008000   ; qtot -0.261794
  470         h1     17    bbb     H4    470 0.04411300   1.008000   ; qtot -0.217681
  471         c3     17    bbb     C3    471 -0.00195300  12.010000   ; qtot -0.219634
  472         h1     17    bbb     H5    472 0.05064400   1.008000   ; qtot -0.168990
  473         h1     17    bbb     H6    473 0.05064400   1.008000   ; qtot -0.118346
  474         c3     17    bbb     C4    474 -0.01612100  12.010000   ; qtot -0.134467
  475         hc     17    bbb     H7    475 0.04936100   1.008000   ; qtot -0.085106
  476         hc     17    bbb     H8    476 0.04936100   1.008000   ; qtot -0.035745
  477         c3     17    bbb     C5    477 0.11363000  12.010000   ; qtot 0.077885
  478         hc     17    bbb     H9    478 0.06265900   1.008000   ; qtot 0.140544
  479         hc     17    bbb    H10    479 0.06265900   1.008000   ; qtot 0.203203
  480         c3     17    bbb     C6    480 0.11363000  12.010000   ; qtot 0.316833
  481         hc     17    bbb    H11    481 0.06265900   1.008000   ; qtot 0.379492
  482         hc     17    bbb    H12    482 0.06265900   1.008000   ; qtot 0.442151
  483         c3     17    bbb     C7    483 0.05858200  12.010000   ; qtot 0.500733
  484         h1     17    bbb    H13    484 0.06123400   1.008000   ; qtot 0.561967
  485         h1     17    bbb    H14    485 0.06123400   1.008000   ; qtot 0.623201
  486         c3     17    bbb     C8    486 -0.72423400  12.010000   ; qtot -0.101033
  487         h1     17    bbb    H15    487 0.25637600   1.008000   ; qtot 0.155343
  488         h1     17    bbb    H16    488 0.25637600   1.008000   ; qtot 0.411719
  489         c3     17    bbb     C9    489 -0.72423400  12.010000   ; qtot -0.312515
  490         h1     17    bbb    H17    490 0.25637600   1.008000   ; qtot -0.056139
  491         h1     17    bbb    H18    491 0.25637600   1.008000   ; qtot 0.200237
  492         os     17    bbb     O1    492 -0.20025300  16.000000   ; qtot -0.000016
; residue   18 bbb rtp bbb q -0.0
  493         n3     18    bbb     N1    493 -0.59685800  14.010000   ; qtot -0.596874
  494         c3     18    bbb     C1    494 0.10137000  12.010000   ; qtot -0.495504
  495         h1     18    bbb     H1    495 0.04411300   1.008000   ; qtot -0.451391
  496         h1     18    bbb     H2    496 0.04411300   1.008000   ; qtot -0.407278
  497         c3     18    bbb     C2    497 0.10137000  12.010000   ; qtot -0.305908
  498         h1     18    bbb     H3    498 0.04411300   1.008000   ; qtot -0.261795
  499         h1     18    bbb     H4    499 0.04411300   1.008000   ; qtot -0.217682
  500         c3     18    bbb     C3    500 -0.00195300  12.010000   ; qtot -0.219635
  501         h1     18    bbb     H5    501 0.05064400   1.008000   ; qtot -0.168991
  502         h1     18    bbb     H6    502 0.05064400   1.008000   ; qtot -0.118347
  503         c3     18    bbb     C4    503 -0.01612100  12.010000   ; qtot -0.134468
  504         hc     18    bbb     H7    504 0.04936100   1.008000   ; qtot -0.085107
  505         hc     18    bbb     H8    505 0.04936100   1.008000   ; qtot -0.035746
  506         c3     18    bbb     C5    506 0.11363000  12.010000   ; qtot 0.077884
  507         hc     18    bbb     H9    507 0.06265900   1.008000   ; qtot 0.140543
  508         hc     18    bbb    H10    508 0.06265900   1.008000   ; qtot 0.203202
  509         c3     18    bbb     C6    509 0.11363000  12.010000   ; qtot 0.316832
  510         hc     18    bbb    H11    510 0.06265900   1.008000   ; qtot 0.379491
  511         hc     18    bbb    H12    511 0.06265900   1.008000   ; qtot 0.442150
  512         c3     18    bbb     C7    512 0.05858200  12.010000   ; qtot 0.500732
  513         h1     18    bbb    H13    513 0.06123400   1.008000   ; qtot 0.561966
  514         h1     18    bbb    H14    514 0.06123400   1.008000   ; qtot 0.623200
  515         c3     18    bbb     C8    515 -0.72423400  12.010000   ; qtot -0.101034
  516         h1     18    bbb    H15    516 0.25637600   1.008000   ; qtot 0.155342
  517         h1     18    bbb    H16    517 0.25637600   1.008000   ; qtot 0.411718
  518         c3     18    bbb     C9    518 -0.72423400  12.010000   ; qtot -0.312516
  519         h1     18    bbb    H17    519 0.25637600   1.008000   ; qtot -0.056140
  520         h1     18    bbb    H18    520 0.25637600   1.008000   ; qtot 0.200236
  521         os     18    bbb     O1    521 -0.20025300  16.000000   ; qtot -0.000017
; residue   19 bbb rtp bbb q -0.0
  522         n3     19    bbb     N1    522 -0.59685800  14.010000   ; qtot -0.596875
  523         c3     19    bbb     C1    523 0.10137000  12.010000   ; qtot -0.495505
  524         h1     19    bbb     H1    524 0.04411300   1.008000   ; qtot -0.451392
  525         h1     19    bbb     H2    525 0.04411300   1.008000   ; qtot -0.407279
  526         c3     19    bbb     C2    526 0.10137000  12.010000   ; qtot -0.305909
  527         h1     19    bbb     H3    527 0.04411300   1.008000   ; qtot -0.261796
  528         h1     19    bbb     H4    528 0.04411300   1.008000   ; qtot -0.217683
  529         c3     19    bbb     C3    529 -0.00195300  12.010000   ; qtot -0.219636
  530         h1     19    bbb     H5    530 0.05064400   1.008000   ; qtot -0.168992
  531         h1     19    bbb     H6    531 0.05064400   1.008000   ; qtot -0.118348
  532         c3     19    bbb     C4    532 -0.01612100  12.010000   ; qtot -0.134469
  533         hc     19    bbb     H7    533 0.04936100   1.008000   ; qtot -0.085108
  534         hc     19    bbb     H8    534 0.04936100   1.008000   ; qtot -0.035747
  535         c3     19    bbb     C5    535 0.11363000  12.010000   ; qtot 0.077883
  536         hc     19    bbb     H9    536 0.06265900   1.008000   ; qtot 0.140542
  537         hc     19    bbb    H10    537 0.06265900   1.008000   ; qtot 0.203201
  538         c3     19    bbb     C6    538 0.11363000  12.010000   ; qtot 0.316831
  539         hc     19    bbb    H11    539 0.06265900   1.008000   ; qtot 0.379490
  540         hc     19    bbb    H12    540 0.06265900   1.008000   ; qtot 0.442149
  541         c3     19    bbb     C7    541 0.05858200  12.010000   ; qtot 0.500731
  542         h1     19    bbb    H13    542 0.06123400   1.008000   ; qtot 0.561965
  543         h1     19    bbb    H14    543 0.06123400   1.008000   ; qtot 0.623199
  544         c3     19    bbb     C8    544 -0.72423400  12.010000   ; qtot -0.101035
  545         h1     19    bbb    H15    545 0.25637600   1.008000   ; qtot 0.155341
  546         h1     19    bbb    H16    546 0.25637600   1.008000   ; qtot 0.411717
  547         c3     19    bbb     C9    547 -0.72423400  12.010000   ; qtot -0.312517
  548         h1     19    bbb    H17    548 0.25637600   1.008000   ; qtot -0.056141
  549         h1     19    bbb    H18    549 0.25637600   1.008000   ; qtot 0.200235
  550         os     19    bbb     O1    550 -0.20025300  16.000000   ; qtot -0.000018
; residue   20 bbb rtp bbb q -0.0
  551         n3     20    bbb     N1    551 -0.59685800  14.010000   ; qtot -0.596876
  552         c3     20    bbb     C1    552 0.10137000  12.010000   ; qtot -0.495506
  553         h1     20    bbb     H1    553 0.04411300   1.008000   ; qtot -0.451393
  554         h1     20    bbb     H2    554 0.04411300   1.008000   ; qtot -0.407280
  555         c3     20    bbb     C2    555 0.10137000  12.010000   ; qtot -0.305910
  556         h1     20    bbb     H3    556 0.04411300   1.008000   ; qtot -0.261797
  557         h1     20    bbb     H4    557 0.04411300   1.008000   ; qtot -0.217684
  558         c3     20    bbb     C3    558 -0.00195300  12.010000   ; qtot -0.219637
  559         h1     20    bbb     H5    559 0.05064400   1.008000   ; qtot -0.168993
  560         h1     20    bbb     H6    560 0.05064400   1.008000   ; qtot -0.118349
  561         c3     20    bbb     C4    561 -0.01612100  12.010000   ; qtot -0.134470
  562         hc     20    bbb     H7    562 0.04936100   1.008000   ; qtot -0.085109
  563         hc     20    bbb     H8    563 0.04936100   1.008000   ; qtot -0.035748
  564         c3     20    bbb     C5    564 0.11363000  12.010000   ; qtot 0.077882
  565         hc     20    bbb     H9    565 0.06265900   1.008000   ; qtot 0.140541
  566         hc     20    bbb    H10    566 0.06265900   1.008000   ; qtot 0.203200
  567         c3     20    bbb     C6    567 0.11363000  12.010000   ; qtot 0.316830
  568         hc     20    bbb    H11    568 0.06265900   1.008000   ; qtot 0.379489
  569         hc     20    bbb    H12    569 0.06265900   1.008000   ; qtot 0.442148
  570         c3     20    bbb     C7    570 0.05858200  12.010000   ; qtot 0.500730
  571         h1     20    bbb    H13    571 0.06123400   1.008000   ; qtot 0.561964
  572         h1     20    bbb    H14    572 0.06123400   1.008000   ; qtot 0.623198
  573         c3     20    bbb     C8    573 -0.72423400  12.010000   ; qtot -0.101036
  574         h1     20    bbb    H15    574 0.25637600   1.008000   ; qtot 0.155340
  575         h1     20    bbb    H16    575 0.25637600   1.008000   ; qtot 0.411716
  576         c3     20    bbb     C9    576 -0.72423400  12.010000   ; qtot -0.312518
  577         h1     20    bbb    H17    577 0.25637600   1.008000   ; qtot -0.056142
  578         h1     20    bbb    H18    578 0.25637600   1.008000   ; qtot 0.200234
  579         os     20    bbb     O1    579 -0.20025300  16.000000   ; qtot -0.000019
; residue   21 bbb rtp bbb q -0.0
  580         n3     21    bbb     N1    580 -0.59685800  14.010000   ; qtot -0.596877
  581         c3     21    bbb     C1    581 0.10137000  12.010000   ; qtot -0.495507
  582         h1     21    bbb     H1    582 0.04411300   1.008000   ; qtot -0.451394
  583         h1     21    bbb     H2    583 0.04411300   1.008000   ; qtot -0.407281
  584         c3     21    bbb     C2    584 0.10137000  12.010000   ; qtot -0.305911
  585         h1     21    bbb     H3    585 0.04411300   1.008000   ; qtot -0.261798
  586         h1     21    bbb     H4    586 0.04411300   1.008000   ; qtot -0.217685
  587         c3     21    bbb     C3    587 -0.00195300  12.010000   ; qtot -0.219638
  588         h1     21    bbb     H5    588 0.05064400   1.008000   ; qtot -0.168994
  589         h1     21    bbb     H6    589 0.05064400   1.008000   ; qtot -0.118350
  590         c3     21    bbb     C4    590 -0.01612100  12.010000   ; qtot -0.134471
  591         hc     21    bbb     H7    591 0.04936100   1.008000   ; qtot -0.085110
  592         hc     21    bbb     H8    592 0.04936100   1.008000   ; qtot -0.035749
  593         c3     21    bbb     C5    593 0.11363000  12.010000   ; qtot 0.077881
  594         hc     21    bbb     H9    594 0.06265900   1.008000   ; qtot 0.140540
  595         hc     21    bbb    H10    595 0.06265900   1.008000   ; qtot 0.203199
  596         c3     21    bbb     C6    596 0.11363000  12.010000   ; qtot 0.316829
  597         hc     21    bbb    H11    597 0.06265900   1.008000   ; qtot 0.379488
  598         hc     21    bbb    H12    598 0.06265900   1.008000   ; qtot 0.442147
  599         c3     21    bbb     C7    599 0.05858200  12.010000   ; qtot 0.500729
  600         h1     21    bbb    H13    600 0.06123400   1.008000   ; qtot 0.561963
  601         h1     21    bbb    H14    601 0.06123400   1.008000   ; qtot 0.623197
  602         c3     21    bbb     C8    602 -0.72423400  12.010000   ; qtot -0.101037
  603         h1     21    bbb    H15    603 0.25637600   1.008000   ; qtot 0.155339
  604         h1     21    bbb    H16    604 0.25637600   1.008000   ; qtot 0.411715
  605         c3     21    bbb     C9    605 -0.72423400  12.010000   ; qtot -0.312519
  606         h1     21    bbb    H17    606 0.25637600   1.008000   ; qtot -0.056143
  607         h1     21    bbb    H18    607 0.25637600   1.008000   ; qtot 0.200233
  608         os     21    bbb     O1    608 -0.20025300  16.000000   ; qtot -0.000020
; residue   22 bbb rtp bbb q -0.0
  609         n3     22    bbb     N1    609 -0.59685800  14.010000   ; qtot -0.596878
  610         c3     22    bbb     C1    610 0.10137000  12.010000   ; qtot -0.495508
  611         h1     22    bbb     H1    611 0.04411300   1.008000   ; qtot -0.451395
  612         h1     22    bbb     H2    612 0.04411300   1.008000   ; qtot -0.407282
  613         c3     22    bbb     C2    613 0.10137000  12.010000   ; qtot -0.305912
  614         h1     22    bbb     H3    614 0.04411300   1.008000   ; qtot -0.261799
  615         h1     22    bbb     H4    615 0.04411300   1.008000   ; qtot -0.217686
  616         c3     22    bbb     C3    616 -0.00195300  12.010000   ; qtot -0.219639
  617         h1     22    bbb     H5    617 0.05064400   1.008000   ; qtot -0.168995
  618         h1     22    bbb     H6    618 0.05064400   1.008000   ; qtot -0.118351
  619         c3     22    bbb     C4    619 -0.01612100  12.010000   ; qtot -0.134472
  620         hc     22    bbb     H7    620 0.04936100   1.008000   ; qtot -0.085111
  621         hc     22    bbb     H8    621 0.04936100   1.008000   ; qtot -0.035750
  622         c3     22    bbb     C5    622 0.11363000  12.010000   ; qtot 0.077880
  623         hc     22    bbb     H9    623 0.06265900   1.008000   ; qtot 0.140539
  624         hc     22    bbb    H10    624 0.06265900   1.008000   ; qtot 0.203198
  625         c3     22    bbb     C6    625 0.11363000  12.010000   ; qtot 0.316828
  626         hc     22    bbb    H11    626 0.06265900   1.008000   ; qtot 0.379487
  627         hc     22    bbb    H12    627 0.06265900   1.008000   ; qtot 0.442146
  628         c3     22    bbb     C7    628 0.05858200  12.010000   ; qtot 0.500728
  629         h1     22    bbb    H13    629 0.06123400   1.008000   ; qtot 0.561962
  630         h1     22    bbb    H14    630 0.06123400   1.008000   ; qtot 0.623196
  631         c3     22    bbb     C8    631 -0.72423400  12.010000   ; qtot -0.101038
  632         h1     22    bbb    H15    632 0.25637600   1.008000   ; qtot 0.155338
  633         h1     22    bbb    H16    633 0.25637600   1.008000   ; qtot 0.411714
  634         c3     22    bbb     C9    634 -0.72423400  12.010000   ; qtot -0.312520
  635         h1     22    bbb    H17    635 0.25637600   1.008000   ; qtot -0.056144
  636         h1     22    bbb    H18    636 0.25637600   1.008000   ; qtot 0.200232
  637         os     22    bbb     O1    637 -0.20025300  16.000000   ; qtot -0.000021
; residue   23 bbb rtp bbb q -0.0
  638         n3     23    bbb     N1    638 -0.59685800  14.010000   ; qtot -0.596879
  639         c3     23    bbb     C1    639 0.10137000  12.010000   ; qtot -0.495509
  640         h1     23    bbb     H1    640 0.04411300   1.008000   ; qtot -0.451396
  641         h1     23    bbb     H2    641 0.04411300   1.008000   ; qtot -0.407283
  642         c3     23    bbb     C2    642 0.10137000  12.010000   ; qtot -0.305913
  643         h1     23    bbb     H3    643 0.04411300   1.008000   ; qtot -0.261800
  644         h1     23    bbb     H4    644 0.04411300   1.008000   ; qtot -0.217687
  645         c3     23    bbb     C3    645 -0.00195300  12.010000   ; qtot -0.219640
  646         h1     23    bbb     H5    646 0.05064400   1.008000   ; qtot -0.168996
  647         h1     23    bbb     H6    647 0.05064400   1.008000   ; qtot -0.118352
  648         c3     23    bbb     C4    648 -0.01612100  12.010000   ; qtot -0.134473
  649         hc     23    bbb     H7    649 0.04936100   1.008000   ; qtot -0.085112
  650         hc     23    bbb     H8    650 0.04936100   1.008000   ; qtot -0.035751
  651         c3     23    bbb     C5    651 0.11363000  12.010000   ; qtot 0.077879
  652         hc     23    bbb     H9    652 0.06265900   1.008000   ; qtot 0.140538
  653         hc     23    bbb    H10    653 0.06265900   1.008000   ; qtot 0.203197
  654         c3     23    bbb     C6    654 0.11363000  12.010000   ; qtot 0.316827
  655         hc     23    bbb    H11    655 0.06265900   1.008000   ; qtot 0.379486
  656         hc     23    bbb    H12    656 0.06265900   1.008000   ; qtot 0.442145
  657         c3     23    bbb     C7    657 0.05858200  12.010000   ; qtot 0.500727
  658         h1     23    bbb    H13    658 0.06123400   1.008000   ; qtot 0.561961
  659         h1     23    bbb    H14    659 0.06123400   1.008000   ; qtot 0.623195
  660         c3     23    bbb     C8    660 -0.72423400  12.010000   ; qtot -0.101039
  661         h1     23    bbb    H15    661 0.25637600   1.008000   ; qtot 0.155337
  662         h1     23    bbb    H16    662 0.25637600   1.008000   ; qtot 0.411713
  663         c3     23    bbb     C9    663 -0.72423400  12.010000   ; qtot -0.312521
  664         h1     23    bbb    H17    664 0.25637600   1.008000   ; qtot -0.056145
  665         h1     23    bbb    H18    665 0.25637600   1.008000   ; qtot 0.200231
  666         os     23    bbb     O1    666 -0.20025300  16.000000   ; qtot -0.000022
; residue   24 bbb rtp bbb q -0.0
  667         n3     24    bbb     N1    667 -0.59685800  14.010000   ; qtot -0.596880
  668         c3     24    bbb     C1    668 0.10137000  12.010000   ; qtot -0.495510
  669         h1     24    bbb     H1    669 0.04411300   1.008000   ; qtot -0.451397
  670         h1     24    bbb     H2    670 0.04411300   1.008000   ; qtot -0.407284
  671         c3     24    bbb     C2    671 0.10137000  12.010000   ; qtot -0.305914
  672         h1     24    bbb     H3    672 0.04411300   1.008000   ; qtot -0.261801
  673         h1     24    bbb     H4    673 0.04411300   1.008000   ; qtot -0.217688
  674         c3     24    bbb     C3    674 -0.00195300  12.010000   ; qtot -0.219641
  675         h1     24    bbb     H5    675 0.05064400   1.008000   ; qtot -0.168997
  676         h1     24    bbb     H6    676 0.05064400   1.008000   ; qtot -0.118353
  677         c3     24    bbb     C4    677 -0.01612100  12.010000   ; qtot -0.134474
  678         hc     24    bbb     H7    678 0.04936100   1.008000   ; qtot -0.085113
  679         hc     24    bbb     H8    679 0.04936100   1.008000   ; qtot -0.035752
  680         c3     24    bbb     C5    680 0.11363000  12.010000   ; qtot 0.077878
  681         hc     24    bbb     H9    681 0.06265900   1.008000   ; qtot 0.140537
  682         hc     24    bbb    H10    682 0.06265900   1.008000   ; qtot 0.203196
  683         c3     24    bbb     C6    683 0.11363000  12.010000   ; qtot 0.316826
  684         hc     24    bbb    H11    684 0.06265900   1.008000   ; qtot 0.379485
  685         hc     24    bbb    H12    685 0.06265900   1.008000   ; qtot 0.442144
  686         c3     24    bbb     C7    686 0.05858200  12.010000   ; qtot 0.500726
  687         h1     24    bbb    H13    687 0.06123400   1.008000   ; qtot 0.561960
  688         h1     24    bbb    H14    688 0.06123400   1.008000   ; qtot 0.623194
  689         c3     24    bbb     C8    689 -0.72423400  12.010000   ; qtot -0.101040
  690         h1     24    bbb    H15    690 0.25637600   1.008000   ; qtot 0.155336
  691         h1     24    bbb    H16    691 0.25637600   1.008000   ; qtot 0.411712
  692         c3     24    bbb     C9    692 -0.72423400  12.010000   ; qtot -0.312522
  693         h1     24    bbb    H17    693 0.25637600   1.008000   ; qtot -0.056146
  694         h1     24    bbb    H18    694 0.25637600   1.008000   ; qtot 0.200230
  695         os     24    bbb     O1    695 -0.20025300  16.000000   ; qtot -0.000023
; residue   25 bbb rtp bbb q -0.0
  696         n3     25    bbb     N1    696 -0.59685800  14.010000   ; qtot -0.596881
  697         c3     25    bbb     C1    697 0.10137000  12.010000   ; qtot -0.495511
  698         h1     25    bbb     H1    698 0.04411300   1.008000   ; qtot -0.451398
  699         h1     25    bbb     H2    699 0.04411300   1.008000   ; qtot -0.407285
  700         c3     25    bbb     C2    700 0.10137000  12.010000   ; qtot -0.305915
  701         h1     25    bbb     H3    701 0.04411300   1.008000   ; qtot -0.261802
  702         h1     25    bbb     H4    702 0.04411300   1.008000   ; qtot -0.217689
  703         c3     25    bbb     C3    703 -0.00195300  12.010000   ; qtot -0.219642
  704         h1     25    bbb     H5    704 0.05064400   1.008000   ; qtot -0.168998
  705         h1     25    bbb     H6    705 0.05064400   1.008000   ; qtot -0.118354
  706         c3     25    bbb     C4    706 -0.01612100  12.010000   ; qtot -0.134475
  707         hc     25    bbb     H7    707 0.04936100   1.008000   ; qtot -0.085114
  708         hc     25    bbb     H8    708 0.04936100   1.008000   ; qtot -0.035753
  709         c3     25    bbb     C5    709 0.11363000  12.010000   ; qtot 0.077877
  710         hc     25    bbb     H9    710 0.06265900   1.008000   ; qtot 0.140536
  711         hc     25    bbb    H10    711 0.06265900   1.008000   ; qtot 0.203195
  712         c3     25    bbb     C6    712 0.11363000  12.010000   ; qtot 0.316825
  713         hc     25    bbb    H11    713 0.06265900   1.008000   ; qtot 0.379484
  714         hc     25    bbb    H12    714 0.06265900   1.008000   ; qtot 0.442143
  715         c3     25    bbb     C7    715 0.05858200  12.010000   ; qtot 0.500725
  716         h1     25    bbb    H13    716 0.06123400   1.008000   ; qtot 0.561959
  717         h1     25    bbb    H14    717 0.06123400   1.008000   ; qtot 0.623193
  718         c3     25    bbb     C8    718 -0.72423400  12.010000   ; qtot -0.101041
  719         h1     25    bbb    H15    719 0.25637600   1.008000   ; qtot 0.155335
  720         h1     25    bbb    H16    720 0.25637600   1.008000   ; qtot 0.411711
  721         c3     25    bbb     C9    721 -0.72423400  12.010000   ; qtot -0.312523
  722         h1     25    bbb    H17    722 0.25637600   1.008000   ; qtot -0.056147
  723         h1     25    bbb    H18    723 0.25637600   1.008000   ; qtot 0.200229
  724         os     25    bbb     O1    724 -0.20025300  16.000000   ; qtot -0.000024
; residue   26 bbb rtp bbb q -0.0
  725         n3     26    bbb     N1    725 -0.59685800  14.010000   ; qtot -0.596882
  726         c3     26    bbb     C1    726 0.10137000  12.010000   ; qtot -0.495512
  727         h1     26    bbb     H1    727 0.04411300   1.008000   ; qtot -0.451399
  728         h1     26    bbb     H2    728 0.04411300   1.008000   ; qtot -0.407286
  729         c3     26    bbb     C2    729 0.10137000  12.010000   ; qtot -0.305916
  730         h1     26    bbb     H3    730 0.04411300   1.008000   ; qtot -0.261803
  731         h1     26    bbb     H4    731 0.04411300   1.008000   ; qtot -0.217690
  732         c3     26    bbb     C3    732 -0.00195300  12.010000   ; qtot -0.219643
  733         h1     26    bbb     H5    733 0.05064400   1.008000   ; qtot -0.168999
  734         h1     26    bbb     H6    734 0.05064400   1.008000   ; qtot -0.118355
  735         c3     26    bbb     C4    735 -0.01612100  12.010000   ; qtot -0.134476
  736         hc     26    bbb     H7    736 0.04936100   1.008000   ; qtot -0.085115
  737         hc     26    bbb     H8    737 0.04936100   1.008000   ; qtot -0.035754
  738         c3     26    bbb     C5    738 0.11363000  12.010000   ; qtot 0.077876
  739         hc     26    bbb     H9    739 0.06265900   1.008000   ; qtot 0.140535
  740         hc     26    bbb    H10    740 0.06265900   1.008000   ; qtot 0.203194
  741         c3     26    bbb     C6    741 0.11363000  12.010000   ; qtot 0.316824
  742         hc     26    bbb    H11    742 0.06265900   1.008000   ; qtot 0.379483
  743         hc     26    bbb    H12    743 0.06265900   1.008000   ; qtot 0.442142
  744         c3     26    bbb     C7    744 0.05858200  12.010000   ; qtot 0.500724
  745         h1     26    bbb    H13    745 0.06123400   1.008000   ; qtot 0.561958
  746         h1     26    bbb    H14    746 0.06123400   1.008000   ; qtot 0.623192
  747         c3     26    bbb     C8    747 -0.72423400  12.010000   ; qtot -0.101042
  748         h1     26    bbb    H15    748 0.25637600   1.008000   ; qtot 0.155334
  749         h1     26    bbb    H16    749 0.25637600   1.008000   ; qtot 0.411710
  750         c3     26    bbb     C9    750 -0.72423400  12.010000   ; qtot -0.312524
  751         h1     26    bbb    H17    751 0.25637600   1.008000   ; qtot -0.056148
  752         h1     26    bbb    H18    752 0.25637600   1.008000   ; qtot 0.200228
  753         os     26    bbb     O1    753 -0.20025300  16.000000   ; qtot -0.000025
; residue   27 bbb rtp bbb q -0.0
  754         n3     27    bbb     N1    754 -0.59685800  14.010000   ; qtot -0.596883
  755         c3     27    bbb     C1    755 0.10137000  12.010000   ; qtot -0.495513
  756         h1     27    bbb     H1    756 0.04411300   1.008000   ; qtot -0.451400
  757         h1     27    bbb     H2    757 0.04411300   1.008000   ; qtot -0.407287
  758         c3     27    bbb     C2    758 0.10137000  12.010000   ; qtot -0.305917
  759         h1     27    bbb     H3    759 0.04411300   1.008000   ; qtot -0.261804
  760         h1     27    bbb     H4    760 0.04411300   1.008000   ; qtot -0.217691
  761         c3     27    bbb     C3    761 -0.00195300  12.010000   ; qtot -0.219644
  762         h1     27    bbb     H5    762 0.05064400   1.008000   ; qtot -0.169000
  763         h1     27    bbb     H6    763 0.05064400   1.008000   ; qtot -0.118356
  764         c3     27    bbb     C4    764 -0.01612100  12.010000   ; qtot -0.134477
  765         hc     27    bbb     H7    765 0.04936100   1.008000   ; qtot -0.085116
  766         hc     27    bbb     H8    766 0.04936100   1.008000   ; qtot -0.035755
  767         c3     27    bbb     C5    767 0.11363000  12.010000   ; qtot 0.077875
  768         hc     27    bbb     H9    768 0.06265900   1.008000   ; qtot 0.140534
  769         hc     27    bbb    H10    769 0.06265900   1.008000   ; qtot 0.203193
  770         c3     27    bbb     C6    770 0.11363000  12.010000   ; qtot 0.316823
  771         hc     27    bbb    H11    771 0.06265900   1.008000   ; qtot 0.379482
  772         hc     27    bbb    H12    772 0.06265900   1.008000   ; qtot 0.442141
  773         c3     27    bbb     C7    773 0.05858200  12.010000   ; qtot 0.500723
  774         h1     27    bbb    H13    774 0.06123400   1.008000   ; qtot 0.561957
  775         h1     27    bbb    H14    775 0.06123400   1.008000   ; qtot 0.623191
  776         c3     27    bbb     C8    776 -0.72423400  12.010000   ; qtot -0.101043
  777         h1     27    bbb    H15    777 0.25637600   1.008000   ; qtot 0.155333
  778         h1     27    bbb    H16    778 0.25637600   1.008000   ; qtot 0.411709
  779         c3     27    bbb     C9    779 -0.72423400  12.010000   ; qtot -0.312525
  780         h1     27    bbb    H17    780 0.25637600   1.008000   ; qtot -0.056149
  781         h1     27    bbb    H18    781 0.25637600   1.008000   ; qtot 0.200227
  782         os     27    bbb     O1    782 -0.20025300  16.000000   ; qtot -0.000026
; residue   28 bbb rtp bbb q -0.0
  783         n3     28    bbb     N1    783 -0.59685800  14.010000   ; qtot -0.596884
  784         c3     28    bbb     C1    784 0.10137000  12.010000   ; qtot -0.495514
  785         h1     28    bbb     H1    785 0.04411300   1.008000   ; qtot -0.451401
  786         h1     28    bbb     H2    786 0.04411300   1.008000   ; qtot -0.407288
  787         c3     28    bbb     C2    787 0.10137000  12.010000   ; qtot -0.305918
  788         h1     28    bbb     H3    788 0.04411300   1.008000   ; qtot -0.261805
  789         h1     28    bbb     H4    789 0.04411300   1.008000   ; qtot -0.217692
  790         c3     28    bbb     C3    790 -0.00195300  12.010000   ; qtot -0.219645
  791         h1     28    bbb     H5    791 0.05064400   1.008000   ; qtot -0.169001
  792         h1     28    bbb     H6    792 0.05064400   1.008000   ; qtot -0.118357
  793         c3     28    bbb     C4    793 -0.01612100  12.010000   ; qtot -0.134478
  794         hc     28    bbb     H7    794 0.04936100   1.008000   ; qtot -0.085117
  795         hc     28    bbb     H8    795 0.04936100   1.008000   ; qtot -0.035756
  796         c3     28    bbb     C5    796 0.11363000  12.010000   ; qtot 0.077874
  797         hc     28    bbb     H9    797 0.06265900   1.008000   ; qtot 0.140533
  798         hc     28    bbb    H10    798 0.06265900   1.008000   ; qtot 0.203192
  799         c3     28    bbb     C6    799 0.11363000  12.010000   ; qtot 0.316822
  800         hc     28    bbb    H11    800 0.06265900   1.008000   ; qtot 0.379481
  801         hc     28    bbb    H12    801 0.06265900   1.008000   ; qtot 0.442140
  802         c3     28    bbb     C7    802 0.05858200  12.010000   ; qtot 0.500722
  803         h1     28    bbb    H13    803 0.06123400   1.008000   ; qtot 0.561956
  804         h1     28    bbb    H14    804 0.06123400   1.008000   ; qtot 0.623190
  805         c3     28    bbb     C8    805 -0.72423400  12.010000   ; qtot -0.101044
  806         h1     28    bbb    H15    806 0.25637600   1.008000   ; qtot 0.155332
  807         h1     28    bbb    H16    807 0.25637600   1.008000   ; qtot 0.411708
  808         c3     28    bbb     C9    808 -0.72423400  12.010000   ; qtot -0.312526
  809         h1     28    bbb    H17    809 0.25637600   1.008000   ; qtot -0.056150
  810         h1     28    bbb    H18    810 0.25637600   1.008000   ; qtot 0.200226
  811         os     28    bbb     O1    811 -0.20025300  16.000000   ; qtot -0.000027
; residue   29 bbb rtp bbb q -0.0
  812         n3     29    bbb     N1    812 -0.59685800  14.010000   ; qtot -0.596885
  813         c3     29    bbb     C1    813 0.10137000  12.010000   ; qtot -0.495515
  814         h1     29    bbb     H1    814 0.04411300   1.008000   ; qtot -0.451402
  815         h1     29    bbb     H2    815 0.04411300   1.008000   ; qtot -0.407289
  816         c3     29    bbb     C2    816 0.10137000  12.010000   ; qtot -0.305919
  817         h1     29    bbb     H3    817 0.04411300   1.008000   ; qtot -0.261806
  818         h1     29    bbb     H4    818 0.04411300   1.008000   ; qtot -0.217693
  819         c3     29    bbb     C3    819 -0.00195300  12.010000   ; qtot -0.219646
  820         h1     29    bbb     H5    820 0.05064400   1.008000   ; qtot -0.169002
  821         h1     29    bbb     H6    821 0.05064400   1.008000   ; qtot -0.118358
  822         c3     29    bbb     C4    822 -0.01612100  12.010000   ; qtot -0.134479
  823         hc     29    bbb     H7    823 0.04936100   1.008000   ; qtot -0.085118
  824         hc     29    bbb     H8    824 0.04936100   1.008000   ; qtot -0.035757
  825         c3     29    bbb     C5    825 0.11363000  12.010000   ; qtot 0.077873
  826         hc     29    bbb     H9    826 0.06265900   1.008000   ; qtot 0.140532
  827         hc     29    bbb    H10    827 0.06265900   1.008000   ; qtot 0.203191
  828         c3     29    bbb     C6    828 0.11363000  12.010000   ; qtot 0.316821
  829         hc     29    bbb    H11    829 0.06265900   1.008000   ; qtot 0.379480
  830         hc     29    bbb    H12    830 0.06265900   1.008000   ; qtot 0.442139
  831         c3     29    bbb     C7    831 0.05858200  12.010000   ; qtot 0.500721
  832         h1     29    bbb    H13    832 0.06123400   1.008000   ; qtot 0.561955
  833         h1     29    bbb    H14    833 0.06123400   1.008000   ; qtot 0.623189
  834         c3     29    bbb     C8    834 -0.72423400  12.010000   ; qtot -0.101045
  835         h1     29    bbb    H15    835 0.25637600   1.008000   ; qtot 0.155331
  836         h1     29    bbb    H16    836 0.25637600   1.008000   ; qtot 0.411707
  837         c3     29    bbb     C9    837 -0.72423400  12.010000   ; qtot -0.312527
  838         h1     29    bbb    H17    838 0.25637600   1.008000   ; qtot -0.056151
  839         h1     29    bbb    H18    839 0.25637600   1.008000   ; qtot 0.200225
  840         os     29    bbb     O1    840 -0.20025300  16.000000   ; qtot -0.000028
; residue   30 bbb rtp bbb q -0.0
  841         n3     30    bbb     N1    841 -0.59685800  14.010000   ; qtot -0.596886
  842         c3     30    bbb     C1    842 0.10137000  12.010000   ; qtot -0.495516
  843         h1     30    bbb     H1    843 0.04411300   1.008000   ; qtot -0.451403
  844         h1     30    bbb     H2    844 0.04411300   1.008000   ; qtot -0.407290
  845         c3     30    bbb     C2    845 0.10137000  12.010000   ; qtot -0.305920
  846         h1     30    bbb     H3    846 0.04411300   1.008000   ; qtot -0.261807
  847         h1     30    bbb     H4    847 0.04411300   1.008000   ; qtot -0.217694
  848         c3     30    bbb     C3    848 -0.00195300  12.010000   ; qtot -0.219647
  849         h1     30    bbb     H5    849 0.05064400   1.008000   ; qtot -0.169003
  850         h1     30    bbb     H6    850 0.05064400   1.008000   ; qtot -0.118359
  851         c3     30    bbb     C4    851 -0.01612100  12.010000   ; qtot -0.134480
  852         hc     30    bbb     H7    852 0.04936100   1.008000   ; qtot -0.085119
  853         hc     30    bbb     H8    853 0.04936100   1.008000   ; qtot -0.035758
  854         c3     30    bbb     C5    854 0.11363000  12.010000   ; qtot 0.077872
  855         hc     30    bbb     H9    855 0.06265900   1.008000   ; qtot 0.140531
  856         hc     30    bbb    H10    856 0.06265900   1.008000   ; qtot 0.203190
  857         c3     30    bbb     C6    857 0.11363000  12.010000   ; qtot 0.316820
  858         hc     30    bbb    H11    858 0.06265900   1.008000   ; qtot 0.379479
  859         hc     30    bbb    H12    859 0.06265900   1.008000   ; qtot 0.442138
  860         c3     30    bbb     C7    860 0.05858200  12.010000   ; qtot 0.500720
  861         h1     30    bbb    H13    861 0.06123400   1.008000   ; qtot 0.561954
  862         h1     30    bbb    H14    862 0.06123400   1.008000   ; qtot 0.623188
  863         c3     30    bbb     C8    863 -0.72423400  12.010000   ; qtot -0.101046
  864         h1     30    bbb    H15    864 0.25637600   1.008000   ; qtot 0.155330
  865         h1     30    bbb    H16    865 0.25637600   1.008000   ; qtot 0.411706
  866         c3     30    bbb     C9    866 -0.72423400  12.010000   ; qtot -0.312528
  867         h1     30    bbb    H17    867 0.25637600   1.008000   ; qtot -0.056152
  868         h1     30    bbb    H18    868 0.25637600   1.008000   ; qtot 0.200224
  869         os     30    bbb     O1    869 -0.20025300  16.000000   ; qtot -0.000029
; residue   31 bbb rtp bbb q -0.0
  870         n3     31    bbb     N1    870 -0.59685800  14.010000   ; qtot -0.596887
  871         c3     31    bbb     C1    871 0.10137000  12.010000   ; qtot -0.495517
  872         h1     31    bbb     H1    872 0.04411300   1.008000   ; qtot -0.451404
  873         h1     31    bbb     H2    873 0.04411300   1.008000   ; qtot -0.407291
  874         c3     31    bbb     C2    874 0.10137000  12.010000   ; qtot -0.305921
  875         h1     31    bbb     H3    875 0.04411300   1.008000   ; qtot -0.261808
  876         h1     31    bbb     H4    876 0.04411300   1.008000   ; qtot -0.217695
  877         c3     31    bbb     C3    877 -0.00195300  12.010000   ; qtot -0.219648
  878         h1     31    bbb     H5    878 0.05064400   1.008000   ; qtot -0.169004
  879         h1     31    bbb     H6    879 0.05064400   1.008000   ; qtot -0.118360
  880         c3     31    bbb     C4    880 -0.01612100  12.010000   ; qtot -0.134481
  881         hc     31    bbb     H7    881 0.04936100   1.008000   ; qtot -0.085120
  882         hc     31    bbb     H8    882 0.04936100   1.008000   ; qtot -0.035759
  883         c3     31    bbb     C5    883 0.11363000  12.010000   ; qtot 0.077871
  884         hc     31    bbb     H9    884 0.06265900   1.008000   ; qtot 0.140530
  885         hc     31    bbb    H10    885 0.06265900   1.008000   ; qtot 0.203189
  886         c3     31    bbb     C6    886 0.11363000  12.010000   ; qtot 0.316819
  887         hc     31    bbb    H11    887 0.06265900   1.008000   ; qtot 0.379478
  888         hc     31    bbb    H12    888 0.06265900   1.008000   ; qtot 0.442137
  889         c3     31    bbb     C7    889 0.05858200  12.010000   ; qtot 0.500719
  890         h1     31    bbb    H13    890 0.06123400   1.008000   ; qtot 0.561953
  891         h1     31    bbb    H14    891 0.06123400   1.008000   ; qtot 0.623187
  892         c3     31    bbb     C8    892 -0.72423400  12.010000   ; qtot -0.101047
  893         h1     31    bbb    H15    893 0.25637600   1.008000   ; qtot 0.155329
  894         h1     31    bbb    H16    894 0.25637600   1.008000   ; qtot 0.411705
  895         c3     31    bbb     C9    895 -0.72423400  12.010000   ; qtot -0.312529
  896         h1     31    bbb    H17    896 0.25637600   1.008000   ; qtot -0.056153
  897         h1     31    bbb    H18    897 0.25637600   1.008000   ; qtot 0.200223
  898         os     31    bbb     O1    898 -0.20025300  16.000000   ; qtot -0.000030
; residue   32 bbb rtp bbb q -0.0
  899         n3     32    bbb     N1    899 -0.59685800  14.010000   ; qtot -0.596888
  900         c3     32    bbb     C1    900 0.10137000  12.010000   ; qtot -0.495518
  901         h1     32    bbb     H1    901 0.04411300   1.008000   ; qtot -0.451405
  902         h1     32    bbb     H2    902 0.04411300   1.008000   ; qtot -0.407292
  903         c3     32    bbb     C2    903 0.10137000  12.010000   ; qtot -0.305922
  904         h1     32    bbb     H3    904 0.04411300   1.008000   ; qtot -0.261809
  905         h1     32    bbb     H4    905 0.04411300   1.008000   ; qtot -0.217696
  906         c3     32    bbb     C3    906 -0.00195300  12.010000   ; qtot -0.219649
  907         h1     32    bbb     H5    907 0.05064400   1.008000   ; qtot -0.169005
  908         h1     32    bbb     H6    908 0.05064400   1.008000   ; qtot -0.118361
  909         c3     32    bbb     C4    909 -0.01612100  12.010000   ; qtot -0.134482
  910         hc     32    bbb     H7    910 0.04936100   1.008000   ; qtot -0.085121
  911         hc     32    bbb     H8    911 0.04936100   1.008000   ; qtot -0.035760
  912         c3     32    bbb     C5    912 0.11363000  12.010000   ; qtot 0.077870
  913         hc     32    bbb     H9    913 0.06265900   1.008000   ; qtot 0.140529
  914         hc     32    bbb    H10    914 0.06265900   1.008000   ; qtot 0.203188
  915         c3     32    bbb     C6    915 0.11363000  12.010000   ; qtot 0.316818
  916         hc     32    bbb    H11    916 0.06265900   1.008000   ; qtot 0.379477
  917         hc     32    bbb    H12    917 0.06265900   1.008000   ; qtot 0.442136
  918         c3     32    bbb     C7    918 0.05858200  12.010000   ; qtot 0.500718
  919         h1     32    bbb    H13    919 0.06123400   1.008000   ; qtot 0.561952
  920         h1     32    bbb    H14    920 0.06123400   1.008000   ; qtot 0.623186
  921         c3     32    bbb     C8    921 -0.72423400  12.010000   ; qtot -0.101048
  922         h1     32    bbb    H15    922 0.25637600   1.008000   ; qtot 0.155328
  923         h1     32    bbb    H16    923 0.25637600   1.008000   ; qtot 0.411704
  924         c3     32    bbb     C9    924 -0.72423400  12.010000   ; qtot -0.312530
  925         h1     32    bbb    H17    925 0.25637600   1.008000   ; qtot -0.056154
  926         h1     32    bbb    H18    926 0.25637600   1.008000   ; qtot 0.200222
  927         os     32    bbb     O1    927 -0.20025300  16.000000   ; qtot -0.000031
; residue   33 bbb rtp bbb q -0.0
  928         n3     33    bbb     N1    928 -0.59685800  14.010000   ; qtot -0.596889
  929         c3     33    bbb     C1    929 0.10137000  12.010000   ; qtot -0.495519
  930         h1     33    bbb     H1    930 0.04411300   1.008000   ; qtot -0.451406
  931         h1     33    bbb     H2    931 0.04411300   1.008000   ; qtot -0.407293
  932         c3     33    bbb     C2    932 0.10137000  12.010000   ; qtot -0.305923
  933         h1     33    bbb     H3    933 0.04411300   1.008000   ; qtot -0.261810
  934         h1     33    bbb     H4    934 0.04411300   1.008000   ; qtot -0.217697
  935         c3     33    bbb     C3    935 -0.00195300  12.010000   ; qtot -0.219650
  936         h1     33    bbb     H5    936 0.05064400   1.008000   ; qtot -0.169006
  937         h1     33    bbb     H6    937 0.05064400   1.008000   ; qtot -0.118362
  938         c3     33    bbb     C4    938 -0.01612100  12.010000   ; qtot -0.134483
  939         hc     33    bbb     H7    939 0.04936100   1.008000   ; qtot -0.085122
  940         hc     33    bbb     H8    940 0.04936100   1.008000   ; qtot -0.035761
  941         c3     33    bbb     C5    941 0.11363000  12.010000   ; qtot 0.077869
  942         hc     33    bbb     H9    942 0.06265900   1.008000   ; qtot 0.140528
  943         hc     33    bbb    H10    943 0.06265900   1.008000   ; qtot 0.203187
  944         c3     33    bbb     C6    944 0.11363000  12.010000   ; qtot 0.316817
  945         hc     33    bbb    H11    945 0.06265900   1.008000   ; qtot 0.379476
  946         hc     33    bbb    H12    946 0.06265900   1.008000   ; qtot 0.442135
  947         c3     33    bbb     C7    947 0.05858200  12.010000   ; qtot 0.500717
  948         h1     33    bbb    H13    948 0.06123400   1.008000   ; qtot 0.561951
  949         h1     33    bbb    H14    949 0.06123400   1.008000   ; qtot 0.623185
  950         c3     33    bbb     C8    950 -0.72423400  12.010000   ; qtot -0.101049
  951         h1     33    bbb    H15    951 0.25637600   1.008000   ; qtot 0.155327
  952         h1     33    bbb    H16    952 0.25637600   1.008000   ; qtot 0.411703
  953         c3     33    bbb     C9    953 -0.72423400  12.010000   ; qtot -0.312531
  954         h1     33    bbb    H17    954 0.25637600   1.008000   ; qtot -0.056155
  955         h1     33    bbb    H18    955 0.25637600   1.008000   ; qtot 0.200221
  956         os     33    bbb     O1    956 -0.20025300  16.000000   ; qtot -0.000032
; residue   34 bbb rtp bbb q -0.0
  957         n3     34    bbb     N1    957 -0.59685800  14.010000   ; qtot -0.596890
  958         c3     34    bbb     C1    958 0.10137000  12.010000   ; qtot -0.495520
  959         h1     34    bbb     H1    959 0.04411300   1.008000   ; qtot -0.451407
  960         h1     34    bbb     H2    960 0.04411300   1.008000   ; qtot -0.407294
  961         c3     34    bbb     C2    961 0.10137000  12.010000   ; qtot -0.305924
  962         h1     34    bbb     H3    962 0.04411300   1.008000   ; qtot -0.261811
  963         h1     34    bbb     H4    963 0.04411300   1.008000   ; qtot -0.217698
  964         c3     34    bbb     C3    964 -0.00195300  12.010000   ; qtot -0.219651
  965         h1     34    bbb     H5    965 0.05064400   1.008000   ; qtot -0.169007
  966         h1     34    bbb     H6    966 0.05064400   1.008000   ; qtot -0.118363
  967         c3     34    bbb     C4    967 -0.01612100  12.010000   ; qtot -0.134484
  968         hc     34    bbb     H7    968 0.04936100   1.008000   ; qtot -0.085123
  969         hc     34    bbb     H8    969 0.04936100   1.008000   ; qtot -0.035762
  970         c3     34    bbb     C5    970 0.11363000  12.010000   ; qtot 0.077868
  971         hc     34    bbb     H9    971 0.06265900   1.008000   ; qtot 0.140527
  972         hc     34    bbb    H10    972 0.06265900   1.008000   ; qtot 0.203186
  973         c3     34    bbb     C6    973 0.11363000  12.010000   ; qtot 0.316816
  974         hc     34    bbb    H11    974 0.06265900   1.008000   ; qtot 0.379475
  975         hc     34    bbb    H12    975 0.06265900   1.008000   ; qtot 0.442134
  976         c3     34    bbb     C7    976 0.05858200  12.010000   ; qtot 0.500716
  977         h1     34    bbb    H13    977 0.06123400   1.008000   ; qtot 0.561950
  978         h1     34    bbb    H14    978 0.06123400   1.008000   ; qtot 0.623184
  979         c3     34    bbb     C8    979 -0.72423400  12.010000   ; qtot -0.101050
  980         h1     34    bbb    H15    980 0.25637600   1.008000   ; qtot 0.155326
  981         h1     34    bbb    H16    981 0.25637600   1.008000   ; qtot 0.411702
  982         c3     34    bbb     C9    982 -0.72423400  12.010000   ; qtot -0.312532
  983         h1     34    bbb    H17    983 0.25637600   1.008000   ; qtot -0.056156
  984         h1     34    bbb    H18    984 0.25637600   1.008000   ; qtot 0.200220
  985         os     34    bbb     O1    985 -0.20025300  16.000000   ; qtot -0.000033
; residue   35 bbb rtp bbb q -0.0
  986         n3     35    bbb     N1    986 -0.59685800  14.010000   ; qtot -0.596891
  987         c3     35    bbb     C1    987 0.10137000  12.010000   ; qtot -0.495521
  988         h1     35    bbb     H1    988 0.04411300   1.008000   ; qtot -0.451408
  989         h1     35    bbb     H2    989 0.04411300   1.008000   ; qtot -0.407295
  990         c3     35    bbb     C2    990 0.10137000  12.010000   ; qtot -0.305925
  991         h1     35    bbb     H3    991 0.04411300   1.008000   ; qtot -0.261812
  992         h1     35    bbb     H4    992 0.04411300   1.008000   ; qtot -0.217699
  993         c3     35    bbb     C3    993 -0.00195300  12.010000   ; qtot -0.219652
  994         h1     35    bbb     H5    994 0.05064400   1.008000   ; qtot -0.169008
  995         h1     35    bbb     H6    995 0.05064400   1.008000   ; qtot -0.118364
  996         c3     35    bbb     C4    996 -0.01612100  12.010000   ; qtot -0.134485
  997         hc     35    bbb     H7    997 0.04936100   1.008000   ; qtot -0.085124
  998         hc     35    bbb     H8    998 0.04936100   1.008000   ; qtot -0.035763
  999         c3     35    bbb     C5    999 0.11363000  12.010000   ; qtot 0.077867
 1000         hc     35    bbb     H9   1000 0.06265900   1.008000   ; qtot 0.140526
 1001         hc     35    bbb    H10   1001 0.06265900   1.008000   ; qtot 0.203185
 1002         c3     35    bbb     C6   1002 0.11363000  12.010000   ; qtot 0.316815
 1003         hc     35    bbb    H11   1003 0.06265900   1.008000   ; qtot 0.379474
 1004         hc     35    bbb    H12   1004 0.06265900   1.008000   ; qtot 0.442133
 1005         c3     35    bbb     C7   1005 0.05858200  12.010000   ; qtot 0.500715
 1006         h1     35    bbb    H13   1006 0.06123400   1.008000   ; qtot 0.561949
 1007         h1     35    bbb    H14   1007 0.06123400   1.008000   ; qtot 0.623183
 1008         c3     35    bbb     C8   1008 -0.72423400  12.010000   ; qtot -0.101051
 1009         h1     35    bbb    H15   1009 0.25637600   1.008000   ; qtot 0.155325
 1010         h1     35    bbb    H16   1010 0.25637600   1.008000   ; qtot 0.411701
 1011         c3     35    bbb     C9   1011 -0.72423400  12.010000   ; qtot -0.312533
 1012         h1     35    bbb    H17   1012 0.25637600   1.008000   ; qtot -0.056157
 1013         h1     35    bbb    H18   1013 0.25637600   1.008000   ; qtot 0.200219
 1014         os     35    bbb     O1   1014 -0.20025300  16.000000   ; qtot -0.000034
; residue   36 bbb rtp bbb q -0.0
 1015         n3     36    bbb     N1   1015 -0.59685800  14.010000   ; qtot -0.596892
 1016         c3     36    bbb     C1   1016 0.10137000  12.010000   ; qtot -0.495522
 1017         h1     36    bbb     H1   1017 0.04411300   1.008000   ; qtot -0.451409
 1018         h1     36    bbb     H2   1018 0.04411300   1.008000   ; qtot -0.407296
 1019         c3     36    bbb     C2   1019 0.10137000  12.010000   ; qtot -0.305926
 1020         h1     36    bbb     H3   1020 0.04411300   1.008000   ; qtot -0.261813
 1021         h1     36    bbb     H4   1021 0.04411300   1.008000   ; qtot -0.217700
 1022         c3     36    bbb     C3   1022 -0.00195300  12.010000   ; qtot -0.219653
 1023         h1     36    bbb     H5   1023 0.05064400   1.008000   ; qtot -0.169009
 1024         h1     36    bbb     H6   1024 0.05064400   1.008000   ; qtot -0.118365
 1025         c3     36    bbb     C4   1025 -0.01612100  12.010000   ; qtot -0.134486
 1026         hc     36    bbb     H7   1026 0.04936100   1.008000   ; qtot -0.085125
 1027         hc     36    bbb     H8   1027 0.04936100   1.008000   ; qtot -0.035764
 1028         c3     36    bbb     C5   1028 0.11363000  12.010000   ; qtot 0.077866
 1029         hc     36    bbb     H9   1029 0.06265900   1.008000   ; qtot 0.140525
 1030         hc     36    bbb    H10   1030 0.06265900   1.008000   ; qtot 0.203184
 1031         c3     36    bbb     C6   1031 0.11363000  12.010000   ; qtot 0.316814
 1032         hc     36    bbb    H11   1032 0.06265900   1.008000   ; qtot 0.379473
 1033         hc     36    bbb    H12   1033 0.06265900   1.008000   ; qtot 0.442132
 1034         c3     36    bbb     C7   1034 0.05858200  12.010000   ; qtot 0.500714
 1035         h1     36    bbb    H13   1035 0.06123400   1.008000   ; qtot 0.561948
 1036         h1     36    bbb    H14   1036 0.06123400   1.008000   ; qtot 0.623182
 1037         c3     36    bbb     C8   1037 -0.72423400  12.010000   ; qtot -0.101052
 1038         h1     36    bbb    H15   1038 0.25637600   1.008000   ; qtot 0.155324
 1039         h1     36    bbb    H16   1039 0.25637600   1.008000   ; qtot 0.411700
 1040         c3     36    bbb     C9   1040 -0.72423400  12.010000   ; qtot -0.312534
 1041         h1     36    bbb    H17   1041 0.25637600   1.008000   ; qtot -0.056158
 1042         h1     36    bbb    H18   1042 0.25637600   1.008000   ; qtot 0.200218
 1043         os     36    bbb     O1   1043 -0.20025300  16.000000   ; qtot -0.000035
; residue   37 bbb rtp bbb q -0.0
 1044         n3     37    bbb     N1   1044 -0.59685800  14.010000   ; qtot -0.596893
 1045         c3     37    bbb     C1   1045 0.10137000  12.010000   ; qtot -0.495523
 1046         h1     37    bbb     H1   1046 0.04411300   1.008000   ; qtot -0.451410
 1047         h1     37    bbb     H2   1047 0.04411300   1.008000   ; qtot -0.407297
 1048         c3     37    bbb     C2   1048 0.10137000  12.010000   ; qtot -0.305927
 1049         h1     37    bbb     H3   1049 0.04411300   1.008000   ; qtot -0.261814
 1050         h1     37    bbb     H4   1050 0.04411300   1.008000   ; qtot -0.217701
 1051         c3     37    bbb     C3   1051 -0.00195300  12.010000   ; qtot -0.219654
 1052         h1     37    bbb     H5   1052 0.05064400   1.008000   ; qtot -0.169010
 1053         h1     37    bbb     H6   1053 0.05064400   1.008000   ; qtot -0.118366
 1054         c3     37    bbb     C4   1054 -0.01612100  12.010000   ; qtot -0.134487
 1055         hc     37    bbb     H7   1055 0.04936100   1.008000   ; qtot -0.085126
 1056         hc     37    bbb     H8   1056 0.04936100   1.008000   ; qtot -0.035765
 1057         c3     37    bbb     C5   1057 0.11363000  12.010000   ; qtot 0.077865
 1058         hc     37    bbb     H9   1058 0.06265900   1.008000   ; qtot 0.140524
 1059         hc     37    bbb    H10   1059 0.06265900   1.008000   ; qtot 0.203183
 1060         c3     37    bbb     C6   1060 0.11363000  12.010000   ; qtot 0.316813
 1061         hc     37    bbb    H11   1061 0.06265900   1.008000   ; qtot 0.379472
 1062         hc     37    bbb    H12   1062 0.06265900   1.008000   ; qtot 0.442131
 1063         c3     37    bbb     C7   1063 0.05858200  12.010000   ; qtot 0.500713
 1064         h1     37    bbb    H13   1064 0.06123400   1.008000   ; qtot 0.561947
 1065         h1     37    bbb    H14   1065 0.06123400   1.008000   ; qtot 0.623181
 1066         c3     37    bbb     C8   1066 -0.72423400  12.010000   ; qtot -0.101053
 1067         h1     37    bbb    H15   1067 0.25637600   1.008000   ; qtot 0.155323
 1068         h1     37    bbb    H16   1068 0.25637600   1.008000   ; qtot 0.411699
 1069         c3     37    bbb     C9   1069 -0.72423400  12.010000   ; qtot -0.312535
 1070         h1     37    bbb    H17   1070 0.25637600   1.008000   ; qtot -0.056159
 1071         h1     37    bbb    H18   1071 0.25637600   1.008000   ; qtot 0.200217
 1072         os     37    bbb     O1   1072 -0.20025300  16.000000   ; qtot -0.000036
; residue   38 bbb rtp bbb q -0.0
 1073         n3     38    bbb     N1   1073 -0.59685800  14.010000   ; qtot -0.596894
 1074         c3     38    bbb     C1   1074 0.10137000  12.010000   ; qtot -0.495524
 1075         h1     38    bbb     H1   1075 0.04411300   1.008000   ; qtot -0.451411
 1076         h1     38    bbb     H2   1076 0.04411300   1.008000   ; qtot -0.407298
 1077         c3     38    bbb     C2   1077 0.10137000  12.010000   ; qtot -0.305928
 1078         h1     38    bbb     H3   1078 0.04411300   1.008000   ; qtot -0.261815
 1079         h1     38    bbb     H4   1079 0.04411300   1.008000   ; qtot -0.217702
 1080         c3     38    bbb     C3   1080 -0.00195300  12.010000   ; qtot -0.219655
 1081         h1     38    bbb     H5   1081 0.05064400   1.008000   ; qtot -0.169011
 1082         h1     38    bbb     H6   1082 0.05064400   1.008000   ; qtot -0.118367
 1083         c3     38    bbb     C4   1083 -0.01612100  12.010000   ; qtot -0.134488
 1084         hc     38    bbb     H7   1084 0.04936100   1.008000   ; qtot -0.085127
 1085         hc     38    bbb     H8   1085 0.04936100   1.008000   ; qtot -0.035766
 1086         c3     38    bbb     C5   1086 0.11363000  12.010000   ; qtot 0.077864
 1087         hc     38    bbb     H9   1087 0.06265900   1.008000   ; qtot 0.140523
 1088         hc     38    bbb    H10   1088 0.06265900   1.008000   ; qtot 0.203182
 1089         c3     38    bbb     C6   1089 0.11363000  12.010000   ; qtot 0.316812
 1090         hc     38    bbb    H11   1090 0.06265900   1.008000   ; qtot 0.379471
 1091         hc     38    bbb    H12   1091 0.06265900   1.008000   ; qtot 0.442130
 1092         c3     38    bbb     C7   1092 0.05858200  12.010000   ; qtot 0.500712
 1093         h1     38    bbb    H13   1093 0.06123400   1.008000   ; qtot 0.561946
 1094         h1     38    bbb    H14   1094 0.06123400   1.008000   ; qtot 0.623180
 1095         c3     38    bbb     C8   1095 -0.72423400  12.010000   ; qtot -0.101054
 1096         h1     38    bbb    H15   1096 0.25637600   1.008000   ; qtot 0.155322
 1097         h1     38    bbb    H16   1097 0.25637600   1.008000   ; qtot 0.411698
 1098         c3     38    bbb     C9   1098 -0.72423400  12.010000   ; qtot -0.312536
 1099         h1     38    bbb    H17   1099 0.25637600   1.008000   ; qtot -0.056160
 1100         h1     38    bbb    H18   1100 0.25637600   1.008000   ; qtot 0.200216
 1101         os     38    bbb     O1   1101 -0.20025300  16.000000   ; qtot -0.000037
; residue   39 bbb rtp bbb q -0.0
 1102         n3     39    bbb     N1   1102 -0.59685800  14.010000   ; qtot -0.596895
 1103         c3     39    bbb     C1   1103 0.10137000  12.010000   ; qtot -0.495525
 1104         h1     39    bbb     H1   1104 0.04411300   1.008000   ; qtot -0.451412
 1105         h1     39    bbb     H2   1105 0.04411300   1.008000   ; qtot -0.407299
 1106         c3     39    bbb     C2   1106 0.10137000  12.010000   ; qtot -0.305929
 1107         h1     39    bbb     H3   1107 0.04411300   1.008000   ; qtot -0.261816
 1108         h1     39    bbb     H4   1108 0.04411300   1.008000   ; qtot -0.217703
 1109         c3     39    bbb     C3   1109 -0.00195300  12.010000   ; qtot -0.219656
 1110         h1     39    bbb     H5   1110 0.05064400   1.008000   ; qtot -0.169012
 1111         h1     39    bbb     H6   1111 0.05064400   1.008000   ; qtot -0.118368
 1112         c3     39    bbb     C4   1112 -0.01612100  12.010000   ; qtot -0.134489
 1113         hc     39    bbb     H7   1113 0.04936100   1.008000   ; qtot -0.085128
 1114         hc     39    bbb     H8   1114 0.04936100   1.008000   ; qtot -0.035767
 1115         c3     39    bbb     C5   1115 0.11363000  12.010000   ; qtot 0.077863
 1116         hc     39    bbb     H9   1116 0.06265900   1.008000   ; qtot 0.140522
 1117         hc     39    bbb    H10   1117 0.06265900   1.008000   ; qtot 0.203181
 1118         c3     39    bbb     C6   1118 0.11363000  12.010000   ; qtot 0.316811
 1119         hc     39    bbb    H11   1119 0.06265900   1.008000   ; qtot 0.379470
 1120         hc     39    bbb    H12   1120 0.06265900   1.008000   ; qtot 0.442129
 1121         c3     39    bbb     C7   1121 0.05858200  12.010000   ; qtot 0.500711
 1122         h1     39    bbb    H13   1122 0.06123400   1.008000   ; qtot 0.561945
 1123         h1     39    bbb    H14   1123 0.06123400   1.008000   ; qtot 0.623179
 1124         c3     39    bbb     C8   1124 -0.72423400  12.010000   ; qtot -0.101055
 1125         h1     39    bbb    H15   1125 0.25637600   1.008000   ; qtot 0.155321
 1126         h1     39    bbb    H16   1126 0.25637600   1.008000   ; qtot 0.411697
 1127         c3     39    bbb     C9   1127 -0.72423400  12.010000   ; qtot -0.312537
 1128         h1     39    bbb    H17   1128 0.25637600   1.008000   ; qtot -0.056161
 1129         h1     39    bbb    H18   1129 0.25637600   1.008000   ; qtot 0.200215
 1130         os     39    bbb     O1   1130 -0.20025300  16.000000   ; qtot -0.000038
; residue   40 bbb rtp bbb q -0.0
 1131         n3     40    bbb     N1   1131 -0.59685800  14.010000   ; qtot -0.596896
 1132         c3     40    bbb     C1   1132 0.10137000  12.010000   ; qtot -0.495526
 1133         h1     40    bbb     H1   1133 0.04411300   1.008000   ; qtot -0.451413
 1134         h1     40    bbb     H2   1134 0.04411300   1.008000   ; qtot -0.407300
 1135         c3     40    bbb     C2   1135 0.10137000  12.010000   ; qtot -0.305930
 1136         h1     40    bbb     H3   1136 0.04411300   1.008000   ; qtot -0.261817
 1137         h1     40    bbb     H4   1137 0.04411300   1.008000   ; qtot -0.217704
 1138         c3     40    bbb     C3   1138 -0.00195300  12.010000   ; qtot -0.219657
 1139         h1     40    bbb     H5   1139 0.05064400   1.008000   ; qtot -0.169013
 1140         h1     40    bbb     H6   1140 0.05064400   1.008000   ; qtot -0.118369
 1141         c3     40    bbb     C4   1141 -0.01612100  12.010000   ; qtot -0.134490
 1142         hc     40    bbb     H7   1142 0.04936100   1.008000   ; qtot -0.085129
 1143         hc     40    bbb     H8   1143 0.04936100   1.008000   ; qtot -0.035768
 1144         c3     40    bbb     C5   1144 0.11363000  12.010000   ; qtot 0.077862
 1145         hc     40    bbb     H9   1145 0.06265900   1.008000   ; qtot 0.140521
 1146         hc     40    bbb    H10   1146 0.06265900   1.008000   ; qtot 0.203180
 1147         c3     40    bbb     C6   1147 0.11363000  12.010000   ; qtot 0.316810
 1148         hc     40    bbb    H11   1148 0.06265900   1.008000   ; qtot 0.379469
 1149         hc     40    bbb    H12   1149 0.06265900   1.008000   ; qtot 0.442128
 1150         c3     40    bbb     C7   1150 0.05858200  12.010000   ; qtot 0.500710
 1151         h1     40    bbb    H13   1151 0.06123400   1.008000   ; qtot 0.561944
 1152         h1     40    bbb    H14   1152 0.06123400   1.008000   ; qtot 0.623178
 1153         c3     40    bbb     C8   1153 -0.72423400  12.010000   ; qtot -0.101056
 1154         h1     40    bbb    H15   1154 0.25637600   1.008000   ; qtot 0.155320
 1155         h1     40    bbb    H16   1155 0.25637600   1.008000   ; qtot 0.411696
 1156         c3     40    bbb     C9   1156 -0.72423400  12.010000   ; qtot -0.312538
 1157         h1     40    bbb    H17   1157 0.25637600   1.008000   ; qtot -0.056162
 1158         h1     40    bbb    H18   1158 0.25637600   1.008000   ; qtot 0.200214
 1159         os     40    bbb     O1   1159 -0.20025300  16.000000   ; qtot -0.000039
; residue   41 bbb rtp bbb q -0.0
 1160         n3     41    bbb     N1   1160 -0.59685800  14.010000   ; qtot -0.596897
 1161         c3     41    bbb     C1   1161 0.10137000  12.010000   ; qtot -0.495527
 1162         h1     41    bbb     H1   1162 0.04411300   1.008000   ; qtot -0.451414
 1163         h1     41    bbb     H2   1163 0.04411300   1.008000   ; qtot -0.407301
 1164         c3     41    bbb     C2   1164 0.10137000  12.010000   ; qtot -0.305931
 1165         h1     41    bbb     H3   1165 0.04411300   1.008000   ; qtot -0.261818
 1166         h1     41    bbb     H4   1166 0.04411300   1.008000   ; qtot -0.217705
 1167         c3     41    bbb     C3   1167 -0.00195300  12.010000   ; qtot -0.219658
 1168         h1     41    bbb     H5   1168 0.05064400   1.008000   ; qtot -0.169014
 1169         h1     41    bbb     H6   1169 0.05064400   1.008000   ; qtot -0.118370
 1170         c3     41    bbb     C4   1170 -0.01612100  12.010000   ; qtot -0.134491
 1171         hc     41    bbb     H7   1171 0.04936100   1.008000   ; qtot -0.085130
 1172         hc     41    bbb     H8   1172 0.04936100   1.008000   ; qtot -0.035769
 1173         c3     41    bbb     C5   1173 0.11363000  12.010000   ; qtot 0.077861
 1174         hc     41    bbb     H9   1174 0.06265900   1.008000   ; qtot 0.140520
 1175         hc     41    bbb    H10   1175 0.06265900   1.008000   ; qtot 0.203179
 1176         c3     41    bbb     C6   1176 0.11363000  12.010000   ; qtot 0.316809
 1177         hc     41    bbb    H11   1177 0.06265900   1.008000   ; qtot 0.379468
 1178         hc     41    bbb    H12   1178 0.06265900   1.008000   ; qtot 0.442127
 1179         c3     41    bbb     C7   1179 0.05858200  12.010000   ; qtot 0.500709
 1180         h1     41    bbb    H13   1180 0.06123400   1.008000   ; qtot 0.561943
 1181         h1     41    bbb    H14   1181 0.06123400   1.008000   ; qtot 0.623177
 1182         c3     41    bbb     C8   1182 -0.72423400  12.010000   ; qtot -0.101057
 1183         h1     41    bbb    H15   1183 0.25637600   1.008000   ; qtot 0.155319
 1184         h1     41    bbb    H16   1184 0.25637600   1.008000   ; qtot 0.411695
 1185         c3     41    bbb     C9   1185 -0.72423400  12.010000   ; qtot -0.312539
 1186         h1     41    bbb    H17   1186 0.25637600   1.008000   ; qtot -0.056163
 1187         h1     41    bbb    H18   1187 0.25637600   1.008000   ; qtot 0.200213
 1188         os     41    bbb     O1   1188 -0.20025300  16.000000   ; qtot -0.000040
; residue   42 bbb rtp bbb q -0.0
 1189         n3     42    bbb     N1   1189 -0.59685800  14.010000   ; qtot -0.596898
 1190         c3     42    bbb     C1   1190 0.10137000  12.010000   ; qtot -0.495528
 1191         h1     42    bbb     H1   1191 0.04411300   1.008000   ; qtot -0.451415
 1192         h1     42    bbb     H2   1192 0.04411300   1.008000   ; qtot -0.407302
 1193         c3     42    bbb     C2   1193 0.10137000  12.010000   ; qtot -0.305932
 1194         h1     42    bbb     H3   1194 0.04411300   1.008000   ; qtot -0.261819
 1195         h1     42    bbb     H4   1195 0.04411300   1.008000   ; qtot -0.217706
 1196         c3     42    bbb     C3   1196 -0.00195300  12.010000   ; qtot -0.219659
 1197         h1     42    bbb     H5   1197 0.05064400   1.008000   ; qtot -0.169015
 1198         h1     42    bbb     H6   1198 0.05064400   1.008000   ; qtot -0.118371
 1199         c3     42    bbb     C4   1199 -0.01612100  12.010000   ; qtot -0.134492
 1200         hc     42    bbb     H7   1200 0.04936100   1.008000   ; qtot -0.085131
 1201         hc     42    bbb     H8   1201 0.04936100   1.008000   ; qtot -0.035770
 1202         c3     42    bbb     C5   1202 0.11363000  12.010000   ; qtot 0.077860
 1203         hc     42    bbb     H9   1203 0.06265900   1.008000   ; qtot 0.140519
 1204         hc     42    bbb    H10   1204 0.06265900   1.008000   ; qtot 0.203178
 1205         c3     42    bbb     C6   1205 0.11363000  12.010000   ; qtot 0.316808
 1206         hc     42    bbb    H11   1206 0.06265900   1.008000   ; qtot 0.379467
 1207         hc     42    bbb    H12   1207 0.06265900   1.008000   ; qtot 0.442126
 1208         c3     42    bbb     C7   1208 0.05858200  12.010000   ; qtot 0.500708
 1209         h1     42    bbb    H13   1209 0.06123400   1.008000   ; qtot 0.561942
 1210         h1     42    bbb    H14   1210 0.06123400   1.008000   ; qtot 0.623176
 1211         c3     42    bbb     C8   1211 -0.72423400  12.010000   ; qtot -0.101058
 1212         h1     42    bbb    H15   1212 0.25637600   1.008000   ; qtot 0.155318
 1213         h1     42    bbb    H16   1213 0.25637600   1.008000   ; qtot 0.411694
 1214         c3     42    bbb     C9   1214 -0.72423400  12.010000   ; qtot -0.312540
 1215         h1     42    bbb    H17   1215 0.25637600   1.008000   ; qtot -0.056164
 1216         h1     42    bbb    H18   1216 0.25637600   1.008000   ; qtot 0.200212
 1217         os     42    bbb     O1   1217 -0.20025300  16.000000   ; qtot -0.000041
; residue   43 bbb rtp bbb q -0.0
 1218         n3     43    bbb     N1   1218 -0.59685800  14.010000   ; qtot -0.596899
 1219         c3     43    bbb     C1   1219 0.10137000  12.010000   ; qtot -0.495529
 1220         h1     43    bbb     H1   1220 0.04411300   1.008000   ; qtot -0.451416
 1221         h1     43    bbb     H2   1221 0.04411300   1.008000   ; qtot -0.407303
 1222         c3     43    bbb     C2   1222 0.10137000  12.010000   ; qtot -0.305933
 1223         h1     43    bbb     H3   1223 0.04411300   1.008000   ; qtot -0.261820
 1224         h1     43    bbb     H4   1224 0.04411300   1.008000   ; qtot -0.217707
 1225         c3     43    bbb     C3   1225 -0.00195300  12.010000   ; qtot -0.219660
 1226         h1     43    bbb     H5   1226 0.05064400   1.008000   ; qtot -0.169016
 1227         h1     43    bbb     H6   1227 0.05064400   1.008000   ; qtot -0.118372
 1228         c3     43    bbb     C4   1228 -0.01612100  12.010000   ; qtot -0.134493
 1229         hc     43    bbb     H7   1229 0.04936100   1.008000   ; qtot -0.085132
 1230         hc     43    bbb     H8   1230 0.04936100   1.008000   ; qtot -0.035771
 1231         c3     43    bbb     C5   1231 0.11363000  12.010000   ; qtot 0.077859
 1232         hc     43    bbb     H9   1232 0.06265900   1.008000   ; qtot 0.140518
 1233         hc     43    bbb    H10   1233 0.06265900   1.008000   ; qtot 0.203177
 1234         c3     43    bbb     C6   1234 0.11363000  12.010000   ; qtot 0.316807
 1235         hc     43    bbb    H11   1235 0.06265900   1.008000   ; qtot 0.379466
 1236         hc     43    bbb    H12   1236 0.06265900   1.008000   ; qtot 0.442125
 1237         c3     43    bbb     C7   1237 0.05858200  12.010000   ; qtot 0.500707
 1238         h1     43    bbb    H13   1238 0.06123400   1.008000   ; qtot 0.561941
 1239         h1     43    bbb    H14   1239 0.06123400   1.008000   ; qtot 0.623175
 1240         c3     43    bbb     C8   1240 -0.72423400  12.010000   ; qtot -0.101059
 1241         h1     43    bbb    H15   1241 0.25637600   1.008000   ; qtot 0.155317
 1242         h1     43    bbb    H16   1242 0.25637600   1.008000   ; qtot 0.411693
 1243         c3     43    bbb     C9   1243 -0.72423400  12.010000   ; qtot -0.312541
 1244         h1     43    bbb    H17   1244 0.25637600   1.008000   ; qtot -0.056165
 1245         h1     43    bbb    H18   1245 0.25637600   1.008000   ; qtot 0.200211
 1246         os     43    bbb     O1   1246 -0.20025300  16.000000   ; qtot -0.000042
; residue   44 bbb rtp bbb q -0.0
 1247         n3     44    bbb     N1   1247 -0.59685800  14.010000   ; qtot -0.596900
 1248         c3     44    bbb     C1   1248 0.10137000  12.010000   ; qtot -0.495530
 1249         h1     44    bbb     H1   1249 0.04411300   1.008000   ; qtot -0.451417
 1250         h1     44    bbb     H2   1250 0.04411300   1.008000   ; qtot -0.407304
 1251         c3     44    bbb     C2   1251 0.10137000  12.010000   ; qtot -0.305934
 1252         h1     44    bbb     H3   1252 0.04411300   1.008000   ; qtot -0.261821
 1253         h1     44    bbb     H4   1253 0.04411300   1.008000   ; qtot -0.217708
 1254         c3     44    bbb     C3   1254 -0.00195300  12.010000   ; qtot -0.219661
 1255         h1     44    bbb     H5   1255 0.05064400   1.008000   ; qtot -0.169017
 1256         h1     44    bbb     H6   1256 0.05064400   1.008000   ; qtot -0.118373
 1257         c3     44    bbb     C4   1257 -0.01612100  12.010000   ; qtot -0.134494
 1258         hc     44    bbb     H7   1258 0.04936100   1.008000   ; qtot -0.085133
 1259         hc     44    bbb     H8   1259 0.04936100   1.008000   ; qtot -0.035772
 1260         c3     44    bbb     C5   1260 0.11363000  12.010000   ; qtot 0.077858
 1261         hc     44    bbb     H9   1261 0.06265900   1.008000   ; qtot 0.140517
 1262         hc     44    bbb    H10   1262 0.06265900   1.008000   ; qtot 0.203176
 1263         c3     44    bbb     C6   1263 0.11363000  12.010000   ; qtot 0.316806
 1264         hc     44    bbb    H11   1264 0.06265900   1.008000   ; qtot 0.379465
 1265         hc     44    bbb    H12   1265 0.06265900   1.008000   ; qtot 0.442124
 1266         c3     44    bbb     C7   1266 0.05858200  12.010000   ; qtot 0.500706
 1267         h1     44    bbb    H13   1267 0.06123400   1.008000   ; qtot 0.561940
 1268         h1     44    bbb    H14   1268 0.06123400   1.008000   ; qtot 0.623174
 1269         c3     44    bbb     C8   1269 -0.72423400  12.010000   ; qtot -0.101060
 1270         h1     44    bbb    H15   1270 0.25637600   1.008000   ; qtot 0.155316
 1271         h1     44    bbb    H16   1271 0.25637600   1.008000   ; qtot 0.411692
 1272         c3     44    bbb     C9   1272 -0.72423400  12.010000   ; qtot -0.312542
 1273         h1     44    bbb    H17   1273 0.25637600   1.008000   ; qtot -0.056166
 1274         h1     44    bbb    H18   1274 0.25637600   1.008000   ; qtot 0.200210
 1275         os     44    bbb     O1   1275 -0.20025300  16.000000   ; qtot -0.000043
; residue   45 bbb rtp bbb q -0.0
 1276         n3     45    bbb     N1   1276 -0.59685800  14.010000   ; qtot -0.596901
 1277         c3     45    bbb     C1   1277 0.10137000  12.010000   ; qtot -0.495531
 1278         h1     45    bbb     H1   1278 0.04411300   1.008000   ; qtot -0.451418
 1279         h1     45    bbb     H2   1279 0.04411300   1.008000   ; qtot -0.407305
 1280         c3     45    bbb     C2   1280 0.10137000  12.010000   ; qtot -0.305935
 1281         h1     45    bbb     H3   1281 0.04411300   1.008000   ; qtot -0.261822
 1282         h1     45    bbb     H4   1282 0.04411300   1.008000   ; qtot -0.217709
 1283         c3     45    bbb     C3   1283 -0.00195300  12.010000   ; qtot -0.219662
 1284         h1     45    bbb     H5   1284 0.05064400   1.008000   ; qtot -0.169018
 1285         h1     45    bbb     H6   1285 0.05064400   1.008000   ; qtot -0.118374
 1286         c3     45    bbb     C4   1286 -0.01612100  12.010000   ; qtot -0.134495
 1287         hc     45    bbb     H7   1287 0.04936100   1.008000   ; qtot -0.085134
 1288         hc     45    bbb     H8   1288 0.04936100   1.008000   ; qtot -0.035773
 1289         c3     45    bbb     C5   1289 0.11363000  12.010000   ; qtot 0.077857
 1290         hc     45    bbb     H9   1290 0.06265900   1.008000   ; qtot 0.140516
 1291         hc     45    bbb    H10   1291 0.06265900   1.008000   ; qtot 0.203175
 1292         c3     45    bbb     C6   1292 0.11363000  12.010000   ; qtot 0.316805
 1293         hc     45    bbb    H11   1293 0.06265900   1.008000   ; qtot 0.379464
 1294         hc     45    bbb    H12   1294 0.06265900   1.008000   ; qtot 0.442123
 1295         c3     45    bbb     C7   1295 0.05858200  12.010000   ; qtot 0.500705
 1296         h1     45    bbb    H13   1296 0.06123400   1.008000   ; qtot 0.561939
 1297         h1     45    bbb    H14   1297 0.06123400   1.008000   ; qtot 0.623173
 1298         c3     45    bbb     C8   1298 -0.72423400  12.010000   ; qtot -0.101061
 1299         h1     45    bbb    H15   1299 0.25637600   1.008000   ; qtot 0.155315
 1300         h1     45    bbb    H16   1300 0.25637600   1.008000   ; qtot 0.411691
 1301         c3     45    bbb     C9   1301 -0.72423400  12.010000   ; qtot -0.312543
 1302         h1     45    bbb    H17   1302 0.25637600   1.008000   ; qtot -0.056167
 1303         h1     45    bbb    H18   1303 0.25637600   1.008000   ; qtot 0.200209
 1304         os     45    bbb     O1   1304 -0.20025300  16.000000   ; qtot -0.000044
; residue   46 bbb rtp bbb q -0.0
 1305         n3     46    bbb     N1   1305 -0.59685800  14.010000   ; qtot -0.596902
 1306         c3     46    bbb     C1   1306 0.10137000  12.010000   ; qtot -0.495532
 1307         h1     46    bbb     H1   1307 0.04411300   1.008000   ; qtot -0.451419
 1308         h1     46    bbb     H2   1308 0.04411300   1.008000   ; qtot -0.407306
 1309         c3     46    bbb     C2   1309 0.10137000  12.010000   ; qtot -0.305936
 1310         h1     46    bbb     H3   1310 0.04411300   1.008000   ; qtot -0.261823
 1311         h1     46    bbb     H4   1311 0.04411300   1.008000   ; qtot -0.217710
 1312         c3     46    bbb     C3   1312 -0.00195300  12.010000   ; qtot -0.219663
 1313         h1     46    bbb     H5   1313 0.05064400   1.008000   ; qtot -0.169019
 1314         h1     46    bbb     H6   1314 0.05064400   1.008000   ; qtot -0.118375
 1315         c3     46    bbb     C4   1315 -0.01612100  12.010000   ; qtot -0.134496
 1316         hc     46    bbb     H7   1316 0.04936100   1.008000   ; qtot -0.085135
 1317         hc     46    bbb     H8   1317 0.04936100   1.008000   ; qtot -0.035774
 1318         c3     46    bbb     C5   1318 0.11363000  12.010000   ; qtot 0.077856
 1319         hc     46    bbb     H9   1319 0.06265900   1.008000   ; qtot 0.140515
 1320         hc     46    bbb    H10   1320 0.06265900   1.008000   ; qtot 0.203174
 1321         c3     46    bbb     C6   1321 0.11363000  12.010000   ; qtot 0.316804
 1322         hc     46    bbb    H11   1322 0.06265900   1.008000   ; qtot 0.379463
 1323         hc     46    bbb    H12   1323 0.06265900   1.008000   ; qtot 0.442122
 1324         c3     46    bbb     C7   1324 0.05858200  12.010000   ; qtot 0.500704
 1325         h1     46    bbb    H13   1325 0.06123400   1.008000   ; qtot 0.561938
 1326         h1     46    bbb    H14   1326 0.06123400   1.008000   ; qtot 0.623172
 1327         c3     46    bbb     C8   1327 -0.72423400  12.010000   ; qtot -0.101062
 1328         h1     46    bbb    H15   1328 0.25637600   1.008000   ; qtot 0.155314
 1329         h1     46    bbb    H16   1329 0.25637600   1.008000   ; qtot 0.411690
 1330         c3     46    bbb     C9   1330 -0.72423400  12.010000   ; qtot -0.312544
 1331         h1     46    bbb    H17   1331 0.25637600   1.008000   ; qtot -0.056168
 1332         h1     46    bbb    H18   1332 0.25637600   1.008000   ; qtot 0.200208
 1333         os     46    bbb     O1   1333 -0.20025300  16.000000   ; qtot -0.000045
; residue   47 bbb rtp bbb q -0.0
 1334         n3     47    bbb     N1   1334 -0.59685800  14.010000   ; qtot -0.596903
 1335         c3     47    bbb     C1   1335 0.10137000  12.010000   ; qtot -0.495533
 1336         h1     47    bbb     H1   1336 0.04411300   1.008000   ; qtot -0.451420
 1337         h1     47    bbb     H2   1337 0.04411300   1.008000   ; qtot -0.407307
 1338         c3     47    bbb     C2   1338 0.10137000  12.010000   ; qtot -0.305937
 1339         h1     47    bbb     H3   1339 0.04411300   1.008000   ; qtot -0.261824
 1340         h1     47    bbb     H4   1340 0.04411300   1.008000   ; qtot -0.217711
 1341         c3     47    bbb     C3   1341 -0.00195300  12.010000   ; qtot -0.219664
 1342         h1     47    bbb     H5   1342 0.05064400   1.008000   ; qtot -0.169020
 1343         h1     47    bbb     H6   1343 0.05064400   1.008000   ; qtot -0.118376
 1344         c3     47    bbb     C4   1344 -0.01612100  12.010000   ; qtot -0.134497
 1345         hc     47    bbb     H7   1345 0.04936100   1.008000   ; qtot -0.085136
 1346         hc     47    bbb     H8   1346 0.04936100   1.008000   ; qtot -0.035775
 1347         c3     47    bbb     C5   1347 0.11363000  12.010000   ; qtot 0.077855
 1348         hc     47    bbb     H9   1348 0.06265900   1.008000   ; qtot 0.140514
 1349         hc     47    bbb    H10   1349 0.06265900   1.008000   ; qtot 0.203173
 1350         c3     47    bbb     C6   1350 0.11363000  12.010000   ; qtot 0.316803
 1351         hc     47    bbb    H11   1351 0.06265900   1.008000   ; qtot 0.379462
 1352         hc     47    bbb    H12   1352 0.06265900   1.008000   ; qtot 0.442121
 1353         c3     47    bbb     C7   1353 0.05858200  12.010000   ; qtot 0.500703
 1354         h1     47    bbb    H13   1354 0.06123400   1.008000   ; qtot 0.561937
 1355         h1     47    bbb    H14   1355 0.06123400   1.008000   ; qtot 0.623171
 1356         c3     47    bbb     C8   1356 -0.72423400  12.010000   ; qtot -0.101063
 1357         h1     47    bbb    H15   1357 0.25637600   1.008000   ; qtot 0.155313
 1358         h1     47    bbb    H16   1358 0.25637600   1.008000   ; qtot 0.411689
 1359         c3     47    bbb     C9   1359 -0.72423400  12.010000   ; qtot -0.312545
 1360         h1     47    bbb    H17   1360 0.25637600   1.008000   ; qtot -0.056169
 1361         h1     47    bbb    H18   1361 0.25637600   1.008000   ; qtot 0.200207
 1362         os     47    bbb     O1   1362 -0.20025300  16.000000   ; qtot -0.000046
; residue   48 bbb rtp bbb q -0.0
 1363         n3     48    bbb     N1   1363 -0.59685800  14.010000   ; qtot -0.596904
 1364         c3     48    bbb     C1   1364 0.10137000  12.010000   ; qtot -0.495534
 1365         h1     48    bbb     H1   1365 0.04411300   1.008000   ; qtot -0.451421
 1366         h1     48    bbb     H2   1366 0.04411300   1.008000   ; qtot -0.407308
 1367         c3     48    bbb     C2   1367 0.10137000  12.010000   ; qtot -0.305938
 1368         h1     48    bbb     H3   1368 0.04411300   1.008000   ; qtot -0.261825
 1369         h1     48    bbb     H4   1369 0.04411300   1.008000   ; qtot -0.217712
 1370         c3     48    bbb     C3   1370 -0.00195300  12.010000   ; qtot -0.219665
 1371         h1     48    bbb     H5   1371 0.05064400   1.008000   ; qtot -0.169021
 1372         h1     48    bbb     H6   1372 0.05064400   1.008000   ; qtot -0.118377
 1373         c3     48    bbb     C4   1373 -0.01612100  12.010000   ; qtot -0.134498
 1374         hc     48    bbb     H7   1374 0.04936100   1.008000   ; qtot -0.085137
 1375         hc     48    bbb     H8   1375 0.04936100   1.008000   ; qtot -0.035776
 1376         c3     48    bbb     C5   1376 0.11363000  12.010000   ; qtot 0.077854
 1377         hc     48    bbb     H9   1377 0.06265900   1.008000   ; qtot 0.140513
 1378         hc     48    bbb    H10   1378 0.06265900   1.008000   ; qtot 0.203172
 1379         c3     48    bbb     C6   1379 0.11363000  12.010000   ; qtot 0.316802
 1380         hc     48    bbb    H11   1380 0.06265900   1.008000   ; qtot 0.379461
 1381         hc     48    bbb    H12   1381 0.06265900   1.008000   ; qtot 0.442120
 1382         c3     48    bbb     C7   1382 0.05858200  12.010000   ; qtot 0.500702
 1383         h1     48    bbb    H13   1383 0.06123400   1.008000   ; qtot 0.561936
 1384         h1     48    bbb    H14   1384 0.06123400   1.008000   ; qtot 0.623170
 1385         c3     48    bbb     C8   1385 -0.72423400  12.010000   ; qtot -0.101064
 1386         h1     48    bbb    H15   1386 0.25637600   1.008000   ; qtot 0.155312
 1387         h1     48    bbb    H16   1387 0.25637600   1.008000   ; qtot 0.411688
 1388         c3     48    bbb     C9   1388 -0.72423400  12.010000   ; qtot -0.312546
 1389         h1     48    bbb    H17   1389 0.25637600   1.008000   ; qtot -0.056170
 1390         h1     48    bbb    H18   1390 0.25637600   1.008000   ; qtot 0.200206
 1391         os     48    bbb     O1   1391 -0.20025300  16.000000   ; qtot -0.000047
; residue   49 bbb rtp bbb q -0.0
 1392         n3     49    bbb     N1   1392 -0.59685800  14.010000   ; qtot -0.596905
 1393         c3     49    bbb     C1   1393 0.10137000  12.010000   ; qtot -0.495535
 1394         h1     49    bbb     H1   1394 0.04411300   1.008000   ; qtot -0.451422
 1395         h1     49    bbb     H2   1395 0.04411300   1.008000   ; qtot -0.407309
 1396         c3     49    bbb     C2   1396 0.10137000  12.010000   ; qtot -0.305939
 1397         h1     49    bbb     H3   1397 0.04411300   1.008000   ; qtot -0.261826
 1398         h1     49    bbb     H4   1398 0.04411300   1.008000   ; qtot -0.217713
 1399         c3     49    bbb     C3   1399 -0.00195300  12.010000   ; qtot -0.219666
 1400         h1     49    bbb     H5   1400 0.05064400   1.008000   ; qtot -0.169022
 1401         h1     49    bbb     H6   1401 0.05064400   1.008000   ; qtot -0.118378
 1402         c3     49    bbb     C4   1402 -0.01612100  12.010000   ; qtot -0.134499
 1403         hc     49    bbb     H7   1403 0.04936100   1.008000   ; qtot -0.085138
 1404         hc     49    bbb     H8   1404 0.04936100   1.008000   ; qtot -0.035777
 1405         c3     49    bbb     C5   1405 0.11363000  12.010000   ; qtot 0.077853
 1406         hc     49    bbb     H9   1406 0.06265900   1.008000   ; qtot 0.140512
 1407         hc     49    bbb    H10   1407 0.06265900   1.008000   ; qtot 0.203171
 1408         c3     49    bbb     C6   1408 0.11363000  12.010000   ; qtot 0.316801
 1409         hc     49    bbb    H11   1409 0.06265900   1.008000   ; qtot 0.379460
 1410         hc     49    bbb    H12   1410 0.06265900   1.008000   ; qtot 0.442119
 1411         c3     49    bbb     C7   1411 0.05858200  12.010000   ; qtot 0.500701
 1412         h1     49    bbb    H13   1412 0.06123400   1.008000   ; qtot 0.561935
 1413         h1     49    bbb    H14   1413 0.06123400   1.008000   ; qtot 0.623169
 1414         c3     49    bbb     C8   1414 -0.72423400  12.010000   ; qtot -0.101065
 1415         h1     49    bbb    H15   1415 0.25637600   1.008000   ; qtot 0.155311
 1416         h1     49    bbb    H16   1416 0.25637600   1.008000   ; qtot 0.411687
 1417         c3     49    bbb     C9   1417 -0.72423400  12.010000   ; qtot -0.312547
 1418         h1     49    bbb    H17   1418 0.25637600   1.008000   ; qtot -0.056171
 1419         h1     49    bbb    H18   1419 0.25637600   1.008000   ; qtot 0.200205
 1420         os     49    bbb     O1   1420 -0.20025300  16.000000   ; qtot -0.000048
; residue   50 bbb rtp bbb q -0.0
 1421         n3     50    bbb     N1   1421 -0.59685800  14.010000   ; qtot -0.596906
 1422         c3     50    bbb     C1   1422 0.10137000  12.010000   ; qtot -0.495536
 1423         h1     50    bbb     H1   1423 0.04411300   1.008000   ; qtot -0.451423
 1424         h1     50    bbb     H2   1424 0.04411300   1.008000   ; qtot -0.407310
 1425         c3     50    bbb     C2   1425 0.10137000  12.010000   ; qtot -0.305940
 1426         h1     50    bbb     H3   1426 0.04411300   1.008000   ; qtot -0.261827
 1427         h1     50    bbb     H4   1427 0.04411300   1.008000   ; qtot -0.217714
 1428         c3     50    bbb     C3   1428 -0.00195300  12.010000   ; qtot -0.219667
 1429         h1     50    bbb     H5   1429 0.05064400   1.008000   ; qtot -0.169023
 1430         h1     50    bbb     H6   1430 0.05064400   1.008000   ; qtot -0.118379
 1431         c3     50    bbb     C4   1431 -0.01612100  12.010000   ; qtot -0.134500
 1432         hc     50    bbb     H7   1432 0.04936100   1.008000   ; qtot -0.085139
 1433         hc     50    bbb     H8   1433 0.04936100   1.008000   ; qtot -0.035778
 1434         c3     50    bbb     C5   1434 0.11363000  12.010000   ; qtot 0.077852
 1435         hc     50    bbb     H9   1435 0.06265900   1.008000   ; qtot 0.140511
 1436         hc     50    bbb    H10   1436 0.06265900   1.008000   ; qtot 0.203170
 1437         c3     50    bbb     C6   1437 0.11363000  12.010000   ; qtot 0.316800
 1438         hc     50    bbb    H11   1438 0.06265900   1.008000   ; qtot 0.379459
 1439         hc     50    bbb    H12   1439 0.06265900   1.008000   ; qtot 0.442118
 1440         c3     50    bbb     C7   1440 0.05858200  12.010000   ; qtot 0.500700
 1441         h1     50    bbb    H13   1441 0.06123400   1.008000   ; qtot 0.561934
 1442         h1     50    bbb    H14   1442 0.06123400   1.008000   ; qtot 0.623168
 1443         c3     50    bbb     C8   1443 -0.72423400  12.010000   ; qtot -0.101066
 1444         h1     50    bbb    H15   1444 0.25637600   1.008000   ; qtot 0.155310
 1445         h1     50    bbb    H16   1445 0.25637600   1.008000   ; qtot 0.411686
 1446         c3     50    bbb     C9   1446 -0.72423400  12.010000   ; qtot -0.312548
 1447         h1     50    bbb    H17   1447 0.25637600   1.008000   ; qtot -0.056172
 1448         h1     50    bbb    H18   1448 0.25637600   1.008000   ; qtot 0.200204
 1449         os     50    bbb     O1   1449 -0.20025300  16.000000   ; qtot -0.000049
; residue   51 bbb rtp bbb q -0.0
 1450         n3     51    bbb     N1   1450 -0.59685800  14.010000   ; qtot -0.596907
 1451         c3     51    bbb     C1   1451 0.10137000  12.010000   ; qtot -0.495537
 1452         h1     51    bbb     H1   1452 0.04411300   1.008000   ; qtot -0.451424
 1453         h1     51    bbb     H2   1453 0.04411300   1.008000   ; qtot -0.407311
 1454         c3     51    bbb     C2   1454 0.10137000  12.010000   ; qtot -0.305941
 1455         h1     51    bbb     H3   1455 0.04411300   1.008000   ; qtot -0.261828
 1456         h1     51    bbb     H4   1456 0.04411300   1.008000   ; qtot -0.217715
 1457         c3     51    bbb     C3   1457 -0.00195300  12.010000   ; qtot -0.219668
 1458         h1     51    bbb     H5   1458 0.05064400   1.008000   ; qtot -0.169024
 1459         h1     51    bbb     H6   1459 0.05064400   1.008000   ; qtot -0.118380
 1460         c3     51    bbb     C4   1460 -0.01612100  12.010000   ; qtot -0.134501
 1461         hc     51    bbb     H7   1461 0.04936100   1.008000   ; qtot -0.085140
 1462         hc     51    bbb     H8   1462 0.04936100   1.008000   ; qtot -0.035779
 1463         c3     51    bbb     C5   1463 0.11363000  12.010000   ; qtot 0.077851
 1464         hc     51    bbb     H9   1464 0.06265900   1.008000   ; qtot 0.140510
 1465         hc     51    bbb    H10   1465 0.06265900   1.008000   ; qtot 0.203169
 1466         c3     51    bbb     C6   1466 0.11363000  12.010000   ; qtot 0.316799
 1467         hc     51    bbb    H11   1467 0.06265900   1.008000   ; qtot 0.379458
 1468         hc     51    bbb    H12   1468 0.06265900   1.008000   ; qtot 0.442117
 1469         c3     51    bbb     C7   1469 0.05858200  12.010000   ; qtot 0.500699
 1470         h1     51    bbb    H13   1470 0.06123400   1.008000   ; qtot 0.561933
 1471         h1     51    bbb    H14   1471 0.06123400   1.008000   ; qtot 0.623167
 1472         c3     51    bbb     C8   1472 -0.72423400  12.010000   ; qtot -0.101067
 1473         h1     51    bbb    H15   1473 0.25637600   1.008000   ; qtot 0.155309
 1474         h1     51    bbb    H16   1474 0.25637600   1.008000   ; qtot 0.411685
 1475         c3     51    bbb     C9   1475 -0.72423400  12.010000   ; qtot -0.312549
 1476         h1     51    bbb    H17   1476 0.25637600   1.008000   ; qtot -0.056173
 1477         h1     51    bbb    H18   1477 0.25637600   1.008000   ; qtot 0.200203
 1478         os     51    bbb     O1   1478 -0.20025300  16.000000   ; qtot -0.000050
; residue   52 bbb rtp bbb q -0.0
 1479         n3     52    bbb     N1   1479 -0.59685800  14.010000   ; qtot -0.596908
 1480         c3     52    bbb     C1   1480 0.10137000  12.010000   ; qtot -0.495538
 1481         h1     52    bbb     H1   1481 0.04411300   1.008000   ; qtot -0.451425
 1482         h1     52    bbb     H2   1482 0.04411300   1.008000   ; qtot -0.407312
 1483         c3     52    bbb     C2   1483 0.10137000  12.010000   ; qtot -0.305942
 1484         h1     52    bbb     H3   1484 0.04411300   1.008000   ; qtot -0.261829
 1485         h1     52    bbb     H4   1485 0.04411300   1.008000   ; qtot -0.217716
 1486         c3     52    bbb     C3   1486 -0.00195300  12.010000   ; qtot -0.219669
 1487         h1     52    bbb     H5   1487 0.05064400   1.008000   ; qtot -0.169025
 1488         h1     52    bbb     H6   1488 0.05064400   1.008000   ; qtot -0.118381
 1489         c3     52    bbb     C4   1489 -0.01612100  12.010000   ; qtot -0.134502
 1490         hc     52    bbb     H7   1490 0.04936100   1.008000   ; qtot -0.085141
 1491         hc     52    bbb     H8   1491 0.04936100   1.008000   ; qtot -0.035780
 1492         c3     52    bbb     C5   1492 0.11363000  12.010000   ; qtot 0.077850
 1493         hc     52    bbb     H9   1493 0.06265900   1.008000   ; qtot 0.140509
 1494         hc     52    bbb    H10   1494 0.06265900   1.008000   ; qtot 0.203168
 1495         c3     52    bbb     C6   1495 0.11363000  12.010000   ; qtot 0.316798
 1496         hc     52    bbb    H11   1496 0.06265900   1.008000   ; qtot 0.379457
 1497         hc     52    bbb    H12   1497 0.06265900   1.008000   ; qtot 0.442116
 1498         c3     52    bbb     C7   1498 0.05858200  12.010000   ; qtot 0.500698
 1499         h1     52    bbb    H13   1499 0.06123400   1.008000   ; qtot 0.561932
 1500         h1     52    bbb    H14   1500 0.06123400   1.008000   ; qtot 0.623166
 1501         c3     52    bbb     C8   1501 -0.72423400  12.010000   ; qtot -0.101068
 1502         h1     52    bbb    H15   1502 0.25637600   1.008000   ; qtot 0.155308
 1503         h1     52    bbb    H16   1503 0.25637600   1.008000   ; qtot 0.411684
 1504         c3     52    bbb     C9   1504 -0.72423400  12.010000   ; qtot -0.312550
 1505         h1     52    bbb    H17   1505 0.25637600   1.008000   ; qtot -0.056174
 1506         h1     52    bbb    H18   1506 0.25637600   1.008000   ; qtot 0.200202
 1507         os     52    bbb     O1   1507 -0.20025300  16.000000   ; qtot -0.000051
; residue   53 bbb rtp bbb q -0.0
 1508         n3     53    bbb     N1   1508 -0.59685800  14.010000   ; qtot -0.596909
 1509         c3     53    bbb     C1   1509 0.10137000  12.010000   ; qtot -0.495539
 1510         h1     53    bbb     H1   1510 0.04411300   1.008000   ; qtot -0.451426
 1511         h1     53    bbb     H2   1511 0.04411300   1.008000   ; qtot -0.407313
 1512         c3     53    bbb     C2   1512 0.10137000  12.010000   ; qtot -0.305943
 1513         h1     53    bbb     H3   1513 0.04411300   1.008000   ; qtot -0.261830
 1514         h1     53    bbb     H4   1514 0.04411300   1.008000   ; qtot -0.217717
 1515         c3     53    bbb     C3   1515 -0.00195300  12.010000   ; qtot -0.219670
 1516         h1     53    bbb     H5   1516 0.05064400   1.008000   ; qtot -0.169026
 1517         h1     53    bbb     H6   1517 0.05064400   1.008000   ; qtot -0.118382
 1518         c3     53    bbb     C4   1518 -0.01612100  12.010000   ; qtot -0.134503
 1519         hc     53    bbb     H7   1519 0.04936100   1.008000   ; qtot -0.085142
 1520         hc     53    bbb     H8   1520 0.04936100   1.008000   ; qtot -0.035781
 1521         c3     53    bbb     C5   1521 0.11363000  12.010000   ; qtot 0.077849
 1522         hc     53    bbb     H9   1522 0.06265900   1.008000   ; qtot 0.140508
 1523         hc     53    bbb    H10   1523 0.06265900   1.008000   ; qtot 0.203167
 1524         c3     53    bbb     C6   1524 0.11363000  12.010000   ; qtot 0.316797
 1525         hc     53    bbb    H11   1525 0.06265900   1.008000   ; qtot 0.379456
 1526         hc     53    bbb    H12   1526 0.06265900   1.008000   ; qtot 0.442115
 1527         c3     53    bbb     C7   1527 0.05858200  12.010000   ; qtot 0.500697
 1528         h1     53    bbb    H13   1528 0.06123400   1.008000   ; qtot 0.561931
 1529         h1     53    bbb    H14   1529 0.06123400   1.008000   ; qtot 0.623165
 1530         c3     53    bbb     C8   1530 -0.72423400  12.010000   ; qtot -0.101069
 1531         h1     53    bbb    H15   1531 0.25637600   1.008000   ; qtot 0.155307
 1532         h1     53    bbb    H16   1532 0.25637600   1.008000   ; qtot 0.411683
 1533         c3     53    bbb     C9   1533 -0.72423400  12.010000   ; qtot -0.312551
 1534         h1     53    bbb    H17   1534 0.25637600   1.008000   ; qtot -0.056175
 1535         h1     53    bbb    H18   1535 0.25637600   1.008000   ; qtot 0.200201
 1536         os     53    bbb     O1   1536 -0.20025300  16.000000   ; qtot -0.000052
; residue   54 bbb rtp bbb q -0.0
 1537         n3     54    bbb     N1   1537 -0.59685800  14.010000   ; qtot -0.596910
 1538         c3     54    bbb     C1   1538 0.10137000  12.010000   ; qtot -0.495540
 1539         h1     54    bbb     H1   1539 0.04411300   1.008000   ; qtot -0.451427
 1540         h1     54    bbb     H2   1540 0.04411300   1.008000   ; qtot -0.407314
 1541         c3     54    bbb     C2   1541 0.10137000  12.010000   ; qtot -0.305944
 1542         h1     54    bbb     H3   1542 0.04411300   1.008000   ; qtot -0.261831
 1543         h1     54    bbb     H4   1543 0.04411300   1.008000   ; qtot -0.217718
 1544         c3     54    bbb     C3   1544 -0.00195300  12.010000   ; qtot -0.219671
 1545         h1     54    bbb     H5   1545 0.05064400   1.008000   ; qtot -0.169027
 1546         h1     54    bbb     H6   1546 0.05064400   1.008000   ; qtot -0.118383
 1547         c3     54    bbb     C4   1547 -0.01612100  12.010000   ; qtot -0.134504
 1548         hc     54    bbb     H7   1548 0.04936100   1.008000   ; qtot -0.085143
 1549         hc     54    bbb     H8   1549 0.04936100   1.008000   ; qtot -0.035782
 1550         c3     54    bbb     C5   1550 0.11363000  12.010000   ; qtot 0.077848
 1551         hc     54    bbb     H9   1551 0.06265900   1.008000   ; qtot 0.140507
 1552         hc     54    bbb    H10   1552 0.06265900   1.008000   ; qtot 0.203166
 1553         c3     54    bbb     C6   1553 0.11363000  12.010000   ; qtot 0.316796
 1554         hc     54    bbb    H11   1554 0.06265900   1.008000   ; qtot 0.379455
 1555         hc     54    bbb    H12   1555 0.06265900   1.008000   ; qtot 0.442114
 1556         c3     54    bbb     C7   1556 0.05858200  12.010000   ; qtot 0.500696
 1557         h1     54    bbb    H13   1557 0.06123400   1.008000   ; qtot 0.561930
 1558         h1     54    bbb    H14   1558 0.06123400   1.008000   ; qtot 0.623164
 1559         c3     54    bbb     C8   1559 -0.72423400  12.010000   ; qtot -0.101070
 1560         h1     54    bbb    H15   1560 0.25637600   1.008000   ; qtot 0.155306
 1561         h1     54    bbb    H16   1561 0.25637600   1.008000   ; qtot 0.411682
 1562         c3     54    bbb     C9   1562 -0.72423400  12.010000   ; qtot -0.312552
 1563         h1     54    bbb    H17   1563 0.25637600   1.008000   ; qtot -0.056176
 1564         h1     54    bbb    H18   1564 0.25637600   1.008000   ; qtot 0.200200
 1565         os     54    bbb     O1   1565 -0.20025300  16.000000   ; qtot -0.000053
; residue   55 bbb rtp bbb q -0.0
 1566         n3     55    bbb     N1   1566 -0.59685800  14.010000   ; qtot -0.596911
 1567         c3     55    bbb     C1   1567 0.10137000  12.010000   ; qtot -0.495541
 1568         h1     55    bbb     H1   1568 0.04411300   1.008000   ; qtot -0.451428
 1569         h1     55    bbb     H2   1569 0.04411300   1.008000   ; qtot -0.407315
 1570         c3     55    bbb     C2   1570 0.10137000  12.010000   ; qtot -0.305945
 1571         h1     55    bbb     H3   1571 0.04411300   1.008000   ; qtot -0.261832
 1572         h1     55    bbb     H4   1572 0.04411300   1.008000   ; qtot -0.217719
 1573         c3     55    bbb     C3   1573 -0.00195300  12.010000   ; qtot -0.219672
 1574         h1     55    bbb     H5   1574 0.05064400   1.008000   ; qtot -0.169028
 1575         h1     55    bbb     H6   1575 0.05064400   1.008000   ; qtot -0.118384
 1576         c3     55    bbb     C4   1576 -0.01612100  12.010000   ; qtot -0.134505
 1577         hc     55    bbb     H7   1577 0.04936100   1.008000   ; qtot -0.085144
 1578         hc     55    bbb     H8   1578 0.04936100   1.008000   ; qtot -0.035783
 1579         c3     55    bbb     C5   1579 0.11363000  12.010000   ; qtot 0.077847
 1580         hc     55    bbb     H9   1580 0.06265900   1.008000   ; qtot 0.140506
 1581         hc     55    bbb    H10   1581 0.06265900   1.008000   ; qtot 0.203165
 1582         c3     55    bbb     C6   1582 0.11363000  12.010000   ; qtot 0.316795
 1583         hc     55    bbb    H11   1583 0.06265900   1.008000   ; qtot 0.379454
 1584         hc     55    bbb    H12   1584 0.06265900   1.008000   ; qtot 0.442113
 1585         c3     55    bbb     C7   1585 0.05858200  12.010000   ; qtot 0.500695
 1586         h1     55    bbb    H13   1586 0.06123400   1.008000   ; qtot 0.561929
 1587         h1     55    bbb    H14   1587 0.06123400   1.008000   ; qtot 0.623163
 1588         c3     55    bbb     C8   1588 -0.72423400  12.010000   ; qtot -0.101071
 1589         h1     55    bbb    H15   1589 0.25637600   1.008000   ; qtot 0.155305
 1590         h1     55    bbb    H16   1590 0.25637600   1.008000   ; qtot 0.411681
 1591         c3     55    bbb     C9   1591 -0.72423400  12.010000   ; qtot -0.312553
 1592         h1     55    bbb    H17   1592 0.25637600   1.008000   ; qtot -0.056177
 1593         h1     55    bbb    H18   1593 0.25637600   1.008000   ; qtot 0.200199
 1594         os     55    bbb     O1   1594 -0.20025300  16.000000   ; qtot -0.000054
; residue   56 bbb rtp bbb q -0.0
 1595         n3     56    bbb     N1   1595 -0.59685800  14.010000   ; qtot -0.596912
 1596         c3     56    bbb     C1   1596 0.10137000  12.010000   ; qtot -0.495542
 1597         h1     56    bbb     H1   1597 0.04411300   1.008000   ; qtot -0.451429
 1598         h1     56    bbb     H2   1598 0.04411300   1.008000   ; qtot -0.407316
 1599         c3     56    bbb     C2   1599 0.10137000  12.010000   ; qtot -0.305946
 1600         h1     56    bbb     H3   1600 0.04411300   1.008000   ; qtot -0.261833
 1601         h1     56    bbb     H4   1601 0.04411300   1.008000   ; qtot -0.217720
 1602         c3     56    bbb     C3   1602 -0.00195300  12.010000   ; qtot -0.219673
 1603         h1     56    bbb     H5   1603 0.05064400   1.008000   ; qtot -0.169029
 1604         h1     56    bbb     H6   1604 0.05064400   1.008000   ; qtot -0.118385
 1605         c3     56    bbb     C4   1605 -0.01612100  12.010000   ; qtot -0.134506
 1606         hc     56    bbb     H7   1606 0.04936100   1.008000   ; qtot -0.085145
 1607         hc     56    bbb     H8   1607 0.04936100   1.008000   ; qtot -0.035784
 1608         c3     56    bbb     C5   1608 0.11363000  12.010000   ; qtot 0.077846
 1609         hc     56    bbb     H9   1609 0.06265900   1.008000   ; qtot 0.140505
 1610         hc     56    bbb    H10   1610 0.06265900   1.008000   ; qtot 0.203164
 1611         c3     56    bbb     C6   1611 0.11363000  12.010000   ; qtot 0.316794
 1612         hc     56    bbb    H11   1612 0.06265900   1.008000   ; qtot 0.379453
 1613         hc     56    bbb    H12   1613 0.06265900   1.008000   ; qtot 0.442112
 1614         c3     56    bbb     C7   1614 0.05858200  12.010000   ; qtot 0.500694
 1615         h1     56    bbb    H13   1615 0.06123400   1.008000   ; qtot 0.561928
 1616         h1     56    bbb    H14   1616 0.06123400   1.008000   ; qtot 0.623162
 1617         c3     56    bbb     C8   1617 -0.72423400  12.010000   ; qtot -0.101072
 1618         h1     56    bbb    H15   1618 0.25637600   1.008000   ; qtot 0.155304
 1619         h1     56    bbb    H16   1619 0.25637600   1.008000   ; qtot 0.411680
 1620         c3     56    bbb     C9   1620 -0.72423400  12.010000   ; qtot -0.312554
 1621         h1     56    bbb    H17   1621 0.25637600   1.008000   ; qtot -0.056178
 1622         h1     56    bbb    H18   1622 0.25637600   1.008000   ; qtot 0.200198
 1623         os     56    bbb     O1   1623 -0.20025300  16.000000   ; qtot -0.000055
; residue   57 bbb rtp bbb q -0.0
 1624         n3     57    bbb     N1   1624 -0.59685800  14.010000   ; qtot -0.596913
 1625         c3     57    bbb     C1   1625 0.10137000  12.010000   ; qtot -0.495543
 1626         h1     57    bbb     H1   1626 0.04411300   1.008000   ; qtot -0.451430
 1627         h1     57    bbb     H2   1627 0.04411300   1.008000   ; qtot -0.407317
 1628         c3     57    bbb     C2   1628 0.10137000  12.010000   ; qtot -0.305947
 1629         h1     57    bbb     H3   1629 0.04411300   1.008000   ; qtot -0.261834
 1630         h1     57    bbb     H4   1630 0.04411300   1.008000   ; qtot -0.217721
 1631         c3     57    bbb     C3   1631 -0.00195300  12.010000   ; qtot -0.219674
 1632         h1     57    bbb     H5   1632 0.05064400   1.008000   ; qtot -0.169030
 1633         h1     57    bbb     H6   1633 0.05064400   1.008000   ; qtot -0.118386
 1634         c3     57    bbb     C4   1634 -0.01612100  12.010000   ; qtot -0.134507
 1635         hc     57    bbb     H7   1635 0.04936100   1.008000   ; qtot -0.085146
 1636         hc     57    bbb     H8   1636 0.04936100   1.008000   ; qtot -0.035785
 1637         c3     57    bbb     C5   1637 0.11363000  12.010000   ; qtot 0.077845
 1638         hc     57    bbb     H9   1638 0.06265900   1.008000   ; qtot 0.140504
 1639         hc     57    bbb    H10   1639 0.06265900   1.008000   ; qtot 0.203163
 1640         c3     57    bbb     C6   1640 0.11363000  12.010000   ; qtot 0.316793
 1641         hc     57    bbb    H11   1641 0.06265900   1.008000   ; qtot 0.379452
 1642         hc     57    bbb    H12   1642 0.06265900   1.008000   ; qtot 0.442111
 1643         c3     57    bbb     C7   1643 0.05858200  12.010000   ; qtot 0.500693
 1644         h1     57    bbb    H13   1644 0.06123400   1.008000   ; qtot 0.561927
 1645         h1     57    bbb    H14   1645 0.06123400   1.008000   ; qtot 0.623161
 1646         c3     57    bbb     C8   1646 -0.72423400  12.010000   ; qtot -0.101073
 1647         h1     57    bbb    H15   1647 0.25637600   1.008000   ; qtot 0.155303
 1648         h1     57    bbb    H16   1648 0.25637600   1.008000   ; qtot 0.411679
 1649         c3     57    bbb     C9   1649 -0.72423400  12.010000   ; qtot -0.312555
 1650         h1     57    bbb    H17   1650 0.25637600   1.008000   ; qtot -0.056179
 1651         h1     57    bbb    H18   1651 0.25637600   1.008000   ; qtot 0.200197
 1652         os     57    bbb     O1   1652 -0.20025300  16.000000   ; qtot -0.000056
; residue   58 bbb rtp bbb q -0.0
 1653         n3     58    bbb     N1   1653 -0.59685800  14.010000   ; qtot -0.596914
 1654         c3     58    bbb     C1   1654 0.10137000  12.010000   ; qtot -0.495544
 1655         h1     58    bbb     H1   1655 0.04411300   1.008000   ; qtot -0.451431
 1656         h1     58    bbb     H2   1656 0.04411300   1.008000   ; qtot -0.407318
 1657         c3     58    bbb     C2   1657 0.10137000  12.010000   ; qtot -0.305948
 1658         h1     58    bbb     H3   1658 0.04411300   1.008000   ; qtot -0.261835
 1659         h1     58    bbb     H4   1659 0.04411300   1.008000   ; qtot -0.217722
 1660         c3     58    bbb     C3   1660 -0.00195300  12.010000   ; qtot -0.219675
 1661         h1     58    bbb     H5   1661 0.05064400   1.008000   ; qtot -0.169031
 1662         h1     58    bbb     H6   1662 0.05064400   1.008000   ; qtot -0.118387
 1663         c3     58    bbb     C4   1663 -0.01612100  12.010000   ; qtot -0.134508
 1664         hc     58    bbb     H7   1664 0.04936100   1.008000   ; qtot -0.085147
 1665         hc     58    bbb     H8   1665 0.04936100   1.008000   ; qtot -0.035786
 1666         c3     58    bbb     C5   1666 0.11363000  12.010000   ; qtot 0.077844
 1667         hc     58    bbb     H9   1667 0.06265900   1.008000   ; qtot 0.140503
 1668         hc     58    bbb    H10   1668 0.06265900   1.008000   ; qtot 0.203162
 1669         c3     58    bbb     C6   1669 0.11363000  12.010000   ; qtot 0.316792
 1670         hc     58    bbb    H11   1670 0.06265900   1.008000   ; qtot 0.379451
 1671         hc     58    bbb    H12   1671 0.06265900   1.008000   ; qtot 0.442110
 1672         c3     58    bbb     C7   1672 0.05858200  12.010000   ; qtot 0.500692
 1673         h1     58    bbb    H13   1673 0.06123400   1.008000   ; qtot 0.561926
 1674         h1     58    bbb    H14   1674 0.06123400   1.008000   ; qtot 0.623160
 1675         c3     58    bbb     C8   1675 -0.72423400  12.010000   ; qtot -0.101074
 1676         h1     58    bbb    H15   1676 0.25637600   1.008000   ; qtot 0.155302
 1677         h1     58    bbb    H16   1677 0.25637600   1.008000   ; qtot 0.411678
 1678         c3     58    bbb     C9   1678 -0.72423400  12.010000   ; qtot -0.312556
 1679         h1     58    bbb    H17   1679 0.25637600   1.008000   ; qtot -0.056180
 1680         h1     58    bbb    H18   1680 0.25637600   1.008000   ; qtot 0.200196
 1681         os     58    bbb     O1   1681 -0.20025300  16.000000   ; qtot -0.000057
; residue   59 bbb rtp bbb q -0.0
 1682         n3     59    bbb     N1   1682 -0.59685800  14.010000   ; qtot -0.596915
 1683         c3     59    bbb     C1   1683 0.10137000  12.010000   ; qtot -0.495545
 1684         h1     59    bbb     H1   1684 0.04411300   1.008000   ; qtot -0.451432
 1685         h1     59    bbb     H2   1685 0.04411300   1.008000   ; qtot -0.407319
 1686         c3     59    bbb     C2   1686 0.10137000  12.010000   ; qtot -0.305949
 1687         h1     59    bbb     H3   1687 0.04411300   1.008000   ; qtot -0.261836
 1688         h1     59    bbb     H4   1688 0.04411300   1.008000   ; qtot -0.217723
 1689         c3     59    bbb     C3   1689 -0.00195300  12.010000   ; qtot -0.219676
 1690         h1     59    bbb     H5   1690 0.05064400   1.008000   ; qtot -0.169032
 1691         h1     59    bbb     H6   1691 0.05064400   1.008000   ; qtot -0.118388
 1692         c3     59    bbb     C4   1692 -0.01612100  12.010000   ; qtot -0.134509
 1693         hc     59    bbb     H7   1693 0.04936100   1.008000   ; qtot -0.085148
 1694         hc     59    bbb     H8   1694 0.04936100   1.008000   ; qtot -0.035787
 1695         c3     59    bbb     C5   1695 0.11363000  12.010000   ; qtot 0.077843
 1696         hc     59    bbb     H9   1696 0.06265900   1.008000   ; qtot 0.140502
 1697         hc     59    bbb    H10   1697 0.06265900   1.008000   ; qtot 0.203161
 1698         c3     59    bbb     C6   1698 0.11363000  12.010000   ; qtot 0.316791
 1699         hc     59    bbb    H11   1699 0.06265900   1.008000   ; qtot 0.379450
 1700         hc     59    bbb    H12   1700 0.06265900   1.008000   ; qtot 0.442109
 1701         c3     59    bbb     C7   1701 0.05858200  12.010000   ; qtot 0.500691
 1702         h1     59    bbb    H13   1702 0.06123400   1.008000   ; qtot 0.561925
 1703         h1     59    bbb    H14   1703 0.06123400   1.008000   ; qtot 0.623159
 1704         c3     59    bbb     C8   1704 -0.72423400  12.010000   ; qtot -0.101075
 1705         h1     59    bbb    H15   1705 0.25637600   1.008000   ; qtot 0.155301
 1706         h1     59    bbb    H16   1706 0.25637600   1.008000   ; qtot 0.411677
 1707         c3     59    bbb     C9   1707 -0.72423400  12.010000   ; qtot -0.312557
 1708         h1     59    bbb    H17   1708 0.25637600   1.008000   ; qtot -0.056181
 1709         h1     59    bbb    H18   1709 0.25637600   1.008000   ; qtot 0.200195
 1710         os     59    bbb     O1   1710 -0.20025300  16.000000   ; qtot -0.000058
; residue   60 bbb rtp bbb q -0.0
 1711         n3     60    bbb     N1   1711 -0.59685800  14.010000   ; qtot -0.596916
 1712         c3     60    bbb     C1   1712 0.10137000  12.010000   ; qtot -0.495546
 1713         h1     60    bbb     H1   1713 0.04411300   1.008000   ; qtot -0.451433
 1714         h1     60    bbb     H2   1714 0.04411300   1.008000   ; qtot -0.407320
 1715         c3     60    bbb     C2   1715 0.10137000  12.010000   ; qtot -0.305950
 1716         h1     60    bbb     H3   1716 0.04411300   1.008000   ; qtot -0.261837
 1717         h1     60    bbb     H4   1717 0.04411300   1.008000   ; qtot -0.217724
 1718         c3     60    bbb     C3   1718 -0.00195300  12.010000   ; qtot -0.219677
 1719         h1     60    bbb     H5   1719 0.05064400   1.008000   ; qtot -0.169033
 1720         h1     60    bbb     H6   1720 0.05064400   1.008000   ; qtot -0.118389
 1721         c3     60    bbb     C4   1721 -0.01612100  12.010000   ; qtot -0.134510
 1722         hc     60    bbb     H7   1722 0.04936100   1.008000   ; qtot -0.085149
 1723         hc     60    bbb     H8   1723 0.04936100   1.008000   ; qtot -0.035788
 1724         c3     60    bbb     C5   1724 0.11363000  12.010000   ; qtot 0.077842
 1725         hc     60    bbb     H9   1725 0.06265900   1.008000   ; qtot 0.140501
 1726         hc     60    bbb    H10   1726 0.06265900   1.008000   ; qtot 0.203160
 1727         c3     60    bbb     C6   1727 0.11363000  12.010000   ; qtot 0.316790
 1728         hc     60    bbb    H11   1728 0.06265900   1.008000   ; qtot 0.379449
 1729         hc     60    bbb    H12   1729 0.06265900   1.008000   ; qtot 0.442108
 1730         c3     60    bbb     C7   1730 0.05858200  12.010000   ; qtot 0.500690
 1731         h1     60    bbb    H13   1731 0.06123400   1.008000   ; qtot 0.561924
 1732         h1     60    bbb    H14   1732 0.06123400   1.008000   ; qtot 0.623158
 1733         c3     60    bbb     C8   1733 -0.72423400  12.010000   ; qtot -0.101076
 1734         h1     60    bbb    H15   1734 0.25637600   1.008000   ; qtot 0.155300
 1735         h1     60    bbb    H16   1735 0.25637600   1.008000   ; qtot 0.411676
 1736         c3     60    bbb     C9   1736 -0.72423400  12.010000   ; qtot -0.312558
 1737         h1     60    bbb    H17   1737 0.25637600   1.008000   ; qtot -0.056182
 1738         h1     60    bbb    H18   1738 0.25637600   1.008000   ; qtot 0.200194
 1739         os     60    bbb     O1   1739 -0.20025300  16.000000   ; qtot -0.000059
; residue   61 bbb rtp bbb q -0.0
 1740         n3     61    bbb     N1   1740 -0.59685800  14.010000   ; qtot -0.596917
 1741         c3     61    bbb     C1   1741 0.10137000  12.010000   ; qtot -0.495547
 1742         h1     61    bbb     H1   1742 0.04411300   1.008000   ; qtot -0.451434
 1743         h1     61    bbb     H2   1743 0.04411300   1.008000   ; qtot -0.407321
 1744         c3     61    bbb     C2   1744 0.10137000  12.010000   ; qtot -0.305951
 1745         h1     61    bbb     H3   1745 0.04411300   1.008000   ; qtot -0.261838
 1746         h1     61    bbb     H4   1746 0.04411300   1.008000   ; qtot -0.217725
 1747         c3     61    bbb     C3   1747 -0.00195300  12.010000   ; qtot -0.219678
 1748         h1     61    bbb     H5   1748 0.05064400   1.008000   ; qtot -0.169034
 1749         h1     61    bbb     H6   1749 0.05064400   1.008000   ; qtot -0.118390
 1750         c3     61    bbb     C4   1750 -0.01612100  12.010000   ; qtot -0.134511
 1751         hc     61    bbb     H7   1751 0.04936100   1.008000   ; qtot -0.085150
 1752         hc     61    bbb     H8   1752 0.04936100   1.008000   ; qtot -0.035789
 1753         c3     61    bbb     C5   1753 0.11363000  12.010000   ; qtot 0.077841
 1754         hc     61    bbb     H9   1754 0.06265900   1.008000   ; qtot 0.140500
 1755         hc     61    bbb    H10   1755 0.06265900   1.008000   ; qtot 0.203159
 1756         c3     61    bbb     C6   1756 0.11363000  12.010000   ; qtot 0.316789
 1757         hc     61    bbb    H11   1757 0.06265900   1.008000   ; qtot 0.379448
 1758         hc     61    bbb    H12   1758 0.06265900   1.008000   ; qtot 0.442107
 1759         c3     61    bbb     C7   1759 0.05858200  12.010000   ; qtot 0.500689
 1760         h1     61    bbb    H13   1760 0.06123400   1.008000   ; qtot 0.561923
 1761         h1     61    bbb    H14   1761 0.06123400   1.008000   ; qtot 0.623157
 1762         c3     61    bbb     C8   1762 -0.72423400  12.010000   ; qtot -0.101077
 1763         h1     61    bbb    H15   1763 0.25637600   1.008000   ; qtot 0.155299
 1764         h1     61    bbb    H16   1764 0.25637600   1.008000   ; qtot 0.411675
 1765         c3     61    bbb     C9   1765 -0.72423400  12.010000   ; qtot -0.312559
 1766         h1     61    bbb    H17   1766 0.25637600   1.008000   ; qtot -0.056183
 1767         h1     61    bbb    H18   1767 0.25637600   1.008000   ; qtot 0.200193
 1768         os     61    bbb     O1   1768 -0.20025300  16.000000   ; qtot -0.000060
; residue   62 bbb rtp bbb q -0.0
 1769         n3     62    bbb     N1   1769 -0.59685800  14.010000   ; qtot -0.596918
 1770         c3     62    bbb     C1   1770 0.10137000  12.010000   ; qtot -0.495548
 1771         h1     62    bbb     H1   1771 0.04411300   1.008000   ; qtot -0.451435
 1772         h1     62    bbb     H2   1772 0.04411300   1.008000   ; qtot -0.407322
 1773         c3     62    bbb     C2   1773 0.10137000  12.010000   ; qtot -0.305952
 1774         h1     62    bbb     H3   1774 0.04411300   1.008000   ; qtot -0.261839
 1775         h1     62    bbb     H4   1775 0.04411300   1.008000   ; qtot -0.217726
 1776         c3     62    bbb     C3   1776 -0.00195300  12.010000   ; qtot -0.219679
 1777         h1     62    bbb     H5   1777 0.05064400   1.008000   ; qtot -0.169035
 1778         h1     62    bbb     H6   1778 0.05064400   1.008000   ; qtot -0.118391
 1779         c3     62    bbb     C4   1779 -0.01612100  12.010000   ; qtot -0.134512
 1780         hc     62    bbb     H7   1780 0.04936100   1.008000   ; qtot -0.085151
 1781         hc     62    bbb     H8   1781 0.04936100   1.008000   ; qtot -0.035790
 1782         c3     62    bbb     C5   1782 0.11363000  12.010000   ; qtot 0.077840
 1783         hc     62    bbb     H9   1783 0.06265900   1.008000   ; qtot 0.140499
 1784         hc     62    bbb    H10   1784 0.06265900   1.008000   ; qtot 0.203158
 1785         c3     62    bbb     C6   1785 0.11363000  12.010000   ; qtot 0.316788
 1786         hc     62    bbb    H11   1786 0.06265900   1.008000   ; qtot 0.379447
 1787         hc     62    bbb    H12   1787 0.06265900   1.008000   ; qtot 0.442106
 1788         c3     62    bbb     C7   1788 0.05858200  12.010000   ; qtot 0.500688
 1789         h1     62    bbb    H13   1789 0.06123400   1.008000   ; qtot 0.561922
 1790         h1     62    bbb    H14   1790 0.06123400   1.008000   ; qtot 0.623156
 1791         c3     62    bbb     C8   1791 -0.72423400  12.010000   ; qtot -0.101078
 1792         h1     62    bbb    H15   1792 0.25637600   1.008000   ; qtot 0.155298
 1793         h1     62    bbb    H16   1793 0.25637600   1.008000   ; qtot 0.411674
 1794         c3     62    bbb     C9   1794 -0.72423400  12.010000   ; qtot -0.312560
 1795         h1     62    bbb    H17   1795 0.25637600   1.008000   ; qtot -0.056184
 1796         h1     62    bbb    H18   1796 0.25637600   1.008000   ; qtot 0.200192
 1797         os     62    bbb     O1   1797 -0.20025300  16.000000   ; qtot -0.000061
; residue   63 bbb rtp bbb q -0.0
 1798         n3     63    bbb     N1   1798 -0.59685800  14.010000   ; qtot -0.596919
 1799         c3     63    bbb     C1   1799 0.10137000  12.010000   ; qtot -0.495549
 1800         h1     63    bbb     H1   1800 0.04411300   1.008000   ; qtot -0.451436
 1801         h1     63    bbb     H2   1801 0.04411300   1.008000   ; qtot -0.407323
 1802         c3     63    bbb     C2   1802 0.10137000  12.010000   ; qtot -0.305953
 1803         h1     63    bbb     H3   1803 0.04411300   1.008000   ; qtot -0.261840
 1804         h1     63    bbb     H4   1804 0.04411300   1.008000   ; qtot -0.217727
 1805         c3     63    bbb     C3   1805 -0.00195300  12.010000   ; qtot -0.219680
 1806         h1     63    bbb     H5   1806 0.05064400   1.008000   ; qtot -0.169036
 1807         h1     63    bbb     H6   1807 0.05064400   1.008000   ; qtot -0.118392
 1808         c3     63    bbb     C4   1808 -0.01612100  12.010000   ; qtot -0.134513
 1809         hc     63    bbb     H7   1809 0.04936100   1.008000   ; qtot -0.085152
 1810         hc     63    bbb     H8   1810 0.04936100   1.008000   ; qtot -0.035791
 1811         c3     63    bbb     C5   1811 0.11363000  12.010000   ; qtot 0.077839
 1812         hc     63    bbb     H9   1812 0.06265900   1.008000   ; qtot 0.140498
 1813         hc     63    bbb    H10   1813 0.06265900   1.008000   ; qtot 0.203157
 1814         c3     63    bbb     C6   1814 0.11363000  12.010000   ; qtot 0.316787
 1815         hc     63    bbb    H11   1815 0.06265900   1.008000   ; qtot 0.379446
 1816         hc     63    bbb    H12   1816 0.06265900   1.008000   ; qtot 0.442105
 1817         c3     63    bbb     C7   1817 0.05858200  12.010000   ; qtot 0.500687
 1818         h1     63    bbb    H13   1818 0.06123400   1.008000   ; qtot 0.561921
 1819         h1     63    bbb    H14   1819 0.06123400   1.008000   ; qtot 0.623155
 1820         c3     63    bbb     C8   1820 -0.72423400  12.010000   ; qtot -0.101079
 1821         h1     63    bbb    H15   1821 0.25637600   1.008000   ; qtot 0.155297
 1822         h1     63    bbb    H16   1822 0.25637600   1.008000   ; qtot 0.411673
 1823         c3     63    bbb     C9   1823 -0.72423400  12.010000   ; qtot -0.312561
 1824         h1     63    bbb    H17   1824 0.25637600   1.008000   ; qtot -0.056185
 1825         h1     63    bbb    H18   1825 0.25637600   1.008000   ; qtot 0.200191
 1826         os     63    bbb     O1   1826 -0.20025300  16.000000   ; qtot -0.000062
; residue   64 bbb rtp bbb q -0.0
 1827         n3     64    bbb     N1   1827 -0.59685800  14.010000   ; qtot -0.596920
 1828         c3     64    bbb     C1   1828 0.10137000  12.010000   ; qtot -0.495550
 1829         h1     64    bbb     H1   1829 0.04411300   1.008000   ; qtot -0.451437
 1830         h1     64    bbb     H2   1830 0.04411300   1.008000   ; qtot -0.407324
 1831         c3     64    bbb     C2   1831 0.10137000  12.010000   ; qtot -0.305954
 1832         h1     64    bbb     H3   1832 0.04411300   1.008000   ; qtot -0.261841
 1833         h1     64    bbb     H4   1833 0.04411300   1.008000   ; qtot -0.217728
 1834         c3     64    bbb     C3   1834 -0.00195300  12.010000   ; qtot -0.219681
 1835         h1     64    bbb     H5   1835 0.05064400   1.008000   ; qtot -0.169037
 1836         h1     64    bbb     H6   1836 0.05064400   1.008000   ; qtot -0.118393
 1837         c3     64    bbb     C4   1837 -0.01612100  12.010000   ; qtot -0.134514
 1838         hc     64    bbb     H7   1838 0.04936100   1.008000   ; qtot -0.085153
 1839         hc     64    bbb     H8   1839 0.04936100   1.008000   ; qtot -0.035792
 1840         c3     64    bbb     C5   1840 0.11363000  12.010000   ; qtot 0.077838
 1841         hc     64    bbb     H9   1841 0.06265900   1.008000   ; qtot 0.140497
 1842         hc     64    bbb    H10   1842 0.06265900   1.008000   ; qtot 0.203156
 1843         c3     64    bbb     C6   1843 0.11363000  12.010000   ; qtot 0.316786
 1844         hc     64    bbb    H11   1844 0.06265900   1.008000   ; qtot 0.379445
 1845         hc     64    bbb    H12   1845 0.06265900   1.008000   ; qtot 0.442104
 1846         c3     64    bbb     C7   1846 0.05858200  12.010000   ; qtot 0.500686
 1847         h1     64    bbb    H13   1847 0.06123400   1.008000   ; qtot 0.561920
 1848         h1     64    bbb    H14   1848 0.06123400   1.008000   ; qtot 0.623154
 1849         c3     64    bbb     C8   1849 -0.72423400  12.010000   ; qtot -0.101080
 1850         h1     64    bbb    H15   1850 0.25637600   1.008000   ; qtot 0.155296
 1851         h1     64    bbb    H16   1851 0.25637600   1.008000   ; qtot 0.411672
 1852         c3     64    bbb     C9   1852 -0.72423400  12.010000   ; qtot -0.312562
 1853         h1     64    bbb    H17   1853 0.25637600   1.008000   ; qtot -0.056186
 1854         h1     64    bbb    H18   1854 0.25637600   1.008000   ; qtot 0.200190
 1855         os     64    bbb     O1   1855 -0.20025300  16.000000   ; qtot -0.000063
; residue   65 bbb rtp bbb q -0.0
 1856         n3     65    bbb     N1   1856 -0.59685800  14.010000   ; qtot -0.596921
 1857         c3     65    bbb     C1   1857 0.10137000  12.010000   ; qtot -0.495551
 1858         h1     65    bbb     H1   1858 0.04411300   1.008000   ; qtot -0.451438
 1859         h1     65    bbb     H2   1859 0.04411300   1.008000   ; qtot -0.407325
 1860         c3     65    bbb     C2   1860 0.10137000  12.010000   ; qtot -0.305955
 1861         h1     65    bbb     H3   1861 0.04411300   1.008000   ; qtot -0.261842
 1862         h1     65    bbb     H4   1862 0.04411300   1.008000   ; qtot -0.217729
 1863         c3     65    bbb     C3   1863 -0.00195300  12.010000   ; qtot -0.219682
 1864         h1     65    bbb     H5   1864 0.05064400   1.008000   ; qtot -0.169038
 1865         h1     65    bbb     H6   1865 0.05064400   1.008000   ; qtot -0.118394
 1866         c3     65    bbb     C4   1866 -0.01612100  12.010000   ; qtot -0.134515
 1867         hc     65    bbb     H7   1867 0.04936100   1.008000   ; qtot -0.085154
 1868         hc     65    bbb     H8   1868 0.04936100   1.008000   ; qtot -0.035793
 1869         c3     65    bbb     C5   1869 0.11363000  12.010000   ; qtot 0.077837
 1870         hc     65    bbb     H9   1870 0.06265900   1.008000   ; qtot 0.140496
 1871         hc     65    bbb    H10   1871 0.06265900   1.008000   ; qtot 0.203155
 1872         c3     65    bbb     C6   1872 0.11363000  12.010000   ; qtot 0.316785
 1873         hc     65    bbb    H11   1873 0.06265900   1.008000   ; qtot 0.379444
 1874         hc     65    bbb    H12   1874 0.06265900   1.008000   ; qtot 0.442103
 1875         c3     65    bbb     C7   1875 0.05858200  12.010000   ; qtot 0.500685
 1876         h1     65    bbb    H13   1876 0.06123400   1.008000   ; qtot 0.561919
 1877         h1     65    bbb    H14   1877 0.06123400   1.008000   ; qtot 0.623153
 1878         c3     65    bbb     C8   1878 -0.72423400  12.010000   ; qtot -0.101081
 1879         h1     65    bbb    H15   1879 0.25637600   1.008000   ; qtot 0.155295
 1880         h1     65    bbb    H16   1880 0.25637600   1.008000   ; qtot 0.411671
 1881         c3     65    bbb     C9   1881 -0.72423400  12.010000   ; qtot -0.312563
 1882         h1     65    bbb    H17   1882 0.25637600   1.008000   ; qtot -0.056187
 1883         h1     65    bbb    H18   1883 0.25637600   1.008000   ; qtot 0.200189
 1884         os     65    bbb     O1   1884 -0.20025300  16.000000   ; qtot -0.000064
; residue   66 bbb rtp bbb q -0.0
 1885         n3     66    bbb     N1   1885 -0.59685800  14.010000   ; qtot -0.596922
 1886         c3     66    bbb     C1   1886 0.10137000  12.010000   ; qtot -0.495552
 1887         h1     66    bbb     H1   1887 0.04411300   1.008000   ; qtot -0.451439
 1888         h1     66    bbb     H2   1888 0.04411300   1.008000   ; qtot -0.407326
 1889         c3     66    bbb     C2   1889 0.10137000  12.010000   ; qtot -0.305956
 1890         h1     66    bbb     H3   1890 0.04411300   1.008000   ; qtot -0.261843
 1891         h1     66    bbb     H4   1891 0.04411300   1.008000   ; qtot -0.217730
 1892         c3     66    bbb     C3   1892 -0.00195300  12.010000   ; qtot -0.219683
 1893         h1     66    bbb     H5   1893 0.05064400   1.008000   ; qtot -0.169039
 1894         h1     66    bbb     H6   1894 0.05064400   1.008000   ; qtot -0.118395
 1895         c3     66    bbb     C4   1895 -0.01612100  12.010000   ; qtot -0.134516
 1896         hc     66    bbb     H7   1896 0.04936100   1.008000   ; qtot -0.085155
 1897         hc     66    bbb     H8   1897 0.04936100   1.008000   ; qtot -0.035794
 1898         c3     66    bbb     C5   1898 0.11363000  12.010000   ; qtot 0.077836
 1899         hc     66    bbb     H9   1899 0.06265900   1.008000   ; qtot 0.140495
 1900         hc     66    bbb    H10   1900 0.06265900   1.008000   ; qtot 0.203154
 1901         c3     66    bbb     C6   1901 0.11363000  12.010000   ; qtot 0.316784
 1902         hc     66    bbb    H11   1902 0.06265900   1.008000   ; qtot 0.379443
 1903         hc     66    bbb    H12   1903 0.06265900   1.008000   ; qtot 0.442102
 1904         c3     66    bbb     C7   1904 0.05858200  12.010000   ; qtot 0.500684
 1905         h1     66    bbb    H13   1905 0.06123400   1.008000   ; qtot 0.561918
 1906         h1     66    bbb    H14   1906 0.06123400   1.008000   ; qtot 0.623152
 1907         c3     66    bbb     C8   1907 -0.72423400  12.010000   ; qtot -0.101082
 1908         h1     66    bbb    H15   1908 0.25637600   1.008000   ; qtot 0.155294
 1909         h1     66    bbb    H16   1909 0.25637600   1.008000   ; qtot 0.411670
 1910         c3     66    bbb     C9   1910 -0.72423400  12.010000   ; qtot -0.312564
 1911         h1     66    bbb    H17   1911 0.25637600   1.008000   ; qtot -0.056188
 1912         h1     66    bbb    H18   1912 0.25637600   1.008000   ; qtot 0.200188
 1913         os     66    bbb     O1   1913 -0.20025300  16.000000   ; qtot -0.000065
; residue   67 bbb rtp bbb q -0.0
 1914         n3     67    bbb     N1   1914 -0.59685800  14.010000   ; qtot -0.596923
 1915         c3     67    bbb     C1   1915 0.10137000  12.010000   ; qtot -0.495553
 1916         h1     67    bbb     H1   1916 0.04411300   1.008000   ; qtot -0.451440
 1917         h1     67    bbb     H2   1917 0.04411300   1.008000   ; qtot -0.407327
 1918         c3     67    bbb     C2   1918 0.10137000  12.010000   ; qtot -0.305957
 1919         h1     67    bbb     H3   1919 0.04411300   1.008000   ; qtot -0.261844
 1920         h1     67    bbb     H4   1920 0.04411300   1.008000   ; qtot -0.217731
 1921         c3     67    bbb     C3   1921 -0.00195300  12.010000   ; qtot -0.219684
 1922         h1     67    bbb     H5   1922 0.05064400   1.008000   ; qtot -0.169040
 1923         h1     67    bbb     H6   1923 0.05064400   1.008000   ; qtot -0.118396
 1924         c3     67    bbb     C4   1924 -0.01612100  12.010000   ; qtot -0.134517
 1925         hc     67    bbb     H7   1925 0.04936100   1.008000   ; qtot -0.085156
 1926         hc     67    bbb     H8   1926 0.04936100   1.008000   ; qtot -0.035795
 1927         c3     67    bbb     C5   1927 0.11363000  12.010000   ; qtot 0.077835
 1928         hc     67    bbb     H9   1928 0.06265900   1.008000   ; qtot 0.140494
 1929         hc     67    bbb    H10   1929 0.06265900   1.008000   ; qtot 0.203153
 1930         c3     67    bbb     C6   1930 0.11363000  12.010000   ; qtot 0.316783
 1931         hc     67    bbb    H11   1931 0.06265900   1.008000   ; qtot 0.379442
 1932         hc     67    bbb    H12   1932 0.06265900   1.008000   ; qtot 0.442101
 1933         c3     67    bbb     C7   1933 0.05858200  12.010000   ; qtot 0.500683
 1934         h1     67    bbb    H13   1934 0.06123400   1.008000   ; qtot 0.561917
 1935         h1     67    bbb    H14   1935 0.06123400   1.008000   ; qtot 0.623151
 1936         c3     67    bbb     C8   1936 -0.72423400  12.010000   ; qtot -0.101083
 1937         h1     67    bbb    H15   1937 0.25637600   1.008000   ; qtot 0.155293
 1938         h1     67    bbb    H16   1938 0.25637600   1.008000   ; qtot 0.411669
 1939         c3     67    bbb     C9   1939 -0.72423400  12.010000   ; qtot -0.312565
 1940         h1     67    bbb    H17   1940 0.25637600   1.008000   ; qtot -0.056189
 1941         h1     67    bbb    H18   1941 0.25637600   1.008000   ; qtot 0.200187
 1942         os     67    bbb     O1   1942 -0.20025300  16.000000   ; qtot -0.000066
; residue   68 bbb rtp bbb q -0.0
 1943         n3     68    bbb     N1   1943 -0.59685800  14.010000   ; qtot -0.596924
 1944         c3     68    bbb     C1   1944 0.10137000  12.010000   ; qtot -0.495554
 1945         h1     68    bbb     H1   1945 0.04411300   1.008000   ; qtot -0.451441
 1946         h1     68    bbb     H2   1946 0.04411300   1.008000   ; qtot -0.407328
 1947         c3     68    bbb     C2   1947 0.10137000  12.010000   ; qtot -0.305958
 1948         h1     68    bbb     H3   1948 0.04411300   1.008000   ; qtot -0.261845
 1949         h1     68    bbb     H4   1949 0.04411300   1.008000   ; qtot -0.217732
 1950         c3     68    bbb     C3   1950 -0.00195300  12.010000   ; qtot -0.219685
 1951         h1     68    bbb     H5   1951 0.05064400   1.008000   ; qtot -0.169041
 1952         h1     68    bbb     H6   1952 0.05064400   1.008000   ; qtot -0.118397
 1953         c3     68    bbb     C4   1953 -0.01612100  12.010000   ; qtot -0.134518
 1954         hc     68    bbb     H7   1954 0.04936100   1.008000   ; qtot -0.085157
 1955         hc     68    bbb     H8   1955 0.04936100   1.008000   ; qtot -0.035796
 1956         c3     68    bbb     C5   1956 0.11363000  12.010000   ; qtot 0.077834
 1957         hc     68    bbb     H9   1957 0.06265900   1.008000   ; qtot 0.140493
 1958         hc     68    bbb    H10   1958 0.06265900   1.008000   ; qtot 0.203152
 1959         c3     68    bbb     C6   1959 0.11363000  12.010000   ; qtot 0.316782
 1960         hc     68    bbb    H11   1960 0.06265900   1.008000   ; qtot 0.379441
 1961         hc     68    bbb    H12   1961 0.06265900   1.008000   ; qtot 0.442100
 1962         c3     68    bbb     C7   1962 0.05858200  12.010000   ; qtot 0.500682
 1963         h1     68    bbb    H13   1963 0.06123400   1.008000   ; qtot 0.561916
 1964         h1     68    bbb    H14   1964 0.06123400   1.008000   ; qtot 0.623150
 1965         c3     68    bbb     C8   1965 -0.72423400  12.010000   ; qtot -0.101084
 1966         h1     68    bbb    H15   1966 0.25637600   1.008000   ; qtot 0.155292
 1967         h1     68    bbb    H16   1967 0.25637600   1.008000   ; qtot 0.411668
 1968         c3     68    bbb     C9   1968 -0.72423400  12.010000   ; qtot -0.312566
 1969         h1     68    bbb    H17   1969 0.25637600   1.008000   ; qtot -0.056190
 1970         h1     68    bbb    H18   1970 0.25637600   1.008000   ; qtot 0.200186
 1971         os     68    bbb     O1   1971 -0.20025300  16.000000   ; qtot -0.000067
; residue   69 bbb rtp bbb q -0.0
 1972         n3     69    bbb     N1   1972 -0.59685800  14.010000   ; qtot -0.596925
 1973         c3     69    bbb     C1   1973 0.10137000  12.010000   ; qtot -0.495555
 1974         h1     69    bbb     H1   1974 0.04411300   1.008000   ; qtot -0.451442
 1975         h1     69    bbb     H2   1975 0.04411300   1.008000   ; qtot -0.407329
 1976         c3     69    bbb     C2   1976 0.10137000  12.010000   ; qtot -0.305959
 1977         h1     69    bbb     H3   1977 0.04411300   1.008000   ; qtot -0.261846
 1978         h1     69    bbb     H4   1978 0.04411300   1.008000   ; qtot -0.217733
 1979         c3     69    bbb     C3   1979 -0.00195300  12.010000   ; qtot -0.219686
 1980         h1     69    bbb     H5   1980 0.05064400   1.008000   ; qtot -0.169042
 1981         h1     69    bbb     H6   1981 0.05064400   1.008000   ; qtot -0.118398
 1982         c3     69    bbb     C4   1982 -0.01612100  12.010000   ; qtot -0.134519
 1983         hc     69    bbb     H7   1983 0.04936100   1.008000   ; qtot -0.085158
 1984         hc     69    bbb     H8   1984 0.04936100   1.008000   ; qtot -0.035797
 1985         c3     69    bbb     C5   1985 0.11363000  12.010000   ; qtot 0.077833
 1986         hc     69    bbb     H9   1986 0.06265900   1.008000   ; qtot 0.140492
 1987         hc     69    bbb    H10   1987 0.06265900   1.008000   ; qtot 0.203151
 1988         c3     69    bbb     C6   1988 0.11363000  12.010000   ; qtot 0.316781
 1989         hc     69    bbb    H11   1989 0.06265900   1.008000   ; qtot 0.379440
 1990         hc     69    bbb    H12   1990 0.06265900   1.008000   ; qtot 0.442099
 1991         c3     69    bbb     C7   1991 0.05858200  12.010000   ; qtot 0.500681
 1992         h1     69    bbb    H13   1992 0.06123400   1.008000   ; qtot 0.561915
 1993         h1     69    bbb    H14   1993 0.06123400   1.008000   ; qtot 0.623149
 1994         c3     69    bbb     C8   1994 -0.72423400  12.010000   ; qtot -0.101085
 1995         h1     69    bbb    H15   1995 0.25637600   1.008000   ; qtot 0.155291
 1996         h1     69    bbb    H16   1996 0.25637600   1.008000   ; qtot 0.411667
 1997         c3     69    bbb     C9   1997 -0.72423400  12.010000   ; qtot -0.312567
 1998         h1     69    bbb    H17   1998 0.25637600   1.008000   ; qtot -0.056191
 1999         h1     69    bbb    H18   1999 0.25637600   1.008000   ; qtot 0.200185
 2000         os     69    bbb     O1   2000 -0.20025300  16.000000   ; qtot -0.000068
; residue   70 bbb rtp bbb q -0.0
 2001         n3     70    bbb     N1   2001 -0.59685800  14.010000   ; qtot -0.596926
 2002         c3     70    bbb     C1   2002 0.10137000  12.010000   ; qtot -0.495556
 2003         h1     70    bbb     H1   2003 0.04411300   1.008000   ; qtot -0.451443
 2004         h1     70    bbb     H2   2004 0.04411300   1.008000   ; qtot -0.407330
 2005         c3     70    bbb     C2   2005 0.10137000  12.010000   ; qtot -0.305960
 2006         h1     70    bbb     H3   2006 0.04411300   1.008000   ; qtot -0.261847
 2007         h1     70    bbb     H4   2007 0.04411300   1.008000   ; qtot -0.217734
 2008         c3     70    bbb     C3   2008 -0.00195300  12.010000   ; qtot -0.219687
 2009         h1     70    bbb     H5   2009 0.05064400   1.008000   ; qtot -0.169043
 2010         h1     70    bbb     H6   2010 0.05064400   1.008000   ; qtot -0.118399
 2011         c3     70    bbb     C4   2011 -0.01612100  12.010000   ; qtot -0.134520
 2012         hc     70    bbb     H7   2012 0.04936100   1.008000   ; qtot -0.085159
 2013         hc     70    bbb     H8   2013 0.04936100   1.008000   ; qtot -0.035798
 2014         c3     70    bbb     C5   2014 0.11363000  12.010000   ; qtot 0.077832
 2015         hc     70    bbb     H9   2015 0.06265900   1.008000   ; qtot 0.140491
 2016         hc     70    bbb    H10   2016 0.06265900   1.008000   ; qtot 0.203150
 2017         c3     70    bbb     C6   2017 0.11363000  12.010000   ; qtot 0.316780
 2018         hc     70    bbb    H11   2018 0.06265900   1.008000   ; qtot 0.379439
 2019         hc     70    bbb    H12   2019 0.06265900   1.008000   ; qtot 0.442098
 2020         c3     70    bbb     C7   2020 0.05858200  12.010000   ; qtot 0.500680
 2021         h1     70    bbb    H13   2021 0.06123400   1.008000   ; qtot 0.561914
 2022         h1     70    bbb    H14   2022 0.06123400   1.008000   ; qtot 0.623148
 2023         c3     70    bbb     C8   2023 -0.72423400  12.010000   ; qtot -0.101086
 2024         h1     70    bbb    H15   2024 0.25637600   1.008000   ; qtot 0.155290
 2025         h1     70    bbb    H16   2025 0.25637600   1.008000   ; qtot 0.411666
 2026         c3     70    bbb     C9   2026 -0.72423400  12.010000   ; qtot -0.312568
 2027         h1     70    bbb    H17   2027 0.25637600   1.008000   ; qtot -0.056192
 2028         h1     70    bbb    H18   2028 0.25637600   1.008000   ; qtot 0.200184
 2029         os     70    bbb     O1   2029 -0.20025300  16.000000   ; qtot -0.000069
; residue   71 bbb rtp bbb q -0.0
 2030         n3     71    bbb     N1   2030 -0.59685800  14.010000   ; qtot -0.596927
 2031         c3     71    bbb     C1   2031 0.10137000  12.010000   ; qtot -0.495557
 2032         h1     71    bbb     H1   2032 0.04411300   1.008000   ; qtot -0.451444
 2033         h1     71    bbb     H2   2033 0.04411300   1.008000   ; qtot -0.407331
 2034         c3     71    bbb     C2   2034 0.10137000  12.010000   ; qtot -0.305961
 2035         h1     71    bbb     H3   2035 0.04411300   1.008000   ; qtot -0.261848
 2036         h1     71    bbb     H4   2036 0.04411300   1.008000   ; qtot -0.217735
 2037         c3     71    bbb     C3   2037 -0.00195300  12.010000   ; qtot -0.219688
 2038         h1     71    bbb     H5   2038 0.05064400   1.008000   ; qtot -0.169044
 2039         h1     71    bbb     H6   2039 0.05064400   1.008000   ; qtot -0.118400
 2040         c3     71    bbb     C4   2040 -0.01612100  12.010000   ; qtot -0.134521
 2041         hc     71    bbb     H7   2041 0.04936100   1.008000   ; qtot -0.085160
 2042         hc     71    bbb     H8   2042 0.04936100   1.008000   ; qtot -0.035799
 2043         c3     71    bbb     C5   2043 0.11363000  12.010000   ; qtot 0.077831
 2044         hc     71    bbb     H9   2044 0.06265900   1.008000   ; qtot 0.140490
 2045         hc     71    bbb    H10   2045 0.06265900   1.008000   ; qtot 0.203149
 2046         c3     71    bbb     C6   2046 0.11363000  12.010000   ; qtot 0.316779
 2047         hc     71    bbb    H11   2047 0.06265900   1.008000   ; qtot 0.379438
 2048         hc     71    bbb    H12   2048 0.06265900   1.008000   ; qtot 0.442097
 2049         c3     71    bbb     C7   2049 0.05858200  12.010000   ; qtot 0.500679
 2050         h1     71    bbb    H13   2050 0.06123400   1.008000   ; qtot 0.561913
 2051         h1     71    bbb    H14   2051 0.06123400   1.008000   ; qtot 0.623147
 2052         c3     71    bbb     C8   2052 -0.72423400  12.010000   ; qtot -0.101087
 2053         h1     71    bbb    H15   2053 0.25637600   1.008000   ; qtot 0.155289
 2054         h1     71    bbb    H16   2054 0.25637600   1.008000   ; qtot 0.411665
 2055         c3     71    bbb     C9   2055 -0.72423400  12.010000   ; qtot -0.312569
 2056         h1     71    bbb    H17   2056 0.25637600   1.008000   ; qtot -0.056193
 2057         h1     71    bbb    H18   2057 0.25637600   1.008000   ; qtot 0.200183
 2058         os     71    bbb     O1   2058 -0.20025300  16.000000   ; qtot -0.000070
; residue   72 bbb rtp bbb q -0.0
 2059         n3     72    bbb     N1   2059 -0.59685800  14.010000   ; qtot -0.596928
 2060         c3     72    bbb     C1   2060 0.10137000  12.010000   ; qtot -0.495558
 2061         h1     72    bbb     H1   2061 0.04411300   1.008000   ; qtot -0.451445
 2062         h1     72    bbb     H2   2062 0.04411300   1.008000   ; qtot -0.407332
 2063         c3     72    bbb     C2   2063 0.10137000  12.010000   ; qtot -0.305962
 2064         h1     72    bbb     H3   2064 0.04411300   1.008000   ; qtot -0.261849
 2065         h1     72    bbb     H4   2065 0.04411300   1.008000   ; qtot -0.217736
 2066         c3     72    bbb     C3   2066 -0.00195300  12.010000   ; qtot -0.219689
 2067         h1     72    bbb     H5   2067 0.05064400   1.008000   ; qtot -0.169045
 2068         h1     72    bbb     H6   2068 0.05064400   1.008000   ; qtot -0.118401
 2069         c3     72    bbb     C4   2069 -0.01612100  12.010000   ; qtot -0.134522
 2070         hc     72    bbb     H7   2070 0.04936100   1.008000   ; qtot -0.085161
 2071         hc     72    bbb     H8   2071 0.04936100   1.008000   ; qtot -0.035800
 2072         c3     72    bbb     C5   2072 0.11363000  12.010000   ; qtot 0.077830
 2073         hc     72    bbb     H9   2073 0.06265900   1.008000   ; qtot 0.140489
 2074         hc     72    bbb    H10   2074 0.06265900   1.008000   ; qtot 0.203148
 2075         c3     72    bbb     C6   2075 0.11363000  12.010000   ; qtot 0.316778
 2076         hc     72    bbb    H11   2076 0.06265900   1.008000   ; qtot 0.379437
 2077         hc     72    bbb    H12   2077 0.06265900   1.008000   ; qtot 0.442096
 2078         c3     72    bbb     C7   2078 0.05858200  12.010000   ; qtot 0.500678
 2079         h1     72    bbb    H13   2079 0.06123400   1.008000   ; qtot 0.561912
 2080         h1     72    bbb    H14   2080 0.06123400   1.008000   ; qtot 0.623146
 2081         c3     72    bbb     C8   2081 -0.72423400  12.010000   ; qtot -0.101088
 2082         h1     72    bbb    H15   2082 0.25637600   1.008000   ; qtot 0.155288
 2083         h1     72    bbb    H16   2083 0.25637600   1.008000   ; qtot 0.411664
 2084         c3     72    bbb     C9   2084 -0.72423400  12.010000   ; qtot -0.312570
 2085         h1     72    bbb    H17   2085 0.25637600   1.008000   ; qtot -0.056194
 2086         h1     72    bbb    H18   2086 0.25637600   1.008000   ; qtot 0.200182
 2087         os     72    bbb     O1   2087 -0.20025300  16.000000   ; qtot -0.000071
; residue   73 bbb rtp bbb q -0.0
 2088         n3     73    bbb     N1   2088 -0.59685800  14.010000   ; qtot -0.596929
 2089         c3     73    bbb     C1   2089 0.10137000  12.010000   ; qtot -0.495559
 2090         h1     73    bbb     H1   2090 0.04411300   1.008000   ; qtot -0.451446
 2091         h1     73    bbb     H2   2091 0.04411300   1.008000   ; qtot -0.407333
 2092         c3     73    bbb     C2   2092 0.10137000  12.010000   ; qtot -0.305963
 2093         h1     73    bbb     H3   2093 0.04411300   1.008000   ; qtot -0.261850
 2094         h1     73    bbb     H4   2094 0.04411300   1.008000   ; qtot -0.217737
 2095         c3     73    bbb     C3   2095 -0.00195300  12.010000   ; qtot -0.219690
 2096         h1     73    bbb     H5   2096 0.05064400   1.008000   ; qtot -0.169046
 2097         h1     73    bbb     H6   2097 0.05064400   1.008000   ; qtot -0.118402
 2098         c3     73    bbb     C4   2098 -0.01612100  12.010000   ; qtot -0.134523
 2099         hc     73    bbb     H7   2099 0.04936100   1.008000   ; qtot -0.085162
 2100         hc     73    bbb     H8   2100 0.04936100   1.008000   ; qtot -0.035801
 2101         c3     73    bbb     C5   2101 0.11363000  12.010000   ; qtot 0.077829
 2102         hc     73    bbb     H9   2102 0.06265900   1.008000   ; qtot 0.140488
 2103         hc     73    bbb    H10   2103 0.06265900   1.008000   ; qtot 0.203147
 2104         c3     73    bbb     C6   2104 0.11363000  12.010000   ; qtot 0.316777
 2105         hc     73    bbb    H11   2105 0.06265900   1.008000   ; qtot 0.379436
 2106         hc     73    bbb    H12   2106 0.06265900   1.008000   ; qtot 0.442095
 2107         c3     73    bbb     C7   2107 0.05858200  12.010000   ; qtot 0.500677
 2108         h1     73    bbb    H13   2108 0.06123400   1.008000   ; qtot 0.561911
 2109         h1     73    bbb    H14   2109 0.06123400   1.008000   ; qtot 0.623145
 2110         c3     73    bbb     C8   2110 -0.72423400  12.010000   ; qtot -0.101089
 2111         h1     73    bbb    H15   2111 0.25637600   1.008000   ; qtot 0.155287
 2112         h1     73    bbb    H16   2112 0.25637600   1.008000   ; qtot 0.411663
 2113         c3     73    bbb     C9   2113 -0.72423400  12.010000   ; qtot -0.312571
 2114         h1     73    bbb    H17   2114 0.25637600   1.008000   ; qtot -0.056195
 2115         h1     73    bbb    H18   2115 0.25637600   1.008000   ; qtot 0.200181
 2116         os     73    bbb     O1   2116 -0.20025300  16.000000   ; qtot -0.000072
; residue   74 bbb rtp bbb q -0.0
 2117         n3     74    bbb     N1   2117 -0.59685800  14.010000   ; qtot -0.596930
 2118         c3     74    bbb     C1   2118 0.10137000  12.010000   ; qtot -0.495560
 2119         h1     74    bbb     H1   2119 0.04411300   1.008000   ; qtot -0.451447
 2120         h1     74    bbb     H2   2120 0.04411300   1.008000   ; qtot -0.407334
 2121         c3     74    bbb     C2   2121 0.10137000  12.010000   ; qtot -0.305964
 2122         h1     74    bbb     H3   2122 0.04411300   1.008000   ; qtot -0.261851
 2123         h1     74    bbb     H4   2123 0.04411300   1.008000   ; qtot -0.217738
 2124         c3     74    bbb     C3   2124 -0.00195300  12.010000   ; qtot -0.219691
 2125         h1     74    bbb     H5   2125 0.05064400   1.008000   ; qtot -0.169047
 2126         h1     74    bbb     H6   2126 0.05064400   1.008000   ; qtot -0.118403
 2127         c3     74    bbb     C4   2127 -0.01612100  12.010000   ; qtot -0.134524
 2128         hc     74    bbb     H7   2128 0.04936100   1.008000   ; qtot -0.085163
 2129         hc     74    bbb     H8   2129 0.04936100   1.008000   ; qtot -0.035802
 2130         c3     74    bbb     C5   2130 0.11363000  12.010000   ; qtot 0.077828
 2131         hc     74    bbb     H9   2131 0.06265900   1.008000   ; qtot 0.140487
 2132         hc     74    bbb    H10   2132 0.06265900   1.008000   ; qtot 0.203146
 2133         c3     74    bbb     C6   2133 0.11363000  12.010000   ; qtot 0.316776
 2134         hc     74    bbb    H11   2134 0.06265900   1.008000   ; qtot 0.379435
 2135         hc     74    bbb    H12   2135 0.06265900   1.008000   ; qtot 0.442094
 2136         c3     74    bbb     C7   2136 0.05858200  12.010000   ; qtot 0.500676
 2137         h1     74    bbb    H13   2137 0.06123400   1.008000   ; qtot 0.561910
 2138         h1     74    bbb    H14   2138 0.06123400   1.008000   ; qtot 0.623144
 2139         c3     74    bbb     C8   2139 -0.72423400  12.010000   ; qtot -0.101090
 2140         h1     74    bbb    H15   2140 0.25637600   1.008000   ; qtot 0.155286
 2141         h1     74    bbb    H16   2141 0.25637600   1.008000   ; qtot 0.411662
 2142         c3     74    bbb     C9   2142 -0.72423400  12.010000   ; qtot -0.312572
 2143         h1     74    bbb    H17   2143 0.25637600   1.008000   ; qtot -0.056196
 2144         h1     74    bbb    H18   2144 0.25637600   1.008000   ; qtot 0.200180
 2145         os     74    bbb     O1   2145 -0.20025300  16.000000   ; qtot -0.000073
; residue   75 bbb rtp bbb q -0.0
 2146         n3     75    bbb     N1   2146 -0.59685800  14.010000   ; qtot -0.596931
 2147         c3     75    bbb     C1   2147 0.10137000  12.010000   ; qtot -0.495561
 2148         h1     75    bbb     H1   2148 0.04411300   1.008000   ; qtot -0.451448
 2149         h1     75    bbb     H2   2149 0.04411300   1.008000   ; qtot -0.407335
 2150         c3     75    bbb     C2   2150 0.10137000  12.010000   ; qtot -0.305965
 2151         h1     75    bbb     H3   2151 0.04411300   1.008000   ; qtot -0.261852
 2152         h1     75    bbb     H4   2152 0.04411300   1.008000   ; qtot -0.217739
 2153         c3     75    bbb     C3   2153 -0.00195300  12.010000   ; qtot -0.219692
 2154         h1     75    bbb     H5   2154 0.05064400   1.008000   ; qtot -0.169048
 2155         h1     75    bbb     H6   2155 0.05064400   1.008000   ; qtot -0.118404
 2156         c3     75    bbb     C4   2156 -0.01612100  12.010000   ; qtot -0.134525
 2157         hc     75    bbb     H7   2157 0.04936100   1.008000   ; qtot -0.085164
 2158         hc     75    bbb     H8   2158 0.04936100   1.008000   ; qtot -0.035803
 2159         c3     75    bbb     C5   2159 0.11363000  12.010000   ; qtot 0.077827
 2160         hc     75    bbb     H9   2160 0.06265900   1.008000   ; qtot 0.140486
 2161         hc     75    bbb    H10   2161 0.06265900   1.008000   ; qtot 0.203145
 2162         c3     75    bbb     C6   2162 0.11363000  12.010000   ; qtot 0.316775
 2163         hc     75    bbb    H11   2163 0.06265900   1.008000   ; qtot 0.379434
 2164         hc     75    bbb    H12   2164 0.06265900   1.008000   ; qtot 0.442093
 2165         c3     75    bbb     C7   2165 0.05858200  12.010000   ; qtot 0.500675
 2166         h1     75    bbb    H13   2166 0.06123400   1.008000   ; qtot 0.561909
 2167         h1     75    bbb    H14   2167 0.06123400   1.008000   ; qtot 0.623143
 2168         c3     75    bbb     C8   2168 -0.72423400  12.010000   ; qtot -0.101091
 2169         h1     75    bbb    H15   2169 0.25637600   1.008000   ; qtot 0.155285
 2170         h1     75    bbb    H16   2170 0.25637600   1.008000   ; qtot 0.411661
 2171         c3     75    bbb     C9   2171 -0.72423400  12.010000   ; qtot -0.312573
 2172         h1     75    bbb    H17   2172 0.25637600   1.008000   ; qtot -0.056197
 2173         h1     75    bbb    H18   2173 0.25637600   1.008000   ; qtot 0.200179
 2174         os     75    bbb     O1   2174 -0.20025300  16.000000   ; qtot -0.000074
; residue   76 bbb rtp bbb q -0.0
 2175         n3     76    bbb     N1   2175 -0.59685800  14.010000   ; qtot -0.596932
 2176         c3     76    bbb     C1   2176 0.10137000  12.010000   ; qtot -0.495562
 2177         h1     76    bbb     H1   2177 0.04411300   1.008000   ; qtot -0.451449
 2178         h1     76    bbb     H2   2178 0.04411300   1.008000   ; qtot -0.407336
 2179         c3     76    bbb     C2   2179 0.10137000  12.010000   ; qtot -0.305966
 2180         h1     76    bbb     H3   2180 0.04411300   1.008000   ; qtot -0.261853
 2181         h1     76    bbb     H4   2181 0.04411300   1.008000   ; qtot -0.217740
 2182         c3     76    bbb     C3   2182 -0.00195300  12.010000   ; qtot -0.219693
 2183         h1     76    bbb     H5   2183 0.05064400   1.008000   ; qtot -0.169049
 2184         h1     76    bbb     H6   2184 0.05064400   1.008000   ; qtot -0.118405
 2185         c3     76    bbb     C4   2185 -0.01612100  12.010000   ; qtot -0.134526
 2186         hc     76    bbb     H7   2186 0.04936100   1.008000   ; qtot -0.085165
 2187         hc     76    bbb     H8   2187 0.04936100   1.008000   ; qtot -0.035804
 2188         c3     76    bbb     C5   2188 0.11363000  12.010000   ; qtot 0.077826
 2189         hc     76    bbb     H9   2189 0.06265900   1.008000   ; qtot 0.140485
 2190         hc     76    bbb    H10   2190 0.06265900   1.008000   ; qtot 0.203144
 2191         c3     76    bbb     C6   2191 0.11363000  12.010000   ; qtot 0.316774
 2192         hc     76    bbb    H11   2192 0.06265900   1.008000   ; qtot 0.379433
 2193         hc     76    bbb    H12   2193 0.06265900   1.008000   ; qtot 0.442092
 2194         c3     76    bbb     C7   2194 0.05858200  12.010000   ; qtot 0.500674
 2195         h1     76    bbb    H13   2195 0.06123400   1.008000   ; qtot 0.561908
 2196         h1     76    bbb    H14   2196 0.06123400   1.008000   ; qtot 0.623142
 2197         c3     76    bbb     C8   2197 -0.72423400  12.010000   ; qtot -0.101092
 2198         h1     76    bbb    H15   2198 0.25637600   1.008000   ; qtot 0.155284
 2199         h1     76    bbb    H16   2199 0.25637600   1.008000   ; qtot 0.411660
 2200         c3     76    bbb     C9   2200 -0.72423400  12.010000   ; qtot -0.312574
 2201         h1     76    bbb    H17   2201 0.25637600   1.008000   ; qtot -0.056198
 2202         h1     76    bbb    H18   2202 0.25637600   1.008000   ; qtot 0.200178
 2203         os     76    bbb     O1   2203 -0.20025300  16.000000   ; qtot -0.000075
; residue   77 bbb rtp bbb q -0.0
 2204         n3     77    bbb     N1   2204 -0.59685800  14.010000   ; qtot -0.596933
 2205         c3     77    bbb     C1   2205 0.10137000  12.010000   ; qtot -0.495563
 2206         h1     77    bbb     H1   2206 0.04411300   1.008000   ; qtot -0.451450
 2207         h1     77    bbb     H2   2207 0.04411300   1.008000   ; qtot -0.407337
 2208         c3     77    bbb     C2   2208 0.10137000  12.010000   ; qtot -0.305967
 2209         h1     77    bbb     H3   2209 0.04411300   1.008000   ; qtot -0.261854
 2210         h1     77    bbb     H4   2210 0.04411300   1.008000   ; qtot -0.217741
 2211         c3     77    bbb     C3   2211 -0.00195300  12.010000   ; qtot -0.219694
 2212         h1     77    bbb     H5   2212 0.05064400   1.008000   ; qtot -0.169050
 2213         h1     77    bbb     H6   2213 0.05064400   1.008000   ; qtot -0.118406
 2214         c3     77    bbb     C4   2214 -0.01612100  12.010000   ; qtot -0.134527
 2215         hc     77    bbb     H7   2215 0.04936100   1.008000   ; qtot -0.085166
 2216         hc     77    bbb     H8   2216 0.04936100   1.008000   ; qtot -0.035805
 2217         c3     77    bbb     C5   2217 0.11363000  12.010000   ; qtot 0.077825
 2218         hc     77    bbb     H9   2218 0.06265900   1.008000   ; qtot 0.140484
 2219         hc     77    bbb    H10   2219 0.06265900   1.008000   ; qtot 0.203143
 2220         c3     77    bbb     C6   2220 0.11363000  12.010000   ; qtot 0.316773
 2221         hc     77    bbb    H11   2221 0.06265900   1.008000   ; qtot 0.379432
 2222         hc     77    bbb    H12   2222 0.06265900   1.008000   ; qtot 0.442091
 2223         c3     77    bbb     C7   2223 0.05858200  12.010000   ; qtot 0.500673
 2224         h1     77    bbb    H13   2224 0.06123400   1.008000   ; qtot 0.561907
 2225         h1     77    bbb    H14   2225 0.06123400   1.008000   ; qtot 0.623141
 2226         c3     77    bbb     C8   2226 -0.72423400  12.010000   ; qtot -0.101093
 2227         h1     77    bbb    H15   2227 0.25637600   1.008000   ; qtot 0.155283
 2228         h1     77    bbb    H16   2228 0.25637600   1.008000   ; qtot 0.411659
 2229         c3     77    bbb     C9   2229 -0.72423400  12.010000   ; qtot -0.312575
 2230         h1     77    bbb    H17   2230 0.25637600   1.008000   ; qtot -0.056199
 2231         h1     77    bbb    H18   2231 0.25637600   1.008000   ; qtot 0.200177
 2232         os     77    bbb     O1   2232 -0.20025300  16.000000   ; qtot -0.000076
; residue   78 bbb rtp bbb q -0.0
 2233         n3     78    bbb     N1   2233 -0.59685800  14.010000   ; qtot -0.596934
 2234         c3     78    bbb     C1   2234 0.10137000  12.010000   ; qtot -0.495564
 2235         h1     78    bbb     H1   2235 0.04411300   1.008000   ; qtot -0.451451
 2236         h1     78    bbb     H2   2236 0.04411300   1.008000   ; qtot -0.407338
 2237         c3     78    bbb     C2   2237 0.10137000  12.010000   ; qtot -0.305968
 2238         h1     78    bbb     H3   2238 0.04411300   1.008000   ; qtot -0.261855
 2239         h1     78    bbb     H4   2239 0.04411300   1.008000   ; qtot -0.217742
 2240         c3     78    bbb     C3   2240 -0.00195300  12.010000   ; qtot -0.219695
 2241         h1     78    bbb     H5   2241 0.05064400   1.008000   ; qtot -0.169051
 2242         h1     78    bbb     H6   2242 0.05064400   1.008000   ; qtot -0.118407
 2243         c3     78    bbb     C4   2243 -0.01612100  12.010000   ; qtot -0.134528
 2244         hc     78    bbb     H7   2244 0.04936100   1.008000   ; qtot -0.085167
 2245         hc     78    bbb     H8   2245 0.04936100   1.008000   ; qtot -0.035806
 2246         c3     78    bbb     C5   2246 0.11363000  12.010000   ; qtot 0.077824
 2247         hc     78    bbb     H9   2247 0.06265900   1.008000   ; qtot 0.140483
 2248         hc     78    bbb    H10   2248 0.06265900   1.008000   ; qtot 0.203142
 2249         c3     78    bbb     C6   2249 0.11363000  12.010000   ; qtot 0.316772
 2250         hc     78    bbb    H11   2250 0.06265900   1.008000   ; qtot 0.379431
 2251         hc     78    bbb    H12   2251 0.06265900   1.008000   ; qtot 0.442090
 2252         c3     78    bbb     C7   2252 0.05858200  12.010000   ; qtot 0.500672
 2253         h1     78    bbb    H13   2253 0.06123400   1.008000   ; qtot 0.561906
 2254         h1     78    bbb    H14   2254 0.06123400   1.008000   ; qtot 0.623140
 2255         c3     78    bbb     C8   2255 -0.72423400  12.010000   ; qtot -0.101094
 2256         h1     78    bbb    H15   2256 0.25637600   1.008000   ; qtot 0.155282
 2257         h1     78    bbb    H16   2257 0.25637600   1.008000   ; qtot 0.411658
 2258         c3     78    bbb     C9   2258 -0.72423400  12.010000   ; qtot -0.312576
 2259         h1     78    bbb    H17   2259 0.25637600   1.008000   ; qtot -0.056200
 2260         h1     78    bbb    H18   2260 0.25637600   1.008000   ; qtot 0.200176
 2261         os     78    bbb     O1   2261 -0.20025300  16.000000   ; qtot -0.000077
; residue   79 bbb rtp bbb q -0.0
 2262         n3     79    bbb     N1   2262 -0.59685800  14.010000   ; qtot -0.596935
 2263         c3     79    bbb     C1   2263 0.10137000  12.010000   ; qtot -0.495565
 2264         h1     79    bbb     H1   2264 0.04411300   1.008000   ; qtot -0.451452
 2265         h1     79    bbb     H2   2265 0.04411300   1.008000   ; qtot -0.407339
 2266         c3     79    bbb     C2   2266 0.10137000  12.010000   ; qtot -0.305969
 2267         h1     79    bbb     H3   2267 0.04411300   1.008000   ; qtot -0.261856
 2268         h1     79    bbb     H4   2268 0.04411300   1.008000   ; qtot -0.217743
 2269         c3     79    bbb     C3   2269 -0.00195300  12.010000   ; qtot -0.219696
 2270         h1     79    bbb     H5   2270 0.05064400   1.008000   ; qtot -0.169052
 2271         h1     79    bbb     H6   2271 0.05064400   1.008000   ; qtot -0.118408
 2272         c3     79    bbb     C4   2272 -0.01612100  12.010000   ; qtot -0.134529
 2273         hc     79    bbb     H7   2273 0.04936100   1.008000   ; qtot -0.085168
 2274         hc     79    bbb     H8   2274 0.04936100   1.008000   ; qtot -0.035807
 2275         c3     79    bbb     C5   2275 0.11363000  12.010000   ; qtot 0.077823
 2276         hc     79    bbb     H9   2276 0.06265900   1.008000   ; qtot 0.140482
 2277         hc     79    bbb    H10   2277 0.06265900   1.008000   ; qtot 0.203141
 2278         c3     79    bbb     C6   2278 0.11363000  12.010000   ; qtot 0.316771
 2279         hc     79    bbb    H11   2279 0.06265900   1.008000   ; qtot 0.379430
 2280         hc     79    bbb    H12   2280 0.06265900   1.008000   ; qtot 0.442089
 2281         c3     79    bbb     C7   2281 0.05858200  12.010000   ; qtot 0.500671
 2282         h1     79    bbb    H13   2282 0.06123400   1.008000   ; qtot 0.561905
 2283         h1     79    bbb    H14   2283 0.06123400   1.008000   ; qtot 0.623139
 2284         c3     79    bbb     C8   2284 -0.72423400  12.010000   ; qtot -0.101095
 2285         h1     79    bbb    H15   2285 0.25637600   1.008000   ; qtot 0.155281
 2286         h1     79    bbb    H16   2286 0.25637600   1.008000   ; qtot 0.411657
 2287         c3     79    bbb     C9   2287 -0.72423400  12.010000   ; qtot -0.312577
 2288         h1     79    bbb    H17   2288 0.25637600   1.008000   ; qtot -0.056201
 2289         h1     79    bbb    H18   2289 0.25637600   1.008000   ; qtot 0.200175
 2290         os     79    bbb     O1   2290 -0.20025300  16.000000   ; qtot -0.000078
; residue   80 bbb rtp bbb q -0.0
 2291         n3     80    bbb     N1   2291 -0.59685800  14.010000   ; qtot -0.596936
 2292         c3     80    bbb     C1   2292 0.10137000  12.010000   ; qtot -0.495566
 2293         h1     80    bbb     H1   2293 0.04411300   1.008000   ; qtot -0.451453
 2294         h1     80    bbb     H2   2294 0.04411300   1.008000   ; qtot -0.407340
 2295         c3     80    bbb     C2   2295 0.10137000  12.010000   ; qtot -0.305970
 2296         h1     80    bbb     H3   2296 0.04411300   1.008000   ; qtot -0.261857
 2297         h1     80    bbb     H4   2297 0.04411300   1.008000   ; qtot -0.217744
 2298         c3     80    bbb     C3   2298 -0.00195300  12.010000   ; qtot -0.219697
 2299         h1     80    bbb     H5   2299 0.05064400   1.008000   ; qtot -0.169053
 2300         h1     80    bbb     H6   2300 0.05064400   1.008000   ; qtot -0.118409
 2301         c3     80    bbb     C4   2301 -0.01612100  12.010000   ; qtot -0.134530
 2302         hc     80    bbb     H7   2302 0.04936100   1.008000   ; qtot -0.085169
 2303         hc     80    bbb     H8   2303 0.04936100   1.008000   ; qtot -0.035808
 2304         c3     80    bbb     C5   2304 0.11363000  12.010000   ; qtot 0.077822
 2305         hc     80    bbb     H9   2305 0.06265900   1.008000   ; qtot 0.140481
 2306         hc     80    bbb    H10   2306 0.06265900   1.008000   ; qtot 0.203140
 2307         c3     80    bbb     C6   2307 0.11363000  12.010000   ; qtot 0.316770
 2308         hc     80    bbb    H11   2308 0.06265900   1.008000   ; qtot 0.379429
 2309         hc     80    bbb    H12   2309 0.06265900   1.008000   ; qtot 0.442088
 2310         c3     80    bbb     C7   2310 0.05858200  12.010000   ; qtot 0.500670
 2311         h1     80    bbb    H13   2311 0.06123400   1.008000   ; qtot 0.561904
 2312         h1     80    bbb    H14   2312 0.06123400   1.008000   ; qtot 0.623138
 2313         c3     80    bbb     C8   2313 -0.72423400  12.010000   ; qtot -0.101096
 2314         h1     80    bbb    H15   2314 0.25637600   1.008000   ; qtot 0.155280
 2315         h1     80    bbb    H16   2315 0.25637600   1.008000   ; qtot 0.411656
 2316         c3     80    bbb     C9   2316 -0.72423400  12.010000   ; qtot -0.312578
 2317         h1     80    bbb    H17   2317 0.25637600   1.008000   ; qtot -0.056202
 2318         h1     80    bbb    H18   2318 0.25637600   1.008000   ; qtot 0.200174
 2319         os     80    bbb     O1   2319 -0.20025300  16.000000   ; qtot -0.000079
; residue   81 bbb rtp bbb q -0.0
 2320         n3     81    bbb     N1   2320 -0.59685800  14.010000   ; qtot -0.596937
 2321         c3     81    bbb     C1   2321 0.10137000  12.010000   ; qtot -0.495567
 2322         h1     81    bbb     H1   2322 0.04411300   1.008000   ; qtot -0.451454
 2323         h1     81    bbb     H2   2323 0.04411300   1.008000   ; qtot -0.407341
 2324         c3     81    bbb     C2   2324 0.10137000  12.010000   ; qtot -0.305971
 2325         h1     81    bbb     H3   2325 0.04411300   1.008000   ; qtot -0.261858
 2326         h1     81    bbb     H4   2326 0.04411300   1.008000   ; qtot -0.217745
 2327         c3     81    bbb     C3   2327 -0.00195300  12.010000   ; qtot -0.219698
 2328         h1     81    bbb     H5   2328 0.05064400   1.008000   ; qtot -0.169054
 2329         h1     81    bbb     H6   2329 0.05064400   1.008000   ; qtot -0.118410
 2330         c3     81    bbb     C4   2330 -0.01612100  12.010000   ; qtot -0.134531
 2331         hc     81    bbb     H7   2331 0.04936100   1.008000   ; qtot -0.085170
 2332         hc     81    bbb     H8   2332 0.04936100   1.008000   ; qtot -0.035809
 2333         c3     81    bbb     C5   2333 0.11363000  12.010000   ; qtot 0.077821
 2334         hc     81    bbb     H9   2334 0.06265900   1.008000   ; qtot 0.140480
 2335         hc     81    bbb    H10   2335 0.06265900   1.008000   ; qtot 0.203139
 2336         c3     81    bbb     C6   2336 0.11363000  12.010000   ; qtot 0.316769
 2337         hc     81    bbb    H11   2337 0.06265900   1.008000   ; qtot 0.379428
 2338         hc     81    bbb    H12   2338 0.06265900   1.008000   ; qtot 0.442087
 2339         c3     81    bbb     C7   2339 0.05858200  12.010000   ; qtot 0.500669
 2340         h1     81    bbb    H13   2340 0.06123400   1.008000   ; qtot 0.561903
 2341         h1     81    bbb    H14   2341 0.06123400   1.008000   ; qtot 0.623137
 2342         c3     81    bbb     C8   2342 -0.72423400  12.010000   ; qtot -0.101097
 2343         h1     81    bbb    H15   2343 0.25637600   1.008000   ; qtot 0.155279
 2344         h1     81    bbb    H16   2344 0.25637600   1.008000   ; qtot 0.411655
 2345         c3     81    bbb     C9   2345 -0.72423400  12.010000   ; qtot -0.312579
 2346         h1     81    bbb    H17   2346 0.25637600   1.008000   ; qtot -0.056203
 2347         h1     81    bbb    H18   2347 0.25637600   1.008000   ; qtot 0.200173
 2348         os     81    bbb     O1   2348 -0.20025300  16.000000   ; qtot -0.000080
; residue   82 bbb rtp bbb q -0.0
 2349         n3     82    bbb     N1   2349 -0.59685800  14.010000   ; qtot -0.596938
 2350         c3     82    bbb     C1   2350 0.10137000  12.010000   ; qtot -0.495568
 2351         h1     82    bbb     H1   2351 0.04411300   1.008000   ; qtot -0.451455
 2352         h1     82    bbb     H2   2352 0.04411300   1.008000   ; qtot -0.407342
 2353         c3     82    bbb     C2   2353 0.10137000  12.010000   ; qtot -0.305972
 2354         h1     82    bbb     H3   2354 0.04411300   1.008000   ; qtot -0.261859
 2355         h1     82    bbb     H4   2355 0.04411300   1.008000   ; qtot -0.217746
 2356         c3     82    bbb     C3   2356 -0.00195300  12.010000   ; qtot -0.219699
 2357         h1     82    bbb     H5   2357 0.05064400   1.008000   ; qtot -0.169055
 2358         h1     82    bbb     H6   2358 0.05064400   1.008000   ; qtot -0.118411
 2359         c3     82    bbb     C4   2359 -0.01612100  12.010000   ; qtot -0.134532
 2360         hc     82    bbb     H7   2360 0.04936100   1.008000   ; qtot -0.085171
 2361         hc     82    bbb     H8   2361 0.04936100   1.008000   ; qtot -0.035810
 2362         c3     82    bbb     C5   2362 0.11363000  12.010000   ; qtot 0.077820
 2363         hc     82    bbb     H9   2363 0.06265900   1.008000   ; qtot 0.140479
 2364         hc     82    bbb    H10   2364 0.06265900   1.008000   ; qtot 0.203138
 2365         c3     82    bbb     C6   2365 0.11363000  12.010000   ; qtot 0.316768
 2366         hc     82    bbb    H11   2366 0.06265900   1.008000   ; qtot 0.379427
 2367         hc     82    bbb    H12   2367 0.06265900   1.008000   ; qtot 0.442086
 2368         c3     82    bbb     C7   2368 0.05858200  12.010000   ; qtot 0.500668
 2369         h1     82    bbb    H13   2369 0.06123400   1.008000   ; qtot 0.561902
 2370         h1     82    bbb    H14   2370 0.06123400   1.008000   ; qtot 0.623136
 2371         c3     82    bbb     C8   2371 -0.72423400  12.010000   ; qtot -0.101098
 2372         h1     82    bbb    H15   2372 0.25637600   1.008000   ; qtot 0.155278
 2373         h1     82    bbb    H16   2373 0.25637600   1.008000   ; qtot 0.411654
 2374         c3     82    bbb     C9   2374 -0.72423400  12.010000   ; qtot -0.312580
 2375         h1     82    bbb    H17   2375 0.25637600   1.008000   ; qtot -0.056204
 2376         h1     82    bbb    H18   2376 0.25637600   1.008000   ; qtot 0.200172
 2377         os     82    bbb     O1   2377 -0.20025300  16.000000   ; qtot -0.000081
; residue   83 bbb rtp bbb q -0.0
 2378         n3     83    bbb     N1   2378 -0.59685800  14.010000   ; qtot -0.596939
 2379         c3     83    bbb     C1   2379 0.10137000  12.010000   ; qtot -0.495569
 2380         h1     83    bbb     H1   2380 0.04411300   1.008000   ; qtot -0.451456
 2381         h1     83    bbb     H2   2381 0.04411300   1.008000   ; qtot -0.407343
 2382         c3     83    bbb     C2   2382 0.10137000  12.010000   ; qtot -0.305973
 2383         h1     83    bbb     H3   2383 0.04411300   1.008000   ; qtot -0.261860
 2384         h1     83    bbb     H4   2384 0.04411300   1.008000   ; qtot -0.217747
 2385         c3     83    bbb     C3   2385 -0.00195300  12.010000   ; qtot -0.219700
 2386         h1     83    bbb     H5   2386 0.05064400   1.008000   ; qtot -0.169056
 2387         h1     83    bbb     H6   2387 0.05064400   1.008000   ; qtot -0.118412
 2388         c3     83    bbb     C4   2388 -0.01612100  12.010000   ; qtot -0.134533
 2389         hc     83    bbb     H7   2389 0.04936100   1.008000   ; qtot -0.085172
 2390         hc     83    bbb     H8   2390 0.04936100   1.008000   ; qtot -0.035811
 2391         c3     83    bbb     C5   2391 0.11363000  12.010000   ; qtot 0.077819
 2392         hc     83    bbb     H9   2392 0.06265900   1.008000   ; qtot 0.140478
 2393         hc     83    bbb    H10   2393 0.06265900   1.008000   ; qtot 0.203137
 2394         c3     83    bbb     C6   2394 0.11363000  12.010000   ; qtot 0.316767
 2395         hc     83    bbb    H11   2395 0.06265900   1.008000   ; qtot 0.379426
 2396         hc     83    bbb    H12   2396 0.06265900   1.008000   ; qtot 0.442085
 2397         c3     83    bbb     C7   2397 0.05858200  12.010000   ; qtot 0.500667
 2398         h1     83    bbb    H13   2398 0.06123400   1.008000   ; qtot 0.561901
 2399         h1     83    bbb    H14   2399 0.06123400   1.008000   ; qtot 0.623135
 2400         c3     83    bbb     C8   2400 -0.72423400  12.010000   ; qtot -0.101099
 2401         h1     83    bbb    H15   2401 0.25637600   1.008000   ; qtot 0.155277
 2402         h1     83    bbb    H16   2402 0.25637600   1.008000   ; qtot 0.411653
 2403         c3     83    bbb     C9   2403 -0.72423400  12.010000   ; qtot -0.312581
 2404         h1     83    bbb    H17   2404 0.25637600   1.008000   ; qtot -0.056205
 2405         h1     83    bbb    H18   2405 0.25637600   1.008000   ; qtot 0.200171
 2406         os     83    bbb     O1   2406 -0.20025300  16.000000   ; qtot -0.000082
; residue   84 bbb rtp bbb q -0.0
 2407         n3     84    bbb     N1   2407 -0.59685800  14.010000   ; qtot -0.596940
 2408         c3     84    bbb     C1   2408 0.10137000  12.010000   ; qtot -0.495570
 2409         h1     84    bbb     H1   2409 0.04411300   1.008000   ; qtot -0.451457
 2410         h1     84    bbb     H2   2410 0.04411300   1.008000   ; qtot -0.407344
 2411         c3     84    bbb     C2   2411 0.10137000  12.010000   ; qtot -0.305974
 2412         h1     84    bbb     H3   2412 0.04411300   1.008000   ; qtot -0.261861
 2413         h1     84    bbb     H4   2413 0.04411300   1.008000   ; qtot -0.217748
 2414         c3     84    bbb     C3   2414 -0.00195300  12.010000   ; qtot -0.219701
 2415         h1     84    bbb     H5   2415 0.05064400   1.008000   ; qtot -0.169057
 2416         h1     84    bbb     H6   2416 0.05064400   1.008000   ; qtot -0.118413
 2417         c3     84    bbb     C4   2417 -0.01612100  12.010000   ; qtot -0.134534
 2418         hc     84    bbb     H7   2418 0.04936100   1.008000   ; qtot -0.085173
 2419         hc     84    bbb     H8   2419 0.04936100   1.008000   ; qtot -0.035812
 2420         c3     84    bbb     C5   2420 0.11363000  12.010000   ; qtot 0.077818
 2421         hc     84    bbb     H9   2421 0.06265900   1.008000   ; qtot 0.140477
 2422         hc     84    bbb    H10   2422 0.06265900   1.008000   ; qtot 0.203136
 2423         c3     84    bbb     C6   2423 0.11363000  12.010000   ; qtot 0.316766
 2424         hc     84    bbb    H11   2424 0.06265900   1.008000   ; qtot 0.379425
 2425         hc     84    bbb    H12   2425 0.06265900   1.008000   ; qtot 0.442084
 2426         c3     84    bbb     C7   2426 0.05858200  12.010000   ; qtot 0.500666
 2427         h1     84    bbb    H13   2427 0.06123400   1.008000   ; qtot 0.561900
 2428         h1     84    bbb    H14   2428 0.06123400   1.008000   ; qtot 0.623134
 2429         c3     84    bbb     C8   2429 -0.72423400  12.010000   ; qtot -0.101100
 2430         h1     84    bbb    H15   2430 0.25637600   1.008000   ; qtot 0.155276
 2431         h1     84    bbb    H16   2431 0.25637600   1.008000   ; qtot 0.411652
 2432         c3     84    bbb     C9   2432 -0.72423400  12.010000   ; qtot -0.312582
 2433         h1     84    bbb    H17   2433 0.25637600   1.008000   ; qtot -0.056206
 2434         h1     84    bbb    H18   2434 0.25637600   1.008000   ; qtot 0.200170
 2435         os     84    bbb     O1   2435 -0.20025300  16.000000   ; qtot -0.000083
; residue   85 bbb rtp bbb q -0.0
 2436         n3     85    bbb     N1   2436 -0.59685800  14.010000   ; qtot -0.596941
 2437         c3     85    bbb     C1   2437 0.10137000  12.010000   ; qtot -0.495571
 2438         h1     85    bbb     H1   2438 0.04411300   1.008000   ; qtot -0.451458
 2439         h1     85    bbb     H2   2439 0.04411300   1.008000   ; qtot -0.407345
 2440         c3     85    bbb     C2   2440 0.10137000  12.010000   ; qtot -0.305975
 2441         h1     85    bbb     H3   2441 0.04411300   1.008000   ; qtot -0.261862
 2442         h1     85    bbb     H4   2442 0.04411300   1.008000   ; qtot -0.217749
 2443         c3     85    bbb     C3   2443 -0.00195300  12.010000   ; qtot -0.219702
 2444         h1     85    bbb     H5   2444 0.05064400   1.008000   ; qtot -0.169058
 2445         h1     85    bbb     H6   2445 0.05064400   1.008000   ; qtot -0.118414
 2446         c3     85    bbb     C4   2446 -0.01612100  12.010000   ; qtot -0.134535
 2447         hc     85    bbb     H7   2447 0.04936100   1.008000   ; qtot -0.085174
 2448         hc     85    bbb     H8   2448 0.04936100   1.008000   ; qtot -0.035813
 2449         c3     85    bbb     C5   2449 0.11363000  12.010000   ; qtot 0.077817
 2450         hc     85    bbb     H9   2450 0.06265900   1.008000   ; qtot 0.140476
 2451         hc     85    bbb    H10   2451 0.06265900   1.008000   ; qtot 0.203135
 2452         c3     85    bbb     C6   2452 0.11363000  12.010000   ; qtot 0.316765
 2453         hc     85    bbb    H11   2453 0.06265900   1.008000   ; qtot 0.379424
 2454         hc     85    bbb    H12   2454 0.06265900   1.008000   ; qtot 0.442083
 2455         c3     85    bbb     C7   2455 0.05858200  12.010000   ; qtot 0.500665
 2456         h1     85    bbb    H13   2456 0.06123400   1.008000   ; qtot 0.561899
 2457         h1     85    bbb    H14   2457 0.06123400   1.008000   ; qtot 0.623133
 2458         c3     85    bbb     C8   2458 -0.72423400  12.010000   ; qtot -0.101101
 2459         h1     85    bbb    H15   2459 0.25637600   1.008000   ; qtot 0.155275
 2460         h1     85    bbb    H16   2460 0.25637600   1.008000   ; qtot 0.411651
 2461         c3     85    bbb     C9   2461 -0.72423400  12.010000   ; qtot -0.312583
 2462         h1     85    bbb    H17   2462 0.25637600   1.008000   ; qtot -0.056207
 2463         h1     85    bbb    H18   2463 0.25637600   1.008000   ; qtot 0.200169
 2464         os     85    bbb     O1   2464 -0.20025300  16.000000   ; qtot -0.000084
; residue   86 bbb rtp bbb q -0.0
 2465         n3     86    bbb     N1   2465 -0.59685800  14.010000   ; qtot -0.596942
 2466         c3     86    bbb     C1   2466 0.10137000  12.010000   ; qtot -0.495572
 2467         h1     86    bbb     H1   2467 0.04411300   1.008000   ; qtot -0.451459
 2468         h1     86    bbb     H2   2468 0.04411300   1.008000   ; qtot -0.407346
 2469         c3     86    bbb     C2   2469 0.10137000  12.010000   ; qtot -0.305976
 2470         h1     86    bbb     H3   2470 0.04411300   1.008000   ; qtot -0.261863
 2471         h1     86    bbb     H4   2471 0.04411300   1.008000   ; qtot -0.217750
 2472         c3     86    bbb     C3   2472 -0.00195300  12.010000   ; qtot -0.219703
 2473         h1     86    bbb     H5   2473 0.05064400   1.008000   ; qtot -0.169059
 2474         h1     86    bbb     H6   2474 0.05064400   1.008000   ; qtot -0.118415
 2475         c3     86    bbb     C4   2475 -0.01612100  12.010000   ; qtot -0.134536
 2476         hc     86    bbb     H7   2476 0.04936100   1.008000   ; qtot -0.085175
 2477         hc     86    bbb     H8   2477 0.04936100   1.008000   ; qtot -0.035814
 2478         c3     86    bbb     C5   2478 0.11363000  12.010000   ; qtot 0.077816
 2479         hc     86    bbb     H9   2479 0.06265900   1.008000   ; qtot 0.140475
 2480         hc     86    bbb    H10   2480 0.06265900   1.008000   ; qtot 0.203134
 2481         c3     86    bbb     C6   2481 0.11363000  12.010000   ; qtot 0.316764
 2482         hc     86    bbb    H11   2482 0.06265900   1.008000   ; qtot 0.379423
 2483         hc     86    bbb    H12   2483 0.06265900   1.008000   ; qtot 0.442082
 2484         c3     86    bbb     C7   2484 0.05858200  12.010000   ; qtot 0.500664
 2485         h1     86    bbb    H13   2485 0.06123400   1.008000   ; qtot 0.561898
 2486         h1     86    bbb    H14   2486 0.06123400   1.008000   ; qtot 0.623132
 2487         c3     86    bbb     C8   2487 -0.72423400  12.010000   ; qtot -0.101102
 2488         h1     86    bbb    H15   2488 0.25637600   1.008000   ; qtot 0.155274
 2489         h1     86    bbb    H16   2489 0.25637600   1.008000   ; qtot 0.411650
 2490         c3     86    bbb     C9   2490 -0.72423400  12.010000   ; qtot -0.312584
 2491         h1     86    bbb    H17   2491 0.25637600   1.008000   ; qtot -0.056208
 2492         h1     86    bbb    H18   2492 0.25637600   1.008000   ; qtot 0.200168
 2493         os     86    bbb     O1   2493 -0.20025300  16.000000   ; qtot -0.000085
; residue   87 bbb rtp bbb q -0.0
 2494         n3     87    bbb     N1   2494 -0.59685800  14.010000   ; qtot -0.596943
 2495         c3     87    bbb     C1   2495 0.10137000  12.010000   ; qtot -0.495573
 2496         h1     87    bbb     H1   2496 0.04411300   1.008000   ; qtot -0.451460
 2497         h1     87    bbb     H2   2497 0.04411300   1.008000   ; qtot -0.407347
 2498         c3     87    bbb     C2   2498 0.10137000  12.010000   ; qtot -0.305977
 2499         h1     87    bbb     H3   2499 0.04411300   1.008000   ; qtot -0.261864
 2500         h1     87    bbb     H4   2500 0.04411300   1.008000   ; qtot -0.217751
 2501         c3     87    bbb     C3   2501 -0.00195300  12.010000   ; qtot -0.219704
 2502         h1     87    bbb     H5   2502 0.05064400   1.008000   ; qtot -0.169060
 2503         h1     87    bbb     H6   2503 0.05064400   1.008000   ; qtot -0.118416
 2504         c3     87    bbb     C4   2504 -0.01612100  12.010000   ; qtot -0.134537
 2505         hc     87    bbb     H7   2505 0.04936100   1.008000   ; qtot -0.085176
 2506         hc     87    bbb     H8   2506 0.04936100   1.008000   ; qtot -0.035815
 2507         c3     87    bbb     C5   2507 0.11363000  12.010000   ; qtot 0.077815
 2508         hc     87    bbb     H9   2508 0.06265900   1.008000   ; qtot 0.140474
 2509         hc     87    bbb    H10   2509 0.06265900   1.008000   ; qtot 0.203133
 2510         c3     87    bbb     C6   2510 0.11363000  12.010000   ; qtot 0.316763
 2511         hc     87    bbb    H11   2511 0.06265900   1.008000   ; qtot 0.379422
 2512         hc     87    bbb    H12   2512 0.06265900   1.008000   ; qtot 0.442081
 2513         c3     87    bbb     C7   2513 0.05858200  12.010000   ; qtot 0.500663
 2514         h1     87    bbb    H13   2514 0.06123400   1.008000   ; qtot 0.561897
 2515         h1     87    bbb    H14   2515 0.06123400   1.008000   ; qtot 0.623131
 2516         c3     87    bbb     C8   2516 -0.72423400  12.010000   ; qtot -0.101103
 2517         h1     87    bbb    H15   2517 0.25637600   1.008000   ; qtot 0.155273
 2518         h1     87    bbb    H16   2518 0.25637600   1.008000   ; qtot 0.411649
 2519         c3     87    bbb     C9   2519 -0.72423400  12.010000   ; qtot -0.312585
 2520         h1     87    bbb    H17   2520 0.25637600   1.008000   ; qtot -0.056209
 2521         h1     87    bbb    H18   2521 0.25637600   1.008000   ; qtot 0.200167
 2522         os     87    bbb     O1   2522 -0.20025300  16.000000   ; qtot -0.000086
; residue   88 bbb rtp bbb q -0.0
 2523         n3     88    bbb     N1   2523 -0.59685800  14.010000   ; qtot -0.596944
 2524         c3     88    bbb     C1   2524 0.10137000  12.010000   ; qtot -0.495574
 2525         h1     88    bbb     H1   2525 0.04411300   1.008000   ; qtot -0.451461
 2526         h1     88    bbb     H2   2526 0.04411300   1.008000   ; qtot -0.407348
 2527         c3     88    bbb     C2   2527 0.10137000  12.010000   ; qtot -0.305978
 2528         h1     88    bbb     H3   2528 0.04411300   1.008000   ; qtot -0.261865
 2529         h1     88    bbb     H4   2529 0.04411300   1.008000   ; qtot -0.217752
 2530         c3     88    bbb     C3   2530 -0.00195300  12.010000   ; qtot -0.219705
 2531         h1     88    bbb     H5   2531 0.05064400   1.008000   ; qtot -0.169061
 2532         h1     88    bbb     H6   2532 0.05064400   1.008000   ; qtot -0.118417
 2533         c3     88    bbb     C4   2533 -0.01612100  12.010000   ; qtot -0.134538
 2534         hc     88    bbb     H7   2534 0.04936100   1.008000   ; qtot -0.085177
 2535         hc     88    bbb     H8   2535 0.04936100   1.008000   ; qtot -0.035816
 2536         c3     88    bbb     C5   2536 0.11363000  12.010000   ; qtot 0.077814
 2537         hc     88    bbb     H9   2537 0.06265900   1.008000   ; qtot 0.140473
 2538         hc     88    bbb    H10   2538 0.06265900   1.008000   ; qtot 0.203132
 2539         c3     88    bbb     C6   2539 0.11363000  12.010000   ; qtot 0.316762
 2540         hc     88    bbb    H11   2540 0.06265900   1.008000   ; qtot 0.379421
 2541         hc     88    bbb    H12   2541 0.06265900   1.008000   ; qtot 0.442080
 2542         c3     88    bbb     C7   2542 0.05858200  12.010000   ; qtot 0.500662
 2543         h1     88    bbb    H13   2543 0.06123400   1.008000   ; qtot 0.561896
 2544         h1     88    bbb    H14   2544 0.06123400   1.008000   ; qtot 0.623130
 2545         c3     88    bbb     C8   2545 -0.72423400  12.010000   ; qtot -0.101104
 2546         h1     88    bbb    H15   2546 0.25637600   1.008000   ; qtot 0.155272
 2547         h1     88    bbb    H16   2547 0.25637600   1.008000   ; qtot 0.411648
 2548         c3     88    bbb     C9   2548 -0.72423400  12.010000   ; qtot -0.312586
 2549         h1     88    bbb    H17   2549 0.25637600   1.008000   ; qtot -0.056210
 2550         h1     88    bbb    H18   2550 0.25637600   1.008000   ; qtot 0.200166
 2551         os     88    bbb     O1   2551 -0.20025300  16.000000   ; qtot -0.000087
; residue   89 bbb rtp bbb q -0.0
 2552         n3     89    bbb     N1   2552 -0.59685800  14.010000   ; qtot -0.596945
 2553         c3     89    bbb     C1   2553 0.10137000  12.010000   ; qtot -0.495575
 2554         h1     89    bbb     H1   2554 0.04411300   1.008000   ; qtot -0.451462
 2555         h1     89    bbb     H2   2555 0.04411300   1.008000   ; qtot -0.407349
 2556         c3     89    bbb     C2   2556 0.10137000  12.010000   ; qtot -0.305979
 2557         h1     89    bbb     H3   2557 0.04411300   1.008000   ; qtot -0.261866
 2558         h1     89    bbb     H4   2558 0.04411300   1.008000   ; qtot -0.217753
 2559         c3     89    bbb     C3   2559 -0.00195300  12.010000   ; qtot -0.219706
 2560         h1     89    bbb     H5   2560 0.05064400   1.008000   ; qtot -0.169062
 2561         h1     89    bbb     H6   2561 0.05064400   1.008000   ; qtot -0.118418
 2562         c3     89    bbb     C4   2562 -0.01612100  12.010000   ; qtot -0.134539
 2563         hc     89    bbb     H7   2563 0.04936100   1.008000   ; qtot -0.085178
 2564         hc     89    bbb     H8   2564 0.04936100   1.008000   ; qtot -0.035817
 2565         c3     89    bbb     C5   2565 0.11363000  12.010000   ; qtot 0.077813
 2566         hc     89    bbb     H9   2566 0.06265900   1.008000   ; qtot 0.140472
 2567         hc     89    bbb    H10   2567 0.06265900   1.008000   ; qtot 0.203131
 2568         c3     89    bbb     C6   2568 0.11363000  12.010000   ; qtot 0.316761
 2569         hc     89    bbb    H11   2569 0.06265900   1.008000   ; qtot 0.379420
 2570         hc     89    bbb    H12   2570 0.06265900   1.008000   ; qtot 0.442079
 2571         c3     89    bbb     C7   2571 0.05858200  12.010000   ; qtot 0.500661
 2572         h1     89    bbb    H13   2572 0.06123400   1.008000   ; qtot 0.561895
 2573         h1     89    bbb    H14   2573 0.06123400   1.008000   ; qtot 0.623129
 2574         c3     89    bbb     C8   2574 -0.72423400  12.010000   ; qtot -0.101105
 2575         h1     89    bbb    H15   2575 0.25637600   1.008000   ; qtot 0.155271
 2576         h1     89    bbb    H16   2576 0.25637600   1.008000   ; qtot 0.411647
 2577         c3     89    bbb     C9   2577 -0.72423400  12.010000   ; qtot -0.312587
 2578         h1     89    bbb    H17   2578 0.25637600   1.008000   ; qtot -0.056211
 2579         h1     89    bbb    H18   2579 0.25637600   1.008000   ; qtot 0.200165
 2580         os     89    bbb     O1   2580 -0.20025300  16.000000   ; qtot -0.000088
; residue   90 bbb rtp bbb q -0.0
 2581         n3     90    bbb     N1   2581 -0.59685800  14.010000   ; qtot -0.596946
 2582         c3     90    bbb     C1   2582 0.10137000  12.010000   ; qtot -0.495576
 2583         h1     90    bbb     H1   2583 0.04411300   1.008000   ; qtot -0.451463
 2584         h1     90    bbb     H2   2584 0.04411300   1.008000   ; qtot -0.407350
 2585         c3     90    bbb     C2   2585 0.10137000  12.010000   ; qtot -0.305980
 2586         h1     90    bbb     H3   2586 0.04411300   1.008000   ; qtot -0.261867
 2587         h1     90    bbb     H4   2587 0.04411300   1.008000   ; qtot -0.217754
 2588         c3     90    bbb     C3   2588 -0.00195300  12.010000   ; qtot -0.219707
 2589         h1     90    bbb     H5   2589 0.05064400   1.008000   ; qtot -0.169063
 2590         h1     90    bbb     H6   2590 0.05064400   1.008000   ; qtot -0.118419
 2591         c3     90    bbb     C4   2591 -0.01612100  12.010000   ; qtot -0.134540
 2592         hc     90    bbb     H7   2592 0.04936100   1.008000   ; qtot -0.085179
 2593         hc     90    bbb     H8   2593 0.04936100   1.008000   ; qtot -0.035818
 2594         c3     90    bbb     C5   2594 0.11363000  12.010000   ; qtot 0.077812
 2595         hc     90    bbb     H9   2595 0.06265900   1.008000   ; qtot 0.140471
 2596         hc     90    bbb    H10   2596 0.06265900   1.008000   ; qtot 0.203130
 2597         c3     90    bbb     C6   2597 0.11363000  12.010000   ; qtot 0.316760
 2598         hc     90    bbb    H11   2598 0.06265900   1.008000   ; qtot 0.379419
 2599         hc     90    bbb    H12   2599 0.06265900   1.008000   ; qtot 0.442078
 2600         c3     90    bbb     C7   2600 0.05858200  12.010000   ; qtot 0.500660
 2601         h1     90    bbb    H13   2601 0.06123400   1.008000   ; qtot 0.561894
 2602         h1     90    bbb    H14   2602 0.06123400   1.008000   ; qtot 0.623128
 2603         c3     90    bbb     C8   2603 -0.72423400  12.010000   ; qtot -0.101106
 2604         h1     90    bbb    H15   2604 0.25637600   1.008000   ; qtot 0.155270
 2605         h1     90    bbb    H16   2605 0.25637600   1.008000   ; qtot 0.411646
 2606         c3     90    bbb     C9   2606 -0.72423400  12.010000   ; qtot -0.312588
 2607         h1     90    bbb    H17   2607 0.25637600   1.008000   ; qtot -0.056212
 2608         h1     90    bbb    H18   2608 0.25637600   1.008000   ; qtot 0.200164
 2609         os     90    bbb     O1   2609 -0.20025300  16.000000   ; qtot -0.000089
; residue   91 bbb rtp bbb q -0.0
 2610         n3     91    bbb     N1   2610 -0.59685800  14.010000   ; qtot -0.596947
 2611         c3     91    bbb     C1   2611 0.10137000  12.010000   ; qtot -0.495577
 2612         h1     91    bbb     H1   2612 0.04411300   1.008000   ; qtot -0.451464
 2613         h1     91    bbb     H2   2613 0.04411300   1.008000   ; qtot -0.407351
 2614         c3     91    bbb     C2   2614 0.10137000  12.010000   ; qtot -0.305981
 2615         h1     91    bbb     H3   2615 0.04411300   1.008000   ; qtot -0.261868
 2616         h1     91    bbb     H4   2616 0.04411300   1.008000   ; qtot -0.217755
 2617         c3     91    bbb     C3   2617 -0.00195300  12.010000   ; qtot -0.219708
 2618         h1     91    bbb     H5   2618 0.05064400   1.008000   ; qtot -0.169064
 2619         h1     91    bbb     H6   2619 0.05064400   1.008000   ; qtot -0.118420
 2620         c3     91    bbb     C4   2620 -0.01612100  12.010000   ; qtot -0.134541
 2621         hc     91    bbb     H7   2621 0.04936100   1.008000   ; qtot -0.085180
 2622         hc     91    bbb     H8   2622 0.04936100   1.008000   ; qtot -0.035819
 2623         c3     91    bbb     C5   2623 0.11363000  12.010000   ; qtot 0.077811
 2624         hc     91    bbb     H9   2624 0.06265900   1.008000   ; qtot 0.140470
 2625         hc     91    bbb    H10   2625 0.06265900   1.008000   ; qtot 0.203129
 2626         c3     91    bbb     C6   2626 0.11363000  12.010000   ; qtot 0.316759
 2627         hc     91    bbb    H11   2627 0.06265900   1.008000   ; qtot 0.379418
 2628         hc     91    bbb    H12   2628 0.06265900   1.008000   ; qtot 0.442077
 2629         c3     91    bbb     C7   2629 0.05858200  12.010000   ; qtot 0.500659
 2630         h1     91    bbb    H13   2630 0.06123400   1.008000   ; qtot 0.561893
 2631         h1     91    bbb    H14   2631 0.06123400   1.008000   ; qtot 0.623127
 2632         c3     91    bbb     C8   2632 -0.72423400  12.010000   ; qtot -0.101107
 2633         h1     91    bbb    H15   2633 0.25637600   1.008000   ; qtot 0.155269
 2634         h1     91    bbb    H16   2634 0.25637600   1.008000   ; qtot 0.411645
 2635         c3     91    bbb     C9   2635 -0.72423400  12.010000   ; qtot -0.312589
 2636         h1     91    bbb    H17   2636 0.25637600   1.008000   ; qtot -0.056213
 2637         h1     91    bbb    H18   2637 0.25637600   1.008000   ; qtot 0.200163
 2638         os     91    bbb     O1   2638 -0.20025300  16.000000   ; qtot -0.000090
; residue   92 bbb rtp bbb q -0.0
 2639         n3     92    bbb     N1   2639 -0.59685800  14.010000   ; qtot -0.596948
 2640         c3     92    bbb     C1   2640 0.10137000  12.010000   ; qtot -0.495578
 2641         h1     92    bbb     H1   2641 0.04411300   1.008000   ; qtot -0.451465
 2642         h1     92    bbb     H2   2642 0.04411300   1.008000   ; qtot -0.407352
 2643         c3     92    bbb     C2   2643 0.10137000  12.010000   ; qtot -0.305982
 2644         h1     92    bbb     H3   2644 0.04411300   1.008000   ; qtot -0.261869
 2645         h1     92    bbb     H4   2645 0.04411300   1.008000   ; qtot -0.217756
 2646         c3     92    bbb     C3   2646 -0.00195300  12.010000   ; qtot -0.219709
 2647         h1     92    bbb     H5   2647 0.05064400   1.008000   ; qtot -0.169065
 2648         h1     92    bbb     H6   2648 0.05064400   1.008000   ; qtot -0.118421
 2649         c3     92    bbb     C4   2649 -0.01612100  12.010000   ; qtot -0.134542
 2650         hc     92    bbb     H7   2650 0.04936100   1.008000   ; qtot -0.085181
 2651         hc     92    bbb     H8   2651 0.04936100   1.008000   ; qtot -0.035820
 2652         c3     92    bbb     C5   2652 0.11363000  12.010000   ; qtot 0.077810
 2653         hc     92    bbb     H9   2653 0.06265900   1.008000   ; qtot 0.140469
 2654         hc     92    bbb    H10   2654 0.06265900   1.008000   ; qtot 0.203128
 2655         c3     92    bbb     C6   2655 0.11363000  12.010000   ; qtot 0.316758
 2656         hc     92    bbb    H11   2656 0.06265900   1.008000   ; qtot 0.379417
 2657         hc     92    bbb    H12   2657 0.06265900   1.008000   ; qtot 0.442076
 2658         c3     92    bbb     C7   2658 0.05858200  12.010000   ; qtot 0.500658
 2659         h1     92    bbb    H13   2659 0.06123400   1.008000   ; qtot 0.561892
 2660         h1     92    bbb    H14   2660 0.06123400   1.008000   ; qtot 0.623126
 2661         c3     92    bbb     C8   2661 -0.72423400  12.010000   ; qtot -0.101108
 2662         h1     92    bbb    H15   2662 0.25637600   1.008000   ; qtot 0.155268
 2663         h1     92    bbb    H16   2663 0.25637600   1.008000   ; qtot 0.411644
 2664         c3     92    bbb     C9   2664 -0.72423400  12.010000   ; qtot -0.312590
 2665         h1     92    bbb    H17   2665 0.25637600   1.008000   ; qtot -0.056214
 2666         h1     92    bbb    H18   2666 0.25637600   1.008000   ; qtot 0.200162
 2667         os     92    bbb     O1   2667 -0.20025300  16.000000   ; qtot -0.000091
; residue   93 bbb rtp bbb q -0.0
 2668         n3     93    bbb     N1   2668 -0.59685800  14.010000   ; qtot -0.596949
 2669         c3     93    bbb     C1   2669 0.10137000  12.010000   ; qtot -0.495579
 2670         h1     93    bbb     H1   2670 0.04411300   1.008000   ; qtot -0.451466
 2671         h1     93    bbb     H2   2671 0.04411300   1.008000   ; qtot -0.407353
 2672         c3     93    bbb     C2   2672 0.10137000  12.010000   ; qtot -0.305983
 2673         h1     93    bbb     H3   2673 0.04411300   1.008000   ; qtot -0.261870
 2674         h1     93    bbb     H4   2674 0.04411300   1.008000   ; qtot -0.217757
 2675         c3     93    bbb     C3   2675 -0.00195300  12.010000   ; qtot -0.219710
 2676         h1     93    bbb     H5   2676 0.05064400   1.008000   ; qtot -0.169066
 2677         h1     93    bbb     H6   2677 0.05064400   1.008000   ; qtot -0.118422
 2678         c3     93    bbb     C4   2678 -0.01612100  12.010000   ; qtot -0.134543
 2679         hc     93    bbb     H7   2679 0.04936100   1.008000   ; qtot -0.085182
 2680         hc     93    bbb     H8   2680 0.04936100   1.008000   ; qtot -0.035821
 2681         c3     93    bbb     C5   2681 0.11363000  12.010000   ; qtot 0.077809
 2682         hc     93    bbb     H9   2682 0.06265900   1.008000   ; qtot 0.140468
 2683         hc     93    bbb    H10   2683 0.06265900   1.008000   ; qtot 0.203127
 2684         c3     93    bbb     C6   2684 0.11363000  12.010000   ; qtot 0.316757
 2685         hc     93    bbb    H11   2685 0.06265900   1.008000   ; qtot 0.379416
 2686         hc     93    bbb    H12   2686 0.06265900   1.008000   ; qtot 0.442075
 2687         c3     93    bbb     C7   2687 0.05858200  12.010000   ; qtot 0.500657
 2688         h1     93    bbb    H13   2688 0.06123400   1.008000   ; qtot 0.561891
 2689         h1     93    bbb    H14   2689 0.06123400   1.008000   ; qtot 0.623125
 2690         c3     93    bbb     C8   2690 -0.72423400  12.010000   ; qtot -0.101109
 2691         h1     93    bbb    H15   2691 0.25637600   1.008000   ; qtot 0.155267
 2692         h1     93    bbb    H16   2692 0.25637600   1.008000   ; qtot 0.411643
 2693         c3     93    bbb     C9   2693 -0.72423400  12.010000   ; qtot -0.312591
 2694         h1     93    bbb    H17   2694 0.25637600   1.008000   ; qtot -0.056215
 2695         h1     93    bbb    H18   2695 0.25637600   1.008000   ; qtot 0.200161
 2696         os     93    bbb     O1   2696 -0.20025300  16.000000   ; qtot -0.000092
; residue   94 bbb rtp bbb q -0.0
 2697         n3     94    bbb     N1   2697 -0.59685800  14.010000   ; qtot -0.596950
 2698         c3     94    bbb     C1   2698 0.10137000  12.010000   ; qtot -0.495580
 2699         h1     94    bbb     H1   2699 0.04411300   1.008000   ; qtot -0.451467
 2700         h1     94    bbb     H2   2700 0.04411300   1.008000   ; qtot -0.407354
 2701         c3     94    bbb     C2   2701 0.10137000  12.010000   ; qtot -0.305984
 2702         h1     94    bbb     H3   2702 0.04411300   1.008000   ; qtot -0.261871
 2703         h1     94    bbb     H4   2703 0.04411300   1.008000   ; qtot -0.217758
 2704         c3     94    bbb     C3   2704 -0.00195300  12.010000   ; qtot -0.219711
 2705         h1     94    bbb     H5   2705 0.05064400   1.008000   ; qtot -0.169067
 2706         h1     94    bbb     H6   2706 0.05064400   1.008000   ; qtot -0.118423
 2707         c3     94    bbb     C4   2707 -0.01612100  12.010000   ; qtot -0.134544
 2708         hc     94    bbb     H7   2708 0.04936100   1.008000   ; qtot -0.085183
 2709         hc     94    bbb     H8   2709 0.04936100   1.008000   ; qtot -0.035822
 2710         c3     94    bbb     C5   2710 0.11363000  12.010000   ; qtot 0.077808
 2711         hc     94    bbb     H9   2711 0.06265900   1.008000   ; qtot 0.140467
 2712         hc     94    bbb    H10   2712 0.06265900   1.008000   ; qtot 0.203126
 2713         c3     94    bbb     C6   2713 0.11363000  12.010000   ; qtot 0.316756
 2714         hc     94    bbb    H11   2714 0.06265900   1.008000   ; qtot 0.379415
 2715         hc     94    bbb    H12   2715 0.06265900   1.008000   ; qtot 0.442074
 2716         c3     94    bbb     C7   2716 0.05858200  12.010000   ; qtot 0.500656
 2717         h1     94    bbb    H13   2717 0.06123400   1.008000   ; qtot 0.561890
 2718         h1     94    bbb    H14   2718 0.06123400   1.008000   ; qtot 0.623124
 2719         c3     94    bbb     C8   2719 -0.72423400  12.010000   ; qtot -0.101110
 2720         h1     94    bbb    H15   2720 0.25637600   1.008000   ; qtot 0.155266
 2721         h1     94    bbb    H16   2721 0.25637600   1.008000   ; qtot 0.411642
 2722         c3     94    bbb     C9   2722 -0.72423400  12.010000   ; qtot -0.312592
 2723         h1     94    bbb    H17   2723 0.25637600   1.008000   ; qtot -0.056216
 2724         h1     94    bbb    H18   2724 0.25637600   1.008000   ; qtot 0.200160
 2725         os     94    bbb     O1   2725 -0.20025300  16.000000   ; qtot -0.000093
; residue   95 bbb rtp bbb q -0.0
 2726         n3     95    bbb     N1   2726 -0.59685800  14.010000   ; qtot -0.596951
 2727         c3     95    bbb     C1   2727 0.10137000  12.010000   ; qtot -0.495581
 2728         h1     95    bbb     H1   2728 0.04411300   1.008000   ; qtot -0.451468
 2729         h1     95    bbb     H2   2729 0.04411300   1.008000   ; qtot -0.407355
 2730         c3     95    bbb     C2   2730 0.10137000  12.010000   ; qtot -0.305985
 2731         h1     95    bbb     H3   2731 0.04411300   1.008000   ; qtot -0.261872
 2732         h1     95    bbb     H4   2732 0.04411300   1.008000   ; qtot -0.217759
 2733         c3     95    bbb     C3   2733 -0.00195300  12.010000   ; qtot -0.219712
 2734         h1     95    bbb     H5   2734 0.05064400   1.008000   ; qtot -0.169068
 2735         h1     95    bbb     H6   2735 0.05064400   1.008000   ; qtot -0.118424
 2736         c3     95    bbb     C4   2736 -0.01612100  12.010000   ; qtot -0.134545
 2737         hc     95    bbb     H7   2737 0.04936100   1.008000   ; qtot -0.085184
 2738         hc     95    bbb     H8   2738 0.04936100   1.008000   ; qtot -0.035823
 2739         c3     95    bbb     C5   2739 0.11363000  12.010000   ; qtot 0.077807
 2740         hc     95    bbb     H9   2740 0.06265900   1.008000   ; qtot 0.140466
 2741         hc     95    bbb    H10   2741 0.06265900   1.008000   ; qtot 0.203125
 2742         c3     95    bbb     C6   2742 0.11363000  12.010000   ; qtot 0.316755
 2743         hc     95    bbb    H11   2743 0.06265900   1.008000   ; qtot 0.379414
 2744         hc     95    bbb    H12   2744 0.06265900   1.008000   ; qtot 0.442073
 2745         c3     95    bbb     C7   2745 0.05858200  12.010000   ; qtot 0.500655
 2746         h1     95    bbb    H13   2746 0.06123400   1.008000   ; qtot 0.561889
 2747         h1     95    bbb    H14   2747 0.06123400   1.008000   ; qtot 0.623123
 2748         c3     95    bbb     C8   2748 -0.72423400  12.010000   ; qtot -0.101111
 2749         h1     95    bbb    H15   2749 0.25637600   1.008000   ; qtot 0.155265
 2750         h1     95    bbb    H16   2750 0.25637600   1.008000   ; qtot 0.411641
 2751         c3     95    bbb     C9   2751 -0.72423400  12.010000   ; qtot -0.312593
 2752         h1     95    bbb    H17   2752 0.25637600   1.008000   ; qtot -0.056217
 2753         h1     95    bbb    H18   2753 0.25637600   1.008000   ; qtot 0.200159
 2754         os     95    bbb     O1   2754 -0.20025300  16.000000   ; qtot -0.000094
; residue   96 bbb rtp bbb q -0.0
 2755         n3     96    bbb     N1   2755 -0.59685800  14.010000   ; qtot -0.596952
 2756         c3     96    bbb     C1   2756 0.10137000  12.010000   ; qtot -0.495582
 2757         h1     96    bbb     H1   2757 0.04411300   1.008000   ; qtot -0.451469
 2758         h1     96    bbb     H2   2758 0.04411300   1.008000   ; qtot -0.407356
 2759         c3     96    bbb     C2   2759 0.10137000  12.010000   ; qtot -0.305986
 2760         h1     96    bbb     H3   2760 0.04411300   1.008000   ; qtot -0.261873
 2761         h1     96    bbb     H4   2761 0.04411300   1.008000   ; qtot -0.217760
 2762         c3     96    bbb     C3   2762 -0.00195300  12.010000   ; qtot -0.219713
 2763         h1     96    bbb     H5   2763 0.05064400   1.008000   ; qtot -0.169069
 2764         h1     96    bbb     H6   2764 0.05064400   1.008000   ; qtot -0.118425
 2765         c3     96    bbb     C4   2765 -0.01612100  12.010000   ; qtot -0.134546
 2766         hc     96    bbb     H7   2766 0.04936100   1.008000   ; qtot -0.085185
 2767         hc     96    bbb     H8   2767 0.04936100   1.008000   ; qtot -0.035824
 2768         c3     96    bbb     C5   2768 0.11363000  12.010000   ; qtot 0.077806
 2769         hc     96    bbb     H9   2769 0.06265900   1.008000   ; qtot 0.140465
 2770         hc     96    bbb    H10   2770 0.06265900   1.008000   ; qtot 0.203124
 2771         c3     96    bbb     C6   2771 0.11363000  12.010000   ; qtot 0.316754
 2772         hc     96    bbb    H11   2772 0.06265900   1.008000   ; qtot 0.379413
 2773         hc     96    bbb    H12   2773 0.06265900   1.008000   ; qtot 0.442072
 2774         c3     96    bbb     C7   2774 0.05858200  12.010000   ; qtot 0.500654
 2775         h1     96    bbb    H13   2775 0.06123400   1.008000   ; qtot 0.561888
 2776         h1     96    bbb    H14   2776 0.06123400   1.008000   ; qtot 0.623122
 2777         c3     96    bbb     C8   2777 -0.72423400  12.010000   ; qtot -0.101112
 2778         h1     96    bbb    H15   2778 0.25637600   1.008000   ; qtot 0.155264
 2779         h1     96    bbb    H16   2779 0.25637600   1.008000   ; qtot 0.411640
 2780         c3     96    bbb     C9   2780 -0.72423400  12.010000   ; qtot -0.312594
 2781         h1     96    bbb    H17   2781 0.25637600   1.008000   ; qtot -0.056218
 2782         h1     96    bbb    H18   2782 0.25637600   1.008000   ; qtot 0.200158
 2783         os     96    bbb     O1   2783 -0.20025300  16.000000   ; qtot -0.000095
; residue   97 bbb rtp bbb q -0.0
 2784         n3     97    bbb     N1   2784 -0.59685800  14.010000   ; qtot -0.596953
 2785         c3     97    bbb     C1   2785 0.10137000  12.010000   ; qtot -0.495583
 2786         h1     97    bbb     H1   2786 0.04411300   1.008000   ; qtot -0.451470
 2787         h1     97    bbb     H2   2787 0.04411300   1.008000   ; qtot -0.407357
 2788         c3     97    bbb     C2   2788 0.10137000  12.010000   ; qtot -0.305987
 2789         h1     97    bbb     H3   2789 0.04411300   1.008000   ; qtot -0.261874
 2790         h1     97    bbb     H4   2790 0.04411300   1.008000   ; qtot -0.217761
 2791         c3     97    bbb     C3   2791 -0.00195300  12.010000   ; qtot -0.219714
 2792         h1     97    bbb     H5   2792 0.05064400   1.008000   ; qtot -0.169070
 2793         h1     97    bbb     H6   2793 0.05064400   1.008000   ; qtot -0.118426
 2794         c3     97    bbb     C4   2794 -0.01612100  12.010000   ; qtot -0.134547
 2795         hc     97    bbb     H7   2795 0.04936100   1.008000   ; qtot -0.085186
 2796         hc     97    bbb     H8   2796 0.04936100   1.008000   ; qtot -0.035825
 2797         c3     97    bbb     C5   2797 0.11363000  12.010000   ; qtot 0.077805
 2798         hc     97    bbb     H9   2798 0.06265900   1.008000   ; qtot 0.140464
 2799         hc     97    bbb    H10   2799 0.06265900   1.008000   ; qtot 0.203123
 2800         c3     97    bbb     C6   2800 0.11363000  12.010000   ; qtot 0.316753
 2801         hc     97    bbb    H11   2801 0.06265900   1.008000   ; qtot 0.379412
 2802         hc     97    bbb    H12   2802 0.06265900   1.008000   ; qtot 0.442071
 2803         c3     97    bbb     C7   2803 0.05858200  12.010000   ; qtot 0.500653
 2804         h1     97    bbb    H13   2804 0.06123400   1.008000   ; qtot 0.561887
 2805         h1     97    bbb    H14   2805 0.06123400   1.008000   ; qtot 0.623121
 2806         c3     97    bbb     C8   2806 -0.72423400  12.010000   ; qtot -0.101113
 2807         h1     97    bbb    H15   2807 0.25637600   1.008000   ; qtot 0.155263
 2808         h1     97    bbb    H16   2808 0.25637600   1.008000   ; qtot 0.411639
 2809         c3     97    bbb     C9   2809 -0.72423400  12.010000   ; qtot -0.312595
 2810         h1     97    bbb    H17   2810 0.25637600   1.008000   ; qtot -0.056219
 2811         h1     97    bbb    H18   2811 0.25637600   1.008000   ; qtot 0.200157
 2812         os     97    bbb     O1   2812 -0.20025300  16.000000   ; qtot -0.000096
; residue   98 bbb rtp bbb q -0.0
 2813         n3     98    bbb     N1   2813 -0.59685800  14.010000   ; qtot -0.596954
 2814         c3     98    bbb     C1   2814 0.10137000  12.010000   ; qtot -0.495584
 2815         h1     98    bbb     H1   2815 0.04411300   1.008000   ; qtot -0.451471
 2816         h1     98    bbb     H2   2816 0.04411300   1.008000   ; qtot -0.407358
 2817         c3     98    bbb     C2   2817 0.10137000  12.010000   ; qtot -0.305988
 2818         h1     98    bbb     H3   2818 0.04411300   1.008000   ; qtot -0.261875
 2819         h1     98    bbb     H4   2819 0.04411300   1.008000   ; qtot -0.217762
 2820         c3     98    bbb     C3   2820 -0.00195300  12.010000   ; qtot -0.219715
 2821         h1     98    bbb     H5   2821 0.05064400   1.008000   ; qtot -0.169071
 2822         h1     98    bbb     H6   2822 0.05064400   1.008000   ; qtot -0.118427
 2823         c3     98    bbb     C4   2823 -0.01612100  12.010000   ; qtot -0.134548
 2824         hc     98    bbb     H7   2824 0.04936100   1.008000   ; qtot -0.085187
 2825         hc     98    bbb     H8   2825 0.04936100   1.008000   ; qtot -0.035826
 2826         c3     98    bbb     C5   2826 0.11363000  12.010000   ; qtot 0.077804
 2827         hc     98    bbb     H9   2827 0.06265900   1.008000   ; qtot 0.140463
 2828         hc     98    bbb    H10   2828 0.06265900   1.008000   ; qtot 0.203122
 2829         c3     98    bbb     C6   2829 0.11363000  12.010000   ; qtot 0.316752
 2830         hc     98    bbb    H11   2830 0.06265900   1.008000   ; qtot 0.379411
 2831         hc     98    bbb    H12   2831 0.06265900   1.008000   ; qtot 0.442070
 2832         c3     98    bbb     C7   2832 0.05858200  12.010000   ; qtot 0.500652
 2833         h1     98    bbb    H13   2833 0.06123400   1.008000   ; qtot 0.561886
 2834         h1     98    bbb    H14   2834 0.06123400   1.008000   ; qtot 0.623120
 2835         c3     98    bbb     C8   2835 -0.72423400  12.010000   ; qtot -0.101114
 2836         h1     98    bbb    H15   2836 0.25637600   1.008000   ; qtot 0.155262
 2837         h1     98    bbb    H16   2837 0.25637600   1.008000   ; qtot 0.411638
 2838         c3     98    bbb     C9   2838 -0.72423400  12.010000   ; qtot -0.312596
 2839         h1     98    bbb    H17   2839 0.25637600   1.008000   ; qtot -0.056220
 2840         h1     98    bbb    H18   2840 0.25637600   1.008000   ; qtot 0.200156
 2841         os     98    bbb     O1   2841 -0.20025300  16.000000   ; qtot -0.000097
; residue   99 bbb rtp bbb q -0.0
 2842         n3     99    bbb     N1   2842 -0.59685800  14.010000   ; qtot -0.596955
 2843         c3     99    bbb     C1   2843 0.10137000  12.010000   ; qtot -0.495585
 2844         h1     99    bbb     H1   2844 0.04411300   1.008000   ; qtot -0.451472
 2845         h1     99    bbb     H2   2845 0.04411300   1.008000   ; qtot -0.407359
 2846         c3     99    bbb     C2   2846 0.10137000  12.010000   ; qtot -0.305989
 2847         h1     99    bbb     H3   2847 0.04411300   1.008000   ; qtot -0.261876
 2848         h1     99    bbb     H4   2848 0.04411300   1.008000   ; qtot -0.217763
 2849         c3     99    bbb     C3   2849 -0.00195300  12.010000   ; qtot -0.219716
 2850         h1     99    bbb     H5   2850 0.05064400   1.008000   ; qtot -0.169072
 2851         h1     99    bbb     H6   2851 0.05064400   1.008000   ; qtot -0.118428
 2852         c3     99    bbb     C4   2852 -0.01612100  12.010000   ; qtot -0.134549
 2853         hc     99    bbb     H7   2853 0.04936100   1.008000   ; qtot -0.085188
 2854         hc     99    bbb     H8   2854 0.04936100   1.008000   ; qtot -0.035827
 2855         c3     99    bbb     C5   2855 0.11363000  12.010000   ; qtot 0.077803
 2856         hc     99    bbb     H9   2856 0.06265900   1.008000   ; qtot 0.140462
 2857         hc     99    bbb    H10   2857 0.06265900   1.008000   ; qtot 0.203121
 2858         c3     99    bbb     C6   2858 0.11363000  12.010000   ; qtot 0.316751
 2859         hc     99    bbb    H11   2859 0.06265900   1.008000   ; qtot 0.379410
 2860         hc     99    bbb    H12   2860 0.06265900   1.008000   ; qtot 0.442069
 2861         c3     99    bbb     C7   2861 0.05858200  12.010000   ; qtot 0.500651
 2862         h1     99    bbb    H13   2862 0.06123400   1.008000   ; qtot 0.561885
 2863         h1     99    bbb    H14   2863 0.06123400   1.008000   ; qtot 0.623119
 2864         c3     99    bbb     C8   2864 -0.72423400  12.010000   ; qtot -0.101115
 2865         h1     99    bbb    H15   2865 0.25637600   1.008000   ; qtot 0.155261
 2866         h1     99    bbb    H16   2866 0.25637600   1.008000   ; qtot 0.411637
 2867         c3     99    bbb     C9   2867 -0.72423400  12.010000   ; qtot -0.312597
 2868         h1     99    bbb    H17   2868 0.25637600   1.008000   ; qtot -0.056221
 2869         h1     99    bbb    H18   2869 0.25637600   1.008000   ; qtot 0.200155
 2870         os     99    bbb     O1   2870 -0.20025300  16.000000   ; qtot -0.000098
; residue  100 bbb rtp bbb q -0.0
 2871         n3    100    bbb     N1   2871 -0.59685800  14.010000   ; qtot -0.596956
 2872         c3    100    bbb     C1   2872 0.10137000  12.010000   ; qtot -0.495586
 2873         h1    100    bbb     H1   2873 0.04411300   1.008000   ; qtot -0.451473
 2874         h1    100    bbb     H2   2874 0.04411300   1.008000   ; qtot -0.407360
 2875         c3    100    bbb     C2   2875 0.10137000  12.010000   ; qtot -0.305990
 2876         h1    100    bbb     H3   2876 0.04411300   1.008000   ; qtot -0.261877
 2877         h1    100    bbb     H4   2877 0.04411300   1.008000   ; qtot -0.217764
 2878         c3    100    bbb     C3   2878 -0.00195300  12.010000   ; qtot -0.219717
 2879         h1    100    bbb     H5   2879 0.05064400   1.008000   ; qtot -0.169073
 2880         h1    100    bbb     H6   2880 0.05064400   1.008000   ; qtot -0.118429
 2881         c3    100    bbb     C4   2881 -0.01612100  12.010000   ; qtot -0.134550
 2882         hc    100    bbb     H7   2882 0.04936100   1.008000   ; qtot -0.085189
 2883         hc    100    bbb     H8   2883 0.04936100   1.008000   ; qtot -0.035828
 2884         c3    100    bbb     C5   2884 0.11363000  12.010000   ; qtot 0.077802
 2885         hc    100    bbb     H9   2885 0.06265900   1.008000   ; qtot 0.140461
 2886         hc    100    bbb    H10   2886 0.06265900   1.008000   ; qtot 0.203120
 2887         c3    100    bbb     C6   2887 0.11363000  12.010000   ; qtot 0.316750
 2888         hc    100    bbb    H11   2888 0.06265900   1.008000   ; qtot 0.379409
 2889         hc    100    bbb    H12   2889 0.06265900   1.008000   ; qtot 0.442068
 2890         c3    100    bbb     C7   2890 0.05858200  12.010000   ; qtot 0.500650
 2891         h1    100    bbb    H13   2891 0.06123400   1.008000   ; qtot 0.561884
 2892         h1    100    bbb    H14   2892 0.06123400   1.008000   ; qtot 0.623118
 2893         c3    100    bbb     C8   2893 -0.72423400  12.010000   ; qtot -0.101116
 2894         h1    100    bbb    H15   2894 0.25637600   1.008000   ; qtot 0.155260
 2895         h1    100    bbb    H16   2895 0.25637600   1.008000   ; qtot 0.411636
 2896         c3    100    bbb     C9   2896 -0.72423400  12.010000   ; qtot -0.312598
 2897         h1    100    bbb    H17   2897 0.25637600   1.008000   ; qtot -0.056222
 2898         h1    100    bbb    H18   2898 0.25637600   1.008000   ; qtot 0.200154
 2899         os    100    bbb     O1   2899 -0.20025300  16.000000   ; qtot -0.000099
; residue  101 bbb rtp bbb q -0.0
 2900         n3    101    bbb     N1   2900 -0.59685800  14.010000   ; qtot -0.596957
 2901         c3    101    bbb     C1   2901 0.10137000  12.010000   ; qtot -0.495587
 2902         h1    101    bbb     H1   2902 0.04411300   1.008000   ; qtot -0.451474
 2903         h1    101    bbb     H2   2903 0.04411300   1.008000   ; qtot -0.407361
 2904         c3    101    bbb     C2   2904 0.10137000  12.010000   ; qtot -0.305991
 2905         h1    101    bbb     H3   2905 0.04411300   1.008000   ; qtot -0.261878
 2906         h1    101    bbb     H4   2906 0.04411300   1.008000   ; qtot -0.217765
 2907         c3    101    bbb     C3   2907 -0.00195300  12.010000   ; qtot -0.219718
 2908         h1    101    bbb     H5   2908 0.05064400   1.008000   ; qtot -0.169074
 2909         h1    101    bbb     H6   2909 0.05064400   1.008000   ; qtot -0.118430
 2910         c3    101    bbb     C4   2910 -0.01612100  12.010000   ; qtot -0.134551
 2911         hc    101    bbb     H7   2911 0.04936100   1.008000   ; qtot -0.085190
 2912         hc    101    bbb     H8   2912 0.04936100   1.008000   ; qtot -0.035829
 2913         c3    101    bbb     C5   2913 0.11363000  12.010000   ; qtot 0.077801
 2914         hc    101    bbb     H9   2914 0.06265900   1.008000   ; qtot 0.140460
 2915         hc    101    bbb    H10   2915 0.06265900   1.008000   ; qtot 0.203119
 2916         c3    101    bbb     C6   2916 0.11363000  12.010000   ; qtot 0.316749
 2917         hc    101    bbb    H11   2917 0.06265900   1.008000   ; qtot 0.379408
 2918         hc    101    bbb    H12   2918 0.06265900   1.008000   ; qtot 0.442067
 2919         c3    101    bbb     C7   2919 0.05858200  12.010000   ; qtot 0.500649
 2920         h1    101    bbb    H13   2920 0.06123400   1.008000   ; qtot 0.561883
 2921         h1    101    bbb    H14   2921 0.06123400   1.008000   ; qtot 0.623117
 2922         c3    101    bbb     C8   2922 -0.72423400  12.010000   ; qtot -0.101117
 2923         h1    101    bbb    H15   2923 0.25637600   1.008000   ; qtot 0.155259
 2924         h1    101    bbb    H16   2924 0.25637600   1.008000   ; qtot 0.411635
 2925         c3    101    bbb     C9   2925 -0.72423400  12.010000   ; qtot -0.312599
 2926         h1    101    bbb    H17   2926 0.25637600   1.008000   ; qtot -0.056223
 2927         h1    101    bbb    H18   2927 0.25637600   1.008000   ; qtot 0.200153
 2928         os    101    bbb     O1   2928 -0.20025300  16.000000   ; qtot -0.000100
; residue  102 bbb rtp bbb q -0.0
 2929         n3    102    bbb     N1   2929 -0.59685800  14.010000   ; qtot -0.596958
 2930         c3    102    bbb     C1   2930 0.10137000  12.010000   ; qtot -0.495588
 2931         h1    102    bbb     H1   2931 0.04411300   1.008000   ; qtot -0.451475
 2932         h1    102    bbb     H2   2932 0.04411300   1.008000   ; qtot -0.407362
 2933         c3    102    bbb     C2   2933 0.10137000  12.010000   ; qtot -0.305992
 2934         h1    102    bbb     H3   2934 0.04411300   1.008000   ; qtot -0.261879
 2935         h1    102    bbb     H4   2935 0.04411300   1.008000   ; qtot -0.217766
 2936         c3    102    bbb     C3   2936 -0.00195300  12.010000   ; qtot -0.219719
 2937         h1    102    bbb     H5   2937 0.05064400   1.008000   ; qtot -0.169075
 2938         h1    102    bbb     H6   2938 0.05064400   1.008000   ; qtot -0.118431
 2939         c3    102    bbb     C4   2939 -0.01612100  12.010000   ; qtot -0.134552
 2940         hc    102    bbb     H7   2940 0.04936100   1.008000   ; qtot -0.085191
 2941         hc    102    bbb     H8   2941 0.04936100   1.008000   ; qtot -0.035830
 2942         c3    102    bbb     C5   2942 0.11363000  12.010000   ; qtot 0.077800
 2943         hc    102    bbb     H9   2943 0.06265900   1.008000   ; qtot 0.140459
 2944         hc    102    bbb    H10   2944 0.06265900   1.008000   ; qtot 0.203118
 2945         c3    102    bbb     C6   2945 0.11363000  12.010000   ; qtot 0.316748
 2946         hc    102    bbb    H11   2946 0.06265900   1.008000   ; qtot 0.379407
 2947         hc    102    bbb    H12   2947 0.06265900   1.008000   ; qtot 0.442066
 2948         c3    102    bbb     C7   2948 0.05858200  12.010000   ; qtot 0.500648
 2949         h1    102    bbb    H13   2949 0.06123400   1.008000   ; qtot 0.561882
 2950         h1    102    bbb    H14   2950 0.06123400   1.008000   ; qtot 0.623116
 2951         c3    102    bbb     C8   2951 -0.72423400  12.010000   ; qtot -0.101118
 2952         h1    102    bbb    H15   2952 0.25637600   1.008000   ; qtot 0.155258
 2953         h1    102    bbb    H16   2953 0.25637600   1.008000   ; qtot 0.411634
 2954         c3    102    bbb     C9   2954 -0.72423400  12.010000   ; qtot -0.312600
 2955         h1    102    bbb    H17   2955 0.25637600   1.008000   ; qtot -0.056224
 2956         h1    102    bbb    H18   2956 0.25637600   1.008000   ; qtot 0.200152
 2957         os    102    bbb     O1   2957 -0.20025300  16.000000   ; qtot -0.000101
; residue  103 bbb rtp bbb q -0.0
 2958         n3    103    bbb     N1   2958 -0.59685800  14.010000   ; qtot -0.596959
 2959         c3    103    bbb     C1   2959 0.10137000  12.010000   ; qtot -0.495589
 2960         h1    103    bbb     H1   2960 0.04411300   1.008000   ; qtot -0.451476
 2961         h1    103    bbb     H2   2961 0.04411300   1.008000   ; qtot -0.407363
 2962         c3    103    bbb     C2   2962 0.10137000  12.010000   ; qtot -0.305993
 2963         h1    103    bbb     H3   2963 0.04411300   1.008000   ; qtot -0.261880
 2964         h1    103    bbb     H4   2964 0.04411300   1.008000   ; qtot -0.217767
 2965         c3    103    bbb     C3   2965 -0.00195300  12.010000   ; qtot -0.219720
 2966         h1    103    bbb     H5   2966 0.05064400   1.008000   ; qtot -0.169076
 2967         h1    103    bbb     H6   2967 0.05064400   1.008000   ; qtot -0.118432
 2968         c3    103    bbb     C4   2968 -0.01612100  12.010000   ; qtot -0.134553
 2969         hc    103    bbb     H7   2969 0.04936100   1.008000   ; qtot -0.085192
 2970         hc    103    bbb     H8   2970 0.04936100   1.008000   ; qtot -0.035831
 2971         c3    103    bbb     C5   2971 0.11363000  12.010000   ; qtot 0.077799
 2972         hc    103    bbb     H9   2972 0.06265900   1.008000   ; qtot 0.140458
 2973         hc    103    bbb    H10   2973 0.06265900   1.008000   ; qtot 0.203117
 2974         c3    103    bbb     C6   2974 0.11363000  12.010000   ; qtot 0.316747
 2975         hc    103    bbb    H11   2975 0.06265900   1.008000   ; qtot 0.379406
 2976         hc    103    bbb    H12   2976 0.06265900   1.008000   ; qtot 0.442065
 2977         c3    103    bbb     C7   2977 0.05858200  12.010000   ; qtot 0.500647
 2978         h1    103    bbb    H13   2978 0.06123400   1.008000   ; qtot 0.561881
 2979         h1    103    bbb    H14   2979 0.06123400   1.008000   ; qtot 0.623115
 2980         c3    103    bbb     C8   2980 -0.72423400  12.010000   ; qtot -0.101119
 2981         h1    103    bbb    H15   2981 0.25637600   1.008000   ; qtot 0.155257
 2982         h1    103    bbb    H16   2982 0.25637600   1.008000   ; qtot 0.411633
 2983         c3    103    bbb     C9   2983 -0.72423400  12.010000   ; qtot -0.312601
 2984         h1    103    bbb    H17   2984 0.25637600   1.008000   ; qtot -0.056225
 2985         h1    103    bbb    H18   2985 0.25637600   1.008000   ; qtot 0.200151
 2986         os    103    bbb     O1   2986 -0.20025300  16.000000   ; qtot -0.000102
; residue  104 bbb rtp bbb q -0.0
 2987         n3    104    bbb     N1   2987 -0.59685800  14.010000   ; qtot -0.596960
 2988         c3    104    bbb     C1   2988 0.10137000  12.010000   ; qtot -0.495590
 2989         h1    104    bbb     H1   2989 0.04411300   1.008000   ; qtot -0.451477
 2990         h1    104    bbb     H2   2990 0.04411300   1.008000   ; qtot -0.407364
 2991         c3    104    bbb     C2   2991 0.10137000  12.010000   ; qtot -0.305994
 2992         h1    104    bbb     H3   2992 0.04411300   1.008000   ; qtot -0.261881
 2993         h1    104    bbb     H4   2993 0.04411300   1.008000   ; qtot -0.217768
 2994         c3    104    bbb     C3   2994 -0.00195300  12.010000   ; qtot -0.219721
 2995         h1    104    bbb     H5   2995 0.05064400   1.008000   ; qtot -0.169077
 2996         h1    104    bbb     H6   2996 0.05064400   1.008000   ; qtot -0.118433
 2997         c3    104    bbb     C4   2997 -0.01612100  12.010000   ; qtot -0.134554
 2998         hc    104    bbb     H7   2998 0.04936100   1.008000   ; qtot -0.085193
 2999         hc    104    bbb     H8   2999 0.04936100   1.008000   ; qtot -0.035832
 3000         c3    104    bbb     C5   3000 0.11363000  12.010000   ; qtot 0.077798
 3001         hc    104    bbb     H9   3001 0.06265900   1.008000   ; qtot 0.140457
 3002         hc    104    bbb    H10   3002 0.06265900   1.008000   ; qtot 0.203116
 3003         c3    104    bbb     C6   3003 0.11363000  12.010000   ; qtot 0.316746
 3004         hc    104    bbb    H11   3004 0.06265900   1.008000   ; qtot 0.379405
 3005         hc    104    bbb    H12   3005 0.06265900   1.008000   ; qtot 0.442064
 3006         c3    104    bbb     C7   3006 0.05858200  12.010000   ; qtot 0.500646
 3007         h1    104    bbb    H13   3007 0.06123400   1.008000   ; qtot 0.561880
 3008         h1    104    bbb    H14   3008 0.06123400   1.008000   ; qtot 0.623114
 3009         c3    104    bbb     C8   3009 -0.72423400  12.010000   ; qtot -0.101120
 3010         h1    104    bbb    H15   3010 0.25637600   1.008000   ; qtot 0.155256
 3011         h1    104    bbb    H16   3011 0.25637600   1.008000   ; qtot 0.411632
 3012         c3    104    bbb     C9   3012 -0.72423400  12.010000   ; qtot -0.312602
 3013         h1    104    bbb    H17   3013 0.25637600   1.008000   ; qtot -0.056226
 3014         h1    104    bbb    H18   3014 0.25637600   1.008000   ; qtot 0.200150
 3015         os    104    bbb     O1   3015 -0.20025300  16.000000   ; qtot -0.000103
; residue  105 bbb rtp bbb q -0.0
 3016         n3    105    bbb     N1   3016 -0.59685800  14.010000   ; qtot -0.596961
 3017         c3    105    bbb     C1   3017 0.10137000  12.010000   ; qtot -0.495591
 3018         h1    105    bbb     H1   3018 0.04411300   1.008000   ; qtot -0.451478
 3019         h1    105    bbb     H2   3019 0.04411300   1.008000   ; qtot -0.407365
 3020         c3    105    bbb     C2   3020 0.10137000  12.010000   ; qtot -0.305995
 3021         h1    105    bbb     H3   3021 0.04411300   1.008000   ; qtot -0.261882
 3022         h1    105    bbb     H4   3022 0.04411300   1.008000   ; qtot -0.217769
 3023         c3    105    bbb     C3   3023 -0.00195300  12.010000   ; qtot -0.219722
 3024         h1    105    bbb     H5   3024 0.05064400   1.008000   ; qtot -0.169078
 3025         h1    105    bbb     H6   3025 0.05064400   1.008000   ; qtot -0.118434
 3026         c3    105    bbb     C4   3026 -0.01612100  12.010000   ; qtot -0.134555
 3027         hc    105    bbb     H7   3027 0.04936100   1.008000   ; qtot -0.085194
 3028         hc    105    bbb     H8   3028 0.04936100   1.008000   ; qtot -0.035833
 3029         c3    105    bbb     C5   3029 0.11363000  12.010000   ; qtot 0.077797
 3030         hc    105    bbb     H9   3030 0.06265900   1.008000   ; qtot 0.140456
 3031         hc    105    bbb    H10   3031 0.06265900   1.008000   ; qtot 0.203115
 3032         c3    105    bbb     C6   3032 0.11363000  12.010000   ; qtot 0.316745
 3033         hc    105    bbb    H11   3033 0.06265900   1.008000   ; qtot 0.379404
 3034         hc    105    bbb    H12   3034 0.06265900   1.008000   ; qtot 0.442063
 3035         c3    105    bbb     C7   3035 0.05858200  12.010000   ; qtot 0.500645
 3036         h1    105    bbb    H13   3036 0.06123400   1.008000   ; qtot 0.561879
 3037         h1    105    bbb    H14   3037 0.06123400   1.008000   ; qtot 0.623113
 3038         c3    105    bbb     C8   3038 -0.72423400  12.010000   ; qtot -0.101121
 3039         h1    105    bbb    H15   3039 0.25637600   1.008000   ; qtot 0.155255
 3040         h1    105    bbb    H16   3040 0.25637600   1.008000   ; qtot 0.411631
 3041         c3    105    bbb     C9   3041 -0.72423400  12.010000   ; qtot -0.312603
 3042         h1    105    bbb    H17   3042 0.25637600   1.008000   ; qtot -0.056227
 3043         h1    105    bbb    H18   3043 0.25637600   1.008000   ; qtot 0.200149
 3044         os    105    bbb     O1   3044 -0.20025300  16.000000   ; qtot -0.000104
; residue  106 bbb rtp bbb q -0.0
 3045         n3    106    bbb     N1   3045 -0.59685800  14.010000   ; qtot -0.596962
 3046         c3    106    bbb     C1   3046 0.10137000  12.010000   ; qtot -0.495592
 3047         h1    106    bbb     H1   3047 0.04411300   1.008000   ; qtot -0.451479
 3048         h1    106    bbb     H2   3048 0.04411300   1.008000   ; qtot -0.407366
 3049         c3    106    bbb     C2   3049 0.10137000  12.010000   ; qtot -0.305996
 3050         h1    106    bbb     H3   3050 0.04411300   1.008000   ; qtot -0.261883
 3051         h1    106    bbb     H4   3051 0.04411300   1.008000   ; qtot -0.217770
 3052         c3    106    bbb     C3   3052 -0.00195300  12.010000   ; qtot -0.219723
 3053         h1    106    bbb     H5   3053 0.05064400   1.008000   ; qtot -0.169079
 3054         h1    106    bbb     H6   3054 0.05064400   1.008000   ; qtot -0.118435
 3055         c3    106    bbb     C4   3055 -0.01612100  12.010000   ; qtot -0.134556
 3056         hc    106    bbb     H7   3056 0.04936100   1.008000   ; qtot -0.085195
 3057         hc    106    bbb     H8   3057 0.04936100   1.008000   ; qtot -0.035834
 3058         c3    106    bbb     C5   3058 0.11363000  12.010000   ; qtot 0.077796
 3059         hc    106    bbb     H9   3059 0.06265900   1.008000   ; qtot 0.140455
 3060         hc    106    bbb    H10   3060 0.06265900   1.008000   ; qtot 0.203114
 3061         c3    106    bbb     C6   3061 0.11363000  12.010000   ; qtot 0.316744
 3062         hc    106    bbb    H11   3062 0.06265900   1.008000   ; qtot 0.379403
 3063         hc    106    bbb    H12   3063 0.06265900   1.008000   ; qtot 0.442062
 3064         c3    106    bbb     C7   3064 0.05858200  12.010000   ; qtot 0.500644
 3065         h1    106    bbb    H13   3065 0.06123400   1.008000   ; qtot 0.561878
 3066         h1    106    bbb    H14   3066 0.06123400   1.008000   ; qtot 0.623112
 3067         c3    106    bbb     C8   3067 -0.72423400  12.010000   ; qtot -0.101122
 3068         h1    106    bbb    H15   3068 0.25637600   1.008000   ; qtot 0.155254
 3069         h1    106    bbb    H16   3069 0.25637600   1.008000   ; qtot 0.411630
 3070         c3    106    bbb     C9   3070 -0.72423400  12.010000   ; qtot -0.312604
 3071         h1    106    bbb    H17   3071 0.25637600   1.008000   ; qtot -0.056228
 3072         h1    106    bbb    H18   3072 0.25637600   1.008000   ; qtot 0.200148
 3073         os    106    bbb     O1   3073 -0.20025300  16.000000   ; qtot -0.000105
; residue  107 bbb rtp bbb q -0.0
 3074         n3    107    bbb     N1   3074 -0.59685800  14.010000   ; qtot -0.596963
 3075         c3    107    bbb     C1   3075 0.10137000  12.010000   ; qtot -0.495593
 3076         h1    107    bbb     H1   3076 0.04411300   1.008000   ; qtot -0.451480
 3077         h1    107    bbb     H2   3077 0.04411300   1.008000   ; qtot -0.407367
 3078         c3    107    bbb     C2   3078 0.10137000  12.010000   ; qtot -0.305997
 3079         h1    107    bbb     H3   3079 0.04411300   1.008000   ; qtot -0.261884
 3080         h1    107    bbb     H4   3080 0.04411300   1.008000   ; qtot -0.217771
 3081         c3    107    bbb     C3   3081 -0.00195300  12.010000   ; qtot -0.219724
 3082         h1    107    bbb     H5   3082 0.05064400   1.008000   ; qtot -0.169080
 3083         h1    107    bbb     H6   3083 0.05064400   1.008000   ; qtot -0.118436
 3084         c3    107    bbb     C4   3084 -0.01612100  12.010000   ; qtot -0.134557
 3085         hc    107    bbb     H7   3085 0.04936100   1.008000   ; qtot -0.085196
 3086         hc    107    bbb     H8   3086 0.04936100   1.008000   ; qtot -0.035835
 3087         c3    107    bbb     C5   3087 0.11363000  12.010000   ; qtot 0.077795
 3088         hc    107    bbb     H9   3088 0.06265900   1.008000   ; qtot 0.140454
 3089         hc    107    bbb    H10   3089 0.06265900   1.008000   ; qtot 0.203113
 3090         c3    107    bbb     C6   3090 0.11363000  12.010000   ; qtot 0.316743
 3091         hc    107    bbb    H11   3091 0.06265900   1.008000   ; qtot 0.379402
 3092         hc    107    bbb    H12   3092 0.06265900   1.008000   ; qtot 0.442061
 3093         c3    107    bbb     C7   3093 0.05858200  12.010000   ; qtot 0.500643
 3094         h1    107    bbb    H13   3094 0.06123400   1.008000   ; qtot 0.561877
 3095         h1    107    bbb    H14   3095 0.06123400   1.008000   ; qtot 0.623111
 3096         c3    107    bbb     C8   3096 -0.72423400  12.010000   ; qtot -0.101123
 3097         h1    107    bbb    H15   3097 0.25637600   1.008000   ; qtot 0.155253
 3098         h1    107    bbb    H16   3098 0.25637600   1.008000   ; qtot 0.411629
 3099         c3    107    bbb     C9   3099 -0.72423400  12.010000   ; qtot -0.312605
 3100         h1    107    bbb    H17   3100 0.25637600   1.008000   ; qtot -0.056229
 3101         h1    107    bbb    H18   3101 0.25637600   1.008000   ; qtot 0.200147
 3102         os    107    bbb     O1   3102 -0.20025300  16.000000   ; qtot -0.000106
; residue  108 bbb rtp bbb q -0.0
 3103         n3    108    bbb     N1   3103 -0.59685800  14.010000   ; qtot -0.596964
 3104         c3    108    bbb     C1   3104 0.10137000  12.010000   ; qtot -0.495594
 3105         h1    108    bbb     H1   3105 0.04411300   1.008000   ; qtot -0.451481
 3106         h1    108    bbb     H2   3106 0.04411300   1.008000   ; qtot -0.407368
 3107         c3    108    bbb     C2   3107 0.10137000  12.010000   ; qtot -0.305998
 3108         h1    108    bbb     H3   3108 0.04411300   1.008000   ; qtot -0.261885
 3109         h1    108    bbb     H4   3109 0.04411300   1.008000   ; qtot -0.217772
 3110         c3    108    bbb     C3   3110 -0.00195300  12.010000   ; qtot -0.219725
 3111         h1    108    bbb     H5   3111 0.05064400   1.008000   ; qtot -0.169081
 3112         h1    108    bbb     H6   3112 0.05064400   1.008000   ; qtot -0.118437
 3113         c3    108    bbb     C4   3113 -0.01612100  12.010000   ; qtot -0.134558
 3114         hc    108    bbb     H7   3114 0.04936100   1.008000   ; qtot -0.085197
 3115         hc    108    bbb     H8   3115 0.04936100   1.008000   ; qtot -0.035836
 3116         c3    108    bbb     C5   3116 0.11363000  12.010000   ; qtot 0.077794
 3117         hc    108    bbb     H9   3117 0.06265900   1.008000   ; qtot 0.140453
 3118         hc    108    bbb    H10   3118 0.06265900   1.008000   ; qtot 0.203112
 3119         c3    108    bbb     C6   3119 0.11363000  12.010000   ; qtot 0.316742
 3120         hc    108    bbb    H11   3120 0.06265900   1.008000   ; qtot 0.379401
 3121         hc    108    bbb    H12   3121 0.06265900   1.008000   ; qtot 0.442060
 3122         c3    108    bbb     C7   3122 0.05858200  12.010000   ; qtot 0.500642
 3123         h1    108    bbb    H13   3123 0.06123400   1.008000   ; qtot 0.561876
 3124         h1    108    bbb    H14   3124 0.06123400   1.008000   ; qtot 0.623110
 3125         c3    108    bbb     C8   3125 -0.72423400  12.010000   ; qtot -0.101124
 3126         h1    108    bbb    H15   3126 0.25637600   1.008000   ; qtot 0.155252
 3127         h1    108    bbb    H16   3127 0.25637600   1.008000   ; qtot 0.411628
 3128         c3    108    bbb     C9   3128 -0.72423400  12.010000   ; qtot -0.312606
 3129         h1    108    bbb    H17   3129 0.25637600   1.008000   ; qtot -0.056230
 3130         h1    108    bbb    H18   3130 0.25637600   1.008000   ; qtot 0.200146
 3131         os    108    bbb     O1   3131 -0.20025300  16.000000   ; qtot -0.000107
; residue  109 bbb rtp bbb q -0.0
 3132         n3    109    bbb     N1   3132 -0.59685800  14.010000   ; qtot -0.596965
 3133         c3    109    bbb     C1   3133 0.10137000  12.010000   ; qtot -0.495595
 3134         h1    109    bbb     H1   3134 0.04411300   1.008000   ; qtot -0.451482
 3135         h1    109    bbb     H2   3135 0.04411300   1.008000   ; qtot -0.407369
 3136         c3    109    bbb     C2   3136 0.10137000  12.010000   ; qtot -0.305999
 3137         h1    109    bbb     H3   3137 0.04411300   1.008000   ; qtot -0.261886
 3138         h1    109    bbb     H4   3138 0.04411300   1.008000   ; qtot -0.217773
 3139         c3    109    bbb     C3   3139 -0.00195300  12.010000   ; qtot -0.219726
 3140         h1    109    bbb     H5   3140 0.05064400   1.008000   ; qtot -0.169082
 3141         h1    109    bbb     H6   3141 0.05064400   1.008000   ; qtot -0.118438
 3142         c3    109    bbb     C4   3142 -0.01612100  12.010000   ; qtot -0.134559
 3143         hc    109    bbb     H7   3143 0.04936100   1.008000   ; qtot -0.085198
 3144         hc    109    bbb     H8   3144 0.04936100   1.008000   ; qtot -0.035837
 3145         c3    109    bbb     C5   3145 0.11363000  12.010000   ; qtot 0.077793
 3146         hc    109    bbb     H9   3146 0.06265900   1.008000   ; qtot 0.140452
 3147         hc    109    bbb    H10   3147 0.06265900   1.008000   ; qtot 0.203111
 3148         c3    109    bbb     C6   3148 0.11363000  12.010000   ; qtot 0.316741
 3149         hc    109    bbb    H11   3149 0.06265900   1.008000   ; qtot 0.379400
 3150         hc    109    bbb    H12   3150 0.06265900   1.008000   ; qtot 0.442059
 3151         c3    109    bbb     C7   3151 0.05858200  12.010000   ; qtot 0.500641
 3152         h1    109    bbb    H13   3152 0.06123400   1.008000   ; qtot 0.561875
 3153         h1    109    bbb    H14   3153 0.06123400   1.008000   ; qtot 0.623109
 3154         c3    109    bbb     C8   3154 -0.72423400  12.010000   ; qtot -0.101125
 3155         h1    109    bbb    H15   3155 0.25637600   1.008000   ; qtot 0.155251
 3156         h1    109    bbb    H16   3156 0.25637600   1.008000   ; qtot 0.411627
 3157         c3    109    bbb     C9   3157 -0.72423400  12.010000   ; qtot -0.312607
 3158         h1    109    bbb    H17   3158 0.25637600   1.008000   ; qtot -0.056231
 3159         h1    109    bbb    H18   3159 0.25637600   1.008000   ; qtot 0.200145
 3160         os    109    bbb     O1   3160 -0.20025300  16.000000   ; qtot -0.000108
; residue  110 bbb rtp bbb q -0.0
 3161         n3    110    bbb     N1   3161 -0.59685800  14.010000   ; qtot -0.596966
 3162         c3    110    bbb     C1   3162 0.10137000  12.010000   ; qtot -0.495596
 3163         h1    110    bbb     H1   3163 0.04411300   1.008000   ; qtot -0.451483
 3164         h1    110    bbb     H2   3164 0.04411300   1.008000   ; qtot -0.407370
 3165         c3    110    bbb     C2   3165 0.10137000  12.010000   ; qtot -0.306000
 3166         h1    110    bbb     H3   3166 0.04411300   1.008000   ; qtot -0.261887
 3167         h1    110    bbb     H4   3167 0.04411300   1.008000   ; qtot -0.217774
 3168         c3    110    bbb     C3   3168 -0.00195300  12.010000   ; qtot -0.219727
 3169         h1    110    bbb     H5   3169 0.05064400   1.008000   ; qtot -0.169083
 3170         h1    110    bbb     H6   3170 0.05064400   1.008000   ; qtot -0.118439
 3171         c3    110    bbb     C4   3171 -0.01612100  12.010000   ; qtot -0.134560
 3172         hc    110    bbb     H7   3172 0.04936100   1.008000   ; qtot -0.085199
 3173         hc    110    bbb     H8   3173 0.04936100   1.008000   ; qtot -0.035838
 3174         c3    110    bbb     C5   3174 0.11363000  12.010000   ; qtot 0.077792
 3175         hc    110    bbb     H9   3175 0.06265900   1.008000   ; qtot 0.140451
 3176         hc    110    bbb    H10   3176 0.06265900   1.008000   ; qtot 0.203110
 3177         c3    110    bbb     C6   3177 0.11363000  12.010000   ; qtot 0.316740
 3178         hc    110    bbb    H11   3178 0.06265900   1.008000   ; qtot 0.379399
 3179         hc    110    bbb    H12   3179 0.06265900   1.008000   ; qtot 0.442058
 3180         c3    110    bbb     C7   3180 0.05858200  12.010000   ; qtot 0.500640
 3181         h1    110    bbb    H13   3181 0.06123400   1.008000   ; qtot 0.561874
 3182         h1    110    bbb    H14   3182 0.06123400   1.008000   ; qtot 0.623108
 3183         c3    110    bbb     C8   3183 -0.72423400  12.010000   ; qtot -0.101126
 3184         h1    110    bbb    H15   3184 0.25637600   1.008000   ; qtot 0.155250
 3185         h1    110    bbb    H16   3185 0.25637600   1.008000   ; qtot 0.411626
 3186         c3    110    bbb     C9   3186 -0.72423400  12.010000   ; qtot -0.312608
 3187         h1    110    bbb    H17   3187 0.25637600   1.008000   ; qtot -0.056232
 3188         h1    110    bbb    H18   3188 0.25637600   1.008000   ; qtot 0.200144
 3189         os    110    bbb     O1   3189 -0.20025300  16.000000   ; qtot -0.000109
; residue  111 bbb rtp bbb q -0.0
 3190         n3    111    bbb     N1   3190 -0.59685800  14.010000   ; qtot -0.596967
 3191         c3    111    bbb     C1   3191 0.10137000  12.010000   ; qtot -0.495597
 3192         h1    111    bbb     H1   3192 0.04411300   1.008000   ; qtot -0.451484
 3193         h1    111    bbb     H2   3193 0.04411300   1.008000   ; qtot -0.407371
 3194         c3    111    bbb     C2   3194 0.10137000  12.010000   ; qtot -0.306001
 3195         h1    111    bbb     H3   3195 0.04411300   1.008000   ; qtot -0.261888
 3196         h1    111    bbb     H4   3196 0.04411300   1.008000   ; qtot -0.217775
 3197         c3    111    bbb     C3   3197 -0.00195300  12.010000   ; qtot -0.219728
 3198         h1    111    bbb     H5   3198 0.05064400   1.008000   ; qtot -0.169084
 3199         h1    111    bbb     H6   3199 0.05064400   1.008000   ; qtot -0.118440
 3200         c3    111    bbb     C4   3200 -0.01612100  12.010000   ; qtot -0.134561
 3201         hc    111    bbb     H7   3201 0.04936100   1.008000   ; qtot -0.085200
 3202         hc    111    bbb     H8   3202 0.04936100   1.008000   ; qtot -0.035839
 3203         c3    111    bbb     C5   3203 0.11363000  12.010000   ; qtot 0.077791
 3204         hc    111    bbb     H9   3204 0.06265900   1.008000   ; qtot 0.140450
 3205         hc    111    bbb    H10   3205 0.06265900   1.008000   ; qtot 0.203109
 3206         c3    111    bbb     C6   3206 0.11363000  12.010000   ; qtot 0.316739
 3207         hc    111    bbb    H11   3207 0.06265900   1.008000   ; qtot 0.379398
 3208         hc    111    bbb    H12   3208 0.06265900   1.008000   ; qtot 0.442057
 3209         c3    111    bbb     C7   3209 0.05858200  12.010000   ; qtot 0.500639
 3210         h1    111    bbb    H13   3210 0.06123400   1.008000   ; qtot 0.561873
 3211         h1    111    bbb    H14   3211 0.06123400   1.008000   ; qtot 0.623107
 3212         c3    111    bbb     C8   3212 -0.72423400  12.010000   ; qtot -0.101127
 3213         h1    111    bbb    H15   3213 0.25637600   1.008000   ; qtot 0.155249
 3214         h1    111    bbb    H16   3214 0.25637600   1.008000   ; qtot 0.411625
 3215         c3    111    bbb     C9   3215 -0.72423400  12.010000   ; qtot -0.312609
 3216         h1    111    bbb    H17   3216 0.25637600   1.008000   ; qtot -0.056233
 3217         h1    111    bbb    H18   3217 0.25637600   1.008000   ; qtot 0.200143
 3218         os    111    bbb     O1   3218 -0.20025300  16.000000   ; qtot -0.000110
; residue  112 bbb rtp bbb q -0.0
 3219         n3    112    bbb     N1   3219 -0.59685800  14.010000   ; qtot -0.596968
 3220         c3    112    bbb     C1   3220 0.10137000  12.010000   ; qtot -0.495598
 3221         h1    112    bbb     H1   3221 0.04411300   1.008000   ; qtot -0.451485
 3222         h1    112    bbb     H2   3222 0.04411300   1.008000   ; qtot -0.407372
 3223         c3    112    bbb     C2   3223 0.10137000  12.010000   ; qtot -0.306002
 3224         h1    112    bbb     H3   3224 0.04411300   1.008000   ; qtot -0.261889
 3225         h1    112    bbb     H4   3225 0.04411300   1.008000   ; qtot -0.217776
 3226         c3    112    bbb     C3   3226 -0.00195300  12.010000   ; qtot -0.219729
 3227         h1    112    bbb     H5   3227 0.05064400   1.008000   ; qtot -0.169085
 3228         h1    112    bbb     H6   3228 0.05064400   1.008000   ; qtot -0.118441
 3229         c3    112    bbb     C4   3229 -0.01612100  12.010000   ; qtot -0.134562
 3230         hc    112    bbb     H7   3230 0.04936100   1.008000   ; qtot -0.085201
 3231         hc    112    bbb     H8   3231 0.04936100   1.008000   ; qtot -0.035840
 3232         c3    112    bbb     C5   3232 0.11363000  12.010000   ; qtot 0.077790
 3233         hc    112    bbb     H9   3233 0.06265900   1.008000   ; qtot 0.140449
 3234         hc    112    bbb    H10   3234 0.06265900   1.008000   ; qtot 0.203108
 3235         c3    112    bbb     C6   3235 0.11363000  12.010000   ; qtot 0.316738
 3236         hc    112    bbb    H11   3236 0.06265900   1.008000   ; qtot 0.379397
 3237         hc    112    bbb    H12   3237 0.06265900   1.008000   ; qtot 0.442056
 3238         c3    112    bbb     C7   3238 0.05858200  12.010000   ; qtot 0.500638
 3239         h1    112    bbb    H13   3239 0.06123400   1.008000   ; qtot 0.561872
 3240         h1    112    bbb    H14   3240 0.06123400   1.008000   ; qtot 0.623106
 3241         c3    112    bbb     C8   3241 -0.72423400  12.010000   ; qtot -0.101128
 3242         h1    112    bbb    H15   3242 0.25637600   1.008000   ; qtot 0.155248
 3243         h1    112    bbb    H16   3243 0.25637600   1.008000   ; qtot 0.411624
 3244         c3    112    bbb     C9   3244 -0.72423400  12.010000   ; qtot -0.312610
 3245         h1    112    bbb    H17   3245 0.25637600   1.008000   ; qtot -0.056234
 3246         h1    112    bbb    H18   3246 0.25637600   1.008000   ; qtot 0.200142
 3247         os    112    bbb     O1   3247 -0.20025300  16.000000   ; qtot -0.000111
; residue  113 bbb rtp bbb q -0.0
 3248         n3    113    bbb     N1   3248 -0.59685800  14.010000   ; qtot -0.596969
 3249         c3    113    bbb     C1   3249 0.10137000  12.010000   ; qtot -0.495599
 3250         h1    113    bbb     H1   3250 0.04411300   1.008000   ; qtot -0.451486
 3251         h1    113    bbb     H2   3251 0.04411300   1.008000   ; qtot -0.407373
 3252         c3    113    bbb     C2   3252 0.10137000  12.010000   ; qtot -0.306003
 3253         h1    113    bbb     H3   3253 0.04411300   1.008000   ; qtot -0.261890
 3254         h1    113    bbb     H4   3254 0.04411300   1.008000   ; qtot -0.217777
 3255         c3    113    bbb     C3   3255 -0.00195300  12.010000   ; qtot -0.219730
 3256         h1    113    bbb     H5   3256 0.05064400   1.008000   ; qtot -0.169086
 3257         h1    113    bbb     H6   3257 0.05064400   1.008000   ; qtot -0.118442
 3258         c3    113    bbb     C4   3258 -0.01612100  12.010000   ; qtot -0.134563
 3259         hc    113    bbb     H7   3259 0.04936100   1.008000   ; qtot -0.085202
 3260         hc    113    bbb     H8   3260 0.04936100   1.008000   ; qtot -0.035841
 3261         c3    113    bbb     C5   3261 0.11363000  12.010000   ; qtot 0.077789
 3262         hc    113    bbb     H9   3262 0.06265900   1.008000   ; qtot 0.140448
 3263         hc    113    bbb    H10   3263 0.06265900   1.008000   ; qtot 0.203107
 3264         c3    113    bbb     C6   3264 0.11363000  12.010000   ; qtot 0.316737
 3265         hc    113    bbb    H11   3265 0.06265900   1.008000   ; qtot 0.379396
 3266         hc    113    bbb    H12   3266 0.06265900   1.008000   ; qtot 0.442055
 3267         c3    113    bbb     C7   3267 0.05858200  12.010000   ; qtot 0.500637
 3268         h1    113    bbb    H13   3268 0.06123400   1.008000   ; qtot 0.561871
 3269         h1    113    bbb    H14   3269 0.06123400   1.008000   ; qtot 0.623105
 3270         c3    113    bbb     C8   3270 -0.72423400  12.010000   ; qtot -0.101129
 3271         h1    113    bbb    H15   3271 0.25637600   1.008000   ; qtot 0.155247
 3272         h1    113    bbb    H16   3272 0.25637600   1.008000   ; qtot 0.411623
 3273         c3    113    bbb     C9   3273 -0.72423400  12.010000   ; qtot -0.312611
 3274         h1    113    bbb    H17   3274 0.25637600   1.008000   ; qtot -0.056235
 3275         h1    113    bbb    H18   3275 0.25637600   1.008000   ; qtot 0.200141
 3276         os    113    bbb     O1   3276 -0.20025300  16.000000   ; qtot -0.000112
; residue  114 bbb rtp bbb q -0.0
 3277         n3    114    bbb     N1   3277 -0.59685800  14.010000   ; qtot -0.596970
 3278         c3    114    bbb     C1   3278 0.10137000  12.010000   ; qtot -0.495600
 3279         h1    114    bbb     H1   3279 0.04411300   1.008000   ; qtot -0.451487
 3280         h1    114    bbb     H2   3280 0.04411300   1.008000   ; qtot -0.407374
 3281         c3    114    bbb     C2   3281 0.10137000  12.010000   ; qtot -0.306004
 3282         h1    114    bbb     H3   3282 0.04411300   1.008000   ; qtot -0.261891
 3283         h1    114    bbb     H4   3283 0.04411300   1.008000   ; qtot -0.217778
 3284         c3    114    bbb     C3   3284 -0.00195300  12.010000   ; qtot -0.219731
 3285         h1    114    bbb     H5   3285 0.05064400   1.008000   ; qtot -0.169087
 3286         h1    114    bbb     H6   3286 0.05064400   1.008000   ; qtot -0.118443
 3287         c3    114    bbb     C4   3287 -0.01612100  12.010000   ; qtot -0.134564
 3288         hc    114    bbb     H7   3288 0.04936100   1.008000   ; qtot -0.085203
 3289         hc    114    bbb     H8   3289 0.04936100   1.008000   ; qtot -0.035842
 3290         c3    114    bbb     C5   3290 0.11363000  12.010000   ; qtot 0.077788
 3291         hc    114    bbb     H9   3291 0.06265900   1.008000   ; qtot 0.140447
 3292         hc    114    bbb    H10   3292 0.06265900   1.008000   ; qtot 0.203106
 3293         c3    114    bbb     C6   3293 0.11363000  12.010000   ; qtot 0.316736
 3294         hc    114    bbb    H11   3294 0.06265900   1.008000   ; qtot 0.379395
 3295         hc    114    bbb    H12   3295 0.06265900   1.008000   ; qtot 0.442054
 3296         c3    114    bbb     C7   3296 0.05858200  12.010000   ; qtot 0.500636
 3297         h1    114    bbb    H13   3297 0.06123400   1.008000   ; qtot 0.561870
 3298         h1    114    bbb    H14   3298 0.06123400   1.008000   ; qtot 0.623104
 3299         c3    114    bbb     C8   3299 -0.72423400  12.010000   ; qtot -0.101130
 3300         h1    114    bbb    H15   3300 0.25637600   1.008000   ; qtot 0.155246
 3301         h1    114    bbb    H16   3301 0.25637600   1.008000   ; qtot 0.411622
 3302         c3    114    bbb     C9   3302 -0.72423400  12.010000   ; qtot -0.312612
 3303         h1    114    bbb    H17   3303 0.25637600   1.008000   ; qtot -0.056236
 3304         h1    114    bbb    H18   3304 0.25637600   1.008000   ; qtot 0.200140
 3305         os    114    bbb     O1   3305 -0.20025300  16.000000   ; qtot -0.000113
; residue  115 bbb rtp bbb q -0.0
 3306         n3    115    bbb     N1   3306 -0.59685800  14.010000   ; qtot -0.596971
 3307         c3    115    bbb     C1   3307 0.10137000  12.010000   ; qtot -0.495601
 3308         h1    115    bbb     H1   3308 0.04411300   1.008000   ; qtot -0.451488
 3309         h1    115    bbb     H2   3309 0.04411300   1.008000   ; qtot -0.407375
 3310         c3    115    bbb     C2   3310 0.10137000  12.010000   ; qtot -0.306005
 3311         h1    115    bbb     H3   3311 0.04411300   1.008000   ; qtot -0.261892
 3312         h1    115    bbb     H4   3312 0.04411300   1.008000   ; qtot -0.217779
 3313         c3    115    bbb     C3   3313 -0.00195300  12.010000   ; qtot -0.219732
 3314         h1    115    bbb     H5   3314 0.05064400   1.008000   ; qtot -0.169088
 3315         h1    115    bbb     H6   3315 0.05064400   1.008000   ; qtot -0.118444
 3316         c3    115    bbb     C4   3316 -0.01612100  12.010000   ; qtot -0.134565
 3317         hc    115    bbb     H7   3317 0.04936100   1.008000   ; qtot -0.085204
 3318         hc    115    bbb     H8   3318 0.04936100   1.008000   ; qtot -0.035843
 3319         c3    115    bbb     C5   3319 0.11363000  12.010000   ; qtot 0.077787
 3320         hc    115    bbb     H9   3320 0.06265900   1.008000   ; qtot 0.140446
 3321         hc    115    bbb    H10   3321 0.06265900   1.008000   ; qtot 0.203105
 3322         c3    115    bbb     C6   3322 0.11363000  12.010000   ; qtot 0.316735
 3323         hc    115    bbb    H11   3323 0.06265900   1.008000   ; qtot 0.379394
 3324         hc    115    bbb    H12   3324 0.06265900   1.008000   ; qtot 0.442053
 3325         c3    115    bbb     C7   3325 0.05858200  12.010000   ; qtot 0.500635
 3326         h1    115    bbb    H13   3326 0.06123400   1.008000   ; qtot 0.561869
 3327         h1    115    bbb    H14   3327 0.06123400   1.008000   ; qtot 0.623103
 3328         c3    115    bbb     C8   3328 -0.72423400  12.010000   ; qtot -0.101131
 3329         h1    115    bbb    H15   3329 0.25637600   1.008000   ; qtot 0.155245
 3330         h1    115    bbb    H16   3330 0.25637600   1.008000   ; qtot 0.411621
 3331         c3    115    bbb     C9   3331 -0.72423400  12.010000   ; qtot -0.312613
 3332         h1    115    bbb    H17   3332 0.25637600   1.008000   ; qtot -0.056237
 3333         h1    115    bbb    H18   3333 0.25637600   1.008000   ; qtot 0.200139
 3334         os    115    bbb     O1   3334 -0.20025300  16.000000   ; qtot -0.000114
; residue  116 bbb rtp bbb q -0.0
 3335         n3    116    bbb     N1   3335 -0.59685800  14.010000   ; qtot -0.596972
 3336         c3    116    bbb     C1   3336 0.10137000  12.010000   ; qtot -0.495602
 3337         h1    116    bbb     H1   3337 0.04411300   1.008000   ; qtot -0.451489
 3338         h1    116    bbb     H2   3338 0.04411300   1.008000   ; qtot -0.407376
 3339         c3    116    bbb     C2   3339 0.10137000  12.010000   ; qtot -0.306006
 3340         h1    116    bbb     H3   3340 0.04411300   1.008000   ; qtot -0.261893
 3341         h1    116    bbb     H4   3341 0.04411300   1.008000   ; qtot -0.217780
 3342         c3    116    bbb     C3   3342 -0.00195300  12.010000   ; qtot -0.219733
 3343         h1    116    bbb     H5   3343 0.05064400   1.008000   ; qtot -0.169089
 3344         h1    116    bbb     H6   3344 0.05064400   1.008000   ; qtot -0.118445
 3345         c3    116    bbb     C4   3345 -0.01612100  12.010000   ; qtot -0.134566
 3346         hc    116    bbb     H7   3346 0.04936100   1.008000   ; qtot -0.085205
 3347         hc    116    bbb     H8   3347 0.04936100   1.008000   ; qtot -0.035844
 3348         c3    116    bbb     C5   3348 0.11363000  12.010000   ; qtot 0.077786
 3349         hc    116    bbb     H9   3349 0.06265900   1.008000   ; qtot 0.140445
 3350         hc    116    bbb    H10   3350 0.06265900   1.008000   ; qtot 0.203104
 3351         c3    116    bbb     C6   3351 0.11363000  12.010000   ; qtot 0.316734
 3352         hc    116    bbb    H11   3352 0.06265900   1.008000   ; qtot 0.379393
 3353         hc    116    bbb    H12   3353 0.06265900   1.008000   ; qtot 0.442052
 3354         c3    116    bbb     C7   3354 0.05858200  12.010000   ; qtot 0.500634
 3355         h1    116    bbb    H13   3355 0.06123400   1.008000   ; qtot 0.561868
 3356         h1    116    bbb    H14   3356 0.06123400   1.008000   ; qtot 0.623102
 3357         c3    116    bbb     C8   3357 -0.72423400  12.010000   ; qtot -0.101132
 3358         h1    116    bbb    H15   3358 0.25637600   1.008000   ; qtot 0.155244
 3359         h1    116    bbb    H16   3359 0.25637600   1.008000   ; qtot 0.411620
 3360         c3    116    bbb     C9   3360 -0.72423400  12.010000   ; qtot -0.312614
 3361         h1    116    bbb    H17   3361 0.25637600   1.008000   ; qtot -0.056238
 3362         h1    116    bbb    H18   3362 0.25637600   1.008000   ; qtot 0.200138
 3363         os    116    bbb     O1   3363 -0.20025300  16.000000   ; qtot -0.000115
; residue  117 bbb rtp bbb q -0.0
 3364         n3    117    bbb     N1   3364 -0.59685800  14.010000   ; qtot -0.596973
 3365         c3    117    bbb     C1   3365 0.10137000  12.010000   ; qtot -0.495603
 3366         h1    117    bbb     H1   3366 0.04411300   1.008000   ; qtot -0.451490
 3367         h1    117    bbb     H2   3367 0.04411300   1.008000   ; qtot -0.407377
 3368         c3    117    bbb     C2   3368 0.10137000  12.010000   ; qtot -0.306007
 3369         h1    117    bbb     H3   3369 0.04411300   1.008000   ; qtot -0.261894
 3370         h1    117    bbb     H4   3370 0.04411300   1.008000   ; qtot -0.217781
 3371         c3    117    bbb     C3   3371 -0.00195300  12.010000   ; qtot -0.219734
 3372         h1    117    bbb     H5   3372 0.05064400   1.008000   ; qtot -0.169090
 3373         h1    117    bbb     H6   3373 0.05064400   1.008000   ; qtot -0.118446
 3374         c3    117    bbb     C4   3374 -0.01612100  12.010000   ; qtot -0.134567
 3375         hc    117    bbb     H7   3375 0.04936100   1.008000   ; qtot -0.085206
 3376         hc    117    bbb     H8   3376 0.04936100   1.008000   ; qtot -0.035845
 3377         c3    117    bbb     C5   3377 0.11363000  12.010000   ; qtot 0.077785
 3378         hc    117    bbb     H9   3378 0.06265900   1.008000   ; qtot 0.140444
 3379         hc    117    bbb    H10   3379 0.06265900   1.008000   ; qtot 0.203103
 3380         c3    117    bbb     C6   3380 0.11363000  12.010000   ; qtot 0.316733
 3381         hc    117    bbb    H11   3381 0.06265900   1.008000   ; qtot 0.379392
 3382         hc    117    bbb    H12   3382 0.06265900   1.008000   ; qtot 0.442051
 3383         c3    117    bbb     C7   3383 0.05858200  12.010000   ; qtot 0.500633
 3384         h1    117    bbb    H13   3384 0.06123400   1.008000   ; qtot 0.561867
 3385         h1    117    bbb    H14   3385 0.06123400   1.008000   ; qtot 0.623101
 3386         c3    117    bbb     C8   3386 -0.72423400  12.010000   ; qtot -0.101133
 3387         h1    117    bbb    H15   3387 0.25637600   1.008000   ; qtot 0.155243
 3388         h1    117    bbb    H16   3388 0.25637600   1.008000   ; qtot 0.411619
 3389         c3    117    bbb     C9   3389 -0.72423400  12.010000   ; qtot -0.312615
 3390         h1    117    bbb    H17   3390 0.25637600   1.008000   ; qtot -0.056239
 3391         h1    117    bbb    H18   3391 0.25637600   1.008000   ; qtot 0.200137
 3392         os    117    bbb     O1   3392 -0.20025300  16.000000   ; qtot -0.000116
; residue  118 bbb rtp bbb q -0.0
 3393         n3    118    bbb     N1   3393 -0.59685800  14.010000   ; qtot -0.596974
 3394         c3    118    bbb     C1   3394 0.10137000  12.010000   ; qtot -0.495604
 3395         h1    118    bbb     H1   3395 0.04411300   1.008000   ; qtot -0.451491
 3396         h1    118    bbb     H2   3396 0.04411300   1.008000   ; qtot -0.407378
 3397         c3    118    bbb     C2   3397 0.10137000  12.010000   ; qtot -0.306008
 3398         h1    118    bbb     H3   3398 0.04411300   1.008000   ; qtot -0.261895
 3399         h1    118    bbb     H4   3399 0.04411300   1.008000   ; qtot -0.217782
 3400         c3    118    bbb     C3   3400 -0.00195300  12.010000   ; qtot -0.219735
 3401         h1    118    bbb     H5   3401 0.05064400   1.008000   ; qtot -0.169091
 3402         h1    118    bbb     H6   3402 0.05064400   1.008000   ; qtot -0.118447
 3403         c3    118    bbb     C4   3403 -0.01612100  12.010000   ; qtot -0.134568
 3404         hc    118    bbb     H7   3404 0.04936100   1.008000   ; qtot -0.085207
 3405         hc    118    bbb     H8   3405 0.04936100   1.008000   ; qtot -0.035846
 3406         c3    118    bbb     C5   3406 0.11363000  12.010000   ; qtot 0.077784
 3407         hc    118    bbb     H9   3407 0.06265900   1.008000   ; qtot 0.140443
 3408         hc    118    bbb    H10   3408 0.06265900   1.008000   ; qtot 0.203102
 3409         c3    118    bbb     C6   3409 0.11363000  12.010000   ; qtot 0.316732
 3410         hc    118    bbb    H11   3410 0.06265900   1.008000   ; qtot 0.379391
 3411         hc    118    bbb    H12   3411 0.06265900   1.008000   ; qtot 0.442050
 3412         c3    118    bbb     C7   3412 0.05858200  12.010000   ; qtot 0.500632
 3413         h1    118    bbb    H13   3413 0.06123400   1.008000   ; qtot 0.561866
 3414         h1    118    bbb    H14   3414 0.06123400   1.008000   ; qtot 0.623100
 3415         c3    118    bbb     C8   3415 -0.72423400  12.010000   ; qtot -0.101134
 3416         h1    118    bbb    H15   3416 0.25637600   1.008000   ; qtot 0.155242
 3417         h1    118    bbb    H16   3417 0.25637600   1.008000   ; qtot 0.411618
 3418         c3    118    bbb     C9   3418 -0.72423400  12.010000   ; qtot -0.312616
 3419         h1    118    bbb    H17   3419 0.25637600   1.008000   ; qtot -0.056240
 3420         h1    118    bbb    H18   3420 0.25637600   1.008000   ; qtot 0.200136
 3421         os    118    bbb     O1   3421 -0.20025300  16.000000   ; qtot -0.000117
; residue  119 bbb rtp bbb q -0.0
 3422         n3    119    bbb     N1   3422 -0.59685800  14.010000   ; qtot -0.596975
 3423         c3    119    bbb     C1   3423 0.10137000  12.010000   ; qtot -0.495605
 3424         h1    119    bbb     H1   3424 0.04411300   1.008000   ; qtot -0.451492
 3425         h1    119    bbb     H2   3425 0.04411300   1.008000   ; qtot -0.407379
 3426         c3    119    bbb     C2   3426 0.10137000  12.010000   ; qtot -0.306009
 3427         h1    119    bbb     H3   3427 0.04411300   1.008000   ; qtot -0.261896
 3428         h1    119    bbb     H4   3428 0.04411300   1.008000   ; qtot -0.217783
 3429         c3    119    bbb     C3   3429 -0.00195300  12.010000   ; qtot -0.219736
 3430         h1    119    bbb     H5   3430 0.05064400   1.008000   ; qtot -0.169092
 3431         h1    119    bbb     H6   3431 0.05064400   1.008000   ; qtot -0.118448
 3432         c3    119    bbb     C4   3432 -0.01612100  12.010000   ; qtot -0.134569
 3433         hc    119    bbb     H7   3433 0.04936100   1.008000   ; qtot -0.085208
 3434         hc    119    bbb     H8   3434 0.04936100   1.008000   ; qtot -0.035847
 3435         c3    119    bbb     C5   3435 0.11363000  12.010000   ; qtot 0.077783
 3436         hc    119    bbb     H9   3436 0.06265900   1.008000   ; qtot 0.140442
 3437         hc    119    bbb    H10   3437 0.06265900   1.008000   ; qtot 0.203101
 3438         c3    119    bbb     C6   3438 0.11363000  12.010000   ; qtot 0.316731
 3439         hc    119    bbb    H11   3439 0.06265900   1.008000   ; qtot 0.379390
 3440         hc    119    bbb    H12   3440 0.06265900   1.008000   ; qtot 0.442049
 3441         c3    119    bbb     C7   3441 0.05858200  12.010000   ; qtot 0.500631
 3442         h1    119    bbb    H13   3442 0.06123400   1.008000   ; qtot 0.561865
 3443         h1    119    bbb    H14   3443 0.06123400   1.008000   ; qtot 0.623099
 3444         c3    119    bbb     C8   3444 -0.72423400  12.010000   ; qtot -0.101135
 3445         h1    119    bbb    H15   3445 0.25637600   1.008000   ; qtot 0.155241
 3446         h1    119    bbb    H16   3446 0.25637600   1.008000   ; qtot 0.411617
 3447         c3    119    bbb     C9   3447 -0.72423400  12.010000   ; qtot -0.312617
 3448         h1    119    bbb    H17   3448 0.25637600   1.008000   ; qtot -0.056241
 3449         h1    119    bbb    H18   3449 0.25637600   1.008000   ; qtot 0.200135
 3450         os    119    bbb     O1   3450 -0.20025300  16.000000   ; qtot -0.000118
; residue  120 bbb rtp bbb q -0.0
 3451         n3    120    bbb     N1   3451 -0.59685800  14.010000   ; qtot -0.596976
 3452         c3    120    bbb     C1   3452 0.10137000  12.010000   ; qtot -0.495606
 3453         h1    120    bbb     H1   3453 0.04411300   1.008000   ; qtot -0.451493
 3454         h1    120    bbb     H2   3454 0.04411300   1.008000   ; qtot -0.407380
 3455         c3    120    bbb     C2   3455 0.10137000  12.010000   ; qtot -0.306010
 3456         h1    120    bbb     H3   3456 0.04411300   1.008000   ; qtot -0.261897
 3457         h1    120    bbb     H4   3457 0.04411300   1.008000   ; qtot -0.217784
 3458         c3    120    bbb     C3   3458 -0.00195300  12.010000   ; qtot -0.219737
 3459         h1    120    bbb     H5   3459 0.05064400   1.008000   ; qtot -0.169093
 3460         h1    120    bbb     H6   3460 0.05064400   1.008000   ; qtot -0.118449
 3461         c3    120    bbb     C4   3461 -0.01612100  12.010000   ; qtot -0.134570
 3462         hc    120    bbb     H7   3462 0.04936100   1.008000   ; qtot -0.085209
 3463         hc    120    bbb     H8   3463 0.04936100   1.008000   ; qtot -0.035848
 3464         c3    120    bbb     C5   3464 0.11363000  12.010000   ; qtot 0.077782
 3465         hc    120    bbb     H9   3465 0.06265900   1.008000   ; qtot 0.140441
 3466         hc    120    bbb    H10   3466 0.06265900   1.008000   ; qtot 0.203100
 3467         c3    120    bbb     C6   3467 0.11363000  12.010000   ; qtot 0.316730
 3468         hc    120    bbb    H11   3468 0.06265900   1.008000   ; qtot 0.379389
 3469         hc    120    bbb    H12   3469 0.06265900   1.008000   ; qtot 0.442048
 3470         c3    120    bbb     C7   3470 0.05858200  12.010000   ; qtot 0.500630
 3471         h1    120    bbb    H13   3471 0.06123400   1.008000   ; qtot 0.561864
 3472         h1    120    bbb    H14   3472 0.06123400   1.008000   ; qtot 0.623098
 3473         c3    120    bbb     C8   3473 -0.72423400  12.010000   ; qtot -0.101136
 3474         h1    120    bbb    H15   3474 0.25637600   1.008000   ; qtot 0.155240
 3475         h1    120    bbb    H16   3475 0.25637600   1.008000   ; qtot 0.411616
 3476         c3    120    bbb     C9   3476 -0.72423400  12.010000   ; qtot -0.312618
 3477         h1    120    bbb    H17   3477 0.25637600   1.008000   ; qtot -0.056242
 3478         h1    120    bbb    H18   3478 0.25637600   1.008000   ; qtot 0.200134
 3479         os    120    bbb     O1   3479 -0.20025300  16.000000   ; qtot -0.000119
; residue  121 bbb rtp bbb q -0.0
 3480         n3    121    bbb     N1   3480 -0.59685800  14.010000   ; qtot -0.596977
 3481         c3    121    bbb     C1   3481 0.10137000  12.010000   ; qtot -0.495607
 3482         h1    121    bbb     H1   3482 0.04411300   1.008000   ; qtot -0.451494
 3483         h1    121    bbb     H2   3483 0.04411300   1.008000   ; qtot -0.407381
 3484         c3    121    bbb     C2   3484 0.10137000  12.010000   ; qtot -0.306011
 3485         h1    121    bbb     H3   3485 0.04411300   1.008000   ; qtot -0.261898
 3486         h1    121    bbb     H4   3486 0.04411300   1.008000   ; qtot -0.217785
 3487         c3    121    bbb     C3   3487 -0.00195300  12.010000   ; qtot -0.219738
 3488         h1    121    bbb     H5   3488 0.05064400   1.008000   ; qtot -0.169094
 3489         h1    121    bbb     H6   3489 0.05064400   1.008000   ; qtot -0.118450
 3490         c3    121    bbb     C4   3490 -0.01612100  12.010000   ; qtot -0.134571
 3491         hc    121    bbb     H7   3491 0.04936100   1.008000   ; qtot -0.085210
 3492         hc    121    bbb     H8   3492 0.04936100   1.008000   ; qtot -0.035849
 3493         c3    121    bbb     C5   3493 0.11363000  12.010000   ; qtot 0.077781
 3494         hc    121    bbb     H9   3494 0.06265900   1.008000   ; qtot 0.140440
 3495         hc    121    bbb    H10   3495 0.06265900   1.008000   ; qtot 0.203099
 3496         c3    121    bbb     C6   3496 0.11363000  12.010000   ; qtot 0.316729
 3497         hc    121    bbb    H11   3497 0.06265900   1.008000   ; qtot 0.379388
 3498         hc    121    bbb    H12   3498 0.06265900   1.008000   ; qtot 0.442047
 3499         c3    121    bbb     C7   3499 0.05858200  12.010000   ; qtot 0.500629
 3500         h1    121    bbb    H13   3500 0.06123400   1.008000   ; qtot 0.561863
 3501         h1    121    bbb    H14   3501 0.06123400   1.008000   ; qtot 0.623097
 3502         c3    121    bbb     C8   3502 -0.72423400  12.010000   ; qtot -0.101137
 3503         h1    121    bbb    H15   3503 0.25637600   1.008000   ; qtot 0.155239
 3504         h1    121    bbb    H16   3504 0.25637600   1.008000   ; qtot 0.411615
 3505         c3    121    bbb     C9   3505 -0.72423400  12.010000   ; qtot -0.312619
 3506         h1    121    bbb    H17   3506 0.25637600   1.008000   ; qtot -0.056243
 3507         h1    121    bbb    H18   3507 0.25637600   1.008000   ; qtot 0.200133
 3508         os    121    bbb     O1   3508 -0.20025300  16.000000   ; qtot -0.000120
; residue  122 bbb rtp bbb q -0.0
 3509         n3    122    bbb     N1   3509 -0.59685800  14.010000   ; qtot -0.596978
 3510         c3    122    bbb     C1   3510 0.10137000  12.010000   ; qtot -0.495608
 3511         h1    122    bbb     H1   3511 0.04411300   1.008000   ; qtot -0.451495
 3512         h1    122    bbb     H2   3512 0.04411300   1.008000   ; qtot -0.407382
 3513         c3    122    bbb     C2   3513 0.10137000  12.010000   ; qtot -0.306012
 3514         h1    122    bbb     H3   3514 0.04411300   1.008000   ; qtot -0.261899
 3515         h1    122    bbb     H4   3515 0.04411300   1.008000   ; qtot -0.217786
 3516         c3    122    bbb     C3   3516 -0.00195300  12.010000   ; qtot -0.219739
 3517         h1    122    bbb     H5   3517 0.05064400   1.008000   ; qtot -0.169095
 3518         h1    122    bbb     H6   3518 0.05064400   1.008000   ; qtot -0.118451
 3519         c3    122    bbb     C4   3519 -0.01612100  12.010000   ; qtot -0.134572
 3520         hc    122    bbb     H7   3520 0.04936100   1.008000   ; qtot -0.085211
 3521         hc    122    bbb     H8   3521 0.04936100   1.008000   ; qtot -0.035850
 3522         c3    122    bbb     C5   3522 0.11363000  12.010000   ; qtot 0.077780
 3523         hc    122    bbb     H9   3523 0.06265900   1.008000   ; qtot 0.140439
 3524         hc    122    bbb    H10   3524 0.06265900   1.008000   ; qtot 0.203098
 3525         c3    122    bbb     C6   3525 0.11363000  12.010000   ; qtot 0.316728
 3526         hc    122    bbb    H11   3526 0.06265900   1.008000   ; qtot 0.379387
 3527         hc    122    bbb    H12   3527 0.06265900   1.008000   ; qtot 0.442046
 3528         c3    122    bbb     C7   3528 0.05858200  12.010000   ; qtot 0.500628
 3529         h1    122    bbb    H13   3529 0.06123400   1.008000   ; qtot 0.561862
 3530         h1    122    bbb    H14   3530 0.06123400   1.008000   ; qtot 0.623096
 3531         c3    122    bbb     C8   3531 -0.72423400  12.010000   ; qtot -0.101138
 3532         h1    122    bbb    H15   3532 0.25637600   1.008000   ; qtot 0.155238
 3533         h1    122    bbb    H16   3533 0.25637600   1.008000   ; qtot 0.411614
 3534         c3    122    bbb     C9   3534 -0.72423400  12.010000   ; qtot -0.312620
 3535         h1    122    bbb    H17   3535 0.25637600   1.008000   ; qtot -0.056244
 3536         h1    122    bbb    H18   3536 0.25637600   1.008000   ; qtot 0.200132
 3537         os    122    bbb     O1   3537 -0.20025300  16.000000   ; qtot -0.000121
; residue  123 bbb rtp bbb q -0.0
 3538         n3    123    bbb     N1   3538 -0.59685800  14.010000   ; qtot -0.596979
 3539         c3    123    bbb     C1   3539 0.10137000  12.010000   ; qtot -0.495609
 3540         h1    123    bbb     H1   3540 0.04411300   1.008000   ; qtot -0.451496
 3541         h1    123    bbb     H2   3541 0.04411300   1.008000   ; qtot -0.407383
 3542         c3    123    bbb     C2   3542 0.10137000  12.010000   ; qtot -0.306013
 3543         h1    123    bbb     H3   3543 0.04411300   1.008000   ; qtot -0.261900
 3544         h1    123    bbb     H4   3544 0.04411300   1.008000   ; qtot -0.217787
 3545         c3    123    bbb     C3   3545 -0.00195300  12.010000   ; qtot -0.219740
 3546         h1    123    bbb     H5   3546 0.05064400   1.008000   ; qtot -0.169096
 3547         h1    123    bbb     H6   3547 0.05064400   1.008000   ; qtot -0.118452
 3548         c3    123    bbb     C4   3548 -0.01612100  12.010000   ; qtot -0.134573
 3549         hc    123    bbb     H7   3549 0.04936100   1.008000   ; qtot -0.085212
 3550         hc    123    bbb     H8   3550 0.04936100   1.008000   ; qtot -0.035851
 3551         c3    123    bbb     C5   3551 0.11363000  12.010000   ; qtot 0.077779
 3552         hc    123    bbb     H9   3552 0.06265900   1.008000   ; qtot 0.140438
 3553         hc    123    bbb    H10   3553 0.06265900   1.008000   ; qtot 0.203097
 3554         c3    123    bbb     C6   3554 0.11363000  12.010000   ; qtot 0.316727
 3555         hc    123    bbb    H11   3555 0.06265900   1.008000   ; qtot 0.379386
 3556         hc    123    bbb    H12   3556 0.06265900   1.008000   ; qtot 0.442045
 3557         c3    123    bbb     C7   3557 0.05858200  12.010000   ; qtot 0.500627
 3558         h1    123    bbb    H13   3558 0.06123400   1.008000   ; qtot 0.561861
 3559         h1    123    bbb    H14   3559 0.06123400   1.008000   ; qtot 0.623095
 3560         c3    123    bbb     C8   3560 -0.72423400  12.010000   ; qtot -0.101139
 3561         h1    123    bbb    H15   3561 0.25637600   1.008000   ; qtot 0.155237
 3562         h1    123    bbb    H16   3562 0.25637600   1.008000   ; qtot 0.411613
 3563         c3    123    bbb     C9   3563 -0.72423400  12.010000   ; qtot -0.312620
 3564         h1    123    bbb    H17   3564 0.25637600   1.008000   ; qtot -0.056245
 3565         h1    123    bbb    H18   3565 0.25637600   1.008000   ; qtot 0.200131
 3566         os    123    bbb     O1   3566 -0.20025300  16.000000   ; qtot -0.000122
; residue  124 bbb rtp bbb q -0.0
 3567         n3    124    bbb     N1   3567 -0.59685800  14.010000   ; qtot -0.596979
 3568         c3    124    bbb     C1   3568 0.10137000  12.010000   ; qtot -0.495609
 3569         h1    124    bbb     H1   3569 0.04411300   1.008000   ; qtot -0.451496
 3570         h1    124    bbb     H2   3570 0.04411300   1.008000   ; qtot -0.407383
 3571         c3    124    bbb     C2   3571 0.10137000  12.010000   ; qtot -0.306013
 3572         h1    124    bbb     H3   3572 0.04411300   1.008000   ; qtot -0.261900
 3573         h1    124    bbb     H4   3573 0.04411300   1.008000   ; qtot -0.217787
 3574         c3    124    bbb     C3   3574 -0.00195300  12.010000   ; qtot -0.219740
 3575         h1    124    bbb     H5   3575 0.05064400   1.008000   ; qtot -0.169096
 3576         h1    124    bbb     H6   3576 0.05064400   1.008000   ; qtot -0.118452
 3577         c3    124    bbb     C4   3577 -0.01612100  12.010000   ; qtot -0.134573
 3578         hc    124    bbb     H7   3578 0.04936100   1.008000   ; qtot -0.085212
 3579         hc    124    bbb     H8   3579 0.04936100   1.008000   ; qtot -0.035851
 3580         c3    124    bbb     C5   3580 0.11363000  12.010000   ; qtot 0.077779
 3581         hc    124    bbb     H9   3581 0.06265900   1.008000   ; qtot 0.140438
 3582         hc    124    bbb    H10   3582 0.06265900   1.008000   ; qtot 0.203097
 3583         c3    124    bbb     C6   3583 0.11363000  12.010000   ; qtot 0.316727
 3584         hc    124    bbb    H11   3584 0.06265900   1.008000   ; qtot 0.379386
 3585         hc    124    bbb    H12   3585 0.06265900   1.008000   ; qtot 0.442045
 3586         c3    124    bbb     C7   3586 0.05858200  12.010000   ; qtot 0.500627
 3587         h1    124    bbb    H13   3587 0.06123400   1.008000   ; qtot 0.561861
 3588         h1    124    bbb    H14   3588 0.06123400   1.008000   ; qtot 0.623095
 3589         c3    124    bbb     C8   3589 -0.72423400  12.010000   ; qtot -0.101139
 3590         h1    124    bbb    H15   3590 0.25637600   1.008000   ; qtot 0.155237
 3591         h1    124    bbb    H16   3591 0.25637600   1.008000   ; qtot 0.411613
 3592         c3    124    bbb     C9   3592 -0.72423400  12.010000   ; qtot -0.312621
 3593         h1    124    bbb    H17   3593 0.25637600   1.008000   ; qtot -0.056245
 3594         h1    124    bbb    H18   3594 0.25637600   1.008000   ; qtot 0.200131
 3595         os    124    bbb     O1   3595 -0.20025300  16.000000   ; qtot -0.000122
; residue  125 bbb rtp bbb q -0.0
 3596         n3    125    bbb     N1   3596 -0.59685800  14.010000   ; qtot -0.596980
 3597         c3    125    bbb     C1   3597 0.10137000  12.010000   ; qtot -0.495610
 3598         h1    125    bbb     H1   3598 0.04411300   1.008000   ; qtot -0.451497
 3599         h1    125    bbb     H2   3599 0.04411300   1.008000   ; qtot -0.407384
 3600         c3    125    bbb     C2   3600 0.10137000  12.010000   ; qtot -0.306014
 3601         h1    125    bbb     H3   3601 0.04411300   1.008000   ; qtot -0.261901
 3602         h1    125    bbb     H4   3602 0.04411300   1.008000   ; qtot -0.217788
 3603         c3    125    bbb     C3   3603 -0.00195300  12.010000   ; qtot -0.219741
 3604         h1    125    bbb     H5   3604 0.05064400   1.008000   ; qtot -0.169097
 3605         h1    125    bbb     H6   3605 0.05064400   1.008000   ; qtot -0.118453
 3606         c3    125    bbb     C4   3606 -0.01612100  12.010000   ; qtot -0.134574
 3607         hc    125    bbb     H7   3607 0.04936100   1.008000   ; qtot -0.085213
 3608         hc    125    bbb     H8   3608 0.04936100   1.008000   ; qtot -0.035852
 3609         c3    125    bbb     C5   3609 0.11363000  12.010000   ; qtot 0.077778
 3610         hc    125    bbb     H9   3610 0.06265900   1.008000   ; qtot 0.140437
 3611         hc    125    bbb    H10   3611 0.06265900   1.008000   ; qtot 0.203096
 3612         c3    125    bbb     C6   3612 0.11363000  12.010000   ; qtot 0.316726
 3613         hc    125    bbb    H11   3613 0.06265900   1.008000   ; qtot 0.379385
 3614         hc    125    bbb    H12   3614 0.06265900   1.008000   ; qtot 0.442044
 3615         c3    125    bbb     C7   3615 0.05858200  12.010000   ; qtot 0.500626
 3616         h1    125    bbb    H13   3616 0.06123400   1.008000   ; qtot 0.561860
 3617         h1    125    bbb    H14   3617 0.06123400   1.008000   ; qtot 0.623094
 3618         c3    125    bbb     C8   3618 -0.72423400  12.010000   ; qtot -0.101140
 3619         h1    125    bbb    H15   3619 0.25637600   1.008000   ; qtot 0.155236
 3620         h1    125    bbb    H16   3620 0.25637600   1.008000   ; qtot 0.411612
 3621         c3    125    bbb     C9   3621 -0.72423400  12.010000   ; qtot -0.312622
 3622         h1    125    bbb    H17   3622 0.25637600   1.008000   ; qtot -0.056246
 3623         h1    125    bbb    H18   3623 0.25637600   1.008000   ; qtot 0.200130
 3624         os    125    bbb     O1   3624 -0.20025300  16.000000   ; qtot -0.000123
; residue  126 bbb rtp bbb q -0.0
 3625         n3    126    bbb     N1   3625 -0.59685800  14.010000   ; qtot -0.596981
 3626         c3    126    bbb     C1   3626 0.10137000  12.010000   ; qtot -0.495611
 3627         h1    126    bbb     H1   3627 0.04411300   1.008000   ; qtot -0.451498
 3628         h1    126    bbb     H2   3628 0.04411300   1.008000   ; qtot -0.407385
 3629         c3    126    bbb     C2   3629 0.10137000  12.010000   ; qtot -0.306015
 3630         h1    126    bbb     H3   3630 0.04411300   1.008000   ; qtot -0.261902
 3631         h1    126    bbb     H4   3631 0.04411300   1.008000   ; qtot -0.217789
 3632         c3    126    bbb     C3   3632 -0.00195300  12.010000   ; qtot -0.219742
 3633         h1    126    bbb     H5   3633 0.05064400   1.008000   ; qtot -0.169098
 3634         h1    126    bbb     H6   3634 0.05064400   1.008000   ; qtot -0.118454
 3635         c3    126    bbb     C4   3635 -0.01612100  12.010000   ; qtot -0.134575
 3636         hc    126    bbb     H7   3636 0.04936100   1.008000   ; qtot -0.085214
 3637         hc    126    bbb     H8   3637 0.04936100   1.008000   ; qtot -0.035853
 3638         c3    126    bbb     C5   3638 0.11363000  12.010000   ; qtot 0.077777
 3639         hc    126    bbb     H9   3639 0.06265900   1.008000   ; qtot 0.140436
 3640         hc    126    bbb    H10   3640 0.06265900   1.008000   ; qtot 0.203095
 3641         c3    126    bbb     C6   3641 0.11363000  12.010000   ; qtot 0.316725
 3642         hc    126    bbb    H11   3642 0.06265900   1.008000   ; qtot 0.379384
 3643         hc    126    bbb    H12   3643 0.06265900   1.008000   ; qtot 0.442043
 3644         c3    126    bbb     C7   3644 0.05858200  12.010000   ; qtot 0.500625
 3645         h1    126    bbb    H13   3645 0.06123400   1.008000   ; qtot 0.561859
 3646         h1    126    bbb    H14   3646 0.06123400   1.008000   ; qtot 0.623093
 3647         c3    126    bbb     C8   3647 -0.72423400  12.010000   ; qtot -0.101141
 3648         h1    126    bbb    H15   3648 0.25637600   1.008000   ; qtot 0.155235
 3649         h1    126    bbb    H16   3649 0.25637600   1.008000   ; qtot 0.411611
 3650         c3    126    bbb     C9   3650 -0.72423400  12.010000   ; qtot -0.312623
 3651         h1    126    bbb    H17   3651 0.25637600   1.008000   ; qtot -0.056247
 3652         h1    126    bbb    H18   3652 0.25637600   1.008000   ; qtot 0.200129
 3653         os    126    bbb     O1   3653 -0.20025300  16.000000   ; qtot -0.000124
; residue  127 bbb rtp bbb q -0.0
 3654         n3    127    bbb     N1   3654 -0.59685800  14.010000   ; qtot -0.596982
 3655         c3    127    bbb     C1   3655 0.10137000  12.010000   ; qtot -0.495612
 3656         h1    127    bbb     H1   3656 0.04411300   1.008000   ; qtot -0.451499
 3657         h1    127    bbb     H2   3657 0.04411300   1.008000   ; qtot -0.407386
 3658         c3    127    bbb     C2   3658 0.10137000  12.010000   ; qtot -0.306016
 3659         h1    127    bbb     H3   3659 0.04411300   1.008000   ; qtot -0.261903
 3660         h1    127    bbb     H4   3660 0.04411300   1.008000   ; qtot -0.217790
 3661         c3    127    bbb     C3   3661 -0.00195300  12.010000   ; qtot -0.219743
 3662         h1    127    bbb     H5   3662 0.05064400   1.008000   ; qtot -0.169099
 3663         h1    127    bbb     H6   3663 0.05064400   1.008000   ; qtot -0.118455
 3664         c3    127    bbb     C4   3664 -0.01612100  12.010000   ; qtot -0.134576
 3665         hc    127    bbb     H7   3665 0.04936100   1.008000   ; qtot -0.085215
 3666         hc    127    bbb     H8   3666 0.04936100   1.008000   ; qtot -0.035854
 3667         c3    127    bbb     C5   3667 0.11363000  12.010000   ; qtot 0.077776
 3668         hc    127    bbb     H9   3668 0.06265900   1.008000   ; qtot 0.140435
 3669         hc    127    bbb    H10   3669 0.06265900   1.008000   ; qtot 0.203094
 3670         c3    127    bbb     C6   3670 0.11363000  12.010000   ; qtot 0.316724
 3671         hc    127    bbb    H11   3671 0.06265900   1.008000   ; qtot 0.379383
 3672         hc    127    bbb    H12   3672 0.06265900   1.008000   ; qtot 0.442042
 3673         c3    127    bbb     C7   3673 0.05858200  12.010000   ; qtot 0.500624
 3674         h1    127    bbb    H13   3674 0.06123400   1.008000   ; qtot 0.561858
 3675         h1    127    bbb    H14   3675 0.06123400   1.008000   ; qtot 0.623092
 3676         c3    127    bbb     C8   3676 -0.72423400  12.010000   ; qtot -0.101142
 3677         h1    127    bbb    H15   3677 0.25637600   1.008000   ; qtot 0.155234
 3678         h1    127    bbb    H16   3678 0.25637600   1.008000   ; qtot 0.411610
 3679         c3    127    bbb     C9   3679 -0.72423400  12.010000   ; qtot -0.312624
 3680         h1    127    bbb    H17   3680 0.25637600   1.008000   ; qtot -0.056248
 3681         h1    127    bbb    H18   3681 0.25637600   1.008000   ; qtot 0.200128
 3682         os    127    bbb     O1   3682 -0.20025300  16.000000   ; qtot -0.000125
; residue  128 bbb rtp bbb q -0.0
 3683         n3    128    bbb     N1   3683 -0.59685800  14.010000   ; qtot -0.596983
 3684         c3    128    bbb     C1   3684 0.10137000  12.010000   ; qtot -0.495613
 3685         h1    128    bbb     H1   3685 0.04411300   1.008000   ; qtot -0.451500
 3686         h1    128    bbb     H2   3686 0.04411300   1.008000   ; qtot -0.407387
 3687         c3    128    bbb     C2   3687 0.10137000  12.010000   ; qtot -0.306017
 3688         h1    128    bbb     H3   3688 0.04411300   1.008000   ; qtot -0.261904
 3689         h1    128    bbb     H4   3689 0.04411300   1.008000   ; qtot -0.217791
 3690         c3    128    bbb     C3   3690 -0.00195300  12.010000   ; qtot -0.219744
 3691         h1    128    bbb     H5   3691 0.05064400   1.008000   ; qtot -0.169100
 3692         h1    128    bbb     H6   3692 0.05064400   1.008000   ; qtot -0.118456
 3693         c3    128    bbb     C4   3693 -0.01612100  12.010000   ; qtot -0.134577
 3694         hc    128    bbb     H7   3694 0.04936100   1.008000   ; qtot -0.085216
 3695         hc    128    bbb     H8   3695 0.04936100   1.008000   ; qtot -0.035855
 3696         c3    128    bbb     C5   3696 0.11363000  12.010000   ; qtot 0.077775
 3697         hc    128    bbb     H9   3697 0.06265900   1.008000   ; qtot 0.140434
 3698         hc    128    bbb    H10   3698 0.06265900   1.008000   ; qtot 0.203093
 3699         c3    128    bbb     C6   3699 0.11363000  12.010000   ; qtot 0.316723
 3700         hc    128    bbb    H11   3700 0.06265900   1.008000   ; qtot 0.379382
 3701         hc    128    bbb    H12   3701 0.06265900   1.008000   ; qtot 0.442041
 3702         c3    128    bbb     C7   3702 0.05858200  12.010000   ; qtot 0.500623
 3703         h1    128    bbb    H13   3703 0.06123400   1.008000   ; qtot 0.561857
 3704         h1    128    bbb    H14   3704 0.06123400   1.008000   ; qtot 0.623091
 3705         c3    128    bbb     C8   3705 -0.72423400  12.010000   ; qtot -0.101143
 3706         h1    128    bbb    H15   3706 0.25637600   1.008000   ; qtot 0.155233
 3707         h1    128    bbb    H16   3707 0.25637600   1.008000   ; qtot 0.411609
 3708         c3    128    bbb     C9   3708 -0.72423400  12.010000   ; qtot -0.312625
 3709         h1    128    bbb    H17   3709 0.25637600   1.008000   ; qtot -0.056249
 3710         h1    128    bbb    H18   3710 0.25637600   1.008000   ; qtot 0.200127
 3711         os    128    bbb     O1   3711 -0.20025300  16.000000   ; qtot -0.000126
; residue  129 bbb rtp bbb q -0.0
 3712         n3    129    bbb     N1   3712 -0.59685800  14.010000   ; qtot -0.596984
 3713         c3    129    bbb     C1   3713 0.10137000  12.010000   ; qtot -0.495614
 3714         h1    129    bbb     H1   3714 0.04411300   1.008000   ; qtot -0.451501
 3715         h1    129    bbb     H2   3715 0.04411300   1.008000   ; qtot -0.407388
 3716         c3    129    bbb     C2   3716 0.10137000  12.010000   ; qtot -0.306018
 3717         h1    129    bbb     H3   3717 0.04411300   1.008000   ; qtot -0.261905
 3718         h1    129    bbb     H4   3718 0.04411300   1.008000   ; qtot -0.217792
 3719         c3    129    bbb     C3   3719 -0.00195300  12.010000   ; qtot -0.219745
 3720         h1    129    bbb     H5   3720 0.05064400   1.008000   ; qtot -0.169101
 3721         h1    129    bbb     H6   3721 0.05064400   1.008000   ; qtot -0.118457
 3722         c3    129    bbb     C4   3722 -0.01612100  12.010000   ; qtot -0.134578
 3723         hc    129    bbb     H7   3723 0.04936100   1.008000   ; qtot -0.085217
 3724         hc    129    bbb     H8   3724 0.04936100   1.008000   ; qtot -0.035856
 3725         c3    129    bbb     C5   3725 0.11363000  12.010000   ; qtot 0.077774
 3726         hc    129    bbb     H9   3726 0.06265900   1.008000   ; qtot 0.140433
 3727         hc    129    bbb    H10   3727 0.06265900   1.008000   ; qtot 0.203092
 3728         c3    129    bbb     C6   3728 0.11363000  12.010000   ; qtot 0.316722
 3729         hc    129    bbb    H11   3729 0.06265900   1.008000   ; qtot 0.379381
 3730         hc    129    bbb    H12   3730 0.06265900   1.008000   ; qtot 0.442040
 3731         c3    129    bbb     C7   3731 0.05858200  12.010000   ; qtot 0.500622
 3732         h1    129    bbb    H13   3732 0.06123400   1.008000   ; qtot 0.561856
 3733         h1    129    bbb    H14   3733 0.06123400   1.008000   ; qtot 0.623090
 3734         c3    129    bbb     C8   3734 -0.72423400  12.010000   ; qtot -0.101144
 3735         h1    129    bbb    H15   3735 0.25637600   1.008000   ; qtot 0.155232
 3736         h1    129    bbb    H16   3736 0.25637600   1.008000   ; qtot 0.411608
 3737         c3    129    bbb     C9   3737 -0.72423400  12.010000   ; qtot -0.312626
 3738         h1    129    bbb    H17   3738 0.25637600   1.008000   ; qtot -0.056250
 3739         h1    129    bbb    H18   3739 0.25637600   1.008000   ; qtot 0.200126
 3740         os    129    bbb     O1   3740 -0.20025300  16.000000   ; qtot -0.000127
; residue  130 bbb rtp bbb q -0.0
 3741         n3    130    bbb     N1   3741 -0.59685800  14.010000   ; qtot -0.596985
 3742         c3    130    bbb     C1   3742 0.10137000  12.010000   ; qtot -0.495615
 3743         h1    130    bbb     H1   3743 0.04411300   1.008000   ; qtot -0.451502
 3744         h1    130    bbb     H2   3744 0.04411300   1.008000   ; qtot -0.407389
 3745         c3    130    bbb     C2   3745 0.10137000  12.010000   ; qtot -0.306019
 3746         h1    130    bbb     H3   3746 0.04411300   1.008000   ; qtot -0.261906
 3747         h1    130    bbb     H4   3747 0.04411300   1.008000   ; qtot -0.217793
 3748         c3    130    bbb     C3   3748 -0.00195300  12.010000   ; qtot -0.219746
 3749         h1    130    bbb     H5   3749 0.05064400   1.008000   ; qtot -0.169102
 3750         h1    130    bbb     H6   3750 0.05064400   1.008000   ; qtot -0.118458
 3751         c3    130    bbb     C4   3751 -0.01612100  12.010000   ; qtot -0.134579
 3752         hc    130    bbb     H7   3752 0.04936100   1.008000   ; qtot -0.085218
 3753         hc    130    bbb     H8   3753 0.04936100   1.008000   ; qtot -0.035857
 3754         c3    130    bbb     C5   3754 0.11363000  12.010000   ; qtot 0.077773
 3755         hc    130    bbb     H9   3755 0.06265900   1.008000   ; qtot 0.140432
 3756         hc    130    bbb    H10   3756 0.06265900   1.008000   ; qtot 0.203091
 3757         c3    130    bbb     C6   3757 0.11363000  12.010000   ; qtot 0.316721
 3758         hc    130    bbb    H11   3758 0.06265900   1.008000   ; qtot 0.379380
 3759         hc    130    bbb    H12   3759 0.06265900   1.008000   ; qtot 0.442039
 3760         c3    130    bbb     C7   3760 0.05858200  12.010000   ; qtot 0.500621
 3761         h1    130    bbb    H13   3761 0.06123400   1.008000   ; qtot 0.561855
 3762         h1    130    bbb    H14   3762 0.06123400   1.008000   ; qtot 0.623089
 3763         c3    130    bbb     C8   3763 -0.72423400  12.010000   ; qtot -0.101145
 3764         h1    130    bbb    H15   3764 0.25637600   1.008000   ; qtot 0.155231
 3765         h1    130    bbb    H16   3765 0.25637600   1.008000   ; qtot 0.411607
 3766         c3    130    bbb     C9   3766 -0.72423400  12.010000   ; qtot -0.312627
 3767         h1    130    bbb    H17   3767 0.25637600   1.008000   ; qtot -0.056251
 3768         h1    130    bbb    H18   3768 0.25637600   1.008000   ; qtot 0.200125
 3769         os    130    bbb     O1   3769 -0.20025300  16.000000   ; qtot -0.000128
; residue  131 bbb rtp bbb q -0.0
 3770         n3    131    bbb     N1   3770 -0.59685800  14.010000   ; qtot -0.596986
 3771         c3    131    bbb     C1   3771 0.10137000  12.010000   ; qtot -0.495616
 3772         h1    131    bbb     H1   3772 0.04411300   1.008000   ; qtot -0.451503
 3773         h1    131    bbb     H2   3773 0.04411300   1.008000   ; qtot -0.407390
 3774         c3    131    bbb     C2   3774 0.10137000  12.010000   ; qtot -0.306020
 3775         h1    131    bbb     H3   3775 0.04411300   1.008000   ; qtot -0.261907
 3776         h1    131    bbb     H4   3776 0.04411300   1.008000   ; qtot -0.217794
 3777         c3    131    bbb     C3   3777 -0.00195300  12.010000   ; qtot -0.219747
 3778         h1    131    bbb     H5   3778 0.05064400   1.008000   ; qtot -0.169103
 3779         h1    131    bbb     H6   3779 0.05064400   1.008000   ; qtot -0.118459
 3780         c3    131    bbb     C4   3780 -0.01612100  12.010000   ; qtot -0.134580
 3781         hc    131    bbb     H7   3781 0.04936100   1.008000   ; qtot -0.085219
 3782         hc    131    bbb     H8   3782 0.04936100   1.008000   ; qtot -0.035858
 3783         c3    131    bbb     C5   3783 0.11363000  12.010000   ; qtot 0.077772
 3784         hc    131    bbb     H9   3784 0.06265900   1.008000   ; qtot 0.140431
 3785         hc    131    bbb    H10   3785 0.06265900   1.008000   ; qtot 0.203090
 3786         c3    131    bbb     C6   3786 0.11363000  12.010000   ; qtot 0.316720
 3787         hc    131    bbb    H11   3787 0.06265900   1.008000   ; qtot 0.379379
 3788         hc    131    bbb    H12   3788 0.06265900   1.008000   ; qtot 0.442038
 3789         c3    131    bbb     C7   3789 0.05858200  12.010000   ; qtot 0.500620
 3790         h1    131    bbb    H13   3790 0.06123400   1.008000   ; qtot 0.561854
 3791         h1    131    bbb    H14   3791 0.06123400   1.008000   ; qtot 0.623088
 3792         c3    131    bbb     C8   3792 -0.72423400  12.010000   ; qtot -0.101146
 3793         h1    131    bbb    H15   3793 0.25637600   1.008000   ; qtot 0.155230
 3794         h1    131    bbb    H16   3794 0.25637600   1.008000   ; qtot 0.411606
 3795         c3    131    bbb     C9   3795 -0.72423400  12.010000   ; qtot -0.312628
 3796         h1    131    bbb    H17   3796 0.25637600   1.008000   ; qtot -0.056252
 3797         h1    131    bbb    H18   3797 0.25637600   1.008000   ; qtot 0.200124
 3798         os    131    bbb     O1   3798 -0.20025300  16.000000   ; qtot -0.000129
; residue  132 bbb rtp bbb q -0.0
 3799         n3    132    bbb     N1   3799 -0.59685800  14.010000   ; qtot -0.596987
 3800         c3    132    bbb     C1   3800 0.10137000  12.010000   ; qtot -0.495617
 3801         h1    132    bbb     H1   3801 0.04411300   1.008000   ; qtot -0.451504
 3802         h1    132    bbb     H2   3802 0.04411300   1.008000   ; qtot -0.407391
 3803         c3    132    bbb     C2   3803 0.10137000  12.010000   ; qtot -0.306021
 3804         h1    132    bbb     H3   3804 0.04411300   1.008000   ; qtot -0.261908
 3805         h1    132    bbb     H4   3805 0.04411300   1.008000   ; qtot -0.217795
 3806         c3    132    bbb     C3   3806 -0.00195300  12.010000   ; qtot -0.219748
 3807         h1    132    bbb     H5   3807 0.05064400   1.008000   ; qtot -0.169104
 3808         h1    132    bbb     H6   3808 0.05064400   1.008000   ; qtot -0.118460
 3809         c3    132    bbb     C4   3809 -0.01612100  12.010000   ; qtot -0.134581
 3810         hc    132    bbb     H7   3810 0.04936100   1.008000   ; qtot -0.085220
 3811         hc    132    bbb     H8   3811 0.04936100   1.008000   ; qtot -0.035859
 3812         c3    132    bbb     C5   3812 0.11363000  12.010000   ; qtot 0.077771
 3813         hc    132    bbb     H9   3813 0.06265900   1.008000   ; qtot 0.140430
 3814         hc    132    bbb    H10   3814 0.06265900   1.008000   ; qtot 0.203089
 3815         c3    132    bbb     C6   3815 0.11363000  12.010000   ; qtot 0.316719
 3816         hc    132    bbb    H11   3816 0.06265900   1.008000   ; qtot 0.379378
 3817         hc    132    bbb    H12   3817 0.06265900   1.008000   ; qtot 0.442037
 3818         c3    132    bbb     C7   3818 0.05858200  12.010000   ; qtot 0.500619
 3819         h1    132    bbb    H13   3819 0.06123400   1.008000   ; qtot 0.561853
 3820         h1    132    bbb    H14   3820 0.06123400   1.008000   ; qtot 0.623087
 3821         c3    132    bbb     C8   3821 -0.72423400  12.010000   ; qtot -0.101147
 3822         h1    132    bbb    H15   3822 0.25637600   1.008000   ; qtot 0.155229
 3823         h1    132    bbb    H16   3823 0.25637600   1.008000   ; qtot 0.411605
 3824         c3    132    bbb     C9   3824 -0.72423400  12.010000   ; qtot -0.312629
 3825         h1    132    bbb    H17   3825 0.25637600   1.008000   ; qtot -0.056253
 3826         h1    132    bbb    H18   3826 0.25637600   1.008000   ; qtot 0.200123
 3827         os    132    bbb     O1   3827 -0.20025300  16.000000   ; qtot -0.000130
; residue  133 bbb rtp bbb q -0.0
 3828         n3    133    bbb     N1   3828 -0.59685800  14.010000   ; qtot -0.596988
 3829         c3    133    bbb     C1   3829 0.10137000  12.010000   ; qtot -0.495618
 3830         h1    133    bbb     H1   3830 0.04411300   1.008000   ; qtot -0.451505
 3831         h1    133    bbb     H2   3831 0.04411300   1.008000   ; qtot -0.407392
 3832         c3    133    bbb     C2   3832 0.10137000  12.010000   ; qtot -0.306022
 3833         h1    133    bbb     H3   3833 0.04411300   1.008000   ; qtot -0.261909
 3834         h1    133    bbb     H4   3834 0.04411300   1.008000   ; qtot -0.217796
 3835         c3    133    bbb     C3   3835 -0.00195300  12.010000   ; qtot -0.219749
 3836         h1    133    bbb     H5   3836 0.05064400   1.008000   ; qtot -0.169105
 3837         h1    133    bbb     H6   3837 0.05064400   1.008000   ; qtot -0.118461
 3838         c3    133    bbb     C4   3838 -0.01612100  12.010000   ; qtot -0.134582
 3839         hc    133    bbb     H7   3839 0.04936100   1.008000   ; qtot -0.085221
 3840         hc    133    bbb     H8   3840 0.04936100   1.008000   ; qtot -0.035860
 3841         c3    133    bbb     C5   3841 0.11363000  12.010000   ; qtot 0.077770
 3842         hc    133    bbb     H9   3842 0.06265900   1.008000   ; qtot 0.140429
 3843         hc    133    bbb    H10   3843 0.06265900   1.008000   ; qtot 0.203088
 3844         c3    133    bbb     C6   3844 0.11363000  12.010000   ; qtot 0.316718
 3845         hc    133    bbb    H11   3845 0.06265900   1.008000   ; qtot 0.379377
 3846         hc    133    bbb    H12   3846 0.06265900   1.008000   ; qtot 0.442036
 3847         c3    133    bbb     C7   3847 0.05858200  12.010000   ; qtot 0.500618
 3848         h1    133    bbb    H13   3848 0.06123400   1.008000   ; qtot 0.561852
 3849         h1    133    bbb    H14   3849 0.06123400   1.008000   ; qtot 0.623086
 3850         c3    133    bbb     C8   3850 -0.72423400  12.010000   ; qtot -0.101148
 3851         h1    133    bbb    H15   3851 0.25637600   1.008000   ; qtot 0.155228
 3852         h1    133    bbb    H16   3852 0.25637600   1.008000   ; qtot 0.411604
 3853         c3    133    bbb     C9   3853 -0.72423400  12.010000   ; qtot -0.312630
 3854         h1    133    bbb    H17   3854 0.25637600   1.008000   ; qtot -0.056254
 3855         h1    133    bbb    H18   3855 0.25637600   1.008000   ; qtot 0.200122
 3856         os    133    bbb     O1   3856 -0.20025300  16.000000   ; qtot -0.000131
; residue  134 bbb rtp bbb q -0.0
 3857         n3    134    bbb     N1   3857 -0.59685800  14.010000   ; qtot -0.596989
 3858         c3    134    bbb     C1   3858 0.10137000  12.010000   ; qtot -0.495619
 3859         h1    134    bbb     H1   3859 0.04411300   1.008000   ; qtot -0.451506
 3860         h1    134    bbb     H2   3860 0.04411300   1.008000   ; qtot -0.407393
 3861         c3    134    bbb     C2   3861 0.10137000  12.010000   ; qtot -0.306023
 3862         h1    134    bbb     H3   3862 0.04411300   1.008000   ; qtot -0.261910
 3863         h1    134    bbb     H4   3863 0.04411300   1.008000   ; qtot -0.217797
 3864         c3    134    bbb     C3   3864 -0.00195300  12.010000   ; qtot -0.219750
 3865         h1    134    bbb     H5   3865 0.05064400   1.008000   ; qtot -0.169106
 3866         h1    134    bbb     H6   3866 0.05064400   1.008000   ; qtot -0.118462
 3867         c3    134    bbb     C4   3867 -0.01612100  12.010000   ; qtot -0.134583
 3868         hc    134    bbb     H7   3868 0.04936100   1.008000   ; qtot -0.085222
 3869         hc    134    bbb     H8   3869 0.04936100   1.008000   ; qtot -0.035861
 3870         c3    134    bbb     C5   3870 0.11363000  12.010000   ; qtot 0.077769
 3871         hc    134    bbb     H9   3871 0.06265900   1.008000   ; qtot 0.140428
 3872         hc    134    bbb    H10   3872 0.06265900   1.008000   ; qtot 0.203087
 3873         c3    134    bbb     C6   3873 0.11363000  12.010000   ; qtot 0.316717
 3874         hc    134    bbb    H11   3874 0.06265900   1.008000   ; qtot 0.379376
 3875         hc    134    bbb    H12   3875 0.06265900   1.008000   ; qtot 0.442035
 3876         c3    134    bbb     C7   3876 0.05858200  12.010000   ; qtot 0.500617
 3877         h1    134    bbb    H13   3877 0.06123400   1.008000   ; qtot 0.561851
 3878         h1    134    bbb    H14   3878 0.06123400   1.008000   ; qtot 0.623085
 3879         c3    134    bbb     C8   3879 -0.72423400  12.010000   ; qtot -0.101149
 3880         h1    134    bbb    H15   3880 0.25637600   1.008000   ; qtot 0.155227
 3881         h1    134    bbb    H16   3881 0.25637600   1.008000   ; qtot 0.411603
 3882         c3    134    bbb     C9   3882 -0.72423400  12.010000   ; qtot -0.312631
 3883         h1    134    bbb    H17   3883 0.25637600   1.008000   ; qtot -0.056255
 3884         h1    134    bbb    H18   3884 0.25637600   1.008000   ; qtot 0.200121
 3885         os    134    bbb     O1   3885 -0.20025300  16.000000   ; qtot -0.000132
; residue  135 bbb rtp bbb q -0.0
 3886         n3    135    bbb     N1   3886 -0.59685800  14.010000   ; qtot -0.596990
 3887         c3    135    bbb     C1   3887 0.10137000  12.010000   ; qtot -0.495620
 3888         h1    135    bbb     H1   3888 0.04411300   1.008000   ; qtot -0.451507
 3889         h1    135    bbb     H2   3889 0.04411300   1.008000   ; qtot -0.407394
 3890         c3    135    bbb     C2   3890 0.10137000  12.010000   ; qtot -0.306024
 3891         h1    135    bbb     H3   3891 0.04411300   1.008000   ; qtot -0.261911
 3892         h1    135    bbb     H4   3892 0.04411300   1.008000   ; qtot -0.217798
 3893         c3    135    bbb     C3   3893 -0.00195300  12.010000   ; qtot -0.219751
 3894         h1    135    bbb     H5   3894 0.05064400   1.008000   ; qtot -0.169107
 3895         h1    135    bbb     H6   3895 0.05064400   1.008000   ; qtot -0.118463
 3896         c3    135    bbb     C4   3896 -0.01612100  12.010000   ; qtot -0.134584
 3897         hc    135    bbb     H7   3897 0.04936100   1.008000   ; qtot -0.085223
 3898         hc    135    bbb     H8   3898 0.04936100   1.008000   ; qtot -0.035862
 3899         c3    135    bbb     C5   3899 0.11363000  12.010000   ; qtot 0.077768
 3900         hc    135    bbb     H9   3900 0.06265900   1.008000   ; qtot 0.140427
 3901         hc    135    bbb    H10   3901 0.06265900   1.008000   ; qtot 0.203086
 3902         c3    135    bbb     C6   3902 0.11363000  12.010000   ; qtot 0.316716
 3903         hc    135    bbb    H11   3903 0.06265900   1.008000   ; qtot 0.379375
 3904         hc    135    bbb    H12   3904 0.06265900   1.008000   ; qtot 0.442034
 3905         c3    135    bbb     C7   3905 0.05858200  12.010000   ; qtot 0.500616
 3906         h1    135    bbb    H13   3906 0.06123400   1.008000   ; qtot 0.561850
 3907         h1    135    bbb    H14   3907 0.06123400   1.008000   ; qtot 0.623084
 3908         c3    135    bbb     C8   3908 -0.72423400  12.010000   ; qtot -0.101150
 3909         h1    135    bbb    H15   3909 0.25637600   1.008000   ; qtot 0.155226
 3910         h1    135    bbb    H16   3910 0.25637600   1.008000   ; qtot 0.411602
 3911         c3    135    bbb     C9   3911 -0.72423400  12.010000   ; qtot -0.312632
 3912         h1    135    bbb    H17   3912 0.25637600   1.008000   ; qtot -0.056256
 3913         h1    135    bbb    H18   3913 0.25637600   1.008000   ; qtot 0.200120
 3914         os    135    bbb     O1   3914 -0.20025300  16.000000   ; qtot -0.000133
; residue  136 bbb rtp bbb q -0.0
 3915         n3    136    bbb     N1   3915 -0.59685800  14.010000   ; qtot -0.596991
 3916         c3    136    bbb     C1   3916 0.10137000  12.010000   ; qtot -0.495621
 3917         h1    136    bbb     H1   3917 0.04411300   1.008000   ; qtot -0.451508
 3918         h1    136    bbb     H2   3918 0.04411300   1.008000   ; qtot -0.407395
 3919         c3    136    bbb     C2   3919 0.10137000  12.010000   ; qtot -0.306025
 3920         h1    136    bbb     H3   3920 0.04411300   1.008000   ; qtot -0.261912
 3921         h1    136    bbb     H4   3921 0.04411300   1.008000   ; qtot -0.217799
 3922         c3    136    bbb     C3   3922 -0.00195300  12.010000   ; qtot -0.219752
 3923         h1    136    bbb     H5   3923 0.05064400   1.008000   ; qtot -0.169108
 3924         h1    136    bbb     H6   3924 0.05064400   1.008000   ; qtot -0.118464
 3925         c3    136    bbb     C4   3925 -0.01612100  12.010000   ; qtot -0.134585
 3926         hc    136    bbb     H7   3926 0.04936100   1.008000   ; qtot -0.085224
 3927         hc    136    bbb     H8   3927 0.04936100   1.008000   ; qtot -0.035863
 3928         c3    136    bbb     C5   3928 0.11363000  12.010000   ; qtot 0.077767
 3929         hc    136    bbb     H9   3929 0.06265900   1.008000   ; qtot 0.140426
 3930         hc    136    bbb    H10   3930 0.06265900   1.008000   ; qtot 0.203085
 3931         c3    136    bbb     C6   3931 0.11363000  12.010000   ; qtot 0.316715
 3932         hc    136    bbb    H11   3932 0.06265900   1.008000   ; qtot 0.379374
 3933         hc    136    bbb    H12   3933 0.06265900   1.008000   ; qtot 0.442033
 3934         c3    136    bbb     C7   3934 0.05858200  12.010000   ; qtot 0.500615
 3935         h1    136    bbb    H13   3935 0.06123400   1.008000   ; qtot 0.561849
 3936         h1    136    bbb    H14   3936 0.06123400   1.008000   ; qtot 0.623083
 3937         c3    136    bbb     C8   3937 -0.72423400  12.010000   ; qtot -0.101151
 3938         h1    136    bbb    H15   3938 0.25637600   1.008000   ; qtot 0.155225
 3939         h1    136    bbb    H16   3939 0.25637600   1.008000   ; qtot 0.411601
 3940         c3    136    bbb     C9   3940 -0.72423400  12.010000   ; qtot -0.312633
 3941         h1    136    bbb    H17   3941 0.25637600   1.008000   ; qtot -0.056257
 3942         h1    136    bbb    H18   3942 0.25637600   1.008000   ; qtot 0.200119
 3943         os    136    bbb     O1   3943 -0.20025300  16.000000   ; qtot -0.000134
; residue  137 bbb rtp bbb q -0.0
 3944         n3    137    bbb     N1   3944 -0.59685800  14.010000   ; qtot -0.596992
 3945         c3    137    bbb     C1   3945 0.10137000  12.010000   ; qtot -0.495622
 3946         h1    137    bbb     H1   3946 0.04411300   1.008000   ; qtot -0.451509
 3947         h1    137    bbb     H2   3947 0.04411300   1.008000   ; qtot -0.407396
 3948         c3    137    bbb     C2   3948 0.10137000  12.010000   ; qtot -0.306026
 3949         h1    137    bbb     H3   3949 0.04411300   1.008000   ; qtot -0.261913
 3950         h1    137    bbb     H4   3950 0.04411300   1.008000   ; qtot -0.217800
 3951         c3    137    bbb     C3   3951 -0.00195300  12.010000   ; qtot -0.219753
 3952         h1    137    bbb     H5   3952 0.05064400   1.008000   ; qtot -0.169109
 3953         h1    137    bbb     H6   3953 0.05064400   1.008000   ; qtot -0.118465
 3954         c3    137    bbb     C4   3954 -0.01612100  12.010000   ; qtot -0.134586
 3955         hc    137    bbb     H7   3955 0.04936100   1.008000   ; qtot -0.085225
 3956         hc    137    bbb     H8   3956 0.04936100   1.008000   ; qtot -0.035864
 3957         c3    137    bbb     C5   3957 0.11363000  12.010000   ; qtot 0.077766
 3958         hc    137    bbb     H9   3958 0.06265900   1.008000   ; qtot 0.140425
 3959         hc    137    bbb    H10   3959 0.06265900   1.008000   ; qtot 0.203084
 3960         c3    137    bbb     C6   3960 0.11363000  12.010000   ; qtot 0.316714
 3961         hc    137    bbb    H11   3961 0.06265900   1.008000   ; qtot 0.379373
 3962         hc    137    bbb    H12   3962 0.06265900   1.008000   ; qtot 0.442032
 3963         c3    137    bbb     C7   3963 0.05858200  12.010000   ; qtot 0.500614
 3964         h1    137    bbb    H13   3964 0.06123400   1.008000   ; qtot 0.561848
 3965         h1    137    bbb    H14   3965 0.06123400   1.008000   ; qtot 0.623082
 3966         c3    137    bbb     C8   3966 -0.72423400  12.010000   ; qtot -0.101152
 3967         h1    137    bbb    H15   3967 0.25637600   1.008000   ; qtot 0.155224
 3968         h1    137    bbb    H16   3968 0.25637600   1.008000   ; qtot 0.411600
 3969         c3    137    bbb     C9   3969 -0.72423400  12.010000   ; qtot -0.312634
 3970         h1    137    bbb    H17   3970 0.25637600   1.008000   ; qtot -0.056258
 3971         h1    137    bbb    H18   3971 0.25637600   1.008000   ; qtot 0.200118
 3972         os    137    bbb     O1   3972 -0.20025300  16.000000   ; qtot -0.000135
; residue  138 bbb rtp bbb q -0.0
 3973         n3    138    bbb     N1   3973 -0.59685800  14.010000   ; qtot -0.596993
 3974         c3    138    bbb     C1   3974 0.10137000  12.010000   ; qtot -0.495623
 3975         h1    138    bbb     H1   3975 0.04411300   1.008000   ; qtot -0.451510
 3976         h1    138    bbb     H2   3976 0.04411300   1.008000   ; qtot -0.407397
 3977         c3    138    bbb     C2   3977 0.10137000  12.010000   ; qtot -0.306027
 3978         h1    138    bbb     H3   3978 0.04411300   1.008000   ; qtot -0.261914
 3979         h1    138    bbb     H4   3979 0.04411300   1.008000   ; qtot -0.217801
 3980         c3    138    bbb     C3   3980 -0.00195300  12.010000   ; qtot -0.219754
 3981         h1    138    bbb     H5   3981 0.05064400   1.008000   ; qtot -0.169110
 3982         h1    138    bbb     H6   3982 0.05064400   1.008000   ; qtot -0.118466
 3983         c3    138    bbb     C4   3983 -0.01612100  12.010000   ; qtot -0.134587
 3984         hc    138    bbb     H7   3984 0.04936100   1.008000   ; qtot -0.085226
 3985         hc    138    bbb     H8   3985 0.04936100   1.008000   ; qtot -0.035865
 3986         c3    138    bbb     C5   3986 0.11363000  12.010000   ; qtot 0.077765
 3987         hc    138    bbb     H9   3987 0.06265900   1.008000   ; qtot 0.140424
 3988         hc    138    bbb    H10   3988 0.06265900   1.008000   ; qtot 0.203083
 3989         c3    138    bbb     C6   3989 0.11363000  12.010000   ; qtot 0.316713
 3990         hc    138    bbb    H11   3990 0.06265900   1.008000   ; qtot 0.379372
 3991         hc    138    bbb    H12   3991 0.06265900   1.008000   ; qtot 0.442031
 3992         c3    138    bbb     C7   3992 0.05858200  12.010000   ; qtot 0.500613
 3993         h1    138    bbb    H13   3993 0.06123400   1.008000   ; qtot 0.561847
 3994         h1    138    bbb    H14   3994 0.06123400   1.008000   ; qtot 0.623081
 3995         c3    138    bbb     C8   3995 -0.72423400  12.010000   ; qtot -0.101153
 3996         h1    138    bbb    H15   3996 0.25637600   1.008000   ; qtot 0.155223
 3997         h1    138    bbb    H16   3997 0.25637600   1.008000   ; qtot 0.411599
 3998         c3    138    bbb     C9   3998 -0.72423400  12.010000   ; qtot -0.312635
 3999         h1    138    bbb    H17   3999 0.25637600   1.008000   ; qtot -0.056259
 4000         h1    138    bbb    H18   4000 0.25637600   1.008000   ; qtot 0.200117
 4001         os    138    bbb     O1   4001 -0.20025300  16.000000   ; qtot -0.000136
; residue  139 bbb rtp bbb q -0.0
 4002         n3    139    bbb     N1   4002 -0.59685800  14.010000   ; qtot -0.596994
 4003         c3    139    bbb     C1   4003 0.10137000  12.010000   ; qtot -0.495624
 4004         h1    139    bbb     H1   4004 0.04411300   1.008000   ; qtot -0.451511
 4005         h1    139    bbb     H2   4005 0.04411300   1.008000   ; qtot -0.407398
 4006         c3    139    bbb     C2   4006 0.10137000  12.010000   ; qtot -0.306028
 4007         h1    139    bbb     H3   4007 0.04411300   1.008000   ; qtot -0.261915
 4008         h1    139    bbb     H4   4008 0.04411300   1.008000   ; qtot -0.217802
 4009         c3    139    bbb     C3   4009 -0.00195300  12.010000   ; qtot -0.219755
 4010         h1    139    bbb     H5   4010 0.05064400   1.008000   ; qtot -0.169111
 4011         h1    139    bbb     H6   4011 0.05064400   1.008000   ; qtot -0.118467
 4012         c3    139    bbb     C4   4012 -0.01612100  12.010000   ; qtot -0.134588
 4013         hc    139    bbb     H7   4013 0.04936100   1.008000   ; qtot -0.085227
 4014         hc    139    bbb     H8   4014 0.04936100   1.008000   ; qtot -0.035866
 4015         c3    139    bbb     C5   4015 0.11363000  12.010000   ; qtot 0.077764
 4016         hc    139    bbb     H9   4016 0.06265900   1.008000   ; qtot 0.140423
 4017         hc    139    bbb    H10   4017 0.06265900   1.008000   ; qtot 0.203082
 4018         c3    139    bbb     C6   4018 0.11363000  12.010000   ; qtot 0.316712
 4019         hc    139    bbb    H11   4019 0.06265900   1.008000   ; qtot 0.379371
 4020         hc    139    bbb    H12   4020 0.06265900   1.008000   ; qtot 0.442030
 4021         c3    139    bbb     C7   4021 0.05858200  12.010000   ; qtot 0.500612
 4022         h1    139    bbb    H13   4022 0.06123400   1.008000   ; qtot 0.561846
 4023         h1    139    bbb    H14   4023 0.06123400   1.008000   ; qtot 0.623080
 4024         c3    139    bbb     C8   4024 -0.72423400  12.010000   ; qtot -0.101154
 4025         h1    139    bbb    H15   4025 0.25637600   1.008000   ; qtot 0.155222
 4026         h1    139    bbb    H16   4026 0.25637600   1.008000   ; qtot 0.411598
 4027         c3    139    bbb     C9   4027 -0.72423400  12.010000   ; qtot -0.312636
 4028         h1    139    bbb    H17   4028 0.25637600   1.008000   ; qtot -0.056260
 4029         h1    139    bbb    H18   4029 0.25637600   1.008000   ; qtot 0.200116
 4030         os    139    bbb     O1   4030 -0.20025300  16.000000   ; qtot -0.000137
; residue  140 bbb rtp bbb q -0.0
 4031         n3    140    bbb     N1   4031 -0.59685800  14.010000   ; qtot -0.596995
 4032         c3    140    bbb     C1   4032 0.10137000  12.010000   ; qtot -0.495625
 4033         h1    140    bbb     H1   4033 0.04411300   1.008000   ; qtot -0.451512
 4034         h1    140    bbb     H2   4034 0.04411300   1.008000   ; qtot -0.407399
 4035         c3    140    bbb     C2   4035 0.10137000  12.010000   ; qtot -0.306029
 4036         h1    140    bbb     H3   4036 0.04411300   1.008000   ; qtot -0.261916
 4037         h1    140    bbb     H4   4037 0.04411300   1.008000   ; qtot -0.217803
 4038         c3    140    bbb     C3   4038 -0.00195300  12.010000   ; qtot -0.219756
 4039         h1    140    bbb     H5   4039 0.05064400   1.008000   ; qtot -0.169112
 4040         h1    140    bbb     H6   4040 0.05064400   1.008000   ; qtot -0.118468
 4041         c3    140    bbb     C4   4041 -0.01612100  12.010000   ; qtot -0.134589
 4042         hc    140    bbb     H7   4042 0.04936100   1.008000   ; qtot -0.085228
 4043         hc    140    bbb     H8   4043 0.04936100   1.008000   ; qtot -0.035867
 4044         c3    140    bbb     C5   4044 0.11363000  12.010000   ; qtot 0.077763
 4045         hc    140    bbb     H9   4045 0.06265900   1.008000   ; qtot 0.140422
 4046         hc    140    bbb    H10   4046 0.06265900   1.008000   ; qtot 0.203081
 4047         c3    140    bbb     C6   4047 0.11363000  12.010000   ; qtot 0.316711
 4048         hc    140    bbb    H11   4048 0.06265900   1.008000   ; qtot 0.379370
 4049         hc    140    bbb    H12   4049 0.06265900   1.008000   ; qtot 0.442029
 4050         c3    140    bbb     C7   4050 0.05858200  12.010000   ; qtot 0.500611
 4051         h1    140    bbb    H13   4051 0.06123400   1.008000   ; qtot 0.561845
 4052         h1    140    bbb    H14   4052 0.06123400   1.008000   ; qtot 0.623079
 4053         c3    140    bbb     C8   4053 -0.72423400  12.010000   ; qtot -0.101155
 4054         h1    140    bbb    H15   4054 0.25637600   1.008000   ; qtot 0.155221
 4055         h1    140    bbb    H16   4055 0.25637600   1.008000   ; qtot 0.411597
 4056         c3    140    bbb     C9   4056 -0.72423400  12.010000   ; qtot -0.312637
 4057         h1    140    bbb    H17   4057 0.25637600   1.008000   ; qtot -0.056261
 4058         h1    140    bbb    H18   4058 0.25637600   1.008000   ; qtot 0.200115
 4059         os    140    bbb     O1   4059 -0.20025300  16.000000   ; qtot -0.000138
; residue  141 bbb rtp bbb q -0.0
 4060         n3    141    bbb     N1   4060 -0.59685800  14.010000   ; qtot -0.596996
 4061         c3    141    bbb     C1   4061 0.10137000  12.010000   ; qtot -0.495626
 4062         h1    141    bbb     H1   4062 0.04411300   1.008000   ; qtot -0.451513
 4063         h1    141    bbb     H2   4063 0.04411300   1.008000   ; qtot -0.407400
 4064         c3    141    bbb     C2   4064 0.10137000  12.010000   ; qtot -0.306030
 4065         h1    141    bbb     H3   4065 0.04411300   1.008000   ; qtot -0.261917
 4066         h1    141    bbb     H4   4066 0.04411300   1.008000   ; qtot -0.217804
 4067         c3    141    bbb     C3   4067 -0.00195300  12.010000   ; qtot -0.219757
 4068         h1    141    bbb     H5   4068 0.05064400   1.008000   ; qtot -0.169113
 4069         h1    141    bbb     H6   4069 0.05064400   1.008000   ; qtot -0.118469
 4070         c3    141    bbb     C4   4070 -0.01612100  12.010000   ; qtot -0.134590
 4071         hc    141    bbb     H7   4071 0.04936100   1.008000   ; qtot -0.085229
 4072         hc    141    bbb     H8   4072 0.04936100   1.008000   ; qtot -0.035868
 4073         c3    141    bbb     C5   4073 0.11363000  12.010000   ; qtot 0.077762
 4074         hc    141    bbb     H9   4074 0.06265900   1.008000   ; qtot 0.140421
 4075         hc    141    bbb    H10   4075 0.06265900   1.008000   ; qtot 0.203080
 4076         c3    141    bbb     C6   4076 0.11363000  12.010000   ; qtot 0.316710
 4077         hc    141    bbb    H11   4077 0.06265900   1.008000   ; qtot 0.379369
 4078         hc    141    bbb    H12   4078 0.06265900   1.008000   ; qtot 0.442028
 4079         c3    141    bbb     C7   4079 0.05858200  12.010000   ; qtot 0.500610
 4080         h1    141    bbb    H13   4080 0.06123400   1.008000   ; qtot 0.561844
 4081         h1    141    bbb    H14   4081 0.06123400   1.008000   ; qtot 0.623078
 4082         c3    141    bbb     C8   4082 -0.72423400  12.010000   ; qtot -0.101156
 4083         h1    141    bbb    H15   4083 0.25637600   1.008000   ; qtot 0.155220
 4084         h1    141    bbb    H16   4084 0.25637600   1.008000   ; qtot 0.411596
 4085         c3    141    bbb     C9   4085 -0.72423400  12.010000   ; qtot -0.312638
 4086         h1    141    bbb    H17   4086 0.25637600   1.008000   ; qtot -0.056262
 4087         h1    141    bbb    H18   4087 0.25637600   1.008000   ; qtot 0.200114
 4088         os    141    bbb     O1   4088 -0.20025300  16.000000   ; qtot -0.000139
; residue  142 bbb rtp bbb q -0.0
 4089         n3    142    bbb     N1   4089 -0.59685800  14.010000   ; qtot -0.596997
 4090         c3    142    bbb     C1   4090 0.10137000  12.010000   ; qtot -0.495627
 4091         h1    142    bbb     H1   4091 0.04411300   1.008000   ; qtot -0.451514
 4092         h1    142    bbb     H2   4092 0.04411300   1.008000   ; qtot -0.407401
 4093         c3    142    bbb     C2   4093 0.10137000  12.010000   ; qtot -0.306031
 4094         h1    142    bbb     H3   4094 0.04411300   1.008000   ; qtot -0.261918
 4095         h1    142    bbb     H4   4095 0.04411300   1.008000   ; qtot -0.217805
 4096         c3    142    bbb     C3   4096 -0.00195300  12.010000   ; qtot -0.219758
 4097         h1    142    bbb     H5   4097 0.05064400   1.008000   ; qtot -0.169114
 4098         h1    142    bbb     H6   4098 0.05064400   1.008000   ; qtot -0.118470
 4099         c3    142    bbb     C4   4099 -0.01612100  12.010000   ; qtot -0.134591
 4100         hc    142    bbb     H7   4100 0.04936100   1.008000   ; qtot -0.085230
 4101         hc    142    bbb     H8   4101 0.04936100   1.008000   ; qtot -0.035869
 4102         c3    142    bbb     C5   4102 0.11363000  12.010000   ; qtot 0.077761
 4103         hc    142    bbb     H9   4103 0.06265900   1.008000   ; qtot 0.140420
 4104         hc    142    bbb    H10   4104 0.06265900   1.008000   ; qtot 0.203079
 4105         c3    142    bbb     C6   4105 0.11363000  12.010000   ; qtot 0.316709
 4106         hc    142    bbb    H11   4106 0.06265900   1.008000   ; qtot 0.379368
 4107         hc    142    bbb    H12   4107 0.06265900   1.008000   ; qtot 0.442027
 4108         c3    142    bbb     C7   4108 0.05858200  12.010000   ; qtot 0.500609
 4109         h1    142    bbb    H13   4109 0.06123400   1.008000   ; qtot 0.561843
 4110         h1    142    bbb    H14   4110 0.06123400   1.008000   ; qtot 0.623077
 4111         c3    142    bbb     C8   4111 -0.72423400  12.010000   ; qtot -0.101157
 4112         h1    142    bbb    H15   4112 0.25637600   1.008000   ; qtot 0.155219
 4113         h1    142    bbb    H16   4113 0.25637600   1.008000   ; qtot 0.411595
 4114         c3    142    bbb     C9   4114 -0.72423400  12.010000   ; qtot -0.312639
 4115         h1    142    bbb    H17   4115 0.25637600   1.008000   ; qtot -0.056263
 4116         h1    142    bbb    H18   4116 0.25637600   1.008000   ; qtot 0.200113
 4117         os    142    bbb     O1   4117 -0.20025300  16.000000   ; qtot -0.000140
; residue  143 bbb rtp bbb q -0.0
 4118         n3    143    bbb     N1   4118 -0.59685800  14.010000   ; qtot -0.596998
 4119         c3    143    bbb     C1   4119 0.10137000  12.010000   ; qtot -0.495628
 4120         h1    143    bbb     H1   4120 0.04411300   1.008000   ; qtot -0.451515
 4121         h1    143    bbb     H2   4121 0.04411300   1.008000   ; qtot -0.407402
 4122         c3    143    bbb     C2   4122 0.10137000  12.010000   ; qtot -0.306032
 4123         h1    143    bbb     H3   4123 0.04411300   1.008000   ; qtot -0.261919
 4124         h1    143    bbb     H4   4124 0.04411300   1.008000   ; qtot -0.217806
 4125         c3    143    bbb     C3   4125 -0.00195300  12.010000   ; qtot -0.219759
 4126         h1    143    bbb     H5   4126 0.05064400   1.008000   ; qtot -0.169115
 4127         h1    143    bbb     H6   4127 0.05064400   1.008000   ; qtot -0.118471
 4128         c3    143    bbb     C4   4128 -0.01612100  12.010000   ; qtot -0.134592
 4129         hc    143    bbb     H7   4129 0.04936100   1.008000   ; qtot -0.085231
 4130         hc    143    bbb     H8   4130 0.04936100   1.008000   ; qtot -0.035870
 4131         c3    143    bbb     C5   4131 0.11363000  12.010000   ; qtot 0.077760
 4132         hc    143    bbb     H9   4132 0.06265900   1.008000   ; qtot 0.140419
 4133         hc    143    bbb    H10   4133 0.06265900   1.008000   ; qtot 0.203078
 4134         c3    143    bbb     C6   4134 0.11363000  12.010000   ; qtot 0.316708
 4135         hc    143    bbb    H11   4135 0.06265900   1.008000   ; qtot 0.379367
 4136         hc    143    bbb    H12   4136 0.06265900   1.008000   ; qtot 0.442026
 4137         c3    143    bbb     C7   4137 0.05858200  12.010000   ; qtot 0.500608
 4138         h1    143    bbb    H13   4138 0.06123400   1.008000   ; qtot 0.561842
 4139         h1    143    bbb    H14   4139 0.06123400   1.008000   ; qtot 0.623076
 4140         c3    143    bbb     C8   4140 -0.72423400  12.010000   ; qtot -0.101158
 4141         h1    143    bbb    H15   4141 0.25637600   1.008000   ; qtot 0.155218
 4142         h1    143    bbb    H16   4142 0.25637600   1.008000   ; qtot 0.411594
 4143         c3    143    bbb     C9   4143 -0.72423400  12.010000   ; qtot -0.312640
 4144         h1    143    bbb    H17   4144 0.25637600   1.008000   ; qtot -0.056264
 4145         h1    143    bbb    H18   4145 0.25637600   1.008000   ; qtot 0.200112
 4146         os    143    bbb     O1   4146 -0.20025300  16.000000   ; qtot -0.000141
; residue  144 bbb rtp bbb q -0.0
 4147         n3    144    bbb     N1   4147 -0.59685800  14.010000   ; qtot -0.596999
 4148         c3    144    bbb     C1   4148 0.10137000  12.010000   ; qtot -0.495629
 4149         h1    144    bbb     H1   4149 0.04411300   1.008000   ; qtot -0.451516
 4150         h1    144    bbb     H2   4150 0.04411300   1.008000   ; qtot -0.407403
 4151         c3    144    bbb     C2   4151 0.10137000  12.010000   ; qtot -0.306033
 4152         h1    144    bbb     H3   4152 0.04411300   1.008000   ; qtot -0.261920
 4153         h1    144    bbb     H4   4153 0.04411300   1.008000   ; qtot -0.217807
 4154         c3    144    bbb     C3   4154 -0.00195300  12.010000   ; qtot -0.219760
 4155         h1    144    bbb     H5   4155 0.05064400   1.008000   ; qtot -0.169116
 4156         h1    144    bbb     H6   4156 0.05064400   1.008000   ; qtot -0.118472
 4157         c3    144    bbb     C4   4157 -0.01612100  12.010000   ; qtot -0.134593
 4158         hc    144    bbb     H7   4158 0.04936100   1.008000   ; qtot -0.085232
 4159         hc    144    bbb     H8   4159 0.04936100   1.008000   ; qtot -0.035871
 4160         c3    144    bbb     C5   4160 0.11363000  12.010000   ; qtot 0.077759
 4161         hc    144    bbb     H9   4161 0.06265900   1.008000   ; qtot 0.140418
 4162         hc    144    bbb    H10   4162 0.06265900   1.008000   ; qtot 0.203077
 4163         c3    144    bbb     C6   4163 0.11363000  12.010000   ; qtot 0.316707
 4164         hc    144    bbb    H11   4164 0.06265900   1.008000   ; qtot 0.379366
 4165         hc    144    bbb    H12   4165 0.06265900   1.008000   ; qtot 0.442025
 4166         c3    144    bbb     C7   4166 0.05858200  12.010000   ; qtot 0.500607
 4167         h1    144    bbb    H13   4167 0.06123400   1.008000   ; qtot 0.561841
 4168         h1    144    bbb    H14   4168 0.06123400   1.008000   ; qtot 0.623075
 4169         c3    144    bbb     C8   4169 -0.72423400  12.010000   ; qtot -0.101159
 4170         h1    144    bbb    H15   4170 0.25637600   1.008000   ; qtot 0.155217
 4171         h1    144    bbb    H16   4171 0.25637600   1.008000   ; qtot 0.411593
 4172         c3    144    bbb     C9   4172 -0.72423400  12.010000   ; qtot -0.312641
 4173         h1    144    bbb    H17   4173 0.25637600   1.008000   ; qtot -0.056265
 4174         h1    144    bbb    H18   4174 0.25637600   1.008000   ; qtot 0.200111
 4175         os    144    bbb     O1   4175 -0.20025300  16.000000   ; qtot -0.000142
; residue  145 bbb rtp bbb q -0.0
 4176         n3    145    bbb     N1   4176 -0.59685800  14.010000   ; qtot -0.597000
 4177         c3    145    bbb     C1   4177 0.10137000  12.010000   ; qtot -0.495630
 4178         h1    145    bbb     H1   4178 0.04411300   1.008000   ; qtot -0.451517
 4179         h1    145    bbb     H2   4179 0.04411300   1.008000   ; qtot -0.407404
 4180         c3    145    bbb     C2   4180 0.10137000  12.010000   ; qtot -0.306034
 4181         h1    145    bbb     H3   4181 0.04411300   1.008000   ; qtot -0.261921
 4182         h1    145    bbb     H4   4182 0.04411300   1.008000   ; qtot -0.217808
 4183         c3    145    bbb     C3   4183 -0.00195300  12.010000   ; qtot -0.219761
 4184         h1    145    bbb     H5   4184 0.05064400   1.008000   ; qtot -0.169117
 4185         h1    145    bbb     H6   4185 0.05064400   1.008000   ; qtot -0.118473
 4186         c3    145    bbb     C4   4186 -0.01612100  12.010000   ; qtot -0.134594
 4187         hc    145    bbb     H7   4187 0.04936100   1.008000   ; qtot -0.085233
 4188         hc    145    bbb     H8   4188 0.04936100   1.008000   ; qtot -0.035872
 4189         c3    145    bbb     C5   4189 0.11363000  12.010000   ; qtot 0.077758
 4190         hc    145    bbb     H9   4190 0.06265900   1.008000   ; qtot 0.140417
 4191         hc    145    bbb    H10   4191 0.06265900   1.008000   ; qtot 0.203076
 4192         c3    145    bbb     C6   4192 0.11363000  12.010000   ; qtot 0.316706
 4193         hc    145    bbb    H11   4193 0.06265900   1.008000   ; qtot 0.379365
 4194         hc    145    bbb    H12   4194 0.06265900   1.008000   ; qtot 0.442024
 4195         c3    145    bbb     C7   4195 0.05858200  12.010000   ; qtot 0.500606
 4196         h1    145    bbb    H13   4196 0.06123400   1.008000   ; qtot 0.561840
 4197         h1    145    bbb    H14   4197 0.06123400   1.008000   ; qtot 0.623074
 4198         c3    145    bbb     C8   4198 -0.72423400  12.010000   ; qtot -0.101160
 4199         h1    145    bbb    H15   4199 0.25637600   1.008000   ; qtot 0.155216
 4200         h1    145    bbb    H16   4200 0.25637600   1.008000   ; qtot 0.411592
 4201         c3    145    bbb     C9   4201 -0.72423400  12.010000   ; qtot -0.312642
 4202         h1    145    bbb    H17   4202 0.25637600   1.008000   ; qtot -0.056266
 4203         h1    145    bbb    H18   4203 0.25637600   1.008000   ; qtot 0.200110
 4204         os    145    bbb     O1   4204 -0.20025300  16.000000   ; qtot -0.000143
; residue  146 bbb rtp bbb q -0.0
 4205         n3    146    bbb     N1   4205 -0.59685800  14.010000   ; qtot -0.597001
 4206         c3    146    bbb     C1   4206 0.10137000  12.010000   ; qtot -0.495631
 4207         h1    146    bbb     H1   4207 0.04411300   1.008000   ; qtot -0.451518
 4208         h1    146    bbb     H2   4208 0.04411300   1.008000   ; qtot -0.407405
 4209         c3    146    bbb     C2   4209 0.10137000  12.010000   ; qtot -0.306035
 4210         h1    146    bbb     H3   4210 0.04411300   1.008000   ; qtot -0.261922
 4211         h1    146    bbb     H4   4211 0.04411300   1.008000   ; qtot -0.217809
 4212         c3    146    bbb     C3   4212 -0.00195300  12.010000   ; qtot -0.219762
 4213         h1    146    bbb     H5   4213 0.05064400   1.008000   ; qtot -0.169118
 4214         h1    146    bbb     H6   4214 0.05064400   1.008000   ; qtot -0.118474
 4215         c3    146    bbb     C4   4215 -0.01612100  12.010000   ; qtot -0.134595
 4216         hc    146    bbb     H7   4216 0.04936100   1.008000   ; qtot -0.085234
 4217         hc    146    bbb     H8   4217 0.04936100   1.008000   ; qtot -0.035873
 4218         c3    146    bbb     C5   4218 0.11363000  12.010000   ; qtot 0.077757
 4219         hc    146    bbb     H9   4219 0.06265900   1.008000   ; qtot 0.140416
 4220         hc    146    bbb    H10   4220 0.06265900   1.008000   ; qtot 0.203075
 4221         c3    146    bbb     C6   4221 0.11363000  12.010000   ; qtot 0.316705
 4222         hc    146    bbb    H11   4222 0.06265900   1.008000   ; qtot 0.379364
 4223         hc    146    bbb    H12   4223 0.06265900   1.008000   ; qtot 0.442023
 4224         c3    146    bbb     C7   4224 0.05858200  12.010000   ; qtot 0.500605
 4225         h1    146    bbb    H13   4225 0.06123400   1.008000   ; qtot 0.561839
 4226         h1    146    bbb    H14   4226 0.06123400   1.008000   ; qtot 0.623073
 4227         c3    146    bbb     C8   4227 -0.72423400  12.010000   ; qtot -0.101161
 4228         h1    146    bbb    H15   4228 0.25637600   1.008000   ; qtot 0.155215
 4229         h1    146    bbb    H16   4229 0.25637600   1.008000   ; qtot 0.411591
 4230         c3    146    bbb     C9   4230 -0.72423400  12.010000   ; qtot -0.312643
 4231         h1    146    bbb    H17   4231 0.25637600   1.008000   ; qtot -0.056267
 4232         h1    146    bbb    H18   4232 0.25637600   1.008000   ; qtot 0.200109
 4233         os    146    bbb     O1   4233 -0.20025300  16.000000   ; qtot -0.000144
; residue  147 bbb rtp bbb q -0.0
 4234         n3    147    bbb     N1   4234 -0.59685800  14.010000   ; qtot -0.597002
 4235         c3    147    bbb     C1   4235 0.10137000  12.010000   ; qtot -0.495632
 4236         h1    147    bbb     H1   4236 0.04411300   1.008000   ; qtot -0.451519
 4237         h1    147    bbb     H2   4237 0.04411300   1.008000   ; qtot -0.407406
 4238         c3    147    bbb     C2   4238 0.10137000  12.010000   ; qtot -0.306036
 4239         h1    147    bbb     H3   4239 0.04411300   1.008000   ; qtot -0.261923
 4240         h1    147    bbb     H4   4240 0.04411300   1.008000   ; qtot -0.217810
 4241         c3    147    bbb     C3   4241 -0.00195300  12.010000   ; qtot -0.219763
 4242         h1    147    bbb     H5   4242 0.05064400   1.008000   ; qtot -0.169119
 4243         h1    147    bbb     H6   4243 0.05064400   1.008000   ; qtot -0.118475
 4244         c3    147    bbb     C4   4244 -0.01612100  12.010000   ; qtot -0.134596
 4245         hc    147    bbb     H7   4245 0.04936100   1.008000   ; qtot -0.085235
 4246         hc    147    bbb     H8   4246 0.04936100   1.008000   ; qtot -0.035874
 4247         c3    147    bbb     C5   4247 0.11363000  12.010000   ; qtot 0.077756
 4248         hc    147    bbb     H9   4248 0.06265900   1.008000   ; qtot 0.140415
 4249         hc    147    bbb    H10   4249 0.06265900   1.008000   ; qtot 0.203074
 4250         c3    147    bbb     C6   4250 0.11363000  12.010000   ; qtot 0.316704
 4251         hc    147    bbb    H11   4251 0.06265900   1.008000   ; qtot 0.379363
 4252         hc    147    bbb    H12   4252 0.06265900   1.008000   ; qtot 0.442022
 4253         c3    147    bbb     C7   4253 0.05858200  12.010000   ; qtot 0.500604
 4254         h1    147    bbb    H13   4254 0.06123400   1.008000   ; qtot 0.561838
 4255         h1    147    bbb    H14   4255 0.06123400   1.008000   ; qtot 0.623072
 4256         c3    147    bbb     C8   4256 -0.72423400  12.010000   ; qtot -0.101162
 4257         h1    147    bbb    H15   4257 0.25637600   1.008000   ; qtot 0.155214
 4258         h1    147    bbb    H16   4258 0.25637600   1.008000   ; qtot 0.411590
 4259         c3    147    bbb     C9   4259 -0.72423400  12.010000   ; qtot -0.312644
 4260         h1    147    bbb    H17   4260 0.25637600   1.008000   ; qtot -0.056268
 4261         h1    147    bbb    H18   4261 0.25637600   1.008000   ; qtot 0.200108
 4262         os    147    bbb     O1   4262 -0.20025300  16.000000   ; qtot -0.000145
; residue  148 bbb rtp bbb q -0.0
 4263         n3    148    bbb     N1   4263 -0.59685800  14.010000   ; qtot -0.597003
 4264         c3    148    bbb     C1   4264 0.10137000  12.010000   ; qtot -0.495633
 4265         h1    148    bbb     H1   4265 0.04411300   1.008000   ; qtot -0.451520
 4266         h1    148    bbb     H2   4266 0.04411300   1.008000   ; qtot -0.407407
 4267         c3    148    bbb     C2   4267 0.10137000  12.010000   ; qtot -0.306037
 4268         h1    148    bbb     H3   4268 0.04411300   1.008000   ; qtot -0.261924
 4269         h1    148    bbb     H4   4269 0.04411300   1.008000   ; qtot -0.217811
 4270         c3    148    bbb     C3   4270 -0.00195300  12.010000   ; qtot -0.219764
 4271         h1    148    bbb     H5   4271 0.05064400   1.008000   ; qtot -0.169120
 4272         h1    148    bbb     H6   4272 0.05064400   1.008000   ; qtot -0.118476
 4273         c3    148    bbb     C4   4273 -0.01612100  12.010000   ; qtot -0.134597
 4274         hc    148    bbb     H7   4274 0.04936100   1.008000   ; qtot -0.085236
 4275         hc    148    bbb     H8   4275 0.04936100   1.008000   ; qtot -0.035875
 4276         c3    148    bbb     C5   4276 0.11363000  12.010000   ; qtot 0.077755
 4277         hc    148    bbb     H9   4277 0.06265900   1.008000   ; qtot 0.140414
 4278         hc    148    bbb    H10   4278 0.06265900   1.008000   ; qtot 0.203073
 4279         c3    148    bbb     C6   4279 0.11363000  12.010000   ; qtot 0.316703
 4280         hc    148    bbb    H11   4280 0.06265900   1.008000   ; qtot 0.379362
 4281         hc    148    bbb    H12   4281 0.06265900   1.008000   ; qtot 0.442021
 4282         c3    148    bbb     C7   4282 0.05858200  12.010000   ; qtot 0.500603
 4283         h1    148    bbb    H13   4283 0.06123400   1.008000   ; qtot 0.561837
 4284         h1    148    bbb    H14   4284 0.06123400   1.008000   ; qtot 0.623071
 4285         c3    148    bbb     C8   4285 -0.72423400  12.010000   ; qtot -0.101163
 4286         h1    148    bbb    H15   4286 0.25637600   1.008000   ; qtot 0.155213
 4287         h1    148    bbb    H16   4287 0.25637600   1.008000   ; qtot 0.411589
 4288         c3    148    bbb     C9   4288 -0.72423400  12.010000   ; qtot -0.312645
 4289         h1    148    bbb    H17   4289 0.25637600   1.008000   ; qtot -0.056269
 4290         h1    148    bbb    H18   4290 0.25637600   1.008000   ; qtot 0.200107
 4291         os    148    bbb     O1   4291 -0.20025300  16.000000   ; qtot -0.000146
; residue  149 bbb rtp bbb q -0.0
 4292         n3    149    bbb     N1   4292 -0.59685800  14.010000   ; qtot -0.597004
 4293         c3    149    bbb     C1   4293 0.10137000  12.010000   ; qtot -0.495634
 4294         h1    149    bbb     H1   4294 0.04411300   1.008000   ; qtot -0.451521
 4295         h1    149    bbb     H2   4295 0.04411300   1.008000   ; qtot -0.407408
 4296         c3    149    bbb     C2   4296 0.10137000  12.010000   ; qtot -0.306038
 4297         h1    149    bbb     H3   4297 0.04411300   1.008000   ; qtot -0.261925
 4298         h1    149    bbb     H4   4298 0.04411300   1.008000   ; qtot -0.217812
 4299         c3    149    bbb     C3   4299 -0.00195300  12.010000   ; qtot -0.219765
 4300         h1    149    bbb     H5   4300 0.05064400   1.008000   ; qtot -0.169121
 4301         h1    149    bbb     H6   4301 0.05064400   1.008000   ; qtot -0.118477
 4302         c3    149    bbb     C4   4302 -0.01612100  12.010000   ; qtot -0.134598
 4303         hc    149    bbb     H7   4303 0.04936100   1.008000   ; qtot -0.085237
 4304         hc    149    bbb     H8   4304 0.04936100   1.008000   ; qtot -0.035876
 4305         c3    149    bbb     C5   4305 0.11363000  12.010000   ; qtot 0.077754
 4306         hc    149    bbb     H9   4306 0.06265900   1.008000   ; qtot 0.140413
 4307         hc    149    bbb    H10   4307 0.06265900   1.008000   ; qtot 0.203072
 4308         c3    149    bbb     C6   4308 0.11363000  12.010000   ; qtot 0.316702
 4309         hc    149    bbb    H11   4309 0.06265900   1.008000   ; qtot 0.379361
 4310         hc    149    bbb    H12   4310 0.06265900   1.008000   ; qtot 0.442020
 4311         c3    149    bbb     C7   4311 0.05858200  12.010000   ; qtot 0.500602
 4312         h1    149    bbb    H13   4312 0.06123400   1.008000   ; qtot 0.561836
 4313         h1    149    bbb    H14   4313 0.06123400   1.008000   ; qtot 0.623070
 4314         c3    149    bbb     C8   4314 -0.72423400  12.010000   ; qtot -0.101164
 4315         h1    149    bbb    H15   4315 0.25637600   1.008000   ; qtot 0.155212
 4316         h1    149    bbb    H16   4316 0.25637600   1.008000   ; qtot 0.411588
 4317         c3    149    bbb     C9   4317 -0.72423400  12.010000   ; qtot -0.312646
 4318         h1    149    bbb    H17   4318 0.25637600   1.008000   ; qtot -0.056270
 4319         h1    149    bbb    H18   4319 0.25637600   1.008000   ; qtot 0.200106
 4320         os    149    bbb     O1   4320 -0.20025300  16.000000   ; qtot -0.000147
; residue  150 bbb rtp bbb q -0.0
 4321         n3    150    bbb     N1   4321 -0.59685800  14.010000   ; qtot -0.597005
 4322         c3    150    bbb     C1   4322 0.10137000  12.010000   ; qtot -0.495635
 4323         h1    150    bbb     H1   4323 0.04411300   1.008000   ; qtot -0.451522
 4324         h1    150    bbb     H2   4324 0.04411300   1.008000   ; qtot -0.407409
 4325         c3    150    bbb     C2   4325 0.10137000  12.010000   ; qtot -0.306039
 4326         h1    150    bbb     H3   4326 0.04411300   1.008000   ; qtot -0.261926
 4327         h1    150    bbb     H4   4327 0.04411300   1.008000   ; qtot -0.217813
 4328         c3    150    bbb     C3   4328 -0.00195300  12.010000   ; qtot -0.219766
 4329         h1    150    bbb     H5   4329 0.05064400   1.008000   ; qtot -0.169122
 4330         h1    150    bbb     H6   4330 0.05064400   1.008000   ; qtot -0.118478
 4331         c3    150    bbb     C4   4331 -0.01612100  12.010000   ; qtot -0.134599
 4332         hc    150    bbb     H7   4332 0.04936100   1.008000   ; qtot -0.085238
 4333         hc    150    bbb     H8   4333 0.04936100   1.008000   ; qtot -0.035877
 4334         c3    150    bbb     C5   4334 0.11363000  12.010000   ; qtot 0.077753
 4335         hc    150    bbb     H9   4335 0.06265900   1.008000   ; qtot 0.140412
 4336         hc    150    bbb    H10   4336 0.06265900   1.008000   ; qtot 0.203071
 4337         c3    150    bbb     C6   4337 0.11363000  12.010000   ; qtot 0.316701
 4338         hc    150    bbb    H11   4338 0.06265900   1.008000   ; qtot 0.379360
 4339         hc    150    bbb    H12   4339 0.06265900   1.008000   ; qtot 0.442019
 4340         c3    150    bbb     C7   4340 0.05858200  12.010000   ; qtot 0.500601
 4341         h1    150    bbb    H13   4341 0.06123400   1.008000   ; qtot 0.561835
 4342         h1    150    bbb    H14   4342 0.06123400   1.008000   ; qtot 0.623069
 4343         c3    150    bbb     C8   4343 -0.72423400  12.010000   ; qtot -0.101165
 4344         h1    150    bbb    H15   4344 0.25637600   1.008000   ; qtot 0.155211
 4345         h1    150    bbb    H16   4345 0.25637600   1.008000   ; qtot 0.411587
 4346         c3    150    bbb     C9   4346 -0.72423400  12.010000   ; qtot -0.312647
 4347         h1    150    bbb    H17   4347 0.25637600   1.008000   ; qtot -0.056271
 4348         h1    150    bbb    H18   4348 0.25637600   1.008000   ; qtot 0.200105
 4349         os    150    bbb     O1   4349 -0.20025300  16.000000   ; qtot -0.000148
; residue  151 bbb rtp bbb q -0.0
 4350         n3    151    bbb     N1   4350 -0.59685800  14.010000   ; qtot -0.597006
 4351         c3    151    bbb     C1   4351 0.10137000  12.010000   ; qtot -0.495636
 4352         h1    151    bbb     H1   4352 0.04411300   1.008000   ; qtot -0.451523
 4353         h1    151    bbb     H2   4353 0.04411300   1.008000   ; qtot -0.407410
 4354         c3    151    bbb     C2   4354 0.10137000  12.010000   ; qtot -0.306040
 4355         h1    151    bbb     H3   4355 0.04411300   1.008000   ; qtot -0.261927
 4356         h1    151    bbb     H4   4356 0.04411300   1.008000   ; qtot -0.217814
 4357         c3    151    bbb     C3   4357 -0.00195300  12.010000   ; qtot -0.219767
 4358         h1    151    bbb     H5   4358 0.05064400   1.008000   ; qtot -0.169123
 4359         h1    151    bbb     H6   4359 0.05064400   1.008000   ; qtot -0.118479
 4360         c3    151    bbb     C4   4360 -0.01612100  12.010000   ; qtot -0.134600
 4361         hc    151    bbb     H7   4361 0.04936100   1.008000   ; qtot -0.085239
 4362         hc    151    bbb     H8   4362 0.04936100   1.008000   ; qtot -0.035878
 4363         c3    151    bbb     C5   4363 0.11363000  12.010000   ; qtot 0.077752
 4364         hc    151    bbb     H9   4364 0.06265900   1.008000   ; qtot 0.140411
 4365         hc    151    bbb    H10   4365 0.06265900   1.008000   ; qtot 0.203070
 4366         c3    151    bbb     C6   4366 0.11363000  12.010000   ; qtot 0.316700
 4367         hc    151    bbb    H11   4367 0.06265900   1.008000   ; qtot 0.379359
 4368         hc    151    bbb    H12   4368 0.06265900   1.008000   ; qtot 0.442018
 4369         c3    151    bbb     C7   4369 0.05858200  12.010000   ; qtot 0.500600
 4370         h1    151    bbb    H13   4370 0.06123400   1.008000   ; qtot 0.561834
 4371         h1    151    bbb    H14   4371 0.06123400   1.008000   ; qtot 0.623068
 4372         c3    151    bbb     C8   4372 -0.72423400  12.010000   ; qtot -0.101166
 4373         h1    151    bbb    H15   4373 0.25637600   1.008000   ; qtot 0.155210
 4374         h1    151    bbb    H16   4374 0.25637600   1.008000   ; qtot 0.411586
 4375         c3    151    bbb     C9   4375 -0.72423400  12.010000   ; qtot -0.312648
 4376         h1    151    bbb    H17   4376 0.25637600   1.008000   ; qtot -0.056272
 4377         h1    151    bbb    H18   4377 0.25637600   1.008000   ; qtot 0.200104
 4378         os    151    bbb     O1   4378 -0.20025300  16.000000   ; qtot -0.000149
; residue  152 bbb rtp bbb q -0.0
 4379         n3    152    bbb     N1   4379 -0.59685800  14.010000   ; qtot -0.597007
 4380         c3    152    bbb     C1   4380 0.10137000  12.010000   ; qtot -0.495637
 4381         h1    152    bbb     H1   4381 0.04411300   1.008000   ; qtot -0.451524
 4382         h1    152    bbb     H2   4382 0.04411300   1.008000   ; qtot -0.407411
 4383         c3    152    bbb     C2   4383 0.10137000  12.010000   ; qtot -0.306041
 4384         h1    152    bbb     H3   4384 0.04411300   1.008000   ; qtot -0.261928
 4385         h1    152    bbb     H4   4385 0.04411300   1.008000   ; qtot -0.217815
 4386         c3    152    bbb     C3   4386 -0.00195300  12.010000   ; qtot -0.219768
 4387         h1    152    bbb     H5   4387 0.05064400   1.008000   ; qtot -0.169124
 4388         h1    152    bbb     H6   4388 0.05064400   1.008000   ; qtot -0.118480
 4389         c3    152    bbb     C4   4389 -0.01612100  12.010000   ; qtot -0.134601
 4390         hc    152    bbb     H7   4390 0.04936100   1.008000   ; qtot -0.085240
 4391         hc    152    bbb     H8   4391 0.04936100   1.008000   ; qtot -0.035879
 4392         c3    152    bbb     C5   4392 0.11363000  12.010000   ; qtot 0.077751
 4393         hc    152    bbb     H9   4393 0.06265900   1.008000   ; qtot 0.140410
 4394         hc    152    bbb    H10   4394 0.06265900   1.008000   ; qtot 0.203069
 4395         c3    152    bbb     C6   4395 0.11363000  12.010000   ; qtot 0.316699
 4396         hc    152    bbb    H11   4396 0.06265900   1.008000   ; qtot 0.379358
 4397         hc    152    bbb    H12   4397 0.06265900   1.008000   ; qtot 0.442017
 4398         c3    152    bbb     C7   4398 0.05858200  12.010000   ; qtot 0.500599
 4399         h1    152    bbb    H13   4399 0.06123400   1.008000   ; qtot 0.561833
 4400         h1    152    bbb    H14   4400 0.06123400   1.008000   ; qtot 0.623067
 4401         c3    152    bbb     C8   4401 -0.72423400  12.010000   ; qtot -0.101167
 4402         h1    152    bbb    H15   4402 0.25637600   1.008000   ; qtot 0.155209
 4403         h1    152    bbb    H16   4403 0.25637600   1.008000   ; qtot 0.411585
 4404         c3    152    bbb     C9   4404 -0.72423400  12.010000   ; qtot -0.312649
 4405         h1    152    bbb    H17   4405 0.25637600   1.008000   ; qtot -0.056273
 4406         h1    152    bbb    H18   4406 0.25637600   1.008000   ; qtot 0.200103
 4407         os    152    bbb     O1   4407 -0.20025300  16.000000   ; qtot -0.000150
; residue  153 bbb rtp bbb q -0.0
 4408         n3    153    bbb     N1   4408 -0.59685800  14.010000   ; qtot -0.597008
 4409         c3    153    bbb     C1   4409 0.10137000  12.010000   ; qtot -0.495638
 4410         h1    153    bbb     H1   4410 0.04411300   1.008000   ; qtot -0.451525
 4411         h1    153    bbb     H2   4411 0.04411300   1.008000   ; qtot -0.407412
 4412         c3    153    bbb     C2   4412 0.10137000  12.010000   ; qtot -0.306042
 4413         h1    153    bbb     H3   4413 0.04411300   1.008000   ; qtot -0.261929
 4414         h1    153    bbb     H4   4414 0.04411300   1.008000   ; qtot -0.217816
 4415         c3    153    bbb     C3   4415 -0.00195300  12.010000   ; qtot -0.219769
 4416         h1    153    bbb     H5   4416 0.05064400   1.008000   ; qtot -0.169125
 4417         h1    153    bbb     H6   4417 0.05064400   1.008000   ; qtot -0.118481
 4418         c3    153    bbb     C4   4418 -0.01612100  12.010000   ; qtot -0.134602
 4419         hc    153    bbb     H7   4419 0.04936100   1.008000   ; qtot -0.085241
 4420         hc    153    bbb     H8   4420 0.04936100   1.008000   ; qtot -0.035880
 4421         c3    153    bbb     C5   4421 0.11363000  12.010000   ; qtot 0.077750
 4422         hc    153    bbb     H9   4422 0.06265900   1.008000   ; qtot 0.140409
 4423         hc    153    bbb    H10   4423 0.06265900   1.008000   ; qtot 0.203068
 4424         c3    153    bbb     C6   4424 0.11363000  12.010000   ; qtot 0.316698
 4425         hc    153    bbb    H11   4425 0.06265900   1.008000   ; qtot 0.379357
 4426         hc    153    bbb    H12   4426 0.06265900   1.008000   ; qtot 0.442016
 4427         c3    153    bbb     C7   4427 0.05858200  12.010000   ; qtot 0.500598
 4428         h1    153    bbb    H13   4428 0.06123400   1.008000   ; qtot 0.561832
 4429         h1    153    bbb    H14   4429 0.06123400   1.008000   ; qtot 0.623066
 4430         c3    153    bbb     C8   4430 -0.72423400  12.010000   ; qtot -0.101168
 4431         h1    153    bbb    H15   4431 0.25637600   1.008000   ; qtot 0.155208
 4432         h1    153    bbb    H16   4432 0.25637600   1.008000   ; qtot 0.411584
 4433         c3    153    bbb     C9   4433 -0.72423400  12.010000   ; qtot -0.312650
 4434         h1    153    bbb    H17   4434 0.25637600   1.008000   ; qtot -0.056274
 4435         h1    153    bbb    H18   4435 0.25637600   1.008000   ; qtot 0.200102
 4436         os    153    bbb     O1   4436 -0.20025300  16.000000   ; qtot -0.000151
; residue  154 bbb rtp bbb q -0.0
 4437         n3    154    bbb     N1   4437 -0.59685800  14.010000   ; qtot -0.597009
 4438         c3    154    bbb     C1   4438 0.10137000  12.010000   ; qtot -0.495639
 4439         h1    154    bbb     H1   4439 0.04411300   1.008000   ; qtot -0.451526
 4440         h1    154    bbb     H2   4440 0.04411300   1.008000   ; qtot -0.407413
 4441         c3    154    bbb     C2   4441 0.10137000  12.010000   ; qtot -0.306043
 4442         h1    154    bbb     H3   4442 0.04411300   1.008000   ; qtot -0.261930
 4443         h1    154    bbb     H4   4443 0.04411300   1.008000   ; qtot -0.217817
 4444         c3    154    bbb     C3   4444 -0.00195300  12.010000   ; qtot -0.219770
 4445         h1    154    bbb     H5   4445 0.05064400   1.008000   ; qtot -0.169126
 4446         h1    154    bbb     H6   4446 0.05064400   1.008000   ; qtot -0.118482
 4447         c3    154    bbb     C4   4447 -0.01612100  12.010000   ; qtot -0.134603
 4448         hc    154    bbb     H7   4448 0.04936100   1.008000   ; qtot -0.085242
 4449         hc    154    bbb     H8   4449 0.04936100   1.008000   ; qtot -0.035881
 4450         c3    154    bbb     C5   4450 0.11363000  12.010000   ; qtot 0.077749
 4451         hc    154    bbb     H9   4451 0.06265900   1.008000   ; qtot 0.140408
 4452         hc    154    bbb    H10   4452 0.06265900   1.008000   ; qtot 0.203067
 4453         c3    154    bbb     C6   4453 0.11363000  12.010000   ; qtot 0.316697
 4454         hc    154    bbb    H11   4454 0.06265900   1.008000   ; qtot 0.379356
 4455         hc    154    bbb    H12   4455 0.06265900   1.008000   ; qtot 0.442015
 4456         c3    154    bbb     C7   4456 0.05858200  12.010000   ; qtot 0.500597
 4457         h1    154    bbb    H13   4457 0.06123400   1.008000   ; qtot 0.561831
 4458         h1    154    bbb    H14   4458 0.06123400   1.008000   ; qtot 0.623065
 4459         c3    154    bbb     C8   4459 -0.72423400  12.010000   ; qtot -0.101169
 4460         h1    154    bbb    H15   4460 0.25637600   1.008000   ; qtot 0.155207
 4461         h1    154    bbb    H16   4461 0.25637600   1.008000   ; qtot 0.411583
 4462         c3    154    bbb     C9   4462 -0.72423400  12.010000   ; qtot -0.312651
 4463         h1    154    bbb    H17   4463 0.25637600   1.008000   ; qtot -0.056275
 4464         h1    154    bbb    H18   4464 0.25637600   1.008000   ; qtot 0.200101
 4465         os    154    bbb     O1   4465 -0.20025300  16.000000   ; qtot -0.000152
; residue  155 bbb rtp bbb q -0.0
 4466         n3    155    bbb     N1   4466 -0.59685800  14.010000   ; qtot -0.597010
 4467         c3    155    bbb     C1   4467 0.10137000  12.010000   ; qtot -0.495640
 4468         h1    155    bbb     H1   4468 0.04411300   1.008000   ; qtot -0.451527
 4469         h1    155    bbb     H2   4469 0.04411300   1.008000   ; qtot -0.407414
 4470         c3    155    bbb     C2   4470 0.10137000  12.010000   ; qtot -0.306044
 4471         h1    155    bbb     H3   4471 0.04411300   1.008000   ; qtot -0.261931
 4472         h1    155    bbb     H4   4472 0.04411300   1.008000   ; qtot -0.217818
 4473         c3    155    bbb     C3   4473 -0.00195300  12.010000   ; qtot -0.219771
 4474         h1    155    bbb     H5   4474 0.05064400   1.008000   ; qtot -0.169127
 4475         h1    155    bbb     H6   4475 0.05064400   1.008000   ; qtot -0.118483
 4476         c3    155    bbb     C4   4476 -0.01612100  12.010000   ; qtot -0.134604
 4477         hc    155    bbb     H7   4477 0.04936100   1.008000   ; qtot -0.085243
 4478         hc    155    bbb     H8   4478 0.04936100   1.008000   ; qtot -0.035882
 4479         c3    155    bbb     C5   4479 0.11363000  12.010000   ; qtot 0.077748
 4480         hc    155    bbb     H9   4480 0.06265900   1.008000   ; qtot 0.140407
 4481         hc    155    bbb    H10   4481 0.06265900   1.008000   ; qtot 0.203066
 4482         c3    155    bbb     C6   4482 0.11363000  12.010000   ; qtot 0.316696
 4483         hc    155    bbb    H11   4483 0.06265900   1.008000   ; qtot 0.379355
 4484         hc    155    bbb    H12   4484 0.06265900   1.008000   ; qtot 0.442014
 4485         c3    155    bbb     C7   4485 0.05858200  12.010000   ; qtot 0.500596
 4486         h1    155    bbb    H13   4486 0.06123400   1.008000   ; qtot 0.561830
 4487         h1    155    bbb    H14   4487 0.06123400   1.008000   ; qtot 0.623064
 4488         c3    155    bbb     C8   4488 -0.72423400  12.010000   ; qtot -0.101170
 4489         h1    155    bbb    H15   4489 0.25637600   1.008000   ; qtot 0.155206
 4490         h1    155    bbb    H16   4490 0.25637600   1.008000   ; qtot 0.411582
 4491         c3    155    bbb     C9   4491 -0.72423400  12.010000   ; qtot -0.312652
 4492         h1    155    bbb    H17   4492 0.25637600   1.008000   ; qtot -0.056276
 4493         h1    155    bbb    H18   4493 0.25637600   1.008000   ; qtot 0.200100
 4494         os    155    bbb     O1   4494 -0.20025300  16.000000   ; qtot -0.000153
; residue  156 bbb rtp bbb q -0.0
 4495         n3    156    bbb     N1   4495 -0.59685800  14.010000   ; qtot -0.597011
 4496         c3    156    bbb     C1   4496 0.10137000  12.010000   ; qtot -0.495641
 4497         h1    156    bbb     H1   4497 0.04411300   1.008000   ; qtot -0.451528
 4498         h1    156    bbb     H2   4498 0.04411300   1.008000   ; qtot -0.407415
 4499         c3    156    bbb     C2   4499 0.10137000  12.010000   ; qtot -0.306045
 4500         h1    156    bbb     H3   4500 0.04411300   1.008000   ; qtot -0.261932
 4501         h1    156    bbb     H4   4501 0.04411300   1.008000   ; qtot -0.217819
 4502         c3    156    bbb     C3   4502 -0.00195300  12.010000   ; qtot -0.219772
 4503         h1    156    bbb     H5   4503 0.05064400   1.008000   ; qtot -0.169128
 4504         h1    156    bbb     H6   4504 0.05064400   1.008000   ; qtot -0.118484
 4505         c3    156    bbb     C4   4505 -0.01612100  12.010000   ; qtot -0.134605
 4506         hc    156    bbb     H7   4506 0.04936100   1.008000   ; qtot -0.085244
 4507         hc    156    bbb     H8   4507 0.04936100   1.008000   ; qtot -0.035883
 4508         c3    156    bbb     C5   4508 0.11363000  12.010000   ; qtot 0.077747
 4509         hc    156    bbb     H9   4509 0.06265900   1.008000   ; qtot 0.140406
 4510         hc    156    bbb    H10   4510 0.06265900   1.008000   ; qtot 0.203065
 4511         c3    156    bbb     C6   4511 0.11363000  12.010000   ; qtot 0.316695
 4512         hc    156    bbb    H11   4512 0.06265900   1.008000   ; qtot 0.379354
 4513         hc    156    bbb    H12   4513 0.06265900   1.008000   ; qtot 0.442013
 4514         c3    156    bbb     C7   4514 0.05858200  12.010000   ; qtot 0.500595
 4515         h1    156    bbb    H13   4515 0.06123400   1.008000   ; qtot 0.561829
 4516         h1    156    bbb    H14   4516 0.06123400   1.008000   ; qtot 0.623063
 4517         c3    156    bbb     C8   4517 -0.72423400  12.010000   ; qtot -0.101171
 4518         h1    156    bbb    H15   4518 0.25637600   1.008000   ; qtot 0.155205
 4519         h1    156    bbb    H16   4519 0.25637600   1.008000   ; qtot 0.411581
 4520         c3    156    bbb     C9   4520 -0.72423400  12.010000   ; qtot -0.312653
 4521         h1    156    bbb    H17   4521 0.25637600   1.008000   ; qtot -0.056277
 4522         h1    156    bbb    H18   4522 0.25637600   1.008000   ; qtot 0.200099
 4523         os    156    bbb     O1   4523 -0.20025300  16.000000   ; qtot -0.000154
; residue  157 bbb rtp bbb q -0.0
 4524         n3    157    bbb     N1   4524 -0.59685800  14.010000   ; qtot -0.597012
 4525         c3    157    bbb     C1   4525 0.10137000  12.010000   ; qtot -0.495642
 4526         h1    157    bbb     H1   4526 0.04411300   1.008000   ; qtot -0.451529
 4527         h1    157    bbb     H2   4527 0.04411300   1.008000   ; qtot -0.407416
 4528         c3    157    bbb     C2   4528 0.10137000  12.010000   ; qtot -0.306046
 4529         h1    157    bbb     H3   4529 0.04411300   1.008000   ; qtot -0.261933
 4530         h1    157    bbb     H4   4530 0.04411300   1.008000   ; qtot -0.217820
 4531         c3    157    bbb     C3   4531 -0.00195300  12.010000   ; qtot -0.219773
 4532         h1    157    bbb     H5   4532 0.05064400   1.008000   ; qtot -0.169129
 4533         h1    157    bbb     H6   4533 0.05064400   1.008000   ; qtot -0.118485
 4534         c3    157    bbb     C4   4534 -0.01612100  12.010000   ; qtot -0.134606
 4535         hc    157    bbb     H7   4535 0.04936100   1.008000   ; qtot -0.085245
 4536         hc    157    bbb     H8   4536 0.04936100   1.008000   ; qtot -0.035884
 4537         c3    157    bbb     C5   4537 0.11363000  12.010000   ; qtot 0.077746
 4538         hc    157    bbb     H9   4538 0.06265900   1.008000   ; qtot 0.140405
 4539         hc    157    bbb    H10   4539 0.06265900   1.008000   ; qtot 0.203064
 4540         c3    157    bbb     C6   4540 0.11363000  12.010000   ; qtot 0.316694
 4541         hc    157    bbb    H11   4541 0.06265900   1.008000   ; qtot 0.379353
 4542         hc    157    bbb    H12   4542 0.06265900   1.008000   ; qtot 0.442012
 4543         c3    157    bbb     C7   4543 0.05858200  12.010000   ; qtot 0.500594
 4544         h1    157    bbb    H13   4544 0.06123400   1.008000   ; qtot 0.561828
 4545         h1    157    bbb    H14   4545 0.06123400   1.008000   ; qtot 0.623062
 4546         c3    157    bbb     C8   4546 -0.72423400  12.010000   ; qtot -0.101172
 4547         h1    157    bbb    H15   4547 0.25637600   1.008000   ; qtot 0.155204
 4548         h1    157    bbb    H16   4548 0.25637600   1.008000   ; qtot 0.411580
 4549         c3    157    bbb     C9   4549 -0.72423400  12.010000   ; qtot -0.312654
 4550         h1    157    bbb    H17   4550 0.25637600   1.008000   ; qtot -0.056278
 4551         h1    157    bbb    H18   4551 0.25637600   1.008000   ; qtot 0.200098
 4552         os    157    bbb     O1   4552 -0.20025300  16.000000   ; qtot -0.000155
; residue  158 bbb rtp bbb q -0.0
 4553         n3    158    bbb     N1   4553 -0.59685800  14.010000   ; qtot -0.597013
 4554         c3    158    bbb     C1   4554 0.10137000  12.010000   ; qtot -0.495643
 4555         h1    158    bbb     H1   4555 0.04411300   1.008000   ; qtot -0.451530
 4556         h1    158    bbb     H2   4556 0.04411300   1.008000   ; qtot -0.407417
 4557         c3    158    bbb     C2   4557 0.10137000  12.010000   ; qtot -0.306047
 4558         h1    158    bbb     H3   4558 0.04411300   1.008000   ; qtot -0.261934
 4559         h1    158    bbb     H4   4559 0.04411300   1.008000   ; qtot -0.217821
 4560         c3    158    bbb     C3   4560 -0.00195300  12.010000   ; qtot -0.219774
 4561         h1    158    bbb     H5   4561 0.05064400   1.008000   ; qtot -0.169130
 4562         h1    158    bbb     H6   4562 0.05064400   1.008000   ; qtot -0.118486
 4563         c3    158    bbb     C4   4563 -0.01612100  12.010000   ; qtot -0.134607
 4564         hc    158    bbb     H7   4564 0.04936100   1.008000   ; qtot -0.085246
 4565         hc    158    bbb     H8   4565 0.04936100   1.008000   ; qtot -0.035885
 4566         c3    158    bbb     C5   4566 0.11363000  12.010000   ; qtot 0.077745
 4567         hc    158    bbb     H9   4567 0.06265900   1.008000   ; qtot 0.140404
 4568         hc    158    bbb    H10   4568 0.06265900   1.008000   ; qtot 0.203063
 4569         c3    158    bbb     C6   4569 0.11363000  12.010000   ; qtot 0.316693
 4570         hc    158    bbb    H11   4570 0.06265900   1.008000   ; qtot 0.379352
 4571         hc    158    bbb    H12   4571 0.06265900   1.008000   ; qtot 0.442011
 4572         c3    158    bbb     C7   4572 0.05858200  12.010000   ; qtot 0.500593
 4573         h1    158    bbb    H13   4573 0.06123400   1.008000   ; qtot 0.561827
 4574         h1    158    bbb    H14   4574 0.06123400   1.008000   ; qtot 0.623061
 4575         c3    158    bbb     C8   4575 -0.72423400  12.010000   ; qtot -0.101173
 4576         h1    158    bbb    H15   4576 0.25637600   1.008000   ; qtot 0.155203
 4577         h1    158    bbb    H16   4577 0.25637600   1.008000   ; qtot 0.411579
 4578         c3    158    bbb     C9   4578 -0.72423400  12.010000   ; qtot -0.312655
 4579         h1    158    bbb    H17   4579 0.25637600   1.008000   ; qtot -0.056279
 4580         h1    158    bbb    H18   4580 0.25637600   1.008000   ; qtot 0.200097
 4581         os    158    bbb     O1   4581 -0.20025300  16.000000   ; qtot -0.000156
; residue  159 bbb rtp bbb q -0.0
 4582         n3    159    bbb     N1   4582 -0.59685800  14.010000   ; qtot -0.597014
 4583         c3    159    bbb     C1   4583 0.10137000  12.010000   ; qtot -0.495644
 4584         h1    159    bbb     H1   4584 0.04411300   1.008000   ; qtot -0.451531
 4585         h1    159    bbb     H2   4585 0.04411300   1.008000   ; qtot -0.407418
 4586         c3    159    bbb     C2   4586 0.10137000  12.010000   ; qtot -0.306048
 4587         h1    159    bbb     H3   4587 0.04411300   1.008000   ; qtot -0.261935
 4588         h1    159    bbb     H4   4588 0.04411300   1.008000   ; qtot -0.217822
 4589         c3    159    bbb     C3   4589 -0.00195300  12.010000   ; qtot -0.219775
 4590         h1    159    bbb     H5   4590 0.05064400   1.008000   ; qtot -0.169131
 4591         h1    159    bbb     H6   4591 0.05064400   1.008000   ; qtot -0.118487
 4592         c3    159    bbb     C4   4592 -0.01612100  12.010000   ; qtot -0.134608
 4593         hc    159    bbb     H7   4593 0.04936100   1.008000   ; qtot -0.085247
 4594         hc    159    bbb     H8   4594 0.04936100   1.008000   ; qtot -0.035886
 4595         c3    159    bbb     C5   4595 0.11363000  12.010000   ; qtot 0.077744
 4596         hc    159    bbb     H9   4596 0.06265900   1.008000   ; qtot 0.140403
 4597         hc    159    bbb    H10   4597 0.06265900   1.008000   ; qtot 0.203062
 4598         c3    159    bbb     C6   4598 0.11363000  12.010000   ; qtot 0.316692
 4599         hc    159    bbb    H11   4599 0.06265900   1.008000   ; qtot 0.379351
 4600         hc    159    bbb    H12   4600 0.06265900   1.008000   ; qtot 0.442010
 4601         c3    159    bbb     C7   4601 0.05858200  12.010000   ; qtot 0.500592
 4602         h1    159    bbb    H13   4602 0.06123400   1.008000   ; qtot 0.561826
 4603         h1    159    bbb    H14   4603 0.06123400   1.008000   ; qtot 0.623060
 4604         c3    159    bbb     C8   4604 -0.72423400  12.010000   ; qtot -0.101174
 4605         h1    159    bbb    H15   4605 0.25637600   1.008000   ; qtot 0.155202
 4606         h1    159    bbb    H16   4606 0.25637600   1.008000   ; qtot 0.411578
 4607         c3    159    bbb     C9   4607 -0.72423400  12.010000   ; qtot -0.312656
 4608         h1    159    bbb    H17   4608 0.25637600   1.008000   ; qtot -0.056280
 4609         h1    159    bbb    H18   4609 0.25637600   1.008000   ; qtot 0.200096
 4610         os    159    bbb     O1   4610 -0.20025300  16.000000   ; qtot -0.000157
; residue  160 bbb rtp bbb q -0.0
 4611         n3    160    bbb     N1   4611 -0.59685800  14.010000   ; qtot -0.597015
 4612         c3    160    bbb     C1   4612 0.10137000  12.010000   ; qtot -0.495645
 4613         h1    160    bbb     H1   4613 0.04411300   1.008000   ; qtot -0.451532
 4614         h1    160    bbb     H2   4614 0.04411300   1.008000   ; qtot -0.407419
 4615         c3    160    bbb     C2   4615 0.10137000  12.010000   ; qtot -0.306049
 4616         h1    160    bbb     H3   4616 0.04411300   1.008000   ; qtot -0.261936
 4617         h1    160    bbb     H4   4617 0.04411300   1.008000   ; qtot -0.217823
 4618         c3    160    bbb     C3   4618 -0.00195300  12.010000   ; qtot -0.219776
 4619         h1    160    bbb     H5   4619 0.05064400   1.008000   ; qtot -0.169132
 4620         h1    160    bbb     H6   4620 0.05064400   1.008000   ; qtot -0.118488
 4621         c3    160    bbb     C4   4621 -0.01612100  12.010000   ; qtot -0.134609
 4622         hc    160    bbb     H7   4622 0.04936100   1.008000   ; qtot -0.085248
 4623         hc    160    bbb     H8   4623 0.04936100   1.008000   ; qtot -0.035887
 4624         c3    160    bbb     C5   4624 0.11363000  12.010000   ; qtot 0.077743
 4625         hc    160    bbb     H9   4625 0.06265900   1.008000   ; qtot 0.140402
 4626         hc    160    bbb    H10   4626 0.06265900   1.008000   ; qtot 0.203061
 4627         c3    160    bbb     C6   4627 0.11363000  12.010000   ; qtot 0.316691
 4628         hc    160    bbb    H11   4628 0.06265900   1.008000   ; qtot 0.379350
 4629         hc    160    bbb    H12   4629 0.06265900   1.008000   ; qtot 0.442009
 4630         c3    160    bbb     C7   4630 0.05858200  12.010000   ; qtot 0.500591
 4631         h1    160    bbb    H13   4631 0.06123400   1.008000   ; qtot 0.561825
 4632         h1    160    bbb    H14   4632 0.06123400   1.008000   ; qtot 0.623059
 4633         c3    160    bbb     C8   4633 -0.72423400  12.010000   ; qtot -0.101175
 4634         h1    160    bbb    H15   4634 0.25637600   1.008000   ; qtot 0.155201
 4635         h1    160    bbb    H16   4635 0.25637600   1.008000   ; qtot 0.411577
 4636         c3    160    bbb     C9   4636 -0.72423400  12.010000   ; qtot -0.312657
 4637         h1    160    bbb    H17   4637 0.25637600   1.008000   ; qtot -0.056281
 4638         h1    160    bbb    H18   4638 0.25637600   1.008000   ; qtot 0.200095
 4639         os    160    bbb     O1   4639 -0.20025300  16.000000   ; qtot -0.000158
; residue  161 bbb rtp bbb q -0.0
 4640         n3    161    bbb     N1   4640 -0.59685800  14.010000   ; qtot -0.597016
 4641         c3    161    bbb     C1   4641 0.10137000  12.010000   ; qtot -0.495646
 4642         h1    161    bbb     H1   4642 0.04411300   1.008000   ; qtot -0.451533
 4643         h1    161    bbb     H2   4643 0.04411300   1.008000   ; qtot -0.407420
 4644         c3    161    bbb     C2   4644 0.10137000  12.010000   ; qtot -0.306050
 4645         h1    161    bbb     H3   4645 0.04411300   1.008000   ; qtot -0.261937
 4646         h1    161    bbb     H4   4646 0.04411300   1.008000   ; qtot -0.217824
 4647         c3    161    bbb     C3   4647 -0.00195300  12.010000   ; qtot -0.219777
 4648         h1    161    bbb     H5   4648 0.05064400   1.008000   ; qtot -0.169133
 4649         h1    161    bbb     H6   4649 0.05064400   1.008000   ; qtot -0.118489
 4650         c3    161    bbb     C4   4650 -0.01612100  12.010000   ; qtot -0.134610
 4651         hc    161    bbb     H7   4651 0.04936100   1.008000   ; qtot -0.085249
 4652         hc    161    bbb     H8   4652 0.04936100   1.008000   ; qtot -0.035888
 4653         c3    161    bbb     C5   4653 0.11363000  12.010000   ; qtot 0.077742
 4654         hc    161    bbb     H9   4654 0.06265900   1.008000   ; qtot 0.140401
 4655         hc    161    bbb    H10   4655 0.06265900   1.008000   ; qtot 0.203060
 4656         c3    161    bbb     C6   4656 0.11363000  12.010000   ; qtot 0.316690
 4657         hc    161    bbb    H11   4657 0.06265900   1.008000   ; qtot 0.379349
 4658         hc    161    bbb    H12   4658 0.06265900   1.008000   ; qtot 0.442008
 4659         c3    161    bbb     C7   4659 0.05858200  12.010000   ; qtot 0.500590
 4660         h1    161    bbb    H13   4660 0.06123400   1.008000   ; qtot 0.561824
 4661         h1    161    bbb    H14   4661 0.06123400   1.008000   ; qtot 0.623058
 4662         c3    161    bbb     C8   4662 -0.72423400  12.010000   ; qtot -0.101176
 4663         h1    161    bbb    H15   4663 0.25637600   1.008000   ; qtot 0.155200
 4664         h1    161    bbb    H16   4664 0.25637600   1.008000   ; qtot 0.411576
 4665         c3    161    bbb     C9   4665 -0.72423400  12.010000   ; qtot -0.312658
 4666         h1    161    bbb    H17   4666 0.25637600   1.008000   ; qtot -0.056282
 4667         h1    161    bbb    H18   4667 0.25637600   1.008000   ; qtot 0.200094
 4668         os    161    bbb     O1   4668 -0.20025300  16.000000   ; qtot -0.000159
; residue  162 bbb rtp bbb q -0.0
 4669         n3    162    bbb     N1   4669 -0.59685800  14.010000   ; qtot -0.597017
 4670         c3    162    bbb     C1   4670 0.10137000  12.010000   ; qtot -0.495647
 4671         h1    162    bbb     H1   4671 0.04411300   1.008000   ; qtot -0.451534
 4672         h1    162    bbb     H2   4672 0.04411300   1.008000   ; qtot -0.407421
 4673         c3    162    bbb     C2   4673 0.10137000  12.010000   ; qtot -0.306051
 4674         h1    162    bbb     H3   4674 0.04411300   1.008000   ; qtot -0.261938
 4675         h1    162    bbb     H4   4675 0.04411300   1.008000   ; qtot -0.217825
 4676         c3    162    bbb     C3   4676 -0.00195300  12.010000   ; qtot -0.219778
 4677         h1    162    bbb     H5   4677 0.05064400   1.008000   ; qtot -0.169134
 4678         h1    162    bbb     H6   4678 0.05064400   1.008000   ; qtot -0.118490
 4679         c3    162    bbb     C4   4679 -0.01612100  12.010000   ; qtot -0.134611
 4680         hc    162    bbb     H7   4680 0.04936100   1.008000   ; qtot -0.085250
 4681         hc    162    bbb     H8   4681 0.04936100   1.008000   ; qtot -0.035889
 4682         c3    162    bbb     C5   4682 0.11363000  12.010000   ; qtot 0.077741
 4683         hc    162    bbb     H9   4683 0.06265900   1.008000   ; qtot 0.140400
 4684         hc    162    bbb    H10   4684 0.06265900   1.008000   ; qtot 0.203059
 4685         c3    162    bbb     C6   4685 0.11363000  12.010000   ; qtot 0.316689
 4686         hc    162    bbb    H11   4686 0.06265900   1.008000   ; qtot 0.379348
 4687         hc    162    bbb    H12   4687 0.06265900   1.008000   ; qtot 0.442007
 4688         c3    162    bbb     C7   4688 0.05858200  12.010000   ; qtot 0.500589
 4689         h1    162    bbb    H13   4689 0.06123400   1.008000   ; qtot 0.561823
 4690         h1    162    bbb    H14   4690 0.06123400   1.008000   ; qtot 0.623057
 4691         c3    162    bbb     C8   4691 -0.72423400  12.010000   ; qtot -0.101177
 4692         h1    162    bbb    H15   4692 0.25637600   1.008000   ; qtot 0.155199
 4693         h1    162    bbb    H16   4693 0.25637600   1.008000   ; qtot 0.411575
 4694         c3    162    bbb     C9   4694 -0.72423400  12.010000   ; qtot -0.312659
 4695         h1    162    bbb    H17   4695 0.25637600   1.008000   ; qtot -0.056283
 4696         h1    162    bbb    H18   4696 0.25637600   1.008000   ; qtot 0.200093
 4697         os    162    bbb     O1   4697 -0.20025300  16.000000   ; qtot -0.000160
; residue  163 bbb rtp bbb q -0.0
 4698         n3    163    bbb     N1   4698 -0.59685800  14.010000   ; qtot -0.597018
 4699         c3    163    bbb     C1   4699 0.10137000  12.010000   ; qtot -0.495648
 4700         h1    163    bbb     H1   4700 0.04411300   1.008000   ; qtot -0.451535
 4701         h1    163    bbb     H2   4701 0.04411300   1.008000   ; qtot -0.407422
 4702         c3    163    bbb     C2   4702 0.10137000  12.010000   ; qtot -0.306052
 4703         h1    163    bbb     H3   4703 0.04411300   1.008000   ; qtot -0.261939
 4704         h1    163    bbb     H4   4704 0.04411300   1.008000   ; qtot -0.217826
 4705         c3    163    bbb     C3   4705 -0.00195300  12.010000   ; qtot -0.219779
 4706         h1    163    bbb     H5   4706 0.05064400   1.008000   ; qtot -0.169135
 4707         h1    163    bbb     H6   4707 0.05064400   1.008000   ; qtot -0.118491
 4708         c3    163    bbb     C4   4708 -0.01612100  12.010000   ; qtot -0.134612
 4709         hc    163    bbb     H7   4709 0.04936100   1.008000   ; qtot -0.085251
 4710         hc    163    bbb     H8   4710 0.04936100   1.008000   ; qtot -0.035890
 4711         c3    163    bbb     C5   4711 0.11363000  12.010000   ; qtot 0.077740
 4712         hc    163    bbb     H9   4712 0.06265900   1.008000   ; qtot 0.140399
 4713         hc    163    bbb    H10   4713 0.06265900   1.008000   ; qtot 0.203058
 4714         c3    163    bbb     C6   4714 0.11363000  12.010000   ; qtot 0.316688
 4715         hc    163    bbb    H11   4715 0.06265900   1.008000   ; qtot 0.379347
 4716         hc    163    bbb    H12   4716 0.06265900   1.008000   ; qtot 0.442006
 4717         c3    163    bbb     C7   4717 0.05858200  12.010000   ; qtot 0.500588
 4718         h1    163    bbb    H13   4718 0.06123400   1.008000   ; qtot 0.561822
 4719         h1    163    bbb    H14   4719 0.06123400   1.008000   ; qtot 0.623056
 4720         c3    163    bbb     C8   4720 -0.72423400  12.010000   ; qtot -0.101178
 4721         h1    163    bbb    H15   4721 0.25637600   1.008000   ; qtot 0.155198
 4722         h1    163    bbb    H16   4722 0.25637600   1.008000   ; qtot 0.411574
 4723         c3    163    bbb     C9   4723 -0.72423400  12.010000   ; qtot -0.312660
 4724         h1    163    bbb    H17   4724 0.25637600   1.008000   ; qtot -0.056284
 4725         h1    163    bbb    H18   4725 0.25637600   1.008000   ; qtot 0.200092
 4726         os    163    bbb     O1   4726 -0.20025300  16.000000   ; qtot -0.000161
; residue  164 bbb rtp bbb q -0.0
 4727         n3    164    bbb     N1   4727 -0.59685800  14.010000   ; qtot -0.597019
 4728         c3    164    bbb     C1   4728 0.10137000  12.010000   ; qtot -0.495649
 4729         h1    164    bbb     H1   4729 0.04411300   1.008000   ; qtot -0.451536
 4730         h1    164    bbb     H2   4730 0.04411300   1.008000   ; qtot -0.407423
 4731         c3    164    bbb     C2   4731 0.10137000  12.010000   ; qtot -0.306053
 4732         h1    164    bbb     H3   4732 0.04411300   1.008000   ; qtot -0.261940
 4733         h1    164    bbb     H4   4733 0.04411300   1.008000   ; qtot -0.217827
 4734         c3    164    bbb     C3   4734 -0.00195300  12.010000   ; qtot -0.219780
 4735         h1    164    bbb     H5   4735 0.05064400   1.008000   ; qtot -0.169136
 4736         h1    164    bbb     H6   4736 0.05064400   1.008000   ; qtot -0.118492
 4737         c3    164    bbb     C4   4737 -0.01612100  12.010000   ; qtot -0.134613
 4738         hc    164    bbb     H7   4738 0.04936100   1.008000   ; qtot -0.085252
 4739         hc    164    bbb     H8   4739 0.04936100   1.008000   ; qtot -0.035891
 4740         c3    164    bbb     C5   4740 0.11363000  12.010000   ; qtot 0.077739
 4741         hc    164    bbb     H9   4741 0.06265900   1.008000   ; qtot 0.140398
 4742         hc    164    bbb    H10   4742 0.06265900   1.008000   ; qtot 0.203057
 4743         c3    164    bbb     C6   4743 0.11363000  12.010000   ; qtot 0.316687
 4744         hc    164    bbb    H11   4744 0.06265900   1.008000   ; qtot 0.379346
 4745         hc    164    bbb    H12   4745 0.06265900   1.008000   ; qtot 0.442005
 4746         c3    164    bbb     C7   4746 0.05858200  12.010000   ; qtot 0.500587
 4747         h1    164    bbb    H13   4747 0.06123400   1.008000   ; qtot 0.561821
 4748         h1    164    bbb    H14   4748 0.06123400   1.008000   ; qtot 0.623055
 4749         c3    164    bbb     C8   4749 -0.72423400  12.010000   ; qtot -0.101179
 4750         h1    164    bbb    H15   4750 0.25637600   1.008000   ; qtot 0.155197
 4751         h1    164    bbb    H16   4751 0.25637600   1.008000   ; qtot 0.411573
 4752         c3    164    bbb     C9   4752 -0.72423400  12.010000   ; qtot -0.312661
 4753         h1    164    bbb    H17   4753 0.25637600   1.008000   ; qtot -0.056285
 4754         h1    164    bbb    H18   4754 0.25637600   1.008000   ; qtot 0.200091
 4755         os    164    bbb     O1   4755 -0.20025300  16.000000   ; qtot -0.000162
; residue  165 bbb rtp bbb q -0.0
 4756         n3    165    bbb     N1   4756 -0.59685800  14.010000   ; qtot -0.597020
 4757         c3    165    bbb     C1   4757 0.10137000  12.010000   ; qtot -0.495650
 4758         h1    165    bbb     H1   4758 0.04411300   1.008000   ; qtot -0.451537
 4759         h1    165    bbb     H2   4759 0.04411300   1.008000   ; qtot -0.407424
 4760         c3    165    bbb     C2   4760 0.10137000  12.010000   ; qtot -0.306054
 4761         h1    165    bbb     H3   4761 0.04411300   1.008000   ; qtot -0.261941
 4762         h1    165    bbb     H4   4762 0.04411300   1.008000   ; qtot -0.217828
 4763         c3    165    bbb     C3   4763 -0.00195300  12.010000   ; qtot -0.219781
 4764         h1    165    bbb     H5   4764 0.05064400   1.008000   ; qtot -0.169137
 4765         h1    165    bbb     H6   4765 0.05064400   1.008000   ; qtot -0.118493
 4766         c3    165    bbb     C4   4766 -0.01612100  12.010000   ; qtot -0.134614
 4767         hc    165    bbb     H7   4767 0.04936100   1.008000   ; qtot -0.085253
 4768         hc    165    bbb     H8   4768 0.04936100   1.008000   ; qtot -0.035892
 4769         c3    165    bbb     C5   4769 0.11363000  12.010000   ; qtot 0.077738
 4770         hc    165    bbb     H9   4770 0.06265900   1.008000   ; qtot 0.140397
 4771         hc    165    bbb    H10   4771 0.06265900   1.008000   ; qtot 0.203056
 4772         c3    165    bbb     C6   4772 0.11363000  12.010000   ; qtot 0.316686
 4773         hc    165    bbb    H11   4773 0.06265900   1.008000   ; qtot 0.379345
 4774         hc    165    bbb    H12   4774 0.06265900   1.008000   ; qtot 0.442004
 4775         c3    165    bbb     C7   4775 0.05858200  12.010000   ; qtot 0.500586
 4776         h1    165    bbb    H13   4776 0.06123400   1.008000   ; qtot 0.561820
 4777         h1    165    bbb    H14   4777 0.06123400   1.008000   ; qtot 0.623054
 4778         c3    165    bbb     C8   4778 -0.72423400  12.010000   ; qtot -0.101180
 4779         h1    165    bbb    H15   4779 0.25637600   1.008000   ; qtot 0.155196
 4780         h1    165    bbb    H16   4780 0.25637600   1.008000   ; qtot 0.411572
 4781         c3    165    bbb     C9   4781 -0.72423400  12.010000   ; qtot -0.312662
 4782         h1    165    bbb    H17   4782 0.25637600   1.008000   ; qtot -0.056286
 4783         h1    165    bbb    H18   4783 0.25637600   1.008000   ; qtot 0.200090
 4784         os    165    bbb     O1   4784 -0.20025300  16.000000   ; qtot -0.000163
; residue  166 bbb rtp bbb q -0.0
 4785         n3    166    bbb     N1   4785 -0.59685800  14.010000   ; qtot -0.597021
 4786         c3    166    bbb     C1   4786 0.10137000  12.010000   ; qtot -0.495651
 4787         h1    166    bbb     H1   4787 0.04411300   1.008000   ; qtot -0.451538
 4788         h1    166    bbb     H2   4788 0.04411300   1.008000   ; qtot -0.407425
 4789         c3    166    bbb     C2   4789 0.10137000  12.010000   ; qtot -0.306055
 4790         h1    166    bbb     H3   4790 0.04411300   1.008000   ; qtot -0.261942
 4791         h1    166    bbb     H4   4791 0.04411300   1.008000   ; qtot -0.217829
 4792         c3    166    bbb     C3   4792 -0.00195300  12.010000   ; qtot -0.219782
 4793         h1    166    bbb     H5   4793 0.05064400   1.008000   ; qtot -0.169138
 4794         h1    166    bbb     H6   4794 0.05064400   1.008000   ; qtot -0.118494
 4795         c3    166    bbb     C4   4795 -0.01612100  12.010000   ; qtot -0.134615
 4796         hc    166    bbb     H7   4796 0.04936100   1.008000   ; qtot -0.085254
 4797         hc    166    bbb     H8   4797 0.04936100   1.008000   ; qtot -0.035893
 4798         c3    166    bbb     C5   4798 0.11363000  12.010000   ; qtot 0.077737
 4799         hc    166    bbb     H9   4799 0.06265900   1.008000   ; qtot 0.140396
 4800         hc    166    bbb    H10   4800 0.06265900   1.008000   ; qtot 0.203055
 4801         c3    166    bbb     C6   4801 0.11363000  12.010000   ; qtot 0.316685
 4802         hc    166    bbb    H11   4802 0.06265900   1.008000   ; qtot 0.379344
 4803         hc    166    bbb    H12   4803 0.06265900   1.008000   ; qtot 0.442003
 4804         c3    166    bbb     C7   4804 0.05858200  12.010000   ; qtot 0.500585
 4805         h1    166    bbb    H13   4805 0.06123400   1.008000   ; qtot 0.561819
 4806         h1    166    bbb    H14   4806 0.06123400   1.008000   ; qtot 0.623053
 4807         c3    166    bbb     C8   4807 -0.72423400  12.010000   ; qtot -0.101181
 4808         h1    166    bbb    H15   4808 0.25637600   1.008000   ; qtot 0.155195
 4809         h1    166    bbb    H16   4809 0.25637600   1.008000   ; qtot 0.411571
 4810         c3    166    bbb     C9   4810 -0.72423400  12.010000   ; qtot -0.312663
 4811         h1    166    bbb    H17   4811 0.25637600   1.008000   ; qtot -0.056287
 4812         h1    166    bbb    H18   4812 0.25637600   1.008000   ; qtot 0.200089
 4813         os    166    bbb     O1   4813 -0.20025300  16.000000   ; qtot -0.000164
; residue  167 bbb rtp bbb q -0.0
 4814         n3    167    bbb     N1   4814 -0.59685800  14.010000   ; qtot -0.597022
 4815         c3    167    bbb     C1   4815 0.10137000  12.010000   ; qtot -0.495652
 4816         h1    167    bbb     H1   4816 0.04411300   1.008000   ; qtot -0.451539
 4817         h1    167    bbb     H2   4817 0.04411300   1.008000   ; qtot -0.407426
 4818         c3    167    bbb     C2   4818 0.10137000  12.010000   ; qtot -0.306056
 4819         h1    167    bbb     H3   4819 0.04411300   1.008000   ; qtot -0.261943
 4820         h1    167    bbb     H4   4820 0.04411300   1.008000   ; qtot -0.217830
 4821         c3    167    bbb     C3   4821 -0.00195300  12.010000   ; qtot -0.219783
 4822         h1    167    bbb     H5   4822 0.05064400   1.008000   ; qtot -0.169139
 4823         h1    167    bbb     H6   4823 0.05064400   1.008000   ; qtot -0.118495
 4824         c3    167    bbb     C4   4824 -0.01612100  12.010000   ; qtot -0.134616
 4825         hc    167    bbb     H7   4825 0.04936100   1.008000   ; qtot -0.085255
 4826         hc    167    bbb     H8   4826 0.04936100   1.008000   ; qtot -0.035894
 4827         c3    167    bbb     C5   4827 0.11363000  12.010000   ; qtot 0.077736
 4828         hc    167    bbb     H9   4828 0.06265900   1.008000   ; qtot 0.140395
 4829         hc    167    bbb    H10   4829 0.06265900   1.008000   ; qtot 0.203054
 4830         c3    167    bbb     C6   4830 0.11363000  12.010000   ; qtot 0.316684
 4831         hc    167    bbb    H11   4831 0.06265900   1.008000   ; qtot 0.379343
 4832         hc    167    bbb    H12   4832 0.06265900   1.008000   ; qtot 0.442002
 4833         c3    167    bbb     C7   4833 0.05858200  12.010000   ; qtot 0.500584
 4834         h1    167    bbb    H13   4834 0.06123400   1.008000   ; qtot 0.561818
 4835         h1    167    bbb    H14   4835 0.06123400   1.008000   ; qtot 0.623052
 4836         c3    167    bbb     C8   4836 -0.72423400  12.010000   ; qtot -0.101182
 4837         h1    167    bbb    H15   4837 0.25637600   1.008000   ; qtot 0.155194
 4838         h1    167    bbb    H16   4838 0.25637600   1.008000   ; qtot 0.411570
 4839         c3    167    bbb     C9   4839 -0.72423400  12.010000   ; qtot -0.312664
 4840         h1    167    bbb    H17   4840 0.25637600   1.008000   ; qtot -0.056288
 4841         h1    167    bbb    H18   4841 0.25637600   1.008000   ; qtot 0.200088
 4842         os    167    bbb     O1   4842 -0.20025300  16.000000   ; qtot -0.000165
; residue  168 bbb rtp bbb q -0.0
 4843         n3    168    bbb     N1   4843 -0.59685800  14.010000   ; qtot -0.597023
 4844         c3    168    bbb     C1   4844 0.10137000  12.010000   ; qtot -0.495653
 4845         h1    168    bbb     H1   4845 0.04411300   1.008000   ; qtot -0.451540
 4846         h1    168    bbb     H2   4846 0.04411300   1.008000   ; qtot -0.407427
 4847         c3    168    bbb     C2   4847 0.10137000  12.010000   ; qtot -0.306057
 4848         h1    168    bbb     H3   4848 0.04411300   1.008000   ; qtot -0.261944
 4849         h1    168    bbb     H4   4849 0.04411300   1.008000   ; qtot -0.217831
 4850         c3    168    bbb     C3   4850 -0.00195300  12.010000   ; qtot -0.219784
 4851         h1    168    bbb     H5   4851 0.05064400   1.008000   ; qtot -0.169140
 4852         h1    168    bbb     H6   4852 0.05064400   1.008000   ; qtot -0.118496
 4853         c3    168    bbb     C4   4853 -0.01612100  12.010000   ; qtot -0.134617
 4854         hc    168    bbb     H7   4854 0.04936100   1.008000   ; qtot -0.085256
 4855         hc    168    bbb     H8   4855 0.04936100   1.008000   ; qtot -0.035895
 4856         c3    168    bbb     C5   4856 0.11363000  12.010000   ; qtot 0.077735
 4857         hc    168    bbb     H9   4857 0.06265900   1.008000   ; qtot 0.140394
 4858         hc    168    bbb    H10   4858 0.06265900   1.008000   ; qtot 0.203053
 4859         c3    168    bbb     C6   4859 0.11363000  12.010000   ; qtot 0.316683
 4860         hc    168    bbb    H11   4860 0.06265900   1.008000   ; qtot 0.379342
 4861         hc    168    bbb    H12   4861 0.06265900   1.008000   ; qtot 0.442001
 4862         c3    168    bbb     C7   4862 0.05858200  12.010000   ; qtot 0.500583
 4863         h1    168    bbb    H13   4863 0.06123400   1.008000   ; qtot 0.561817
 4864         h1    168    bbb    H14   4864 0.06123400   1.008000   ; qtot 0.623051
 4865         c3    168    bbb     C8   4865 -0.72423400  12.010000   ; qtot -0.101183
 4866         h1    168    bbb    H15   4866 0.25637600   1.008000   ; qtot 0.155193
 4867         h1    168    bbb    H16   4867 0.25637600   1.008000   ; qtot 0.411569
 4868         c3    168    bbb     C9   4868 -0.72423400  12.010000   ; qtot -0.312665
 4869         h1    168    bbb    H17   4869 0.25637600   1.008000   ; qtot -0.056289
 4870         h1    168    bbb    H18   4870 0.25637600   1.008000   ; qtot 0.200087
 4871         os    168    bbb     O1   4871 -0.20025300  16.000000   ; qtot -0.000166
; residue  169 bbb rtp bbb q -0.0
 4872         n3    169    bbb     N1   4872 -0.59685800  14.010000   ; qtot -0.597024
 4873         c3    169    bbb     C1   4873 0.10137000  12.010000   ; qtot -0.495654
 4874         h1    169    bbb     H1   4874 0.04411300   1.008000   ; qtot -0.451541
 4875         h1    169    bbb     H2   4875 0.04411300   1.008000   ; qtot -0.407428
 4876         c3    169    bbb     C2   4876 0.10137000  12.010000   ; qtot -0.306058
 4877         h1    169    bbb     H3   4877 0.04411300   1.008000   ; qtot -0.261945
 4878         h1    169    bbb     H4   4878 0.04411300   1.008000   ; qtot -0.217832
 4879         c3    169    bbb     C3   4879 -0.00195300  12.010000   ; qtot -0.219785
 4880         h1    169    bbb     H5   4880 0.05064400   1.008000   ; qtot -0.169141
 4881         h1    169    bbb     H6   4881 0.05064400   1.008000   ; qtot -0.118497
 4882         c3    169    bbb     C4   4882 -0.01612100  12.010000   ; qtot -0.134618
 4883         hc    169    bbb     H7   4883 0.04936100   1.008000   ; qtot -0.085257
 4884         hc    169    bbb     H8   4884 0.04936100   1.008000   ; qtot -0.035896
 4885         c3    169    bbb     C5   4885 0.11363000  12.010000   ; qtot 0.077734
 4886         hc    169    bbb     H9   4886 0.06265900   1.008000   ; qtot 0.140393
 4887         hc    169    bbb    H10   4887 0.06265900   1.008000   ; qtot 0.203052
 4888         c3    169    bbb     C6   4888 0.11363000  12.010000   ; qtot 0.316682
 4889         hc    169    bbb    H11   4889 0.06265900   1.008000   ; qtot 0.379341
 4890         hc    169    bbb    H12   4890 0.06265900   1.008000   ; qtot 0.442000
 4891         c3    169    bbb     C7   4891 0.05858200  12.010000   ; qtot 0.500582
 4892         h1    169    bbb    H13   4892 0.06123400   1.008000   ; qtot 0.561816
 4893         h1    169    bbb    H14   4893 0.06123400   1.008000   ; qtot 0.623050
 4894         c3    169    bbb     C8   4894 -0.72423400  12.010000   ; qtot -0.101184
 4895         h1    169    bbb    H15   4895 0.25637600   1.008000   ; qtot 0.155192
 4896         h1    169    bbb    H16   4896 0.25637600   1.008000   ; qtot 0.411568
 4897         c3    169    bbb     C9   4897 -0.72423400  12.010000   ; qtot -0.312666
 4898         h1    169    bbb    H17   4898 0.25637600   1.008000   ; qtot -0.056290
 4899         h1    169    bbb    H18   4899 0.25637600   1.008000   ; qtot 0.200086
 4900         os    169    bbb     O1   4900 -0.20025300  16.000000   ; qtot -0.000167
; residue  170 bbb rtp bbb q -0.0
 4901         n3    170    bbb     N1   4901 -0.59685800  14.010000   ; qtot -0.597025
 4902         c3    170    bbb     C1   4902 0.10137000  12.010000   ; qtot -0.495655
 4903         h1    170    bbb     H1   4903 0.04411300   1.008000   ; qtot -0.451542
 4904         h1    170    bbb     H2   4904 0.04411300   1.008000   ; qtot -0.407429
 4905         c3    170    bbb     C2   4905 0.10137000  12.010000   ; qtot -0.306059
 4906         h1    170    bbb     H3   4906 0.04411300   1.008000   ; qtot -0.261946
 4907         h1    170    bbb     H4   4907 0.04411300   1.008000   ; qtot -0.217833
 4908         c3    170    bbb     C3   4908 -0.00195300  12.010000   ; qtot -0.219786
 4909         h1    170    bbb     H5   4909 0.05064400   1.008000   ; qtot -0.169142
 4910         h1    170    bbb     H6   4910 0.05064400   1.008000   ; qtot -0.118498
 4911         c3    170    bbb     C4   4911 -0.01612100  12.010000   ; qtot -0.134619
 4912         hc    170    bbb     H7   4912 0.04936100   1.008000   ; qtot -0.085258
 4913         hc    170    bbb     H8   4913 0.04936100   1.008000   ; qtot -0.035897
 4914         c3    170    bbb     C5   4914 0.11363000  12.010000   ; qtot 0.077733
 4915         hc    170    bbb     H9   4915 0.06265900   1.008000   ; qtot 0.140392
 4916         hc    170    bbb    H10   4916 0.06265900   1.008000   ; qtot 0.203051
 4917         c3    170    bbb     C6   4917 0.11363000  12.010000   ; qtot 0.316681
 4918         hc    170    bbb    H11   4918 0.06265900   1.008000   ; qtot 0.379340
 4919         hc    170    bbb    H12   4919 0.06265900   1.008000   ; qtot 0.441999
 4920         c3    170    bbb     C7   4920 0.05858200  12.010000   ; qtot 0.500581
 4921         h1    170    bbb    H13   4921 0.06123400   1.008000   ; qtot 0.561815
 4922         h1    170    bbb    H14   4922 0.06123400   1.008000   ; qtot 0.623049
 4923         c3    170    bbb     C8   4923 -0.72423400  12.010000   ; qtot -0.101185
 4924         h1    170    bbb    H15   4924 0.25637600   1.008000   ; qtot 0.155191
 4925         h1    170    bbb    H16   4925 0.25637600   1.008000   ; qtot 0.411567
 4926         c3    170    bbb     C9   4926 -0.72423400  12.010000   ; qtot -0.312667
 4927         h1    170    bbb    H17   4927 0.25637600   1.008000   ; qtot -0.056291
 4928         h1    170    bbb    H18   4928 0.25637600   1.008000   ; qtot 0.200085
 4929         os    170    bbb     O1   4929 -0.20025300  16.000000   ; qtot -0.000168
; residue  171 bbb rtp bbb q -0.0
 4930         n3    171    bbb     N1   4930 -0.59685800  14.010000   ; qtot -0.597026
 4931         c3    171    bbb     C1   4931 0.10137000  12.010000   ; qtot -0.495656
 4932         h1    171    bbb     H1   4932 0.04411300   1.008000   ; qtot -0.451543
 4933         h1    171    bbb     H2   4933 0.04411300   1.008000   ; qtot -0.407430
 4934         c3    171    bbb     C2   4934 0.10137000  12.010000   ; qtot -0.306060
 4935         h1    171    bbb     H3   4935 0.04411300   1.008000   ; qtot -0.261947
 4936         h1    171    bbb     H4   4936 0.04411300   1.008000   ; qtot -0.217834
 4937         c3    171    bbb     C3   4937 -0.00195300  12.010000   ; qtot -0.219787
 4938         h1    171    bbb     H5   4938 0.05064400   1.008000   ; qtot -0.169143
 4939         h1    171    bbb     H6   4939 0.05064400   1.008000   ; qtot -0.118499
 4940         c3    171    bbb     C4   4940 -0.01612100  12.010000   ; qtot -0.134620
 4941         hc    171    bbb     H7   4941 0.04936100   1.008000   ; qtot -0.085259
 4942         hc    171    bbb     H8   4942 0.04936100   1.008000   ; qtot -0.035898
 4943         c3    171    bbb     C5   4943 0.11363000  12.010000   ; qtot 0.077732
 4944         hc    171    bbb     H9   4944 0.06265900   1.008000   ; qtot 0.140391
 4945         hc    171    bbb    H10   4945 0.06265900   1.008000   ; qtot 0.203050
 4946         c3    171    bbb     C6   4946 0.11363000  12.010000   ; qtot 0.316680
 4947         hc    171    bbb    H11   4947 0.06265900   1.008000   ; qtot 0.379339
 4948         hc    171    bbb    H12   4948 0.06265900   1.008000   ; qtot 0.441998
 4949         c3    171    bbb     C7   4949 0.05858200  12.010000   ; qtot 0.500580
 4950         h1    171    bbb    H13   4950 0.06123400   1.008000   ; qtot 0.561814
 4951         h1    171    bbb    H14   4951 0.06123400   1.008000   ; qtot 0.623048
 4952         c3    171    bbb     C8   4952 -0.72423400  12.010000   ; qtot -0.101186
 4953         h1    171    bbb    H15   4953 0.25637600   1.008000   ; qtot 0.155190
 4954         h1    171    bbb    H16   4954 0.25637600   1.008000   ; qtot 0.411566
 4955         c3    171    bbb     C9   4955 -0.72423400  12.010000   ; qtot -0.312668
 4956         h1    171    bbb    H17   4956 0.25637600   1.008000   ; qtot -0.056292
 4957         h1    171    bbb    H18   4957 0.25637600   1.008000   ; qtot 0.200084
 4958         os    171    bbb     O1   4958 -0.20025300  16.000000   ; qtot -0.000169
; residue  172 bbb rtp bbb q -0.0
 4959         n3    172    bbb     N1   4959 -0.59685800  14.010000   ; qtot -0.597027
 4960         c3    172    bbb     C1   4960 0.10137000  12.010000   ; qtot -0.495657
 4961         h1    172    bbb     H1   4961 0.04411300   1.008000   ; qtot -0.451544
 4962         h1    172    bbb     H2   4962 0.04411300   1.008000   ; qtot -0.407431
 4963         c3    172    bbb     C2   4963 0.10137000  12.010000   ; qtot -0.306061
 4964         h1    172    bbb     H3   4964 0.04411300   1.008000   ; qtot -0.261948
 4965         h1    172    bbb     H4   4965 0.04411300   1.008000   ; qtot -0.217835
 4966         c3    172    bbb     C3   4966 -0.00195300  12.010000   ; qtot -0.219788
 4967         h1    172    bbb     H5   4967 0.05064400   1.008000   ; qtot -0.169144
 4968         h1    172    bbb     H6   4968 0.05064400   1.008000   ; qtot -0.118500
 4969         c3    172    bbb     C4   4969 -0.01612100  12.010000   ; qtot -0.134621
 4970         hc    172    bbb     H7   4970 0.04936100   1.008000   ; qtot -0.085260
 4971         hc    172    bbb     H8   4971 0.04936100   1.008000   ; qtot -0.035899
 4972         c3    172    bbb     C5   4972 0.11363000  12.010000   ; qtot 0.077731
 4973         hc    172    bbb     H9   4973 0.06265900   1.008000   ; qtot 0.140390
 4974         hc    172    bbb    H10   4974 0.06265900   1.008000   ; qtot 0.203049
 4975         c3    172    bbb     C6   4975 0.11363000  12.010000   ; qtot 0.316679
 4976         hc    172    bbb    H11   4976 0.06265900   1.008000   ; qtot 0.379338
 4977         hc    172    bbb    H12   4977 0.06265900   1.008000   ; qtot 0.441997
 4978         c3    172    bbb     C7   4978 0.05858200  12.010000   ; qtot 0.500579
 4979         h1    172    bbb    H13   4979 0.06123400   1.008000   ; qtot 0.561813
 4980         h1    172    bbb    H14   4980 0.06123400   1.008000   ; qtot 0.623047
 4981         c3    172    bbb     C8   4981 -0.72423400  12.010000   ; qtot -0.101187
 4982         h1    172    bbb    H15   4982 0.25637600   1.008000   ; qtot 0.155189
 4983         h1    172    bbb    H16   4983 0.25637600   1.008000   ; qtot 0.411565
 4984         c3    172    bbb     C9   4984 -0.72423400  12.010000   ; qtot -0.312669
 4985         h1    172    bbb    H17   4985 0.25637600   1.008000   ; qtot -0.056293
 4986         h1    172    bbb    H18   4986 0.25637600   1.008000   ; qtot 0.200083
 4987         os    172    bbb     O1   4987 -0.20025300  16.000000   ; qtot -0.000170
; residue  173 bbb rtp bbb q -0.0
 4988         n3    173    bbb     N1   4988 -0.59685800  14.010000   ; qtot -0.597028
 4989         c3    173    bbb     C1   4989 0.10137000  12.010000   ; qtot -0.495658
 4990         h1    173    bbb     H1   4990 0.04411300   1.008000   ; qtot -0.451545
 4991         h1    173    bbb     H2   4991 0.04411300   1.008000   ; qtot -0.407432
 4992         c3    173    bbb     C2   4992 0.10137000  12.010000   ; qtot -0.306062
 4993         h1    173    bbb     H3   4993 0.04411300   1.008000   ; qtot -0.261949
 4994         h1    173    bbb     H4   4994 0.04411300   1.008000   ; qtot -0.217836
 4995         c3    173    bbb     C3   4995 -0.00195300  12.010000   ; qtot -0.219789
 4996         h1    173    bbb     H5   4996 0.05064400   1.008000   ; qtot -0.169145
 4997         h1    173    bbb     H6   4997 0.05064400   1.008000   ; qtot -0.118501
 4998         c3    173    bbb     C4   4998 -0.01612100  12.010000   ; qtot -0.134622
 4999         hc    173    bbb     H7   4999 0.04936100   1.008000   ; qtot -0.085261
 5000         hc    173    bbb     H8   5000 0.04936100   1.008000   ; qtot -0.035900
 5001         c3    173    bbb     C5   5001 0.11363000  12.010000   ; qtot 0.077730
 5002         hc    173    bbb     H9   5002 0.06265900   1.008000   ; qtot 0.140389
 5003         hc    173    bbb    H10   5003 0.06265900   1.008000   ; qtot 0.203048
 5004         c3    173    bbb     C6   5004 0.11363000  12.010000   ; qtot 0.316678
 5005         hc    173    bbb    H11   5005 0.06265900   1.008000   ; qtot 0.379337
 5006         hc    173    bbb    H12   5006 0.06265900   1.008000   ; qtot 0.441996
 5007         c3    173    bbb     C7   5007 0.05858200  12.010000   ; qtot 0.500578
 5008         h1    173    bbb    H13   5008 0.06123400   1.008000   ; qtot 0.561812
 5009         h1    173    bbb    H14   5009 0.06123400   1.008000   ; qtot 0.623046
 5010         c3    173    bbb     C8   5010 -0.72423400  12.010000   ; qtot -0.101188
 5011         h1    173    bbb    H15   5011 0.25637600   1.008000   ; qtot 0.155188
 5012         h1    173    bbb    H16   5012 0.25637600   1.008000   ; qtot 0.411564
 5013         c3    173    bbb     C9   5013 -0.72423400  12.010000   ; qtot -0.312670
 5014         h1    173    bbb    H17   5014 0.25637600   1.008000   ; qtot -0.056294
 5015         h1    173    bbb    H18   5015 0.25637600   1.008000   ; qtot 0.200082
 5016         os    173    bbb     O1   5016 -0.20025300  16.000000   ; qtot -0.000171
; residue  174 bbb rtp bbb q -0.0
 5017         n3    174    bbb     N1   5017 -0.59685800  14.010000   ; qtot -0.597029
 5018         c3    174    bbb     C1   5018 0.10137000  12.010000   ; qtot -0.495659
 5019         h1    174    bbb     H1   5019 0.04411300   1.008000   ; qtot -0.451546
 5020         h1    174    bbb     H2   5020 0.04411300   1.008000   ; qtot -0.407433
 5021         c3    174    bbb     C2   5021 0.10137000  12.010000   ; qtot -0.306063
 5022         h1    174    bbb     H3   5022 0.04411300   1.008000   ; qtot -0.261950
 5023         h1    174    bbb     H4   5023 0.04411300   1.008000   ; qtot -0.217837
 5024         c3    174    bbb     C3   5024 -0.00195300  12.010000   ; qtot -0.219790
 5025         h1    174    bbb     H5   5025 0.05064400   1.008000   ; qtot -0.169146
 5026         h1    174    bbb     H6   5026 0.05064400   1.008000   ; qtot -0.118502
 5027         c3    174    bbb     C4   5027 -0.01612100  12.010000   ; qtot -0.134623
 5028         hc    174    bbb     H7   5028 0.04936100   1.008000   ; qtot -0.085262
 5029         hc    174    bbb     H8   5029 0.04936100   1.008000   ; qtot -0.035901
 5030         c3    174    bbb     C5   5030 0.11363000  12.010000   ; qtot 0.077729
 5031         hc    174    bbb     H9   5031 0.06265900   1.008000   ; qtot 0.140388
 5032         hc    174    bbb    H10   5032 0.06265900   1.008000   ; qtot 0.203047
 5033         c3    174    bbb     C6   5033 0.11363000  12.010000   ; qtot 0.316677
 5034         hc    174    bbb    H11   5034 0.06265900   1.008000   ; qtot 0.379336
 5035         hc    174    bbb    H12   5035 0.06265900   1.008000   ; qtot 0.441995
 5036         c3    174    bbb     C7   5036 0.05858200  12.010000   ; qtot 0.500577
 5037         h1    174    bbb    H13   5037 0.06123400   1.008000   ; qtot 0.561811
 5038         h1    174    bbb    H14   5038 0.06123400   1.008000   ; qtot 0.623045
 5039         c3    174    bbb     C8   5039 -0.72423400  12.010000   ; qtot -0.101189
 5040         h1    174    bbb    H15   5040 0.25637600   1.008000   ; qtot 0.155187
 5041         h1    174    bbb    H16   5041 0.25637600   1.008000   ; qtot 0.411563
 5042         c3    174    bbb     C9   5042 -0.72423400  12.010000   ; qtot -0.312671
 5043         h1    174    bbb    H17   5043 0.25637600   1.008000   ; qtot -0.056295
 5044         h1    174    bbb    H18   5044 0.25637600   1.008000   ; qtot 0.200081
 5045         os    174    bbb     O1   5045 -0.20025300  16.000000   ; qtot -0.000172
; residue  175 bbb rtp bbb q -0.0
 5046         n3    175    bbb     N1   5046 -0.59685800  14.010000   ; qtot -0.597030
 5047         c3    175    bbb     C1   5047 0.10137000  12.010000   ; qtot -0.495660
 5048         h1    175    bbb     H1   5048 0.04411300   1.008000   ; qtot -0.451547
 5049         h1    175    bbb     H2   5049 0.04411300   1.008000   ; qtot -0.407434
 5050         c3    175    bbb     C2   5050 0.10137000  12.010000   ; qtot -0.306064
 5051         h1    175    bbb     H3   5051 0.04411300   1.008000   ; qtot -0.261951
 5052         h1    175    bbb     H4   5052 0.04411300   1.008000   ; qtot -0.217838
 5053         c3    175    bbb     C3   5053 -0.00195300  12.010000   ; qtot -0.219791
 5054         h1    175    bbb     H5   5054 0.05064400   1.008000   ; qtot -0.169147
 5055         h1    175    bbb     H6   5055 0.05064400   1.008000   ; qtot -0.118503
 5056         c3    175    bbb     C4   5056 -0.01612100  12.010000   ; qtot -0.134624
 5057         hc    175    bbb     H7   5057 0.04936100   1.008000   ; qtot -0.085263
 5058         hc    175    bbb     H8   5058 0.04936100   1.008000   ; qtot -0.035902
 5059         c3    175    bbb     C5   5059 0.11363000  12.010000   ; qtot 0.077728
 5060         hc    175    bbb     H9   5060 0.06265900   1.008000   ; qtot 0.140387
 5061         hc    175    bbb    H10   5061 0.06265900   1.008000   ; qtot 0.203046
 5062         c3    175    bbb     C6   5062 0.11363000  12.010000   ; qtot 0.316676
 5063         hc    175    bbb    H11   5063 0.06265900   1.008000   ; qtot 0.379335
 5064         hc    175    bbb    H12   5064 0.06265900   1.008000   ; qtot 0.441994
 5065         c3    175    bbb     C7   5065 0.05858200  12.010000   ; qtot 0.500576
 5066         h1    175    bbb    H13   5066 0.06123400   1.008000   ; qtot 0.561810
 5067         h1    175    bbb    H14   5067 0.06123400   1.008000   ; qtot 0.623044
 5068         c3    175    bbb     C8   5068 -0.72423400  12.010000   ; qtot -0.101190
 5069         h1    175    bbb    H15   5069 0.25637600   1.008000   ; qtot 0.155186
 5070         h1    175    bbb    H16   5070 0.25637600   1.008000   ; qtot 0.411562
 5071         c3    175    bbb     C9   5071 -0.72423400  12.010000   ; qtot -0.312672
 5072         h1    175    bbb    H17   5072 0.25637600   1.008000   ; qtot -0.056296
 5073         h1    175    bbb    H18   5073 0.25637600   1.008000   ; qtot 0.200080
 5074         os    175    bbb     O1   5074 -0.20025300  16.000000   ; qtot -0.000173
; residue  176 bbb rtp bbb q -0.0
 5075         n3    176    bbb     N1   5075 -0.59685800  14.010000   ; qtot -0.597031
 5076         c3    176    bbb     C1   5076 0.10137000  12.010000   ; qtot -0.495661
 5077         h1    176    bbb     H1   5077 0.04411300   1.008000   ; qtot -0.451548
 5078         h1    176    bbb     H2   5078 0.04411300   1.008000   ; qtot -0.407435
 5079         c3    176    bbb     C2   5079 0.10137000  12.010000   ; qtot -0.306065
 5080         h1    176    bbb     H3   5080 0.04411300   1.008000   ; qtot -0.261952
 5081         h1    176    bbb     H4   5081 0.04411300   1.008000   ; qtot -0.217839
 5082         c3    176    bbb     C3   5082 -0.00195300  12.010000   ; qtot -0.219792
 5083         h1    176    bbb     H5   5083 0.05064400   1.008000   ; qtot -0.169148
 5084         h1    176    bbb     H6   5084 0.05064400   1.008000   ; qtot -0.118504
 5085         c3    176    bbb     C4   5085 -0.01612100  12.010000   ; qtot -0.134625
 5086         hc    176    bbb     H7   5086 0.04936100   1.008000   ; qtot -0.085264
 5087         hc    176    bbb     H8   5087 0.04936100   1.008000   ; qtot -0.035903
 5088         c3    176    bbb     C5   5088 0.11363000  12.010000   ; qtot 0.077727
 5089         hc    176    bbb     H9   5089 0.06265900   1.008000   ; qtot 0.140386
 5090         hc    176    bbb    H10   5090 0.06265900   1.008000   ; qtot 0.203045
 5091         c3    176    bbb     C6   5091 0.11363000  12.010000   ; qtot 0.316675
 5092         hc    176    bbb    H11   5092 0.06265900   1.008000   ; qtot 0.379334
 5093         hc    176    bbb    H12   5093 0.06265900   1.008000   ; qtot 0.441993
 5094         c3    176    bbb     C7   5094 0.05858200  12.010000   ; qtot 0.500575
 5095         h1    176    bbb    H13   5095 0.06123400   1.008000   ; qtot 0.561809
 5096         h1    176    bbb    H14   5096 0.06123400   1.008000   ; qtot 0.623043
 5097         c3    176    bbb     C8   5097 -0.72423400  12.010000   ; qtot -0.101191
 5098         h1    176    bbb    H15   5098 0.25637600   1.008000   ; qtot 0.155185
 5099         h1    176    bbb    H16   5099 0.25637600   1.008000   ; qtot 0.411561
 5100         c3    176    bbb     C9   5100 -0.72423400  12.010000   ; qtot -0.312673
 5101         h1    176    bbb    H17   5101 0.25637600   1.008000   ; qtot -0.056297
 5102         h1    176    bbb    H18   5102 0.25637600   1.008000   ; qtot 0.200079
 5103         os    176    bbb     O1   5103 -0.20025300  16.000000   ; qtot -0.000174
; residue  177 bbb rtp bbb q -0.0
 5104         n3    177    bbb     N1   5104 -0.59685800  14.010000   ; qtot -0.597032
 5105         c3    177    bbb     C1   5105 0.10137000  12.010000   ; qtot -0.495662
 5106         h1    177    bbb     H1   5106 0.04411300   1.008000   ; qtot -0.451549
 5107         h1    177    bbb     H2   5107 0.04411300   1.008000   ; qtot -0.407436
 5108         c3    177    bbb     C2   5108 0.10137000  12.010000   ; qtot -0.306066
 5109         h1    177    bbb     H3   5109 0.04411300   1.008000   ; qtot -0.261953
 5110         h1    177    bbb     H4   5110 0.04411300   1.008000   ; qtot -0.217840
 5111         c3    177    bbb     C3   5111 -0.00195300  12.010000   ; qtot -0.219793
 5112         h1    177    bbb     H5   5112 0.05064400   1.008000   ; qtot -0.169149
 5113         h1    177    bbb     H6   5113 0.05064400   1.008000   ; qtot -0.118505
 5114         c3    177    bbb     C4   5114 -0.01612100  12.010000   ; qtot -0.134626
 5115         hc    177    bbb     H7   5115 0.04936100   1.008000   ; qtot -0.085265
 5116         hc    177    bbb     H8   5116 0.04936100   1.008000   ; qtot -0.035904
 5117         c3    177    bbb     C5   5117 0.11363000  12.010000   ; qtot 0.077726
 5118         hc    177    bbb     H9   5118 0.06265900   1.008000   ; qtot 0.140385
 5119         hc    177    bbb    H10   5119 0.06265900   1.008000   ; qtot 0.203044
 5120         c3    177    bbb     C6   5120 0.11363000  12.010000   ; qtot 0.316674
 5121         hc    177    bbb    H11   5121 0.06265900   1.008000   ; qtot 0.379333
 5122         hc    177    bbb    H12   5122 0.06265900   1.008000   ; qtot 0.441992
 5123         c3    177    bbb     C7   5123 0.05858200  12.010000   ; qtot 0.500574
 5124         h1    177    bbb    H13   5124 0.06123400   1.008000   ; qtot 0.561808
 5125         h1    177    bbb    H14   5125 0.06123400   1.008000   ; qtot 0.623042
 5126         c3    177    bbb     C8   5126 -0.72423400  12.010000   ; qtot -0.101192
 5127         h1    177    bbb    H15   5127 0.25637600   1.008000   ; qtot 0.155184
 5128         h1    177    bbb    H16   5128 0.25637600   1.008000   ; qtot 0.411560
 5129         c3    177    bbb     C9   5129 -0.72423400  12.010000   ; qtot -0.312674
 5130         h1    177    bbb    H17   5130 0.25637600   1.008000   ; qtot -0.056298
 5131         h1    177    bbb    H18   5131 0.25637600   1.008000   ; qtot 0.200078
 5132         os    177    bbb     O1   5132 -0.20025300  16.000000   ; qtot -0.000175
; residue  178 bbb rtp bbb q -0.0
 5133         n3    178    bbb     N1   5133 -0.59685800  14.010000   ; qtot -0.597033
 5134         c3    178    bbb     C1   5134 0.10137000  12.010000   ; qtot -0.495663
 5135         h1    178    bbb     H1   5135 0.04411300   1.008000   ; qtot -0.451550
 5136         h1    178    bbb     H2   5136 0.04411300   1.008000   ; qtot -0.407437
 5137         c3    178    bbb     C2   5137 0.10137000  12.010000   ; qtot -0.306067
 5138         h1    178    bbb     H3   5138 0.04411300   1.008000   ; qtot -0.261954
 5139         h1    178    bbb     H4   5139 0.04411300   1.008000   ; qtot -0.217841
 5140         c3    178    bbb     C3   5140 -0.00195300  12.010000   ; qtot -0.219794
 5141         h1    178    bbb     H5   5141 0.05064400   1.008000   ; qtot -0.169150
 5142         h1    178    bbb     H6   5142 0.05064400   1.008000   ; qtot -0.118506
 5143         c3    178    bbb     C4   5143 -0.01612100  12.010000   ; qtot -0.134627
 5144         hc    178    bbb     H7   5144 0.04936100   1.008000   ; qtot -0.085266
 5145         hc    178    bbb     H8   5145 0.04936100   1.008000   ; qtot -0.035905
 5146         c3    178    bbb     C5   5146 0.11363000  12.010000   ; qtot 0.077725
 5147         hc    178    bbb     H9   5147 0.06265900   1.008000   ; qtot 0.140384
 5148         hc    178    bbb    H10   5148 0.06265900   1.008000   ; qtot 0.203043
 5149         c3    178    bbb     C6   5149 0.11363000  12.010000   ; qtot 0.316673
 5150         hc    178    bbb    H11   5150 0.06265900   1.008000   ; qtot 0.379332
 5151         hc    178    bbb    H12   5151 0.06265900   1.008000   ; qtot 0.441991
 5152         c3    178    bbb     C7   5152 0.05858200  12.010000   ; qtot 0.500573
 5153         h1    178    bbb    H13   5153 0.06123400   1.008000   ; qtot 0.561807
 5154         h1    178    bbb    H14   5154 0.06123400   1.008000   ; qtot 0.623041
 5155         c3    178    bbb     C8   5155 -0.72423400  12.010000   ; qtot -0.101193
 5156         h1    178    bbb    H15   5156 0.25637600   1.008000   ; qtot 0.155183
 5157         h1    178    bbb    H16   5157 0.25637600   1.008000   ; qtot 0.411559
 5158         c3    178    bbb     C9   5158 -0.72423400  12.010000   ; qtot -0.312675
 5159         h1    178    bbb    H17   5159 0.25637600   1.008000   ; qtot -0.056299
 5160         h1    178    bbb    H18   5160 0.25637600   1.008000   ; qtot 0.200077
 5161         os    178    bbb     O1   5161 -0.20025300  16.000000   ; qtot -0.000176
; residue  179 bbb rtp bbb q -0.0
 5162         n3    179    bbb     N1   5162 -0.59685800  14.010000   ; qtot -0.597034
 5163         c3    179    bbb     C1   5163 0.10137000  12.010000   ; qtot -0.495664
 5164         h1    179    bbb     H1   5164 0.04411300   1.008000   ; qtot -0.451551
 5165         h1    179    bbb     H2   5165 0.04411300   1.008000   ; qtot -0.407438
 5166         c3    179    bbb     C2   5166 0.10137000  12.010000   ; qtot -0.306068
 5167         h1    179    bbb     H3   5167 0.04411300   1.008000   ; qtot -0.261955
 5168         h1    179    bbb     H4   5168 0.04411300   1.008000   ; qtot -0.217842
 5169         c3    179    bbb     C3   5169 -0.00195300  12.010000   ; qtot -0.219795
 5170         h1    179    bbb     H5   5170 0.05064400   1.008000   ; qtot -0.169151
 5171         h1    179    bbb     H6   5171 0.05064400   1.008000   ; qtot -0.118507
 5172         c3    179    bbb     C4   5172 -0.01612100  12.010000   ; qtot -0.134628
 5173         hc    179    bbb     H7   5173 0.04936100   1.008000   ; qtot -0.085267
 5174         hc    179    bbb     H8   5174 0.04936100   1.008000   ; qtot -0.035906
 5175         c3    179    bbb     C5   5175 0.11363000  12.010000   ; qtot 0.077724
 5176         hc    179    bbb     H9   5176 0.06265900   1.008000   ; qtot 0.140383
 5177         hc    179    bbb    H10   5177 0.06265900   1.008000   ; qtot 0.203042
 5178         c3    179    bbb     C6   5178 0.11363000  12.010000   ; qtot 0.316672
 5179         hc    179    bbb    H11   5179 0.06265900   1.008000   ; qtot 0.379331
 5180         hc    179    bbb    H12   5180 0.06265900   1.008000   ; qtot 0.441990
 5181         c3    179    bbb     C7   5181 0.05858200  12.010000   ; qtot 0.500572
 5182         h1    179    bbb    H13   5182 0.06123400   1.008000   ; qtot 0.561806
 5183         h1    179    bbb    H14   5183 0.06123400   1.008000   ; qtot 0.623040
 5184         c3    179    bbb     C8   5184 -0.72423400  12.010000   ; qtot -0.101194
 5185         h1    179    bbb    H15   5185 0.25637600   1.008000   ; qtot 0.155182
 5186         h1    179    bbb    H16   5186 0.25637600   1.008000   ; qtot 0.411558
 5187         c3    179    bbb     C9   5187 -0.72423400  12.010000   ; qtot -0.312676
 5188         h1    179    bbb    H17   5188 0.25637600   1.008000   ; qtot -0.056300
 5189         h1    179    bbb    H18   5189 0.25637600   1.008000   ; qtot 0.200076
 5190         os    179    bbb     O1   5190 -0.20025300  16.000000   ; qtot -0.000177
; residue  180 bbb rtp bbb q -0.0
 5191         n3    180    bbb     N1   5191 -0.59685800  14.010000   ; qtot -0.597035
 5192         c3    180    bbb     C1   5192 0.10137000  12.010000   ; qtot -0.495665
 5193         h1    180    bbb     H1   5193 0.04411300   1.008000   ; qtot -0.451552
 5194         h1    180    bbb     H2   5194 0.04411300   1.008000   ; qtot -0.407439
 5195         c3    180    bbb     C2   5195 0.10137000  12.010000   ; qtot -0.306069
 5196         h1    180    bbb     H3   5196 0.04411300   1.008000   ; qtot -0.261956
 5197         h1    180    bbb     H4   5197 0.04411300   1.008000   ; qtot -0.217843
 5198         c3    180    bbb     C3   5198 -0.00195300  12.010000   ; qtot -0.219796
 5199         h1    180    bbb     H5   5199 0.05064400   1.008000   ; qtot -0.169152
 5200         h1    180    bbb     H6   5200 0.05064400   1.008000   ; qtot -0.118508
 5201         c3    180    bbb     C4   5201 -0.01612100  12.010000   ; qtot -0.134629
 5202         hc    180    bbb     H7   5202 0.04936100   1.008000   ; qtot -0.085268
 5203         hc    180    bbb     H8   5203 0.04936100   1.008000   ; qtot -0.035907
 5204         c3    180    bbb     C5   5204 0.11363000  12.010000   ; qtot 0.077723
 5205         hc    180    bbb     H9   5205 0.06265900   1.008000   ; qtot 0.140382
 5206         hc    180    bbb    H10   5206 0.06265900   1.008000   ; qtot 0.203041
 5207         c3    180    bbb     C6   5207 0.11363000  12.010000   ; qtot 0.316671
 5208         hc    180    bbb    H11   5208 0.06265900   1.008000   ; qtot 0.379330
 5209         hc    180    bbb    H12   5209 0.06265900   1.008000   ; qtot 0.441989
 5210         c3    180    bbb     C7   5210 0.05858200  12.010000   ; qtot 0.500571
 5211         h1    180    bbb    H13   5211 0.06123400   1.008000   ; qtot 0.561805
 5212         h1    180    bbb    H14   5212 0.06123400   1.008000   ; qtot 0.623039
 5213         c3    180    bbb     C8   5213 -0.72423400  12.010000   ; qtot -0.101195
 5214         h1    180    bbb    H15   5214 0.25637600   1.008000   ; qtot 0.155181
 5215         h1    180    bbb    H16   5215 0.25637600   1.008000   ; qtot 0.411557
 5216         c3    180    bbb     C9   5216 -0.72423400  12.010000   ; qtot -0.312677
 5217         h1    180    bbb    H17   5217 0.25637600   1.008000   ; qtot -0.056301
 5218         h1    180    bbb    H18   5218 0.25637600   1.008000   ; qtot 0.200075
 5219         os    180    bbb     O1   5219 -0.20025300  16.000000   ; qtot -0.000178
; residue  181 bbb rtp bbb q -0.0
 5220         n3    181    bbb     N1   5220 -0.59685800  14.010000   ; qtot -0.597036
 5221         c3    181    bbb     C1   5221 0.10137000  12.010000   ; qtot -0.495666
 5222         h1    181    bbb     H1   5222 0.04411300   1.008000   ; qtot -0.451553
 5223         h1    181    bbb     H2   5223 0.04411300   1.008000   ; qtot -0.407440
 5224         c3    181    bbb     C2   5224 0.10137000  12.010000   ; qtot -0.306070
 5225         h1    181    bbb     H3   5225 0.04411300   1.008000   ; qtot -0.261957
 5226         h1    181    bbb     H4   5226 0.04411300   1.008000   ; qtot -0.217844
 5227         c3    181    bbb     C3   5227 -0.00195300  12.010000   ; qtot -0.219797
 5228         h1    181    bbb     H5   5228 0.05064400   1.008000   ; qtot -0.169153
 5229         h1    181    bbb     H6   5229 0.05064400   1.008000   ; qtot -0.118509
 5230         c3    181    bbb     C4   5230 -0.01612100  12.010000   ; qtot -0.134630
 5231         hc    181    bbb     H7   5231 0.04936100   1.008000   ; qtot -0.085269
 5232         hc    181    bbb     H8   5232 0.04936100   1.008000   ; qtot -0.035908
 5233         c3    181    bbb     C5   5233 0.11363000  12.010000   ; qtot 0.077722
 5234         hc    181    bbb     H9   5234 0.06265900   1.008000   ; qtot 0.140381
 5235         hc    181    bbb    H10   5235 0.06265900   1.008000   ; qtot 0.203040
 5236         c3    181    bbb     C6   5236 0.11363000  12.010000   ; qtot 0.316670
 5237         hc    181    bbb    H11   5237 0.06265900   1.008000   ; qtot 0.379329
 5238         hc    181    bbb    H12   5238 0.06265900   1.008000   ; qtot 0.441988
 5239         c3    181    bbb     C7   5239 0.05858200  12.010000   ; qtot 0.500570
 5240         h1    181    bbb    H13   5240 0.06123400   1.008000   ; qtot 0.561804
 5241         h1    181    bbb    H14   5241 0.06123400   1.008000   ; qtot 0.623038
 5242         c3    181    bbb     C8   5242 -0.72423400  12.010000   ; qtot -0.101196
 5243         h1    181    bbb    H15   5243 0.25637600   1.008000   ; qtot 0.155180
 5244         h1    181    bbb    H16   5244 0.25637600   1.008000   ; qtot 0.411556
 5245         c3    181    bbb     C9   5245 -0.72423400  12.010000   ; qtot -0.312678
 5246         h1    181    bbb    H17   5246 0.25637600   1.008000   ; qtot -0.056302
 5247         h1    181    bbb    H18   5247 0.25637600   1.008000   ; qtot 0.200074
 5248         os    181    bbb     O1   5248 -0.20025300  16.000000   ; qtot -0.000179
; residue  182 bbb rtp bbb q -0.0
 5249         n3    182    bbb     N1   5249 -0.59685800  14.010000   ; qtot -0.597037
 5250         c3    182    bbb     C1   5250 0.10137000  12.010000   ; qtot -0.495667
 5251         h1    182    bbb     H1   5251 0.04411300   1.008000   ; qtot -0.451554
 5252         h1    182    bbb     H2   5252 0.04411300   1.008000   ; qtot -0.407441
 5253         c3    182    bbb     C2   5253 0.10137000  12.010000   ; qtot -0.306071
 5254         h1    182    bbb     H3   5254 0.04411300   1.008000   ; qtot -0.261958
 5255         h1    182    bbb     H4   5255 0.04411300   1.008000   ; qtot -0.217845
 5256         c3    182    bbb     C3   5256 -0.00195300  12.010000   ; qtot -0.219798
 5257         h1    182    bbb     H5   5257 0.05064400   1.008000   ; qtot -0.169154
 5258         h1    182    bbb     H6   5258 0.05064400   1.008000   ; qtot -0.118510
 5259         c3    182    bbb     C4   5259 -0.01612100  12.010000   ; qtot -0.134631
 5260         hc    182    bbb     H7   5260 0.04936100   1.008000   ; qtot -0.085270
 5261         hc    182    bbb     H8   5261 0.04936100   1.008000   ; qtot -0.035909
 5262         c3    182    bbb     C5   5262 0.11363000  12.010000   ; qtot 0.077721
 5263         hc    182    bbb     H9   5263 0.06265900   1.008000   ; qtot 0.140380
 5264         hc    182    bbb    H10   5264 0.06265900   1.008000   ; qtot 0.203039
 5265         c3    182    bbb     C6   5265 0.11363000  12.010000   ; qtot 0.316669
 5266         hc    182    bbb    H11   5266 0.06265900   1.008000   ; qtot 0.379328
 5267         hc    182    bbb    H12   5267 0.06265900   1.008000   ; qtot 0.441987
 5268         c3    182    bbb     C7   5268 0.05858200  12.010000   ; qtot 0.500569
 5269         h1    182    bbb    H13   5269 0.06123400   1.008000   ; qtot 0.561803
 5270         h1    182    bbb    H14   5270 0.06123400   1.008000   ; qtot 0.623037
 5271         c3    182    bbb     C8   5271 -0.72423400  12.010000   ; qtot -0.101197
 5272         h1    182    bbb    H15   5272 0.25637600   1.008000   ; qtot 0.155179
 5273         h1    182    bbb    H16   5273 0.25637600   1.008000   ; qtot 0.411555
 5274         c3    182    bbb     C9   5274 -0.72423400  12.010000   ; qtot -0.312679
 5275         h1    182    bbb    H17   5275 0.25637600   1.008000   ; qtot -0.056303
 5276         h1    182    bbb    H18   5276 0.25637600   1.008000   ; qtot 0.200073
 5277         os    182    bbb     O1   5277 -0.20025300  16.000000   ; qtot -0.000180
; residue  183 bbb rtp bbb q -0.0
 5278         n3    183    bbb     N1   5278 -0.59685800  14.010000   ; qtot -0.597038
 5279         c3    183    bbb     C1   5279 0.10137000  12.010000   ; qtot -0.495668
 5280         h1    183    bbb     H1   5280 0.04411300   1.008000   ; qtot -0.451555
 5281         h1    183    bbb     H2   5281 0.04411300   1.008000   ; qtot -0.407442
 5282         c3    183    bbb     C2   5282 0.10137000  12.010000   ; qtot -0.306072
 5283         h1    183    bbb     H3   5283 0.04411300   1.008000   ; qtot -0.261959
 5284         h1    183    bbb     H4   5284 0.04411300   1.008000   ; qtot -0.217846
 5285         c3    183    bbb     C3   5285 -0.00195300  12.010000   ; qtot -0.219799
 5286         h1    183    bbb     H5   5286 0.05064400   1.008000   ; qtot -0.169155
 5287         h1    183    bbb     H6   5287 0.05064400   1.008000   ; qtot -0.118511
 5288         c3    183    bbb     C4   5288 -0.01612100  12.010000   ; qtot -0.134632
 5289         hc    183    bbb     H7   5289 0.04936100   1.008000   ; qtot -0.085271
 5290         hc    183    bbb     H8   5290 0.04936100   1.008000   ; qtot -0.035910
 5291         c3    183    bbb     C5   5291 0.11363000  12.010000   ; qtot 0.077720
 5292         hc    183    bbb     H9   5292 0.06265900   1.008000   ; qtot 0.140379
 5293         hc    183    bbb    H10   5293 0.06265900   1.008000   ; qtot 0.203038
 5294         c3    183    bbb     C6   5294 0.11363000  12.010000   ; qtot 0.316668
 5295         hc    183    bbb    H11   5295 0.06265900   1.008000   ; qtot 0.379327
 5296         hc    183    bbb    H12   5296 0.06265900   1.008000   ; qtot 0.441986
 5297         c3    183    bbb     C7   5297 0.05858200  12.010000   ; qtot 0.500568
 5298         h1    183    bbb    H13   5298 0.06123400   1.008000   ; qtot 0.561802
 5299         h1    183    bbb    H14   5299 0.06123400   1.008000   ; qtot 0.623036
 5300         c3    183    bbb     C8   5300 -0.72423400  12.010000   ; qtot -0.101198
 5301         h1    183    bbb    H15   5301 0.25637600   1.008000   ; qtot 0.155178
 5302         h1    183    bbb    H16   5302 0.25637600   1.008000   ; qtot 0.411554
 5303         c3    183    bbb     C9   5303 -0.72423400  12.010000   ; qtot -0.312680
 5304         h1    183    bbb    H17   5304 0.25637600   1.008000   ; qtot -0.056304
 5305         h1    183    bbb    H18   5305 0.25637600   1.008000   ; qtot 0.200072
 5306         os    183    bbb     O1   5306 -0.20025300  16.000000   ; qtot -0.000181
; residue  184 bbb rtp bbb q -0.0
 5307         n3    184    bbb     N1   5307 -0.59685800  14.010000   ; qtot -0.597039
 5308         c3    184    bbb     C1   5308 0.10137000  12.010000   ; qtot -0.495669
 5309         h1    184    bbb     H1   5309 0.04411300   1.008000   ; qtot -0.451556
 5310         h1    184    bbb     H2   5310 0.04411300   1.008000   ; qtot -0.407443
 5311         c3    184    bbb     C2   5311 0.10137000  12.010000   ; qtot -0.306073
 5312         h1    184    bbb     H3   5312 0.04411300   1.008000   ; qtot -0.261960
 5313         h1    184    bbb     H4   5313 0.04411300   1.008000   ; qtot -0.217847
 5314         c3    184    bbb     C3   5314 -0.00195300  12.010000   ; qtot -0.219800
 5315         h1    184    bbb     H5   5315 0.05064400   1.008000   ; qtot -0.169156
 5316         h1    184    bbb     H6   5316 0.05064400   1.008000   ; qtot -0.118512
 5317         c3    184    bbb     C4   5317 -0.01612100  12.010000   ; qtot -0.134633
 5318         hc    184    bbb     H7   5318 0.04936100   1.008000   ; qtot -0.085272
 5319         hc    184    bbb     H8   5319 0.04936100   1.008000   ; qtot -0.035911
 5320         c3    184    bbb     C5   5320 0.11363000  12.010000   ; qtot 0.077719
 5321         hc    184    bbb     H9   5321 0.06265900   1.008000   ; qtot 0.140378
 5322         hc    184    bbb    H10   5322 0.06265900   1.008000   ; qtot 0.203037
 5323         c3    184    bbb     C6   5323 0.11363000  12.010000   ; qtot 0.316667
 5324         hc    184    bbb    H11   5324 0.06265900   1.008000   ; qtot 0.379326
 5325         hc    184    bbb    H12   5325 0.06265900   1.008000   ; qtot 0.441985
 5326         c3    184    bbb     C7   5326 0.05858200  12.010000   ; qtot 0.500567
 5327         h1    184    bbb    H13   5327 0.06123400   1.008000   ; qtot 0.561801
 5328         h1    184    bbb    H14   5328 0.06123400   1.008000   ; qtot 0.623035
 5329         c3    184    bbb     C8   5329 -0.72423400  12.010000   ; qtot -0.101199
 5330         h1    184    bbb    H15   5330 0.25637600   1.008000   ; qtot 0.155177
 5331         h1    184    bbb    H16   5331 0.25637600   1.008000   ; qtot 0.411553
 5332         c3    184    bbb     C9   5332 -0.72423400  12.010000   ; qtot -0.312681
 5333         h1    184    bbb    H17   5333 0.25637600   1.008000   ; qtot -0.056305
 5334         h1    184    bbb    H18   5334 0.25637600   1.008000   ; qtot 0.200071
 5335         os    184    bbb     O1   5335 -0.20025300  16.000000   ; qtot -0.000182
; residue  185 bbb rtp bbb q -0.0
 5336         n3    185    bbb     N1   5336 -0.59685800  14.010000   ; qtot -0.597040
 5337         c3    185    bbb     C1   5337 0.10137000  12.010000   ; qtot -0.495670
 5338         h1    185    bbb     H1   5338 0.04411300   1.008000   ; qtot -0.451557
 5339         h1    185    bbb     H2   5339 0.04411300   1.008000   ; qtot -0.407444
 5340         c3    185    bbb     C2   5340 0.10137000  12.010000   ; qtot -0.306074
 5341         h1    185    bbb     H3   5341 0.04411300   1.008000   ; qtot -0.261961
 5342         h1    185    bbb     H4   5342 0.04411300   1.008000   ; qtot -0.217848
 5343         c3    185    bbb     C3   5343 -0.00195300  12.010000   ; qtot -0.219801
 5344         h1    185    bbb     H5   5344 0.05064400   1.008000   ; qtot -0.169157
 5345         h1    185    bbb     H6   5345 0.05064400   1.008000   ; qtot -0.118513
 5346         c3    185    bbb     C4   5346 -0.01612100  12.010000   ; qtot -0.134634
 5347         hc    185    bbb     H7   5347 0.04936100   1.008000   ; qtot -0.085273
 5348         hc    185    bbb     H8   5348 0.04936100   1.008000   ; qtot -0.035912
 5349         c3    185    bbb     C5   5349 0.11363000  12.010000   ; qtot 0.077718
 5350         hc    185    bbb     H9   5350 0.06265900   1.008000   ; qtot 0.140377
 5351         hc    185    bbb    H10   5351 0.06265900   1.008000   ; qtot 0.203036
 5352         c3    185    bbb     C6   5352 0.11363000  12.010000   ; qtot 0.316666
 5353         hc    185    bbb    H11   5353 0.06265900   1.008000   ; qtot 0.379325
 5354         hc    185    bbb    H12   5354 0.06265900   1.008000   ; qtot 0.441984
 5355         c3    185    bbb     C7   5355 0.05858200  12.010000   ; qtot 0.500566
 5356         h1    185    bbb    H13   5356 0.06123400   1.008000   ; qtot 0.561800
 5357         h1    185    bbb    H14   5357 0.06123400   1.008000   ; qtot 0.623034
 5358         c3    185    bbb     C8   5358 -0.72423400  12.010000   ; qtot -0.101200
 5359         h1    185    bbb    H15   5359 0.25637600   1.008000   ; qtot 0.155176
 5360         h1    185    bbb    H16   5360 0.25637600   1.008000   ; qtot 0.411552
 5361         c3    185    bbb     C9   5361 -0.72423400  12.010000   ; qtot -0.312682
 5362         h1    185    bbb    H17   5362 0.25637600   1.008000   ; qtot -0.056306
 5363         h1    185    bbb    H18   5363 0.25637600   1.008000   ; qtot 0.200070
 5364         os    185    bbb     O1   5364 -0.20025300  16.000000   ; qtot -0.000183
; residue  186 bbb rtp bbb q -0.0
 5365         n3    186    bbb     N1   5365 -0.59685800  14.010000   ; qtot -0.597041
 5366         c3    186    bbb     C1   5366 0.10137000  12.010000   ; qtot -0.495671
 5367         h1    186    bbb     H1   5367 0.04411300   1.008000   ; qtot -0.451558
 5368         h1    186    bbb     H2   5368 0.04411300   1.008000   ; qtot -0.407445
 5369         c3    186    bbb     C2   5369 0.10137000  12.010000   ; qtot -0.306075
 5370         h1    186    bbb     H3   5370 0.04411300   1.008000   ; qtot -0.261962
 5371         h1    186    bbb     H4   5371 0.04411300   1.008000   ; qtot -0.217849
 5372         c3    186    bbb     C3   5372 -0.00195300  12.010000   ; qtot -0.219802
 5373         h1    186    bbb     H5   5373 0.05064400   1.008000   ; qtot -0.169158
 5374         h1    186    bbb     H6   5374 0.05064400   1.008000   ; qtot -0.118514
 5375         c3    186    bbb     C4   5375 -0.01612100  12.010000   ; qtot -0.134635
 5376         hc    186    bbb     H7   5376 0.04936100   1.008000   ; qtot -0.085274
 5377         hc    186    bbb     H8   5377 0.04936100   1.008000   ; qtot -0.035913
 5378         c3    186    bbb     C5   5378 0.11363000  12.010000   ; qtot 0.077717
 5379         hc    186    bbb     H9   5379 0.06265900   1.008000   ; qtot 0.140376
 5380         hc    186    bbb    H10   5380 0.06265900   1.008000   ; qtot 0.203035
 5381         c3    186    bbb     C6   5381 0.11363000  12.010000   ; qtot 0.316665
 5382         hc    186    bbb    H11   5382 0.06265900   1.008000   ; qtot 0.379324
 5383         hc    186    bbb    H12   5383 0.06265900   1.008000   ; qtot 0.441983
 5384         c3    186    bbb     C7   5384 0.05858200  12.010000   ; qtot 0.500565
 5385         h1    186    bbb    H13   5385 0.06123400   1.008000   ; qtot 0.561799
 5386         h1    186    bbb    H14   5386 0.06123400   1.008000   ; qtot 0.623033
 5387         c3    186    bbb     C8   5387 -0.72423400  12.010000   ; qtot -0.101201
 5388         h1    186    bbb    H15   5388 0.25637600   1.008000   ; qtot 0.155175
 5389         h1    186    bbb    H16   5389 0.25637600   1.008000   ; qtot 0.411551
 5390         c3    186    bbb     C9   5390 -0.72423400  12.010000   ; qtot -0.312683
 5391         h1    186    bbb    H17   5391 0.25637600   1.008000   ; qtot -0.056307
 5392         h1    186    bbb    H18   5392 0.25637600   1.008000   ; qtot 0.200069
 5393         os    186    bbb     O1   5393 -0.20025300  16.000000   ; qtot -0.000184
; residue  187 bbb rtp bbb q -0.0
 5394         n3    187    bbb     N1   5394 -0.59685800  14.010000   ; qtot -0.597042
 5395         c3    187    bbb     C1   5395 0.10137000  12.010000   ; qtot -0.495672
 5396         h1    187    bbb     H1   5396 0.04411300   1.008000   ; qtot -0.451559
 5397         h1    187    bbb     H2   5397 0.04411300   1.008000   ; qtot -0.407446
 5398         c3    187    bbb     C2   5398 0.10137000  12.010000   ; qtot -0.306076
 5399         h1    187    bbb     H3   5399 0.04411300   1.008000   ; qtot -0.261963
 5400         h1    187    bbb     H4   5400 0.04411300   1.008000   ; qtot -0.217850
 5401         c3    187    bbb     C3   5401 -0.00195300  12.010000   ; qtot -0.219803
 5402         h1    187    bbb     H5   5402 0.05064400   1.008000   ; qtot -0.169159
 5403         h1    187    bbb     H6   5403 0.05064400   1.008000   ; qtot -0.118515
 5404         c3    187    bbb     C4   5404 -0.01612100  12.010000   ; qtot -0.134636
 5405         hc    187    bbb     H7   5405 0.04936100   1.008000   ; qtot -0.085275
 5406         hc    187    bbb     H8   5406 0.04936100   1.008000   ; qtot -0.035914
 5407         c3    187    bbb     C5   5407 0.11363000  12.010000   ; qtot 0.077716
 5408         hc    187    bbb     H9   5408 0.06265900   1.008000   ; qtot 0.140375
 5409         hc    187    bbb    H10   5409 0.06265900   1.008000   ; qtot 0.203034
 5410         c3    187    bbb     C6   5410 0.11363000  12.010000   ; qtot 0.316664
 5411         hc    187    bbb    H11   5411 0.06265900   1.008000   ; qtot 0.379323
 5412         hc    187    bbb    H12   5412 0.06265900   1.008000   ; qtot 0.441982
 5413         c3    187    bbb     C7   5413 0.05858200  12.010000   ; qtot 0.500564
 5414         h1    187    bbb    H13   5414 0.06123400   1.008000   ; qtot 0.561798
 5415         h1    187    bbb    H14   5415 0.06123400   1.008000   ; qtot 0.623032
 5416         c3    187    bbb     C8   5416 -0.72423400  12.010000   ; qtot -0.101202
 5417         h1    187    bbb    H15   5417 0.25637600   1.008000   ; qtot 0.155174
 5418         h1    187    bbb    H16   5418 0.25637600   1.008000   ; qtot 0.411550
 5419         c3    187    bbb     C9   5419 -0.72423400  12.010000   ; qtot -0.312684
 5420         h1    187    bbb    H17   5420 0.25637600   1.008000   ; qtot -0.056308
 5421         h1    187    bbb    H18   5421 0.25637600   1.008000   ; qtot 0.200068
 5422         os    187    bbb     O1   5422 -0.20025300  16.000000   ; qtot -0.000185
; residue  188 bbb rtp bbb q -0.0
 5423         n3    188    bbb     N1   5423 -0.59685800  14.010000   ; qtot -0.597043
 5424         c3    188    bbb     C1   5424 0.10137000  12.010000   ; qtot -0.495673
 5425         h1    188    bbb     H1   5425 0.04411300   1.008000   ; qtot -0.451560
 5426         h1    188    bbb     H2   5426 0.04411300   1.008000   ; qtot -0.407447
 5427         c3    188    bbb     C2   5427 0.10137000  12.010000   ; qtot -0.306077
 5428         h1    188    bbb     H3   5428 0.04411300   1.008000   ; qtot -0.261964
 5429         h1    188    bbb     H4   5429 0.04411300   1.008000   ; qtot -0.217851
 5430         c3    188    bbb     C3   5430 -0.00195300  12.010000   ; qtot -0.219804
 5431         h1    188    bbb     H5   5431 0.05064400   1.008000   ; qtot -0.169160
 5432         h1    188    bbb     H6   5432 0.05064400   1.008000   ; qtot -0.118516
 5433         c3    188    bbb     C4   5433 -0.01612100  12.010000   ; qtot -0.134637
 5434         hc    188    bbb     H7   5434 0.04936100   1.008000   ; qtot -0.085276
 5435         hc    188    bbb     H8   5435 0.04936100   1.008000   ; qtot -0.035915
 5436         c3    188    bbb     C5   5436 0.11363000  12.010000   ; qtot 0.077715
 5437         hc    188    bbb     H9   5437 0.06265900   1.008000   ; qtot 0.140374
 5438         hc    188    bbb    H10   5438 0.06265900   1.008000   ; qtot 0.203033
 5439         c3    188    bbb     C6   5439 0.11363000  12.010000   ; qtot 0.316663
 5440         hc    188    bbb    H11   5440 0.06265900   1.008000   ; qtot 0.379322
 5441         hc    188    bbb    H12   5441 0.06265900   1.008000   ; qtot 0.441981
 5442         c3    188    bbb     C7   5442 0.05858200  12.010000   ; qtot 0.500563
 5443         h1    188    bbb    H13   5443 0.06123400   1.008000   ; qtot 0.561797
 5444         h1    188    bbb    H14   5444 0.06123400   1.008000   ; qtot 0.623031
 5445         c3    188    bbb     C8   5445 -0.72423400  12.010000   ; qtot -0.101203
 5446         h1    188    bbb    H15   5446 0.25637600   1.008000   ; qtot 0.155173
 5447         h1    188    bbb    H16   5447 0.25637600   1.008000   ; qtot 0.411549
 5448         c3    188    bbb     C9   5448 -0.72423400  12.010000   ; qtot -0.312685
 5449         h1    188    bbb    H17   5449 0.25637600   1.008000   ; qtot -0.056309
 5450         h1    188    bbb    H18   5450 0.25637600   1.008000   ; qtot 0.200067
 5451         os    188    bbb     O1   5451 -0.20025300  16.000000   ; qtot -0.000186
; residue  189 bbb rtp bbb q -0.0
 5452         n3    189    bbb     N1   5452 -0.59685800  14.010000   ; qtot -0.597044
 5453         c3    189    bbb     C1   5453 0.10137000  12.010000   ; qtot -0.495674
 5454         h1    189    bbb     H1   5454 0.04411300   1.008000   ; qtot -0.451561
 5455         h1    189    bbb     H2   5455 0.04411300   1.008000   ; qtot -0.407448
 5456         c3    189    bbb     C2   5456 0.10137000  12.010000   ; qtot -0.306078
 5457         h1    189    bbb     H3   5457 0.04411300   1.008000   ; qtot -0.261965
 5458         h1    189    bbb     H4   5458 0.04411300   1.008000   ; qtot -0.217852
 5459         c3    189    bbb     C3   5459 -0.00195300  12.010000   ; qtot -0.219805
 5460         h1    189    bbb     H5   5460 0.05064400   1.008000   ; qtot -0.169161
 5461         h1    189    bbb     H6   5461 0.05064400   1.008000   ; qtot -0.118517
 5462         c3    189    bbb     C4   5462 -0.01612100  12.010000   ; qtot -0.134638
 5463         hc    189    bbb     H7   5463 0.04936100   1.008000   ; qtot -0.085277
 5464         hc    189    bbb     H8   5464 0.04936100   1.008000   ; qtot -0.035916
 5465         c3    189    bbb     C5   5465 0.11363000  12.010000   ; qtot 0.077714
 5466         hc    189    bbb     H9   5466 0.06265900   1.008000   ; qtot 0.140373
 5467         hc    189    bbb    H10   5467 0.06265900   1.008000   ; qtot 0.203032
 5468         c3    189    bbb     C6   5468 0.11363000  12.010000   ; qtot 0.316662
 5469         hc    189    bbb    H11   5469 0.06265900   1.008000   ; qtot 0.379321
 5470         hc    189    bbb    H12   5470 0.06265900   1.008000   ; qtot 0.441980
 5471         c3    189    bbb     C7   5471 0.05858200  12.010000   ; qtot 0.500562
 5472         h1    189    bbb    H13   5472 0.06123400   1.008000   ; qtot 0.561796
 5473         h1    189    bbb    H14   5473 0.06123400   1.008000   ; qtot 0.623030
 5474         c3    189    bbb     C8   5474 -0.72423400  12.010000   ; qtot -0.101204
 5475         h1    189    bbb    H15   5475 0.25637600   1.008000   ; qtot 0.155172
 5476         h1    189    bbb    H16   5476 0.25637600   1.008000   ; qtot 0.411548
 5477         c3    189    bbb     C9   5477 -0.72423400  12.010000   ; qtot -0.312686
 5478         h1    189    bbb    H17   5478 0.25637600   1.008000   ; qtot -0.056310
 5479         h1    189    bbb    H18   5479 0.25637600   1.008000   ; qtot 0.200066
 5480         os    189    bbb     O1   5480 -0.20025300  16.000000   ; qtot -0.000187
; residue  190 bbb rtp bbb q -0.0
 5481         n3    190    bbb     N1   5481 -0.59685800  14.010000   ; qtot -0.597045
 5482         c3    190    bbb     C1   5482 0.10137000  12.010000   ; qtot -0.495675
 5483         h1    190    bbb     H1   5483 0.04411300   1.008000   ; qtot -0.451562
 5484         h1    190    bbb     H2   5484 0.04411300   1.008000   ; qtot -0.407449
 5485         c3    190    bbb     C2   5485 0.10137000  12.010000   ; qtot -0.306079
 5486         h1    190    bbb     H3   5486 0.04411300   1.008000   ; qtot -0.261966
 5487         h1    190    bbb     H4   5487 0.04411300   1.008000   ; qtot -0.217853
 5488         c3    190    bbb     C3   5488 -0.00195300  12.010000   ; qtot -0.219806
 5489         h1    190    bbb     H5   5489 0.05064400   1.008000   ; qtot -0.169162
 5490         h1    190    bbb     H6   5490 0.05064400   1.008000   ; qtot -0.118518
 5491         c3    190    bbb     C4   5491 -0.01612100  12.010000   ; qtot -0.134639
 5492         hc    190    bbb     H7   5492 0.04936100   1.008000   ; qtot -0.085278
 5493         hc    190    bbb     H8   5493 0.04936100   1.008000   ; qtot -0.035917
 5494         c3    190    bbb     C5   5494 0.11363000  12.010000   ; qtot 0.077713
 5495         hc    190    bbb     H9   5495 0.06265900   1.008000   ; qtot 0.140372
 5496         hc    190    bbb    H10   5496 0.06265900   1.008000   ; qtot 0.203031
 5497         c3    190    bbb     C6   5497 0.11363000  12.010000   ; qtot 0.316661
 5498         hc    190    bbb    H11   5498 0.06265900   1.008000   ; qtot 0.379320
 5499         hc    190    bbb    H12   5499 0.06265900   1.008000   ; qtot 0.441979
 5500         c3    190    bbb     C7   5500 0.05858200  12.010000   ; qtot 0.500561
 5501         h1    190    bbb    H13   5501 0.06123400   1.008000   ; qtot 0.561795
 5502         h1    190    bbb    H14   5502 0.06123400   1.008000   ; qtot 0.623029
 5503         c3    190    bbb     C8   5503 -0.72423400  12.010000   ; qtot -0.101205
 5504         h1    190    bbb    H15   5504 0.25637600   1.008000   ; qtot 0.155171
 5505         h1    190    bbb    H16   5505 0.25637600   1.008000   ; qtot 0.411547
 5506         c3    190    bbb     C9   5506 -0.72423400  12.010000   ; qtot -0.312687
 5507         h1    190    bbb    H17   5507 0.25637600   1.008000   ; qtot -0.056311
 5508         h1    190    bbb    H18   5508 0.25637600   1.008000   ; qtot 0.200065
 5509         os    190    bbb     O1   5509 -0.20025300  16.000000   ; qtot -0.000188
; residue  191 bbb rtp bbb q -0.0
 5510         n3    191    bbb     N1   5510 -0.59685800  14.010000   ; qtot -0.597046
 5511         c3    191    bbb     C1   5511 0.10137000  12.010000   ; qtot -0.495676
 5512         h1    191    bbb     H1   5512 0.04411300   1.008000   ; qtot -0.451563
 5513         h1    191    bbb     H2   5513 0.04411300   1.008000   ; qtot -0.407450
 5514         c3    191    bbb     C2   5514 0.10137000  12.010000   ; qtot -0.306080
 5515         h1    191    bbb     H3   5515 0.04411300   1.008000   ; qtot -0.261967
 5516         h1    191    bbb     H4   5516 0.04411300   1.008000   ; qtot -0.217854
 5517         c3    191    bbb     C3   5517 -0.00195300  12.010000   ; qtot -0.219807
 5518         h1    191    bbb     H5   5518 0.05064400   1.008000   ; qtot -0.169163
 5519         h1    191    bbb     H6   5519 0.05064400   1.008000   ; qtot -0.118519
 5520         c3    191    bbb     C4   5520 -0.01612100  12.010000   ; qtot -0.134640
 5521         hc    191    bbb     H7   5521 0.04936100   1.008000   ; qtot -0.085279
 5522         hc    191    bbb     H8   5522 0.04936100   1.008000   ; qtot -0.035918
 5523         c3    191    bbb     C5   5523 0.11363000  12.010000   ; qtot 0.077712
 5524         hc    191    bbb     H9   5524 0.06265900   1.008000   ; qtot 0.140371
 5525         hc    191    bbb    H10   5525 0.06265900   1.008000   ; qtot 0.203030
 5526         c3    191    bbb     C6   5526 0.11363000  12.010000   ; qtot 0.316660
 5527         hc    191    bbb    H11   5527 0.06265900   1.008000   ; qtot 0.379319
 5528         hc    191    bbb    H12   5528 0.06265900   1.008000   ; qtot 0.441978
 5529         c3    191    bbb     C7   5529 0.05858200  12.010000   ; qtot 0.500560
 5530         h1    191    bbb    H13   5530 0.06123400   1.008000   ; qtot 0.561794
 5531         h1    191    bbb    H14   5531 0.06123400   1.008000   ; qtot 0.623028
 5532         c3    191    bbb     C8   5532 -0.72423400  12.010000   ; qtot -0.101206
 5533         h1    191    bbb    H15   5533 0.25637600   1.008000   ; qtot 0.155170
 5534         h1    191    bbb    H16   5534 0.25637600   1.008000   ; qtot 0.411546
 5535         c3    191    bbb     C9   5535 -0.72423400  12.010000   ; qtot -0.312688
 5536         h1    191    bbb    H17   5536 0.25637600   1.008000   ; qtot -0.056312
 5537         h1    191    bbb    H18   5537 0.25637600   1.008000   ; qtot 0.200064
 5538         os    191    bbb     O1   5538 -0.20025300  16.000000   ; qtot -0.000189
; residue  192 bbb rtp bbb q -0.0
 5539         n3    192    bbb     N1   5539 -0.59685800  14.010000   ; qtot -0.597047
 5540         c3    192    bbb     C1   5540 0.10137000  12.010000   ; qtot -0.495677
 5541         h1    192    bbb     H1   5541 0.04411300   1.008000   ; qtot -0.451564
 5542         h1    192    bbb     H2   5542 0.04411300   1.008000   ; qtot -0.407451
 5543         c3    192    bbb     C2   5543 0.10137000  12.010000   ; qtot -0.306081
 5544         h1    192    bbb     H3   5544 0.04411300   1.008000   ; qtot -0.261968
 5545         h1    192    bbb     H4   5545 0.04411300   1.008000   ; qtot -0.217855
 5546         c3    192    bbb     C3   5546 -0.00195300  12.010000   ; qtot -0.219808
 5547         h1    192    bbb     H5   5547 0.05064400   1.008000   ; qtot -0.169164
 5548         h1    192    bbb     H6   5548 0.05064400   1.008000   ; qtot -0.118520
 5549         c3    192    bbb     C4   5549 -0.01612100  12.010000   ; qtot -0.134641
 5550         hc    192    bbb     H7   5550 0.04936100   1.008000   ; qtot -0.085280
 5551         hc    192    bbb     H8   5551 0.04936100   1.008000   ; qtot -0.035919
 5552         c3    192    bbb     C5   5552 0.11363000  12.010000   ; qtot 0.077711
 5553         hc    192    bbb     H9   5553 0.06265900   1.008000   ; qtot 0.140370
 5554         hc    192    bbb    H10   5554 0.06265900   1.008000   ; qtot 0.203029
 5555         c3    192    bbb     C6   5555 0.11363000  12.010000   ; qtot 0.316659
 5556         hc    192    bbb    H11   5556 0.06265900   1.008000   ; qtot 0.379318
 5557         hc    192    bbb    H12   5557 0.06265900   1.008000   ; qtot 0.441977
 5558         c3    192    bbb     C7   5558 0.05858200  12.010000   ; qtot 0.500559
 5559         h1    192    bbb    H13   5559 0.06123400   1.008000   ; qtot 0.561793
 5560         h1    192    bbb    H14   5560 0.06123400   1.008000   ; qtot 0.623027
 5561         c3    192    bbb     C8   5561 -0.72423400  12.010000   ; qtot -0.101207
 5562         h1    192    bbb    H15   5562 0.25637600   1.008000   ; qtot 0.155169
 5563         h1    192    bbb    H16   5563 0.25637600   1.008000   ; qtot 0.411545
 5564         c3    192    bbb     C9   5564 -0.72423400  12.010000   ; qtot -0.312689
 5565         h1    192    bbb    H17   5565 0.25637600   1.008000   ; qtot -0.056313
 5566         h1    192    bbb    H18   5566 0.25637600   1.008000   ; qtot 0.200063
 5567         os    192    bbb     O1   5567 -0.20025300  16.000000   ; qtot -0.000190
; residue  193 bbb rtp bbb q -0.0
 5568         n3    193    bbb     N1   5568 -0.59685800  14.010000   ; qtot -0.597048
 5569         c3    193    bbb     C1   5569 0.10137000  12.010000   ; qtot -0.495678
 5570         h1    193    bbb     H1   5570 0.04411300   1.008000   ; qtot -0.451565
 5571         h1    193    bbb     H2   5571 0.04411300   1.008000   ; qtot -0.407452
 5572         c3    193    bbb     C2   5572 0.10137000  12.010000   ; qtot -0.306082
 5573         h1    193    bbb     H3   5573 0.04411300   1.008000   ; qtot -0.261969
 5574         h1    193    bbb     H4   5574 0.04411300   1.008000   ; qtot -0.217856
 5575         c3    193    bbb     C3   5575 -0.00195300  12.010000   ; qtot -0.219809
 5576         h1    193    bbb     H5   5576 0.05064400   1.008000   ; qtot -0.169165
 5577         h1    193    bbb     H6   5577 0.05064400   1.008000   ; qtot -0.118521
 5578         c3    193    bbb     C4   5578 -0.01612100  12.010000   ; qtot -0.134642
 5579         hc    193    bbb     H7   5579 0.04936100   1.008000   ; qtot -0.085281
 5580         hc    193    bbb     H8   5580 0.04936100   1.008000   ; qtot -0.035920
 5581         c3    193    bbb     C5   5581 0.11363000  12.010000   ; qtot 0.077710
 5582         hc    193    bbb     H9   5582 0.06265900   1.008000   ; qtot 0.140369
 5583         hc    193    bbb    H10   5583 0.06265900   1.008000   ; qtot 0.203028
 5584         c3    193    bbb     C6   5584 0.11363000  12.010000   ; qtot 0.316658
 5585         hc    193    bbb    H11   5585 0.06265900   1.008000   ; qtot 0.379317
 5586         hc    193    bbb    H12   5586 0.06265900   1.008000   ; qtot 0.441976
 5587         c3    193    bbb     C7   5587 0.05858200  12.010000   ; qtot 0.500558
 5588         h1    193    bbb    H13   5588 0.06123400   1.008000   ; qtot 0.561792
 5589         h1    193    bbb    H14   5589 0.06123400   1.008000   ; qtot 0.623026
 5590         c3    193    bbb     C8   5590 -0.72423400  12.010000   ; qtot -0.101208
 5591         h1    193    bbb    H15   5591 0.25637600   1.008000   ; qtot 0.155168
 5592         h1    193    bbb    H16   5592 0.25637600   1.008000   ; qtot 0.411544
 5593         c3    193    bbb     C9   5593 -0.72423400  12.010000   ; qtot -0.312690
 5594         h1    193    bbb    H17   5594 0.25637600   1.008000   ; qtot -0.056314
 5595         h1    193    bbb    H18   5595 0.25637600   1.008000   ; qtot 0.200062
 5596         os    193    bbb     O1   5596 -0.20025300  16.000000   ; qtot -0.000191
; residue  194 bbb rtp bbb q -0.0
 5597         n3    194    bbb     N1   5597 -0.59685800  14.010000   ; qtot -0.597049
 5598         c3    194    bbb     C1   5598 0.10137000  12.010000   ; qtot -0.495679
 5599         h1    194    bbb     H1   5599 0.04411300   1.008000   ; qtot -0.451566
 5600         h1    194    bbb     H2   5600 0.04411300   1.008000   ; qtot -0.407453
 5601         c3    194    bbb     C2   5601 0.10137000  12.010000   ; qtot -0.306083
 5602         h1    194    bbb     H3   5602 0.04411300   1.008000   ; qtot -0.261970
 5603         h1    194    bbb     H4   5603 0.04411300   1.008000   ; qtot -0.217857
 5604         c3    194    bbb     C3   5604 -0.00195300  12.010000   ; qtot -0.219810
 5605         h1    194    bbb     H5   5605 0.05064400   1.008000   ; qtot -0.169166
 5606         h1    194    bbb     H6   5606 0.05064400   1.008000   ; qtot -0.118522
 5607         c3    194    bbb     C4   5607 -0.01612100  12.010000   ; qtot -0.134643
 5608         hc    194    bbb     H7   5608 0.04936100   1.008000   ; qtot -0.085282
 5609         hc    194    bbb     H8   5609 0.04936100   1.008000   ; qtot -0.035921
 5610         c3    194    bbb     C5   5610 0.11363000  12.010000   ; qtot 0.077709
 5611         hc    194    bbb     H9   5611 0.06265900   1.008000   ; qtot 0.140368
 5612         hc    194    bbb    H10   5612 0.06265900   1.008000   ; qtot 0.203027
 5613         c3    194    bbb     C6   5613 0.11363000  12.010000   ; qtot 0.316657
 5614         hc    194    bbb    H11   5614 0.06265900   1.008000   ; qtot 0.379316
 5615         hc    194    bbb    H12   5615 0.06265900   1.008000   ; qtot 0.441975
 5616         c3    194    bbb     C7   5616 0.05858200  12.010000   ; qtot 0.500557
 5617         h1    194    bbb    H13   5617 0.06123400   1.008000   ; qtot 0.561791
 5618         h1    194    bbb    H14   5618 0.06123400   1.008000   ; qtot 0.623025
 5619         c3    194    bbb     C8   5619 -0.72423400  12.010000   ; qtot -0.101209
 5620         h1    194    bbb    H15   5620 0.25637600   1.008000   ; qtot 0.155167
 5621         h1    194    bbb    H16   5621 0.25637600   1.008000   ; qtot 0.411543
 5622         c3    194    bbb     C9   5622 -0.72423400  12.010000   ; qtot -0.312691
 5623         h1    194    bbb    H17   5623 0.25637600   1.008000   ; qtot -0.056315
 5624         h1    194    bbb    H18   5624 0.25637600   1.008000   ; qtot 0.200061
 5625         os    194    bbb     O1   5625 -0.20025300  16.000000   ; qtot -0.000192
; residue  195 bbb rtp bbb q -0.0
 5626         n3    195    bbb     N1   5626 -0.59685800  14.010000   ; qtot -0.597050
 5627         c3    195    bbb     C1   5627 0.10137000  12.010000   ; qtot -0.495680
 5628         h1    195    bbb     H1   5628 0.04411300   1.008000   ; qtot -0.451567
 5629         h1    195    bbb     H2   5629 0.04411300   1.008000   ; qtot -0.407454
 5630         c3    195    bbb     C2   5630 0.10137000  12.010000   ; qtot -0.306084
 5631         h1    195    bbb     H3   5631 0.04411300   1.008000   ; qtot -0.261971
 5632         h1    195    bbb     H4   5632 0.04411300   1.008000   ; qtot -0.217858
 5633         c3    195    bbb     C3   5633 -0.00195300  12.010000   ; qtot -0.219811
 5634         h1    195    bbb     H5   5634 0.05064400   1.008000   ; qtot -0.169167
 5635         h1    195    bbb     H6   5635 0.05064400   1.008000   ; qtot -0.118523
 5636         c3    195    bbb     C4   5636 -0.01612100  12.010000   ; qtot -0.134644
 5637         hc    195    bbb     H7   5637 0.04936100   1.008000   ; qtot -0.085283
 5638         hc    195    bbb     H8   5638 0.04936100   1.008000   ; qtot -0.035922
 5639         c3    195    bbb     C5   5639 0.11363000  12.010000   ; qtot 0.077708
 5640         hc    195    bbb     H9   5640 0.06265900   1.008000   ; qtot 0.140367
 5641         hc    195    bbb    H10   5641 0.06265900   1.008000   ; qtot 0.203026
 5642         c3    195    bbb     C6   5642 0.11363000  12.010000   ; qtot 0.316656
 5643         hc    195    bbb    H11   5643 0.06265900   1.008000   ; qtot 0.379315
 5644         hc    195    bbb    H12   5644 0.06265900   1.008000   ; qtot 0.441974
 5645         c3    195    bbb     C7   5645 0.05858200  12.010000   ; qtot 0.500556
 5646         h1    195    bbb    H13   5646 0.06123400   1.008000   ; qtot 0.561790
 5647         h1    195    bbb    H14   5647 0.06123400   1.008000   ; qtot 0.623024
 5648         c3    195    bbb     C8   5648 -0.72423400  12.010000   ; qtot -0.101210
 5649         h1    195    bbb    H15   5649 0.25637600   1.008000   ; qtot 0.155166
 5650         h1    195    bbb    H16   5650 0.25637600   1.008000   ; qtot 0.411542
 5651         c3    195    bbb     C9   5651 -0.72423400  12.010000   ; qtot -0.312692
 5652         h1    195    bbb    H17   5652 0.25637600   1.008000   ; qtot -0.056316
 5653         h1    195    bbb    H18   5653 0.25637600   1.008000   ; qtot 0.200060
 5654         os    195    bbb     O1   5654 -0.20025300  16.000000   ; qtot -0.000193
; residue  196 bbb rtp bbb q -0.0
 5655         n3    196    bbb     N1   5655 -0.59685800  14.010000   ; qtot -0.597051
 5656         c3    196    bbb     C1   5656 0.10137000  12.010000   ; qtot -0.495681
 5657         h1    196    bbb     H1   5657 0.04411300   1.008000   ; qtot -0.451568
 5658         h1    196    bbb     H2   5658 0.04411300   1.008000   ; qtot -0.407455
 5659         c3    196    bbb     C2   5659 0.10137000  12.010000   ; qtot -0.306085
 5660         h1    196    bbb     H3   5660 0.04411300   1.008000   ; qtot -0.261972
 5661         h1    196    bbb     H4   5661 0.04411300   1.008000   ; qtot -0.217859
 5662         c3    196    bbb     C3   5662 -0.00195300  12.010000   ; qtot -0.219812
 5663         h1    196    bbb     H5   5663 0.05064400   1.008000   ; qtot -0.169168
 5664         h1    196    bbb     H6   5664 0.05064400   1.008000   ; qtot -0.118524
 5665         c3    196    bbb     C4   5665 -0.01612100  12.010000   ; qtot -0.134645
 5666         hc    196    bbb     H7   5666 0.04936100   1.008000   ; qtot -0.085284
 5667         hc    196    bbb     H8   5667 0.04936100   1.008000   ; qtot -0.035923
 5668         c3    196    bbb     C5   5668 0.11363000  12.010000   ; qtot 0.077707
 5669         hc    196    bbb     H9   5669 0.06265900   1.008000   ; qtot 0.140366
 5670         hc    196    bbb    H10   5670 0.06265900   1.008000   ; qtot 0.203025
 5671         c3    196    bbb     C6   5671 0.11363000  12.010000   ; qtot 0.316655
 5672         hc    196    bbb    H11   5672 0.06265900   1.008000   ; qtot 0.379314
 5673         hc    196    bbb    H12   5673 0.06265900   1.008000   ; qtot 0.441973
 5674         c3    196    bbb     C7   5674 0.05858200  12.010000   ; qtot 0.500555
 5675         h1    196    bbb    H13   5675 0.06123400   1.008000   ; qtot 0.561789
 5676         h1    196    bbb    H14   5676 0.06123400   1.008000   ; qtot 0.623023
 5677         c3    196    bbb     C8   5677 -0.72423400  12.010000   ; qtot -0.101211
 5678         h1    196    bbb    H15   5678 0.25637600   1.008000   ; qtot 0.155165
 5679         h1    196    bbb    H16   5679 0.25637600   1.008000   ; qtot 0.411541
 5680         c3    196    bbb     C9   5680 -0.72423400  12.010000   ; qtot -0.312693
 5681         h1    196    bbb    H17   5681 0.25637600   1.008000   ; qtot -0.056317
 5682         h1    196    bbb    H18   5682 0.25637600   1.008000   ; qtot 0.200059
 5683         os    196    bbb     O1   5683 -0.20025300  16.000000   ; qtot -0.000194
; residue  197 bbb rtp bbb q -0.0
 5684         n3    197    bbb     N1   5684 -0.59685800  14.010000   ; qtot -0.597052
 5685         c3    197    bbb     C1   5685 0.10137000  12.010000   ; qtot -0.495682
 5686         h1    197    bbb     H1   5686 0.04411300   1.008000   ; qtot -0.451569
 5687         h1    197    bbb     H2   5687 0.04411300   1.008000   ; qtot -0.407456
 5688         c3    197    bbb     C2   5688 0.10137000  12.010000   ; qtot -0.306086
 5689         h1    197    bbb     H3   5689 0.04411300   1.008000   ; qtot -0.261973
 5690         h1    197    bbb     H4   5690 0.04411300   1.008000   ; qtot -0.217860
 5691         c3    197    bbb     C3   5691 -0.00195300  12.010000   ; qtot -0.219813
 5692         h1    197    bbb     H5   5692 0.05064400   1.008000   ; qtot -0.169169
 5693         h1    197    bbb     H6   5693 0.05064400   1.008000   ; qtot -0.118525
 5694         c3    197    bbb     C4   5694 -0.01612100  12.010000   ; qtot -0.134646
 5695         hc    197    bbb     H7   5695 0.04936100   1.008000   ; qtot -0.085285
 5696         hc    197    bbb     H8   5696 0.04936100   1.008000   ; qtot -0.035924
 5697         c3    197    bbb     C5   5697 0.11363000  12.010000   ; qtot 0.077706
 5698         hc    197    bbb     H9   5698 0.06265900   1.008000   ; qtot 0.140365
 5699         hc    197    bbb    H10   5699 0.06265900   1.008000   ; qtot 0.203024
 5700         c3    197    bbb     C6   5700 0.11363000  12.010000   ; qtot 0.316654
 5701         hc    197    bbb    H11   5701 0.06265900   1.008000   ; qtot 0.379313
 5702         hc    197    bbb    H12   5702 0.06265900   1.008000   ; qtot 0.441972
 5703         c3    197    bbb     C7   5703 0.05858200  12.010000   ; qtot 0.500554
 5704         h1    197    bbb    H13   5704 0.06123400   1.008000   ; qtot 0.561788
 5705         h1    197    bbb    H14   5705 0.06123400   1.008000   ; qtot 0.623022
 5706         c3    197    bbb     C8   5706 -0.72423400  12.010000   ; qtot -0.101212
 5707         h1    197    bbb    H15   5707 0.25637600   1.008000   ; qtot 0.155164
 5708         h1    197    bbb    H16   5708 0.25637600   1.008000   ; qtot 0.411540
 5709         c3    197    bbb     C9   5709 -0.72423400  12.010000   ; qtot -0.312694
 5710         h1    197    bbb    H17   5710 0.25637600   1.008000   ; qtot -0.056318
 5711         h1    197    bbb    H18   5711 0.25637600   1.008000   ; qtot 0.200058
 5712         os    197    bbb     O1   5712 -0.20025300  16.000000   ; qtot -0.000195
; residue  198 bbb rtp bbb q -0.0
 5713         n3    198    bbb     N1   5713 -0.59685800  14.010000   ; qtot -0.597053
 5714         c3    198    bbb     C1   5714 0.10137000  12.010000   ; qtot -0.495683
 5715         h1    198    bbb     H1   5715 0.04411300   1.008000   ; qtot -0.451570
 5716         h1    198    bbb     H2   5716 0.04411300   1.008000   ; qtot -0.407457
 5717         c3    198    bbb     C2   5717 0.10137000  12.010000   ; qtot -0.306087
 5718         h1    198    bbb     H3   5718 0.04411300   1.008000   ; qtot -0.261974
 5719         h1    198    bbb     H4   5719 0.04411300   1.008000   ; qtot -0.217861
 5720         c3    198    bbb     C3   5720 -0.00195300  12.010000   ; qtot -0.219814
 5721         h1    198    bbb     H5   5721 0.05064400   1.008000   ; qtot -0.169170
 5722         h1    198    bbb     H6   5722 0.05064400   1.008000   ; qtot -0.118526
 5723         c3    198    bbb     C4   5723 -0.01612100  12.010000   ; qtot -0.134647
 5724         hc    198    bbb     H7   5724 0.04936100   1.008000   ; qtot -0.085286
 5725         hc    198    bbb     H8   5725 0.04936100   1.008000   ; qtot -0.035925
 5726         c3    198    bbb     C5   5726 0.11363000  12.010000   ; qtot 0.077705
 5727         hc    198    bbb     H9   5727 0.06265900   1.008000   ; qtot 0.140364
 5728         hc    198    bbb    H10   5728 0.06265900   1.008000   ; qtot 0.203023
 5729         c3    198    bbb     C6   5729 0.11363000  12.010000   ; qtot 0.316653
 5730         hc    198    bbb    H11   5730 0.06265900   1.008000   ; qtot 0.379312
 5731         hc    198    bbb    H12   5731 0.06265900   1.008000   ; qtot 0.441971
 5732         c3    198    bbb     C7   5732 0.05858200  12.010000   ; qtot 0.500553
 5733         h1    198    bbb    H13   5733 0.06123400   1.008000   ; qtot 0.561787
 5734         h1    198    bbb    H14   5734 0.06123400   1.008000   ; qtot 0.623021
 5735         c3    198    bbb     C8   5735 -0.72423400  12.010000   ; qtot -0.101213
 5736         h1    198    bbb    H15   5736 0.25637600   1.008000   ; qtot 0.155163
 5737         h1    198    bbb    H16   5737 0.25637600   1.008000   ; qtot 0.411539
 5738         c3    198    bbb     C9   5738 -0.72423400  12.010000   ; qtot -0.312695
 5739         h1    198    bbb    H17   5739 0.25637600   1.008000   ; qtot -0.056319
 5740         h1    198    bbb    H18   5740 0.25637600   1.008000   ; qtot 0.200057
 5741         os    198    bbb     O1   5741 -0.20025300  16.000000   ; qtot -0.000196
; residue  199 bbb rtp bbb q -0.0
 5742         n3    199    bbb     N1   5742 -0.59685800  14.010000   ; qtot -0.597054
 5743         c3    199    bbb     C1   5743 0.10137000  12.010000   ; qtot -0.495684
 5744         h1    199    bbb     H1   5744 0.04411300   1.008000   ; qtot -0.451571
 5745         h1    199    bbb     H2   5745 0.04411300   1.008000   ; qtot -0.407458
 5746         c3    199    bbb     C2   5746 0.10137000  12.010000   ; qtot -0.306088
 5747         h1    199    bbb     H3   5747 0.04411300   1.008000   ; qtot -0.261975
 5748         h1    199    bbb     H4   5748 0.04411300   1.008000   ; qtot -0.217862
 5749         c3    199    bbb     C3   5749 -0.00195300  12.010000   ; qtot -0.219815
 5750         h1    199    bbb     H5   5750 0.05064400   1.008000   ; qtot -0.169171
 5751         h1    199    bbb     H6   5751 0.05064400   1.008000   ; qtot -0.118527
 5752         c3    199    bbb     C4   5752 -0.01612100  12.010000   ; qtot -0.134648
 5753         hc    199    bbb     H7   5753 0.04936100   1.008000   ; qtot -0.085287
 5754         hc    199    bbb     H8   5754 0.04936100   1.008000   ; qtot -0.035926
 5755         c3    199    bbb     C5   5755 0.11363000  12.010000   ; qtot 0.077704
 5756         hc    199    bbb     H9   5756 0.06265900   1.008000   ; qtot 0.140363
 5757         hc    199    bbb    H10   5757 0.06265900   1.008000   ; qtot 0.203022
 5758         c3    199    bbb     C6   5758 0.11363000  12.010000   ; qtot 0.316652
 5759         hc    199    bbb    H11   5759 0.06265900   1.008000   ; qtot 0.379311
 5760         hc    199    bbb    H12   5760 0.06265900   1.008000   ; qtot 0.441970
 5761         c3    199    bbb     C7   5761 0.05858200  12.010000   ; qtot 0.500552
 5762         h1    199    bbb    H13   5762 0.06123400   1.008000   ; qtot 0.561786
 5763         h1    199    bbb    H14   5763 0.06123400   1.008000   ; qtot 0.623020
 5764         c3    199    bbb     C8   5764 -0.72423400  12.010000   ; qtot -0.101214
 5765         h1    199    bbb    H15   5765 0.25637600   1.008000   ; qtot 0.155162
 5766         h1    199    bbb    H16   5766 0.25637600   1.008000   ; qtot 0.411538
 5767         c3    199    bbb     C9   5767 -0.72423400  12.010000   ; qtot -0.312696
 5768         h1    199    bbb    H17   5768 0.25637600   1.008000   ; qtot -0.056320
 5769         h1    199    bbb    H18   5769 0.25637600   1.008000   ; qtot 0.200056
 5770         os    199    bbb     O1   5770 -0.20025300  16.000000   ; qtot -0.000197
; residue  200 bbb rtp bbb q -0.0
 5771         n3    200    bbb     N1   5771 -0.59685800  14.010000   ; qtot -0.597055
 5772         c3    200    bbb     C1   5772 0.10137000  12.010000   ; qtot -0.495685
 5773         h1    200    bbb     H1   5773 0.04411300   1.008000   ; qtot -0.451572
 5774         h1    200    bbb     H2   5774 0.04411300   1.008000   ; qtot -0.407459
 5775         c3    200    bbb     C2   5775 0.10137000  12.010000   ; qtot -0.306089
 5776         h1    200    bbb     H3   5776 0.04411300   1.008000   ; qtot -0.261976
 5777         h1    200    bbb     H4   5777 0.04411300   1.008000   ; qtot -0.217863
 5778         c3    200    bbb     C3   5778 -0.00195300  12.010000   ; qtot -0.219816
 5779         h1    200    bbb     H5   5779 0.05064400   1.008000   ; qtot -0.169172
 5780         h1    200    bbb     H6   5780 0.05064400   1.008000   ; qtot -0.118528
 5781         c3    200    bbb     C4   5781 -0.01612100  12.010000   ; qtot -0.134649
 5782         hc    200    bbb     H7   5782 0.04936100   1.008000   ; qtot -0.085288
 5783         hc    200    bbb     H8   5783 0.04936100   1.008000   ; qtot -0.035927
 5784         c3    200    bbb     C5   5784 0.11363000  12.010000   ; qtot 0.077703
 5785         hc    200    bbb     H9   5785 0.06265900   1.008000   ; qtot 0.140362
 5786         hc    200    bbb    H10   5786 0.06265900   1.008000   ; qtot 0.203021
 5787         c3    200    bbb     C6   5787 0.11363000  12.010000   ; qtot 0.316651
 5788         hc    200    bbb    H11   5788 0.06265900   1.008000   ; qtot 0.379310
 5789         hc    200    bbb    H12   5789 0.06265900   1.008000   ; qtot 0.441969
 5790         c3    200    bbb     C7   5790 0.05858200  12.010000   ; qtot 0.500551
 5791         h1    200    bbb    H13   5791 0.06123400   1.008000   ; qtot 0.561785
 5792         h1    200    bbb    H14   5792 0.06123400   1.008000   ; qtot 0.623019
 5793         c3    200    bbb     C8   5793 -0.72423400  12.010000   ; qtot -0.101215
 5794         h1    200    bbb    H15   5794 0.25637600   1.008000   ; qtot 0.155161
 5795         h1    200    bbb    H16   5795 0.25637600   1.008000   ; qtot 0.411537
 5796         c3    200    bbb     C9   5796 -0.72423400  12.010000   ; qtot -0.312697
 5797         h1    200    bbb    H17   5797 0.25637600   1.008000   ; qtot -0.056321
 5798         h1    200    bbb    H18   5798 0.25637600   1.008000   ; qtot 0.200055
 5799         os    200    bbb     O1   5799 -0.20025300  16.000000   ; qtot -0.000198
; residue  201 bbb rtp bbb q -0.0
 5800         n3    201    bbb     N1   5800 -0.59685800  14.010000   ; qtot -0.597056
 5801         c3    201    bbb     C1   5801 0.10137000  12.010000   ; qtot -0.495686
 5802         h1    201    bbb     H1   5802 0.04411300   1.008000   ; qtot -0.451573
 5803         h1    201    bbb     H2   5803 0.04411300   1.008000   ; qtot -0.407460
 5804         c3    201    bbb     C2   5804 0.10137000  12.010000   ; qtot -0.306090
 5805         h1    201    bbb     H3   5805 0.04411300   1.008000   ; qtot -0.261977
 5806         h1    201    bbb     H4   5806 0.04411300   1.008000   ; qtot -0.217864
 5807         c3    201    bbb     C3   5807 -0.00195300  12.010000   ; qtot -0.219817
 5808         h1    201    bbb     H5   5808 0.05064400   1.008000   ; qtot -0.169173
 5809         h1    201    bbb     H6   5809 0.05064400   1.008000   ; qtot -0.118529
 5810         c3    201    bbb     C4   5810 -0.01612100  12.010000   ; qtot -0.134650
 5811         hc    201    bbb     H7   5811 0.04936100   1.008000   ; qtot -0.085289
 5812         hc    201    bbb     H8   5812 0.04936100   1.008000   ; qtot -0.035928
 5813         c3    201    bbb     C5   5813 0.11363000  12.010000   ; qtot 0.077702
 5814         hc    201    bbb     H9   5814 0.06265900   1.008000   ; qtot 0.140361
 5815         hc    201    bbb    H10   5815 0.06265900   1.008000   ; qtot 0.203020
 5816         c3    201    bbb     C6   5816 0.11363000  12.010000   ; qtot 0.316650
 5817         hc    201    bbb    H11   5817 0.06265900   1.008000   ; qtot 0.379309
 5818         hc    201    bbb    H12   5818 0.06265900   1.008000   ; qtot 0.441968
 5819         c3    201    bbb     C7   5819 0.05858200  12.010000   ; qtot 0.500550
 5820         h1    201    bbb    H13   5820 0.06123400   1.008000   ; qtot 0.561784
 5821         h1    201    bbb    H14   5821 0.06123400   1.008000   ; qtot 0.623018
 5822         c3    201    bbb     C8   5822 -0.72423400  12.010000   ; qtot -0.101216
 5823         h1    201    bbb    H15   5823 0.25637600   1.008000   ; qtot 0.155160
 5824         h1    201    bbb    H16   5824 0.25637600   1.008000   ; qtot 0.411536
 5825         c3    201    bbb     C9   5825 -0.72423400  12.010000   ; qtot -0.312698
 5826         h1    201    bbb    H17   5826 0.25637600   1.008000   ; qtot -0.056322
 5827         h1    201    bbb    H18   5827 0.25637600   1.008000   ; qtot 0.200054
 5828         os    201    bbb     O1   5828 -0.20025300  16.000000   ; qtot -0.000199
; residue  202 bbb rtp bbb q -0.0
 5829         n3    202    bbb     N1   5829 -0.59685800  14.010000   ; qtot -0.597057
 5830         c3    202    bbb     C1   5830 0.10137000  12.010000   ; qtot -0.495687
 5831         h1    202    bbb     H1   5831 0.04411300   1.008000   ; qtot -0.451574
 5832         h1    202    bbb     H2   5832 0.04411300   1.008000   ; qtot -0.407461
 5833         c3    202    bbb     C2   5833 0.10137000  12.010000   ; qtot -0.306091
 5834         h1    202    bbb     H3   5834 0.04411300   1.008000   ; qtot -0.261978
 5835         h1    202    bbb     H4   5835 0.04411300   1.008000   ; qtot -0.217865
 5836         c3    202    bbb     C3   5836 -0.00195300  12.010000   ; qtot -0.219818
 5837         h1    202    bbb     H5   5837 0.05064400   1.008000   ; qtot -0.169174
 5838         h1    202    bbb     H6   5838 0.05064400   1.008000   ; qtot -0.118530
 5839         c3    202    bbb     C4   5839 -0.01612100  12.010000   ; qtot -0.134651
 5840         hc    202    bbb     H7   5840 0.04936100   1.008000   ; qtot -0.085290
 5841         hc    202    bbb     H8   5841 0.04936100   1.008000   ; qtot -0.035929
 5842         c3    202    bbb     C5   5842 0.11363000  12.010000   ; qtot 0.077701
 5843         hc    202    bbb     H9   5843 0.06265900   1.008000   ; qtot 0.140360
 5844         hc    202    bbb    H10   5844 0.06265900   1.008000   ; qtot 0.203019
 5845         c3    202    bbb     C6   5845 0.11363000  12.010000   ; qtot 0.316649
 5846         hc    202    bbb    H11   5846 0.06265900   1.008000   ; qtot 0.379308
 5847         hc    202    bbb    H12   5847 0.06265900   1.008000   ; qtot 0.441967
 5848         c3    202    bbb     C7   5848 0.05858200  12.010000   ; qtot 0.500549
 5849         h1    202    bbb    H13   5849 0.06123400   1.008000   ; qtot 0.561783
 5850         h1    202    bbb    H14   5850 0.06123400   1.008000   ; qtot 0.623017
 5851         c3    202    bbb     C8   5851 -0.72423400  12.010000   ; qtot -0.101217
 5852         h1    202    bbb    H15   5852 0.25637600   1.008000   ; qtot 0.155159
 5853         h1    202    bbb    H16   5853 0.25637600   1.008000   ; qtot 0.411535
 5854         c3    202    bbb     C9   5854 -0.72423400  12.010000   ; qtot -0.312699
 5855         h1    202    bbb    H17   5855 0.25637600   1.008000   ; qtot -0.056323
 5856         h1    202    bbb    H18   5856 0.25637600   1.008000   ; qtot 0.200053
 5857         os    202    bbb     O1   5857 -0.20025300  16.000000   ; qtot -0.000200
; residue  203 bbb rtp bbb q -0.0
 5858         n3    203    bbb     N1   5858 -0.59685800  14.010000   ; qtot -0.597058
 5859         c3    203    bbb     C1   5859 0.10137000  12.010000   ; qtot -0.495688
 5860         h1    203    bbb     H1   5860 0.04411300   1.008000   ; qtot -0.451575
 5861         h1    203    bbb     H2   5861 0.04411300   1.008000   ; qtot -0.407462
 5862         c3    203    bbb     C2   5862 0.10137000  12.010000   ; qtot -0.306092
 5863         h1    203    bbb     H3   5863 0.04411300   1.008000   ; qtot -0.261979
 5864         h1    203    bbb     H4   5864 0.04411300   1.008000   ; qtot -0.217866
 5865         c3    203    bbb     C3   5865 -0.00195300  12.010000   ; qtot -0.219819
 5866         h1    203    bbb     H5   5866 0.05064400   1.008000   ; qtot -0.169175
 5867         h1    203    bbb     H6   5867 0.05064400   1.008000   ; qtot -0.118531
 5868         c3    203    bbb     C4   5868 -0.01612100  12.010000   ; qtot -0.134652
 5869         hc    203    bbb     H7   5869 0.04936100   1.008000   ; qtot -0.085291
 5870         hc    203    bbb     H8   5870 0.04936100   1.008000   ; qtot -0.035930
 5871         c3    203    bbb     C5   5871 0.11363000  12.010000   ; qtot 0.077700
 5872         hc    203    bbb     H9   5872 0.06265900   1.008000   ; qtot 0.140359
 5873         hc    203    bbb    H10   5873 0.06265900   1.008000   ; qtot 0.203018
 5874         c3    203    bbb     C6   5874 0.11363000  12.010000   ; qtot 0.316648
 5875         hc    203    bbb    H11   5875 0.06265900   1.008000   ; qtot 0.379307
 5876         hc    203    bbb    H12   5876 0.06265900   1.008000   ; qtot 0.441966
 5877         c3    203    bbb     C7   5877 0.05858200  12.010000   ; qtot 0.500548
 5878         h1    203    bbb    H13   5878 0.06123400   1.008000   ; qtot 0.561782
 5879         h1    203    bbb    H14   5879 0.06123400   1.008000   ; qtot 0.623016
 5880         c3    203    bbb     C8   5880 -0.72423400  12.010000   ; qtot -0.101218
 5881         h1    203    bbb    H15   5881 0.25637600   1.008000   ; qtot 0.155158
 5882         h1    203    bbb    H16   5882 0.25637600   1.008000   ; qtot 0.411534
 5883         c3    203    bbb     C9   5883 -0.72423400  12.010000   ; qtot -0.312700
 5884         h1    203    bbb    H17   5884 0.25637600   1.008000   ; qtot -0.056324
 5885         h1    203    bbb    H18   5885 0.25637600   1.008000   ; qtot 0.200052
 5886         os    203    bbb     O1   5886 -0.20025300  16.000000   ; qtot -0.000201
; residue  204 bbb rtp bbb q -0.0
 5887         n3    204    bbb     N1   5887 -0.59685800  14.010000   ; qtot -0.597059
 5888         c3    204    bbb     C1   5888 0.10137000  12.010000   ; qtot -0.495689
 5889         h1    204    bbb     H1   5889 0.04411300   1.008000   ; qtot -0.451576
 5890         h1    204    bbb     H2   5890 0.04411300   1.008000   ; qtot -0.407463
 5891         c3    204    bbb     C2   5891 0.10137000  12.010000   ; qtot -0.306093
 5892         h1    204    bbb     H3   5892 0.04411300   1.008000   ; qtot -0.261980
 5893         h1    204    bbb     H4   5893 0.04411300   1.008000   ; qtot -0.217867
 5894         c3    204    bbb     C3   5894 -0.00195300  12.010000   ; qtot -0.219820
 5895         h1    204    bbb     H5   5895 0.05064400   1.008000   ; qtot -0.169176
 5896         h1    204    bbb     H6   5896 0.05064400   1.008000   ; qtot -0.118532
 5897         c3    204    bbb     C4   5897 -0.01612100  12.010000   ; qtot -0.134653
 5898         hc    204    bbb     H7   5898 0.04936100   1.008000   ; qtot -0.085292
 5899         hc    204    bbb     H8   5899 0.04936100   1.008000   ; qtot -0.035931
 5900         c3    204    bbb     C5   5900 0.11363000  12.010000   ; qtot 0.077699
 5901         hc    204    bbb     H9   5901 0.06265900   1.008000   ; qtot 0.140358
 5902         hc    204    bbb    H10   5902 0.06265900   1.008000   ; qtot 0.203017
 5903         c3    204    bbb     C6   5903 0.11363000  12.010000   ; qtot 0.316647
 5904         hc    204    bbb    H11   5904 0.06265900   1.008000   ; qtot 0.379306
 5905         hc    204    bbb    H12   5905 0.06265900   1.008000   ; qtot 0.441965
 5906         c3    204    bbb     C7   5906 0.05858200  12.010000   ; qtot 0.500547
 5907         h1    204    bbb    H13   5907 0.06123400   1.008000   ; qtot 0.561781
 5908         h1    204    bbb    H14   5908 0.06123400   1.008000   ; qtot 0.623015
 5909         c3    204    bbb     C8   5909 -0.72423400  12.010000   ; qtot -0.101219
 5910         h1    204    bbb    H15   5910 0.25637600   1.008000   ; qtot 0.155157
 5911         h1    204    bbb    H16   5911 0.25637600   1.008000   ; qtot 0.411533
 5912         c3    204    bbb     C9   5912 -0.72423400  12.010000   ; qtot -0.312701
 5913         h1    204    bbb    H17   5913 0.25637600   1.008000   ; qtot -0.056325
 5914         h1    204    bbb    H18   5914 0.25637600   1.008000   ; qtot 0.200051
 5915         os    204    bbb     O1   5915 -0.20025300  16.000000   ; qtot -0.000202
; residue  205 bbb rtp bbb q -0.0
 5916         n3    205    bbb     N1   5916 -0.59685800  14.010000   ; qtot -0.597060
 5917         c3    205    bbb     C1   5917 0.10137000  12.010000   ; qtot -0.495690
 5918         h1    205    bbb     H1   5918 0.04411300   1.008000   ; qtot -0.451577
 5919         h1    205    bbb     H2   5919 0.04411300   1.008000   ; qtot -0.407464
 5920         c3    205    bbb     C2   5920 0.10137000  12.010000   ; qtot -0.306094
 5921         h1    205    bbb     H3   5921 0.04411300   1.008000   ; qtot -0.261981
 5922         h1    205    bbb     H4   5922 0.04411300   1.008000   ; qtot -0.217868
 5923         c3    205    bbb     C3   5923 -0.00195300  12.010000   ; qtot -0.219821
 5924         h1    205    bbb     H5   5924 0.05064400   1.008000   ; qtot -0.169177
 5925         h1    205    bbb     H6   5925 0.05064400   1.008000   ; qtot -0.118533
 5926         c3    205    bbb     C4   5926 -0.01612100  12.010000   ; qtot -0.134654
 5927         hc    205    bbb     H7   5927 0.04936100   1.008000   ; qtot -0.085293
 5928         hc    205    bbb     H8   5928 0.04936100   1.008000   ; qtot -0.035932
 5929         c3    205    bbb     C5   5929 0.11363000  12.010000   ; qtot 0.077698
 5930         hc    205    bbb     H9   5930 0.06265900   1.008000   ; qtot 0.140357
 5931         hc    205    bbb    H10   5931 0.06265900   1.008000   ; qtot 0.203016
 5932         c3    205    bbb     C6   5932 0.11363000  12.010000   ; qtot 0.316646
 5933         hc    205    bbb    H11   5933 0.06265900   1.008000   ; qtot 0.379305
 5934         hc    205    bbb    H12   5934 0.06265900   1.008000   ; qtot 0.441964
 5935         c3    205    bbb     C7   5935 0.05858200  12.010000   ; qtot 0.500546
 5936         h1    205    bbb    H13   5936 0.06123400   1.008000   ; qtot 0.561780
 5937         h1    205    bbb    H14   5937 0.06123400   1.008000   ; qtot 0.623014
 5938         c3    205    bbb     C8   5938 -0.72423400  12.010000   ; qtot -0.101220
 5939         h1    205    bbb    H15   5939 0.25637600   1.008000   ; qtot 0.155156
 5940         h1    205    bbb    H16   5940 0.25637600   1.008000   ; qtot 0.411532
 5941         c3    205    bbb     C9   5941 -0.72423400  12.010000   ; qtot -0.312702
 5942         h1    205    bbb    H17   5942 0.25637600   1.008000   ; qtot -0.056326
 5943         h1    205    bbb    H18   5943 0.25637600   1.008000   ; qtot 0.200050
 5944         os    205    bbb     O1   5944 -0.20025300  16.000000   ; qtot -0.000203
; residue  206 bbb rtp bbb q -0.0
 5945         n3    206    bbb     N1   5945 -0.59685800  14.010000   ; qtot -0.597061
 5946         c3    206    bbb     C1   5946 0.10137000  12.010000   ; qtot -0.495691
 5947         h1    206    bbb     H1   5947 0.04411300   1.008000   ; qtot -0.451578
 5948         h1    206    bbb     H2   5948 0.04411300   1.008000   ; qtot -0.407465
 5949         c3    206    bbb     C2   5949 0.10137000  12.010000   ; qtot -0.306095
 5950         h1    206    bbb     H3   5950 0.04411300   1.008000   ; qtot -0.261982
 5951         h1    206    bbb     H4   5951 0.04411300   1.008000   ; qtot -0.217869
 5952         c3    206    bbb     C3   5952 -0.00195300  12.010000   ; qtot -0.219822
 5953         h1    206    bbb     H5   5953 0.05064400   1.008000   ; qtot -0.169178
 5954         h1    206    bbb     H6   5954 0.05064400   1.008000   ; qtot -0.118534
 5955         c3    206    bbb     C4   5955 -0.01612100  12.010000   ; qtot -0.134655
 5956         hc    206    bbb     H7   5956 0.04936100   1.008000   ; qtot -0.085294
 5957         hc    206    bbb     H8   5957 0.04936100   1.008000   ; qtot -0.035933
 5958         c3    206    bbb     C5   5958 0.11363000  12.010000   ; qtot 0.077697
 5959         hc    206    bbb     H9   5959 0.06265900   1.008000   ; qtot 0.140356
 5960         hc    206    bbb    H10   5960 0.06265900   1.008000   ; qtot 0.203015
 5961         c3    206    bbb     C6   5961 0.11363000  12.010000   ; qtot 0.316645
 5962         hc    206    bbb    H11   5962 0.06265900   1.008000   ; qtot 0.379304
 5963         hc    206    bbb    H12   5963 0.06265900   1.008000   ; qtot 0.441963
 5964         c3    206    bbb     C7   5964 0.05858200  12.010000   ; qtot 0.500545
 5965         h1    206    bbb    H13   5965 0.06123400   1.008000   ; qtot 0.561779
 5966         h1    206    bbb    H14   5966 0.06123400   1.008000   ; qtot 0.623013
 5967         c3    206    bbb     C8   5967 -0.72423400  12.010000   ; qtot -0.101221
 5968         h1    206    bbb    H15   5968 0.25637600   1.008000   ; qtot 0.155155
 5969         h1    206    bbb    H16   5969 0.25637600   1.008000   ; qtot 0.411531
 5970         c3    206    bbb     C9   5970 -0.72423400  12.010000   ; qtot -0.312703
 5971         h1    206    bbb    H17   5971 0.25637600   1.008000   ; qtot -0.056327
 5972         h1    206    bbb    H18   5972 0.25637600   1.008000   ; qtot 0.200049
 5973         os    206    bbb     O1   5973 -0.20025300  16.000000   ; qtot -0.000204
; residue  207 bbb rtp bbb q -0.0
 5974         n3    207    bbb     N1   5974 -0.59685800  14.010000   ; qtot -0.597062
 5975         c3    207    bbb     C1   5975 0.10137000  12.010000   ; qtot -0.495692
 5976         h1    207    bbb     H1   5976 0.04411300   1.008000   ; qtot -0.451579
 5977         h1    207    bbb     H2   5977 0.04411300   1.008000   ; qtot -0.407466
 5978         c3    207    bbb     C2   5978 0.10137000  12.010000   ; qtot -0.306096
 5979         h1    207    bbb     H3   5979 0.04411300   1.008000   ; qtot -0.261983
 5980         h1    207    bbb     H4   5980 0.04411300   1.008000   ; qtot -0.217870
 5981         c3    207    bbb     C3   5981 -0.00195300  12.010000   ; qtot -0.219823
 5982         h1    207    bbb     H5   5982 0.05064400   1.008000   ; qtot -0.169179
 5983         h1    207    bbb     H6   5983 0.05064400   1.008000   ; qtot -0.118535
 5984         c3    207    bbb     C4   5984 -0.01612100  12.010000   ; qtot -0.134656
 5985         hc    207    bbb     H7   5985 0.04936100   1.008000   ; qtot -0.085295
 5986         hc    207    bbb     H8   5986 0.04936100   1.008000   ; qtot -0.035934
 5987         c3    207    bbb     C5   5987 0.11363000  12.010000   ; qtot 0.077696
 5988         hc    207    bbb     H9   5988 0.06265900   1.008000   ; qtot 0.140355
 5989         hc    207    bbb    H10   5989 0.06265900   1.008000   ; qtot 0.203014
 5990         c3    207    bbb     C6   5990 0.11363000  12.010000   ; qtot 0.316644
 5991         hc    207    bbb    H11   5991 0.06265900   1.008000   ; qtot 0.379303
 5992         hc    207    bbb    H12   5992 0.06265900   1.008000   ; qtot 0.441962
 5993         c3    207    bbb     C7   5993 0.05858200  12.010000   ; qtot 0.500544
 5994         h1    207    bbb    H13   5994 0.06123400   1.008000   ; qtot 0.561778
 5995         h1    207    bbb    H14   5995 0.06123400   1.008000   ; qtot 0.623012
 5996         c3    207    bbb     C8   5996 -0.72423400  12.010000   ; qtot -0.101222
 5997         h1    207    bbb    H15   5997 0.25637600   1.008000   ; qtot 0.155154
 5998         h1    207    bbb    H16   5998 0.25637600   1.008000   ; qtot 0.411530
 5999         c3    207    bbb     C9   5999 -0.72423400  12.010000   ; qtot -0.312704
 6000         h1    207    bbb    H17   6000 0.25637600   1.008000   ; qtot -0.056328
 6001         h1    207    bbb    H18   6001 0.25637600   1.008000   ; qtot 0.200048
 6002         os    207    bbb     O1   6002 -0.20025300  16.000000   ; qtot -0.000205
; residue  208 bbb rtp bbb q -0.0
 6003         n3    208    bbb     N1   6003 -0.59685800  14.010000   ; qtot -0.597063
 6004         c3    208    bbb     C1   6004 0.10137000  12.010000   ; qtot -0.495693
 6005         h1    208    bbb     H1   6005 0.04411300   1.008000   ; qtot -0.451580
 6006         h1    208    bbb     H2   6006 0.04411300   1.008000   ; qtot -0.407467
 6007         c3    208    bbb     C2   6007 0.10137000  12.010000   ; qtot -0.306097
 6008         h1    208    bbb     H3   6008 0.04411300   1.008000   ; qtot -0.261984
 6009         h1    208    bbb     H4   6009 0.04411300   1.008000   ; qtot -0.217871
 6010         c3    208    bbb     C3   6010 -0.00195300  12.010000   ; qtot -0.219824
 6011         h1    208    bbb     H5   6011 0.05064400   1.008000   ; qtot -0.169180
 6012         h1    208    bbb     H6   6012 0.05064400   1.008000   ; qtot -0.118536
 6013         c3    208    bbb     C4   6013 -0.01612100  12.010000   ; qtot -0.134657
 6014         hc    208    bbb     H7   6014 0.04936100   1.008000   ; qtot -0.085296
 6015         hc    208    bbb     H8   6015 0.04936100   1.008000   ; qtot -0.035935
 6016         c3    208    bbb     C5   6016 0.11363000  12.010000   ; qtot 0.077695
 6017         hc    208    bbb     H9   6017 0.06265900   1.008000   ; qtot 0.140354
 6018         hc    208    bbb    H10   6018 0.06265900   1.008000   ; qtot 0.203013
 6019         c3    208    bbb     C6   6019 0.11363000  12.010000   ; qtot 0.316643
 6020         hc    208    bbb    H11   6020 0.06265900   1.008000   ; qtot 0.379302
 6021         hc    208    bbb    H12   6021 0.06265900   1.008000   ; qtot 0.441961
 6022         c3    208    bbb     C7   6022 0.05858200  12.010000   ; qtot 0.500543
 6023         h1    208    bbb    H13   6023 0.06123400   1.008000   ; qtot 0.561777
 6024         h1    208    bbb    H14   6024 0.06123400   1.008000   ; qtot 0.623011
 6025         c3    208    bbb     C8   6025 -0.72423400  12.010000   ; qtot -0.101223
 6026         h1    208    bbb    H15   6026 0.25637600   1.008000   ; qtot 0.155153
 6027         h1    208    bbb    H16   6027 0.25637600   1.008000   ; qtot 0.411529
 6028         c3    208    bbb     C9   6028 -0.72423400  12.010000   ; qtot -0.312705
 6029         h1    208    bbb    H17   6029 0.25637600   1.008000   ; qtot -0.056329
 6030         h1    208    bbb    H18   6030 0.25637600   1.008000   ; qtot 0.200047
 6031         os    208    bbb     O1   6031 -0.20025300  16.000000   ; qtot -0.000206
; residue  209 bbb rtp bbb q -0.0
 6032         n3    209    bbb     N1   6032 -0.59685800  14.010000   ; qtot -0.597064
 6033         c3    209    bbb     C1   6033 0.10137000  12.010000   ; qtot -0.495694
 6034         h1    209    bbb     H1   6034 0.04411300   1.008000   ; qtot -0.451581
 6035         h1    209    bbb     H2   6035 0.04411300   1.008000   ; qtot -0.407468
 6036         c3    209    bbb     C2   6036 0.10137000  12.010000   ; qtot -0.306098
 6037         h1    209    bbb     H3   6037 0.04411300   1.008000   ; qtot -0.261985
 6038         h1    209    bbb     H4   6038 0.04411300   1.008000   ; qtot -0.217872
 6039         c3    209    bbb     C3   6039 -0.00195300  12.010000   ; qtot -0.219825
 6040         h1    209    bbb     H5   6040 0.05064400   1.008000   ; qtot -0.169181
 6041         h1    209    bbb     H6   6041 0.05064400   1.008000   ; qtot -0.118537
 6042         c3    209    bbb     C4   6042 -0.01612100  12.010000   ; qtot -0.134658
 6043         hc    209    bbb     H7   6043 0.04936100   1.008000   ; qtot -0.085297
 6044         hc    209    bbb     H8   6044 0.04936100   1.008000   ; qtot -0.035936
 6045         c3    209    bbb     C5   6045 0.11363000  12.010000   ; qtot 0.077694
 6046         hc    209    bbb     H9   6046 0.06265900   1.008000   ; qtot 0.140353
 6047         hc    209    bbb    H10   6047 0.06265900   1.008000   ; qtot 0.203012
 6048         c3    209    bbb     C6   6048 0.11363000  12.010000   ; qtot 0.316642
 6049         hc    209    bbb    H11   6049 0.06265900   1.008000   ; qtot 0.379301
 6050         hc    209    bbb    H12   6050 0.06265900   1.008000   ; qtot 0.441960
 6051         c3    209    bbb     C7   6051 0.05858200  12.010000   ; qtot 0.500542
 6052         h1    209    bbb    H13   6052 0.06123400   1.008000   ; qtot 0.561776
 6053         h1    209    bbb    H14   6053 0.06123400   1.008000   ; qtot 0.623010
 6054         c3    209    bbb     C8   6054 -0.72423400  12.010000   ; qtot -0.101224
 6055         h1    209    bbb    H15   6055 0.25637600   1.008000   ; qtot 0.155152
 6056         h1    209    bbb    H16   6056 0.25637600   1.008000   ; qtot 0.411528
 6057         c3    209    bbb     C9   6057 -0.72423400  12.010000   ; qtot -0.312706
 6058         h1    209    bbb    H17   6058 0.25637600   1.008000   ; qtot -0.056330
 6059         h1    209    bbb    H18   6059 0.25637600   1.008000   ; qtot 0.200046
 6060         os    209    bbb     O1   6060 -0.20025300  16.000000   ; qtot -0.000207
; residue  210 bbb rtp bbb q -0.0
 6061         n3    210    bbb     N1   6061 -0.59685800  14.010000   ; qtot -0.597065
 6062         c3    210    bbb     C1   6062 0.10137000  12.010000   ; qtot -0.495695
 6063         h1    210    bbb     H1   6063 0.04411300   1.008000   ; qtot -0.451582
 6064         h1    210    bbb     H2   6064 0.04411300   1.008000   ; qtot -0.407469
 6065         c3    210    bbb     C2   6065 0.10137000  12.010000   ; qtot -0.306099
 6066         h1    210    bbb     H3   6066 0.04411300   1.008000   ; qtot -0.261986
 6067         h1    210    bbb     H4   6067 0.04411300   1.008000   ; qtot -0.217873
 6068         c3    210    bbb     C3   6068 -0.00195300  12.010000   ; qtot -0.219826
 6069         h1    210    bbb     H5   6069 0.05064400   1.008000   ; qtot -0.169182
 6070         h1    210    bbb     H6   6070 0.05064400   1.008000   ; qtot -0.118538
 6071         c3    210    bbb     C4   6071 -0.01612100  12.010000   ; qtot -0.134659
 6072         hc    210    bbb     H7   6072 0.04936100   1.008000   ; qtot -0.085298
 6073         hc    210    bbb     H8   6073 0.04936100   1.008000   ; qtot -0.035937
 6074         c3    210    bbb     C5   6074 0.11363000  12.010000   ; qtot 0.077693
 6075         hc    210    bbb     H9   6075 0.06265900   1.008000   ; qtot 0.140352
 6076         hc    210    bbb    H10   6076 0.06265900   1.008000   ; qtot 0.203011
 6077         c3    210    bbb     C6   6077 0.11363000  12.010000   ; qtot 0.316641
 6078         hc    210    bbb    H11   6078 0.06265900   1.008000   ; qtot 0.379300
 6079         hc    210    bbb    H12   6079 0.06265900   1.008000   ; qtot 0.441959
 6080         c3    210    bbb     C7   6080 0.05858200  12.010000   ; qtot 0.500541
 6081         h1    210    bbb    H13   6081 0.06123400   1.008000   ; qtot 0.561775
 6082         h1    210    bbb    H14   6082 0.06123400   1.008000   ; qtot 0.623009
 6083         c3    210    bbb     C8   6083 -0.72423400  12.010000   ; qtot -0.101225
 6084         h1    210    bbb    H15   6084 0.25637600   1.008000   ; qtot 0.155151
 6085         h1    210    bbb    H16   6085 0.25637600   1.008000   ; qtot 0.411527
 6086         c3    210    bbb     C9   6086 -0.72423400  12.010000   ; qtot -0.312707
 6087         h1    210    bbb    H17   6087 0.25637600   1.008000   ; qtot -0.056331
 6088         h1    210    bbb    H18   6088 0.25637600   1.008000   ; qtot 0.200045
 6089         os    210    bbb     O1   6089 -0.20025300  16.000000   ; qtot -0.000208
; residue  211 bbb rtp bbb q -0.0
 6090         n3    211    bbb     N1   6090 -0.59685800  14.010000   ; qtot -0.597066
 6091         c3    211    bbb     C1   6091 0.10137000  12.010000   ; qtot -0.495696
 6092         h1    211    bbb     H1   6092 0.04411300   1.008000   ; qtot -0.451583
 6093         h1    211    bbb     H2   6093 0.04411300   1.008000   ; qtot -0.407470
 6094         c3    211    bbb     C2   6094 0.10137000  12.010000   ; qtot -0.306100
 6095         h1    211    bbb     H3   6095 0.04411300   1.008000   ; qtot -0.261987
 6096         h1    211    bbb     H4   6096 0.04411300   1.008000   ; qtot -0.217874
 6097         c3    211    bbb     C3   6097 -0.00195300  12.010000   ; qtot -0.219827
 6098         h1    211    bbb     H5   6098 0.05064400   1.008000   ; qtot -0.169183
 6099         h1    211    bbb     H6   6099 0.05064400   1.008000   ; qtot -0.118539
 6100         c3    211    bbb     C4   6100 -0.01612100  12.010000   ; qtot -0.134660
 6101         hc    211    bbb     H7   6101 0.04936100   1.008000   ; qtot -0.085299
 6102         hc    211    bbb     H8   6102 0.04936100   1.008000   ; qtot -0.035938
 6103         c3    211    bbb     C5   6103 0.11363000  12.010000   ; qtot 0.077692
 6104         hc    211    bbb     H9   6104 0.06265900   1.008000   ; qtot 0.140351
 6105         hc    211    bbb    H10   6105 0.06265900   1.008000   ; qtot 0.203010
 6106         c3    211    bbb     C6   6106 0.11363000  12.010000   ; qtot 0.316640
 6107         hc    211    bbb    H11   6107 0.06265900   1.008000   ; qtot 0.379299
 6108         hc    211    bbb    H12   6108 0.06265900   1.008000   ; qtot 0.441958
 6109         c3    211    bbb     C7   6109 0.05858200  12.010000   ; qtot 0.500540
 6110         h1    211    bbb    H13   6110 0.06123400   1.008000   ; qtot 0.561774
 6111         h1    211    bbb    H14   6111 0.06123400   1.008000   ; qtot 0.623008
 6112         c3    211    bbb     C8   6112 -0.72423400  12.010000   ; qtot -0.101226
 6113         h1    211    bbb    H15   6113 0.25637600   1.008000   ; qtot 0.155150
 6114         h1    211    bbb    H16   6114 0.25637600   1.008000   ; qtot 0.411526
 6115         c3    211    bbb     C9   6115 -0.72423400  12.010000   ; qtot -0.312708
 6116         h1    211    bbb    H17   6116 0.25637600   1.008000   ; qtot -0.056332
 6117         h1    211    bbb    H18   6117 0.25637600   1.008000   ; qtot 0.200044
 6118         os    211    bbb     O1   6118 -0.20025300  16.000000   ; qtot -0.000209
; residue  212 bbb rtp bbb q -0.0
 6119         n3    212    bbb     N1   6119 -0.59685800  14.010000   ; qtot -0.597067
 6120         c3    212    bbb     C1   6120 0.10137000  12.010000   ; qtot -0.495697
 6121         h1    212    bbb     H1   6121 0.04411300   1.008000   ; qtot -0.451584
 6122         h1    212    bbb     H2   6122 0.04411300   1.008000   ; qtot -0.407471
 6123         c3    212    bbb     C2   6123 0.10137000  12.010000   ; qtot -0.306101
 6124         h1    212    bbb     H3   6124 0.04411300   1.008000   ; qtot -0.261988
 6125         h1    212    bbb     H4   6125 0.04411300   1.008000   ; qtot -0.217875
 6126         c3    212    bbb     C3   6126 -0.00195300  12.010000   ; qtot -0.219828
 6127         h1    212    bbb     H5   6127 0.05064400   1.008000   ; qtot -0.169184
 6128         h1    212    bbb     H6   6128 0.05064400   1.008000   ; qtot -0.118540
 6129         c3    212    bbb     C4   6129 -0.01612100  12.010000   ; qtot -0.134661
 6130         hc    212    bbb     H7   6130 0.04936100   1.008000   ; qtot -0.085300
 6131         hc    212    bbb     H8   6131 0.04936100   1.008000   ; qtot -0.035939
 6132         c3    212    bbb     C5   6132 0.11363000  12.010000   ; qtot 0.077691
 6133         hc    212    bbb     H9   6133 0.06265900   1.008000   ; qtot 0.140350
 6134         hc    212    bbb    H10   6134 0.06265900   1.008000   ; qtot 0.203009
 6135         c3    212    bbb     C6   6135 0.11363000  12.010000   ; qtot 0.316639
 6136         hc    212    bbb    H11   6136 0.06265900   1.008000   ; qtot 0.379298
 6137         hc    212    bbb    H12   6137 0.06265900   1.008000   ; qtot 0.441957
 6138         c3    212    bbb     C7   6138 0.05858200  12.010000   ; qtot 0.500539
 6139         h1    212    bbb    H13   6139 0.06123400   1.008000   ; qtot 0.561773
 6140         h1    212    bbb    H14   6140 0.06123400   1.008000   ; qtot 0.623007
 6141         c3    212    bbb     C8   6141 -0.72423400  12.010000   ; qtot -0.101227
 6142         h1    212    bbb    H15   6142 0.25637600   1.008000   ; qtot 0.155149
 6143         h1    212    bbb    H16   6143 0.25637600   1.008000   ; qtot 0.411525
 6144         c3    212    bbb     C9   6144 -0.72423400  12.010000   ; qtot -0.312709
 6145         h1    212    bbb    H17   6145 0.25637600   1.008000   ; qtot -0.056333
 6146         h1    212    bbb    H18   6146 0.25637600   1.008000   ; qtot 0.200043
 6147         os    212    bbb     O1   6147 -0.20025300  16.000000   ; qtot -0.000210
; residue  213 bbb rtp bbb q -0.0
 6148         n3    213    bbb     N1   6148 -0.59685800  14.010000   ; qtot -0.597068
 6149         c3    213    bbb     C1   6149 0.10137000  12.010000   ; qtot -0.495698
 6150         h1    213    bbb     H1   6150 0.04411300   1.008000   ; qtot -0.451585
 6151         h1    213    bbb     H2   6151 0.04411300   1.008000   ; qtot -0.407472
 6152         c3    213    bbb     C2   6152 0.10137000  12.010000   ; qtot -0.306102
 6153         h1    213    bbb     H3   6153 0.04411300   1.008000   ; qtot -0.261989
 6154         h1    213    bbb     H4   6154 0.04411300   1.008000   ; qtot -0.217876
 6155         c3    213    bbb     C3   6155 -0.00195300  12.010000   ; qtot -0.219829
 6156         h1    213    bbb     H5   6156 0.05064400   1.008000   ; qtot -0.169185
 6157         h1    213    bbb     H6   6157 0.05064400   1.008000   ; qtot -0.118541
 6158         c3    213    bbb     C4   6158 -0.01612100  12.010000   ; qtot -0.134662
 6159         hc    213    bbb     H7   6159 0.04936100   1.008000   ; qtot -0.085301
 6160         hc    213    bbb     H8   6160 0.04936100   1.008000   ; qtot -0.035940
 6161         c3    213    bbb     C5   6161 0.11363000  12.010000   ; qtot 0.077690
 6162         hc    213    bbb     H9   6162 0.06265900   1.008000   ; qtot 0.140349
 6163         hc    213    bbb    H10   6163 0.06265900   1.008000   ; qtot 0.203008
 6164         c3    213    bbb     C6   6164 0.11363000  12.010000   ; qtot 0.316638
 6165         hc    213    bbb    H11   6165 0.06265900   1.008000   ; qtot 0.379297
 6166         hc    213    bbb    H12   6166 0.06265900   1.008000   ; qtot 0.441956
 6167         c3    213    bbb     C7   6167 0.05858200  12.010000   ; qtot 0.500538
 6168         h1    213    bbb    H13   6168 0.06123400   1.008000   ; qtot 0.561772
 6169         h1    213    bbb    H14   6169 0.06123400   1.008000   ; qtot 0.623006
 6170         c3    213    bbb     C8   6170 -0.72423400  12.010000   ; qtot -0.101228
 6171         h1    213    bbb    H15   6171 0.25637600   1.008000   ; qtot 0.155148
 6172         h1    213    bbb    H16   6172 0.25637600   1.008000   ; qtot 0.411524
 6173         c3    213    bbb     C9   6173 -0.72423400  12.010000   ; qtot -0.312710
 6174         h1    213    bbb    H17   6174 0.25637600   1.008000   ; qtot -0.056334
 6175         h1    213    bbb    H18   6175 0.25637600   1.008000   ; qtot 0.200042
 6176         os    213    bbb     O1   6176 -0.20025300  16.000000   ; qtot -0.000211
; residue  214 bbb rtp bbb q -0.0
 6177         n3    214    bbb     N1   6177 -0.59685800  14.010000   ; qtot -0.597069
 6178         c3    214    bbb     C1   6178 0.10137000  12.010000   ; qtot -0.495699
 6179         h1    214    bbb     H1   6179 0.04411300   1.008000   ; qtot -0.451586
 6180         h1    214    bbb     H2   6180 0.04411300   1.008000   ; qtot -0.407473
 6181         c3    214    bbb     C2   6181 0.10137000  12.010000   ; qtot -0.306103
 6182         h1    214    bbb     H3   6182 0.04411300   1.008000   ; qtot -0.261990
 6183         h1    214    bbb     H4   6183 0.04411300   1.008000   ; qtot -0.217877
 6184         c3    214    bbb     C3   6184 -0.00195300  12.010000   ; qtot -0.219830
 6185         h1    214    bbb     H5   6185 0.05064400   1.008000   ; qtot -0.169186
 6186         h1    214    bbb     H6   6186 0.05064400   1.008000   ; qtot -0.118542
 6187         c3    214    bbb     C4   6187 -0.01612100  12.010000   ; qtot -0.134663
 6188         hc    214    bbb     H7   6188 0.04936100   1.008000   ; qtot -0.085302
 6189         hc    214    bbb     H8   6189 0.04936100   1.008000   ; qtot -0.035941
 6190         c3    214    bbb     C5   6190 0.11363000  12.010000   ; qtot 0.077689
 6191         hc    214    bbb     H9   6191 0.06265900   1.008000   ; qtot 0.140348
 6192         hc    214    bbb    H10   6192 0.06265900   1.008000   ; qtot 0.203007
 6193         c3    214    bbb     C6   6193 0.11363000  12.010000   ; qtot 0.316637
 6194         hc    214    bbb    H11   6194 0.06265900   1.008000   ; qtot 0.379296
 6195         hc    214    bbb    H12   6195 0.06265900   1.008000   ; qtot 0.441955
 6196         c3    214    bbb     C7   6196 0.05858200  12.010000   ; qtot 0.500537
 6197         h1    214    bbb    H13   6197 0.06123400   1.008000   ; qtot 0.561771
 6198         h1    214    bbb    H14   6198 0.06123400   1.008000   ; qtot 0.623005
 6199         c3    214    bbb     C8   6199 -0.72423400  12.010000   ; qtot -0.101229
 6200         h1    214    bbb    H15   6200 0.25637600   1.008000   ; qtot 0.155147
 6201         h1    214    bbb    H16   6201 0.25637600   1.008000   ; qtot 0.411523
 6202         c3    214    bbb     C9   6202 -0.72423400  12.010000   ; qtot -0.312711
 6203         h1    214    bbb    H17   6203 0.25637600   1.008000   ; qtot -0.056335
 6204         h1    214    bbb    H18   6204 0.25637600   1.008000   ; qtot 0.200041
 6205         os    214    bbb     O1   6205 -0.20025300  16.000000   ; qtot -0.000212
; residue  215 bbb rtp bbb q -0.0
 6206         n3    215    bbb     N1   6206 -0.59685800  14.010000   ; qtot -0.597070
 6207         c3    215    bbb     C1   6207 0.10137000  12.010000   ; qtot -0.495700
 6208         h1    215    bbb     H1   6208 0.04411300   1.008000   ; qtot -0.451587
 6209         h1    215    bbb     H2   6209 0.04411300   1.008000   ; qtot -0.407474
 6210         c3    215    bbb     C2   6210 0.10137000  12.010000   ; qtot -0.306104
 6211         h1    215    bbb     H3   6211 0.04411300   1.008000   ; qtot -0.261991
 6212         h1    215    bbb     H4   6212 0.04411300   1.008000   ; qtot -0.217878
 6213         c3    215    bbb     C3   6213 -0.00195300  12.010000   ; qtot -0.219831
 6214         h1    215    bbb     H5   6214 0.05064400   1.008000   ; qtot -0.169187
 6215         h1    215    bbb     H6   6215 0.05064400   1.008000   ; qtot -0.118543
 6216         c3    215    bbb     C4   6216 -0.01612100  12.010000   ; qtot -0.134664
 6217         hc    215    bbb     H7   6217 0.04936100   1.008000   ; qtot -0.085303
 6218         hc    215    bbb     H8   6218 0.04936100   1.008000   ; qtot -0.035942
 6219         c3    215    bbb     C5   6219 0.11363000  12.010000   ; qtot 0.077688
 6220         hc    215    bbb     H9   6220 0.06265900   1.008000   ; qtot 0.140347
 6221         hc    215    bbb    H10   6221 0.06265900   1.008000   ; qtot 0.203006
 6222         c3    215    bbb     C6   6222 0.11363000  12.010000   ; qtot 0.316636
 6223         hc    215    bbb    H11   6223 0.06265900   1.008000   ; qtot 0.379295
 6224         hc    215    bbb    H12   6224 0.06265900   1.008000   ; qtot 0.441954
 6225         c3    215    bbb     C7   6225 0.05858200  12.010000   ; qtot 0.500536
 6226         h1    215    bbb    H13   6226 0.06123400   1.008000   ; qtot 0.561770
 6227         h1    215    bbb    H14   6227 0.06123400   1.008000   ; qtot 0.623004
 6228         c3    215    bbb     C8   6228 -0.72423400  12.010000   ; qtot -0.101230
 6229         h1    215    bbb    H15   6229 0.25637600   1.008000   ; qtot 0.155146
 6230         h1    215    bbb    H16   6230 0.25637600   1.008000   ; qtot 0.411522
 6231         c3    215    bbb     C9   6231 -0.72423400  12.010000   ; qtot -0.312712
 6232         h1    215    bbb    H17   6232 0.25637600   1.008000   ; qtot -0.056336
 6233         h1    215    bbb    H18   6233 0.25637600   1.008000   ; qtot 0.200040
 6234         os    215    bbb     O1   6234 -0.20025300  16.000000   ; qtot -0.000213
; residue  216 bbb rtp bbb q -0.0
 6235         n3    216    bbb     N1   6235 -0.59685800  14.010000   ; qtot -0.597071
 6236         c3    216    bbb     C1   6236 0.10137000  12.010000   ; qtot -0.495701
 6237         h1    216    bbb     H1   6237 0.04411300   1.008000   ; qtot -0.451588
 6238         h1    216    bbb     H2   6238 0.04411300   1.008000   ; qtot -0.407475
 6239         c3    216    bbb     C2   6239 0.10137000  12.010000   ; qtot -0.306105
 6240         h1    216    bbb     H3   6240 0.04411300   1.008000   ; qtot -0.261992
 6241         h1    216    bbb     H4   6241 0.04411300   1.008000   ; qtot -0.217879
 6242         c3    216    bbb     C3   6242 -0.00195300  12.010000   ; qtot -0.219832
 6243         h1    216    bbb     H5   6243 0.05064400   1.008000   ; qtot -0.169188
 6244         h1    216    bbb     H6   6244 0.05064400   1.008000   ; qtot -0.118544
 6245         c3    216    bbb     C4   6245 -0.01612100  12.010000   ; qtot -0.134665
 6246         hc    216    bbb     H7   6246 0.04936100   1.008000   ; qtot -0.085304
 6247         hc    216    bbb     H8   6247 0.04936100   1.008000   ; qtot -0.035943
 6248         c3    216    bbb     C5   6248 0.11363000  12.010000   ; qtot 0.077687
 6249         hc    216    bbb     H9   6249 0.06265900   1.008000   ; qtot 0.140346
 6250         hc    216    bbb    H10   6250 0.06265900   1.008000   ; qtot 0.203005
 6251         c3    216    bbb     C6   6251 0.11363000  12.010000   ; qtot 0.316635
 6252         hc    216    bbb    H11   6252 0.06265900   1.008000   ; qtot 0.379294
 6253         hc    216    bbb    H12   6253 0.06265900   1.008000   ; qtot 0.441953
 6254         c3    216    bbb     C7   6254 0.05858200  12.010000   ; qtot 0.500535
 6255         h1    216    bbb    H13   6255 0.06123400   1.008000   ; qtot 0.561769
 6256         h1    216    bbb    H14   6256 0.06123400   1.008000   ; qtot 0.623003
 6257         c3    216    bbb     C8   6257 -0.72423400  12.010000   ; qtot -0.101231
 6258         h1    216    bbb    H15   6258 0.25637600   1.008000   ; qtot 0.155145
 6259         h1    216    bbb    H16   6259 0.25637600   1.008000   ; qtot 0.411521
 6260         c3    216    bbb     C9   6260 -0.72423400  12.010000   ; qtot -0.312713
 6261         h1    216    bbb    H17   6261 0.25637600   1.008000   ; qtot -0.056337
 6262         h1    216    bbb    H18   6262 0.25637600   1.008000   ; qtot 0.200039
 6263         os    216    bbb     O1   6263 -0.20025300  16.000000   ; qtot -0.000214
; residue  217 bbb rtp bbb q -0.0
 6264         n3    217    bbb     N1   6264 -0.59685800  14.010000   ; qtot -0.597072
 6265         c3    217    bbb     C1   6265 0.10137000  12.010000   ; qtot -0.495702
 6266         h1    217    bbb     H1   6266 0.04411300   1.008000   ; qtot -0.451589
 6267         h1    217    bbb     H2   6267 0.04411300   1.008000   ; qtot -0.407476
 6268         c3    217    bbb     C2   6268 0.10137000  12.010000   ; qtot -0.306106
 6269         h1    217    bbb     H3   6269 0.04411300   1.008000   ; qtot -0.261993
 6270         h1    217    bbb     H4   6270 0.04411300   1.008000   ; qtot -0.217880
 6271         c3    217    bbb     C3   6271 -0.00195300  12.010000   ; qtot -0.219833
 6272         h1    217    bbb     H5   6272 0.05064400   1.008000   ; qtot -0.169189
 6273         h1    217    bbb     H6   6273 0.05064400   1.008000   ; qtot -0.118545
 6274         c3    217    bbb     C4   6274 -0.01612100  12.010000   ; qtot -0.134666
 6275         hc    217    bbb     H7   6275 0.04936100   1.008000   ; qtot -0.085305
 6276         hc    217    bbb     H8   6276 0.04936100   1.008000   ; qtot -0.035944
 6277         c3    217    bbb     C5   6277 0.11363000  12.010000   ; qtot 0.077686
 6278         hc    217    bbb     H9   6278 0.06265900   1.008000   ; qtot 0.140345
 6279         hc    217    bbb    H10   6279 0.06265900   1.008000   ; qtot 0.203004
 6280         c3    217    bbb     C6   6280 0.11363000  12.010000   ; qtot 0.316634
 6281         hc    217    bbb    H11   6281 0.06265900   1.008000   ; qtot 0.379293
 6282         hc    217    bbb    H12   6282 0.06265900   1.008000   ; qtot 0.441952
 6283         c3    217    bbb     C7   6283 0.05858200  12.010000   ; qtot 0.500534
 6284         h1    217    bbb    H13   6284 0.06123400   1.008000   ; qtot 0.561768
 6285         h1    217    bbb    H14   6285 0.06123400   1.008000   ; qtot 0.623002
 6286         c3    217    bbb     C8   6286 -0.72423400  12.010000   ; qtot -0.101232
 6287         h1    217    bbb    H15   6287 0.25637600   1.008000   ; qtot 0.155144
 6288         h1    217    bbb    H16   6288 0.25637600   1.008000   ; qtot 0.411520
 6289         c3    217    bbb     C9   6289 -0.72423400  12.010000   ; qtot -0.312714
 6290         h1    217    bbb    H17   6290 0.25637600   1.008000   ; qtot -0.056338
 6291         h1    217    bbb    H18   6291 0.25637600   1.008000   ; qtot 0.200038
 6292         os    217    bbb     O1   6292 -0.20025300  16.000000   ; qtot -0.000215
; residue  218 bbb rtp bbb q -0.0
 6293         n3    218    bbb     N1   6293 -0.59685800  14.010000   ; qtot -0.597073
 6294         c3    218    bbb     C1   6294 0.10137000  12.010000   ; qtot -0.495703
 6295         h1    218    bbb     H1   6295 0.04411300   1.008000   ; qtot -0.451590
 6296         h1    218    bbb     H2   6296 0.04411300   1.008000   ; qtot -0.407477
 6297         c3    218    bbb     C2   6297 0.10137000  12.010000   ; qtot -0.306107
 6298         h1    218    bbb     H3   6298 0.04411300   1.008000   ; qtot -0.261994
 6299         h1    218    bbb     H4   6299 0.04411300   1.008000   ; qtot -0.217881
 6300         c3    218    bbb     C3   6300 -0.00195300  12.010000   ; qtot -0.219834
 6301         h1    218    bbb     H5   6301 0.05064400   1.008000   ; qtot -0.169190
 6302         h1    218    bbb     H6   6302 0.05064400   1.008000   ; qtot -0.118546
 6303         c3    218    bbb     C4   6303 -0.01612100  12.010000   ; qtot -0.134667
 6304         hc    218    bbb     H7   6304 0.04936100   1.008000   ; qtot -0.085306
 6305         hc    218    bbb     H8   6305 0.04936100   1.008000   ; qtot -0.035945
 6306         c3    218    bbb     C5   6306 0.11363000  12.010000   ; qtot 0.077685
 6307         hc    218    bbb     H9   6307 0.06265900   1.008000   ; qtot 0.140344
 6308         hc    218    bbb    H10   6308 0.06265900   1.008000   ; qtot 0.203003
 6309         c3    218    bbb     C6   6309 0.11363000  12.010000   ; qtot 0.316633
 6310         hc    218    bbb    H11   6310 0.06265900   1.008000   ; qtot 0.379292
 6311         hc    218    bbb    H12   6311 0.06265900   1.008000   ; qtot 0.441951
 6312         c3    218    bbb     C7   6312 0.05858200  12.010000   ; qtot 0.500533
 6313         h1    218    bbb    H13   6313 0.06123400   1.008000   ; qtot 0.561767
 6314         h1    218    bbb    H14   6314 0.06123400   1.008000   ; qtot 0.623001
 6315         c3    218    bbb     C8   6315 -0.72423400  12.010000   ; qtot -0.101233
 6316         h1    218    bbb    H15   6316 0.25637600   1.008000   ; qtot 0.155143
 6317         h1    218    bbb    H16   6317 0.25637600   1.008000   ; qtot 0.411519
 6318         c3    218    bbb     C9   6318 -0.72423400  12.010000   ; qtot -0.312715
 6319         h1    218    bbb    H17   6319 0.25637600   1.008000   ; qtot -0.056339
 6320         h1    218    bbb    H18   6320 0.25637600   1.008000   ; qtot 0.200037
 6321         os    218    bbb     O1   6321 -0.20025300  16.000000   ; qtot -0.000216
; residue  219 bbb rtp bbb q -0.0
 6322         n3    219    bbb     N1   6322 -0.59685800  14.010000   ; qtot -0.597074
 6323         c3    219    bbb     C1   6323 0.10137000  12.010000   ; qtot -0.495704
 6324         h1    219    bbb     H1   6324 0.04411300   1.008000   ; qtot -0.451591
 6325         h1    219    bbb     H2   6325 0.04411300   1.008000   ; qtot -0.407478
 6326         c3    219    bbb     C2   6326 0.10137000  12.010000   ; qtot -0.306108
 6327         h1    219    bbb     H3   6327 0.04411300   1.008000   ; qtot -0.261995
 6328         h1    219    bbb     H4   6328 0.04411300   1.008000   ; qtot -0.217882
 6329         c3    219    bbb     C3   6329 -0.00195300  12.010000   ; qtot -0.219835
 6330         h1    219    bbb     H5   6330 0.05064400   1.008000   ; qtot -0.169191
 6331         h1    219    bbb     H6   6331 0.05064400   1.008000   ; qtot -0.118547
 6332         c3    219    bbb     C4   6332 -0.01612100  12.010000   ; qtot -0.134668
 6333         hc    219    bbb     H7   6333 0.04936100   1.008000   ; qtot -0.085307
 6334         hc    219    bbb     H8   6334 0.04936100   1.008000   ; qtot -0.035946
 6335         c3    219    bbb     C5   6335 0.11363000  12.010000   ; qtot 0.077684
 6336         hc    219    bbb     H9   6336 0.06265900   1.008000   ; qtot 0.140343
 6337         hc    219    bbb    H10   6337 0.06265900   1.008000   ; qtot 0.203002
 6338         c3    219    bbb     C6   6338 0.11363000  12.010000   ; qtot 0.316632
 6339         hc    219    bbb    H11   6339 0.06265900   1.008000   ; qtot 0.379291
 6340         hc    219    bbb    H12   6340 0.06265900   1.008000   ; qtot 0.441950
 6341         c3    219    bbb     C7   6341 0.05858200  12.010000   ; qtot 0.500532
 6342         h1    219    bbb    H13   6342 0.06123400   1.008000   ; qtot 0.561766
 6343         h1    219    bbb    H14   6343 0.06123400   1.008000   ; qtot 0.623000
 6344         c3    219    bbb     C8   6344 -0.72423400  12.010000   ; qtot -0.101234
 6345         h1    219    bbb    H15   6345 0.25637600   1.008000   ; qtot 0.155142
 6346         h1    219    bbb    H16   6346 0.25637600   1.008000   ; qtot 0.411518
 6347         c3    219    bbb     C9   6347 -0.72423400  12.010000   ; qtot -0.312716
 6348         h1    219    bbb    H17   6348 0.25637600   1.008000   ; qtot -0.056340
 6349         h1    219    bbb    H18   6349 0.25637600   1.008000   ; qtot 0.200036
 6350         os    219    bbb     O1   6350 -0.20025300  16.000000   ; qtot -0.000217
; residue  220 bbb rtp bbb q -0.0
 6351         n3    220    bbb     N1   6351 -0.59685800  14.010000   ; qtot -0.597075
 6352         c3    220    bbb     C1   6352 0.10137000  12.010000   ; qtot -0.495705
 6353         h1    220    bbb     H1   6353 0.04411300   1.008000   ; qtot -0.451592
 6354         h1    220    bbb     H2   6354 0.04411300   1.008000   ; qtot -0.407479
 6355         c3    220    bbb     C2   6355 0.10137000  12.010000   ; qtot -0.306109
 6356         h1    220    bbb     H3   6356 0.04411300   1.008000   ; qtot -0.261996
 6357         h1    220    bbb     H4   6357 0.04411300   1.008000   ; qtot -0.217883
 6358         c3    220    bbb     C3   6358 -0.00195300  12.010000   ; qtot -0.219836
 6359         h1    220    bbb     H5   6359 0.05064400   1.008000   ; qtot -0.169192
 6360         h1    220    bbb     H6   6360 0.05064400   1.008000   ; qtot -0.118548
 6361         c3    220    bbb     C4   6361 -0.01612100  12.010000   ; qtot -0.134669
 6362         hc    220    bbb     H7   6362 0.04936100   1.008000   ; qtot -0.085308
 6363         hc    220    bbb     H8   6363 0.04936100   1.008000   ; qtot -0.035947
 6364         c3    220    bbb     C5   6364 0.11363000  12.010000   ; qtot 0.077683
 6365         hc    220    bbb     H9   6365 0.06265900   1.008000   ; qtot 0.140342
 6366         hc    220    bbb    H10   6366 0.06265900   1.008000   ; qtot 0.203001
 6367         c3    220    bbb     C6   6367 0.11363000  12.010000   ; qtot 0.316631
 6368         hc    220    bbb    H11   6368 0.06265900   1.008000   ; qtot 0.379290
 6369         hc    220    bbb    H12   6369 0.06265900   1.008000   ; qtot 0.441949
 6370         c3    220    bbb     C7   6370 0.05858200  12.010000   ; qtot 0.500531
 6371         h1    220    bbb    H13   6371 0.06123400   1.008000   ; qtot 0.561765
 6372         h1    220    bbb    H14   6372 0.06123400   1.008000   ; qtot 0.622999
 6373         c3    220    bbb     C8   6373 -0.72423400  12.010000   ; qtot -0.101235
 6374         h1    220    bbb    H15   6374 0.25637600   1.008000   ; qtot 0.155141
 6375         h1    220    bbb    H16   6375 0.25637600   1.008000   ; qtot 0.411517
 6376         c3    220    bbb     C9   6376 -0.72423400  12.010000   ; qtot -0.312717
 6377         h1    220    bbb    H17   6377 0.25637600   1.008000   ; qtot -0.056341
 6378         h1    220    bbb    H18   6378 0.25637600   1.008000   ; qtot 0.200035
 6379         os    220    bbb     O1   6379 -0.20025300  16.000000   ; qtot -0.000218
; residue  221 bbb rtp bbb q -0.0
 6380         n3    221    bbb     N1   6380 -0.59685800  14.010000   ; qtot -0.597076
 6381         c3    221    bbb     C1   6381 0.10137000  12.010000   ; qtot -0.495706
 6382         h1    221    bbb     H1   6382 0.04411300   1.008000   ; qtot -0.451593
 6383         h1    221    bbb     H2   6383 0.04411300   1.008000   ; qtot -0.407480
 6384         c3    221    bbb     C2   6384 0.10137000  12.010000   ; qtot -0.306110
 6385         h1    221    bbb     H3   6385 0.04411300   1.008000   ; qtot -0.261997
 6386         h1    221    bbb     H4   6386 0.04411300   1.008000   ; qtot -0.217884
 6387         c3    221    bbb     C3   6387 -0.00195300  12.010000   ; qtot -0.219837
 6388         h1    221    bbb     H5   6388 0.05064400   1.008000   ; qtot -0.169193
 6389         h1    221    bbb     H6   6389 0.05064400   1.008000   ; qtot -0.118549
 6390         c3    221    bbb     C4   6390 -0.01612100  12.010000   ; qtot -0.134670
 6391         hc    221    bbb     H7   6391 0.04936100   1.008000   ; qtot -0.085309
 6392         hc    221    bbb     H8   6392 0.04936100   1.008000   ; qtot -0.035948
 6393         c3    221    bbb     C5   6393 0.11363000  12.010000   ; qtot 0.077682
 6394         hc    221    bbb     H9   6394 0.06265900   1.008000   ; qtot 0.140341
 6395         hc    221    bbb    H10   6395 0.06265900   1.008000   ; qtot 0.203000
 6396         c3    221    bbb     C6   6396 0.11363000  12.010000   ; qtot 0.316630
 6397         hc    221    bbb    H11   6397 0.06265900   1.008000   ; qtot 0.379289
 6398         hc    221    bbb    H12   6398 0.06265900   1.008000   ; qtot 0.441948
 6399         c3    221    bbb     C7   6399 0.05858200  12.010000   ; qtot 0.500530
 6400         h1    221    bbb    H13   6400 0.06123400   1.008000   ; qtot 0.561764
 6401         h1    221    bbb    H14   6401 0.06123400   1.008000   ; qtot 0.622998
 6402         c3    221    bbb     C8   6402 -0.72423400  12.010000   ; qtot -0.101236
 6403         h1    221    bbb    H15   6403 0.25637600   1.008000   ; qtot 0.155140
 6404         h1    221    bbb    H16   6404 0.25637600   1.008000   ; qtot 0.411516
 6405         c3    221    bbb     C9   6405 -0.72423400  12.010000   ; qtot -0.312718
 6406         h1    221    bbb    H17   6406 0.25637600   1.008000   ; qtot -0.056342
 6407         h1    221    bbb    H18   6407 0.25637600   1.008000   ; qtot 0.200034
 6408         os    221    bbb     O1   6408 -0.20025300  16.000000   ; qtot -0.000219
; residue  222 bbb rtp bbb q -0.0
 6409         n3    222    bbb     N1   6409 -0.59685800  14.010000   ; qtot -0.597077
 6410         c3    222    bbb     C1   6410 0.10137000  12.010000   ; qtot -0.495707
 6411         h1    222    bbb     H1   6411 0.04411300   1.008000   ; qtot -0.451594
 6412         h1    222    bbb     H2   6412 0.04411300   1.008000   ; qtot -0.407481
 6413         c3    222    bbb     C2   6413 0.10137000  12.010000   ; qtot -0.306111
 6414         h1    222    bbb     H3   6414 0.04411300   1.008000   ; qtot -0.261998
 6415         h1    222    bbb     H4   6415 0.04411300   1.008000   ; qtot -0.217885
 6416         c3    222    bbb     C3   6416 -0.00195300  12.010000   ; qtot -0.219838
 6417         h1    222    bbb     H5   6417 0.05064400   1.008000   ; qtot -0.169194
 6418         h1    222    bbb     H6   6418 0.05064400   1.008000   ; qtot -0.118550
 6419         c3    222    bbb     C4   6419 -0.01612100  12.010000   ; qtot -0.134671
 6420         hc    222    bbb     H7   6420 0.04936100   1.008000   ; qtot -0.085310
 6421         hc    222    bbb     H8   6421 0.04936100   1.008000   ; qtot -0.035949
 6422         c3    222    bbb     C5   6422 0.11363000  12.010000   ; qtot 0.077681
 6423         hc    222    bbb     H9   6423 0.06265900   1.008000   ; qtot 0.140340
 6424         hc    222    bbb    H10   6424 0.06265900   1.008000   ; qtot 0.202999
 6425         c3    222    bbb     C6   6425 0.11363000  12.010000   ; qtot 0.316629
 6426         hc    222    bbb    H11   6426 0.06265900   1.008000   ; qtot 0.379288
 6427         hc    222    bbb    H12   6427 0.06265900   1.008000   ; qtot 0.441947
 6428         c3    222    bbb     C7   6428 0.05858200  12.010000   ; qtot 0.500529
 6429         h1    222    bbb    H13   6429 0.06123400   1.008000   ; qtot 0.561763
 6430         h1    222    bbb    H14   6430 0.06123400   1.008000   ; qtot 0.622997
 6431         c3    222    bbb     C8   6431 -0.72423400  12.010000   ; qtot -0.101237
 6432         h1    222    bbb    H15   6432 0.25637600   1.008000   ; qtot 0.155139
 6433         h1    222    bbb    H16   6433 0.25637600   1.008000   ; qtot 0.411515
 6434         c3    222    bbb     C9   6434 -0.72423400  12.010000   ; qtot -0.312719
 6435         h1    222    bbb    H17   6435 0.25637600   1.008000   ; qtot -0.056343
 6436         h1    222    bbb    H18   6436 0.25637600   1.008000   ; qtot 0.200033
 6437         os    222    bbb     O1   6437 -0.20025300  16.000000   ; qtot -0.000220
; residue  223 bbb rtp bbb q -0.0
 6438         n3    223    bbb     N1   6438 -0.59685800  14.010000   ; qtot -0.597078
 6439         c3    223    bbb     C1   6439 0.10137000  12.010000   ; qtot -0.495708
 6440         h1    223    bbb     H1   6440 0.04411300   1.008000   ; qtot -0.451595
 6441         h1    223    bbb     H2   6441 0.04411300   1.008000   ; qtot -0.407482
 6442         c3    223    bbb     C2   6442 0.10137000  12.010000   ; qtot -0.306112
 6443         h1    223    bbb     H3   6443 0.04411300   1.008000   ; qtot -0.261999
 6444         h1    223    bbb     H4   6444 0.04411300   1.008000   ; qtot -0.217886
 6445         c3    223    bbb     C3   6445 -0.00195300  12.010000   ; qtot -0.219839
 6446         h1    223    bbb     H5   6446 0.05064400   1.008000   ; qtot -0.169195
 6447         h1    223    bbb     H6   6447 0.05064400   1.008000   ; qtot -0.118551
 6448         c3    223    bbb     C4   6448 -0.01612100  12.010000   ; qtot -0.134672
 6449         hc    223    bbb     H7   6449 0.04936100   1.008000   ; qtot -0.085311
 6450         hc    223    bbb     H8   6450 0.04936100   1.008000   ; qtot -0.035950
 6451         c3    223    bbb     C5   6451 0.11363000  12.010000   ; qtot 0.077680
 6452         hc    223    bbb     H9   6452 0.06265900   1.008000   ; qtot 0.140339
 6453         hc    223    bbb    H10   6453 0.06265900   1.008000   ; qtot 0.202998
 6454         c3    223    bbb     C6   6454 0.11363000  12.010000   ; qtot 0.316628
 6455         hc    223    bbb    H11   6455 0.06265900   1.008000   ; qtot 0.379287
 6456         hc    223    bbb    H12   6456 0.06265900   1.008000   ; qtot 0.441946
 6457         c3    223    bbb     C7   6457 0.05858200  12.010000   ; qtot 0.500528
 6458         h1    223    bbb    H13   6458 0.06123400   1.008000   ; qtot 0.561762
 6459         h1    223    bbb    H14   6459 0.06123400   1.008000   ; qtot 0.622996
 6460         c3    223    bbb     C8   6460 -0.72423400  12.010000   ; qtot -0.101238
 6461         h1    223    bbb    H15   6461 0.25637600   1.008000   ; qtot 0.155138
 6462         h1    223    bbb    H16   6462 0.25637600   1.008000   ; qtot 0.411514
 6463         c3    223    bbb     C9   6463 -0.72423400  12.010000   ; qtot -0.312720
 6464         h1    223    bbb    H17   6464 0.25637600   1.008000   ; qtot -0.056344
 6465         h1    223    bbb    H18   6465 0.25637600   1.008000   ; qtot 0.200032
 6466         os    223    bbb     O1   6466 -0.20025300  16.000000   ; qtot -0.000221
; residue  224 bbb rtp bbb q -0.0
 6467         n3    224    bbb     N1   6467 -0.59685800  14.010000   ; qtot -0.597079
 6468         c3    224    bbb     C1   6468 0.10137000  12.010000   ; qtot -0.495709
 6469         h1    224    bbb     H1   6469 0.04411300   1.008000   ; qtot -0.451596
 6470         h1    224    bbb     H2   6470 0.04411300   1.008000   ; qtot -0.407483
 6471         c3    224    bbb     C2   6471 0.10137000  12.010000   ; qtot -0.306113
 6472         h1    224    bbb     H3   6472 0.04411300   1.008000   ; qtot -0.262000
 6473         h1    224    bbb     H4   6473 0.04411300   1.008000   ; qtot -0.217887
 6474         c3    224    bbb     C3   6474 -0.00195300  12.010000   ; qtot -0.219840
 6475         h1    224    bbb     H5   6475 0.05064400   1.008000   ; qtot -0.169196
 6476         h1    224    bbb     H6   6476 0.05064400   1.008000   ; qtot -0.118552
 6477         c3    224    bbb     C4   6477 -0.01612100  12.010000   ; qtot -0.134673
 6478         hc    224    bbb     H7   6478 0.04936100   1.008000   ; qtot -0.085312
 6479         hc    224    bbb     H8   6479 0.04936100   1.008000   ; qtot -0.035951
 6480         c3    224    bbb     C5   6480 0.11363000  12.010000   ; qtot 0.077679
 6481         hc    224    bbb     H9   6481 0.06265900   1.008000   ; qtot 0.140338
 6482         hc    224    bbb    H10   6482 0.06265900   1.008000   ; qtot 0.202997
 6483         c3    224    bbb     C6   6483 0.11363000  12.010000   ; qtot 0.316627
 6484         hc    224    bbb    H11   6484 0.06265900   1.008000   ; qtot 0.379286
 6485         hc    224    bbb    H12   6485 0.06265900   1.008000   ; qtot 0.441945
 6486         c3    224    bbb     C7   6486 0.05858200  12.010000   ; qtot 0.500527
 6487         h1    224    bbb    H13   6487 0.06123400   1.008000   ; qtot 0.561761
 6488         h1    224    bbb    H14   6488 0.06123400   1.008000   ; qtot 0.622995
 6489         c3    224    bbb     C8   6489 -0.72423400  12.010000   ; qtot -0.101239
 6490         h1    224    bbb    H15   6490 0.25637600   1.008000   ; qtot 0.155137
 6491         h1    224    bbb    H16   6491 0.25637600   1.008000   ; qtot 0.411513
 6492         c3    224    bbb     C9   6492 -0.72423400  12.010000   ; qtot -0.312721
 6493         h1    224    bbb    H17   6493 0.25637600   1.008000   ; qtot -0.056345
 6494         h1    224    bbb    H18   6494 0.25637600   1.008000   ; qtot 0.200031
 6495         os    224    bbb     O1   6495 -0.20025300  16.000000   ; qtot -0.000222
; residue  225 bbb rtp bbb q -0.0
 6496         n3    225    bbb     N1   6496 -0.59685800  14.010000   ; qtot -0.597080
 6497         c3    225    bbb     C1   6497 0.10137000  12.010000   ; qtot -0.495710
 6498         h1    225    bbb     H1   6498 0.04411300   1.008000   ; qtot -0.451597
 6499         h1    225    bbb     H2   6499 0.04411300   1.008000   ; qtot -0.407484
 6500         c3    225    bbb     C2   6500 0.10137000  12.010000   ; qtot -0.306114
 6501         h1    225    bbb     H3   6501 0.04411300   1.008000   ; qtot -0.262001
 6502         h1    225    bbb     H4   6502 0.04411300   1.008000   ; qtot -0.217888
 6503         c3    225    bbb     C3   6503 -0.00195300  12.010000   ; qtot -0.219841
 6504         h1    225    bbb     H5   6504 0.05064400   1.008000   ; qtot -0.169197
 6505         h1    225    bbb     H6   6505 0.05064400   1.008000   ; qtot -0.118553
 6506         c3    225    bbb     C4   6506 -0.01612100  12.010000   ; qtot -0.134674
 6507         hc    225    bbb     H7   6507 0.04936100   1.008000   ; qtot -0.085313
 6508         hc    225    bbb     H8   6508 0.04936100   1.008000   ; qtot -0.035952
 6509         c3    225    bbb     C5   6509 0.11363000  12.010000   ; qtot 0.077678
 6510         hc    225    bbb     H9   6510 0.06265900   1.008000   ; qtot 0.140337
 6511         hc    225    bbb    H10   6511 0.06265900   1.008000   ; qtot 0.202996
 6512         c3    225    bbb     C6   6512 0.11363000  12.010000   ; qtot 0.316626
 6513         hc    225    bbb    H11   6513 0.06265900   1.008000   ; qtot 0.379285
 6514         hc    225    bbb    H12   6514 0.06265900   1.008000   ; qtot 0.441944
 6515         c3    225    bbb     C7   6515 0.05858200  12.010000   ; qtot 0.500526
 6516         h1    225    bbb    H13   6516 0.06123400   1.008000   ; qtot 0.561760
 6517         h1    225    bbb    H14   6517 0.06123400   1.008000   ; qtot 0.622994
 6518         c3    225    bbb     C8   6518 -0.72423400  12.010000   ; qtot -0.101240
 6519         h1    225    bbb    H15   6519 0.25637600   1.008000   ; qtot 0.155136
 6520         h1    225    bbb    H16   6520 0.25637600   1.008000   ; qtot 0.411512
 6521         c3    225    bbb     C9   6521 -0.72423400  12.010000   ; qtot -0.312722
 6522         h1    225    bbb    H17   6522 0.25637600   1.008000   ; qtot -0.056346
 6523         h1    225    bbb    H18   6523 0.25637600   1.008000   ; qtot 0.200030
 6524         os    225    bbb     O1   6524 -0.20025300  16.000000   ; qtot -0.000223
; residue  226 bbb rtp bbb q -0.0
 6525         n3    226    bbb     N1   6525 -0.59685800  14.010000   ; qtot -0.597081
 6526         c3    226    bbb     C1   6526 0.10137000  12.010000   ; qtot -0.495711
 6527         h1    226    bbb     H1   6527 0.04411300   1.008000   ; qtot -0.451598
 6528         h1    226    bbb     H2   6528 0.04411300   1.008000   ; qtot -0.407485
 6529         c3    226    bbb     C2   6529 0.10137000  12.010000   ; qtot -0.306115
 6530         h1    226    bbb     H3   6530 0.04411300   1.008000   ; qtot -0.262002
 6531         h1    226    bbb     H4   6531 0.04411300   1.008000   ; qtot -0.217889
 6532         c3    226    bbb     C3   6532 -0.00195300  12.010000   ; qtot -0.219842
 6533         h1    226    bbb     H5   6533 0.05064400   1.008000   ; qtot -0.169198
 6534         h1    226    bbb     H6   6534 0.05064400   1.008000   ; qtot -0.118554
 6535         c3    226    bbb     C4   6535 -0.01612100  12.010000   ; qtot -0.134675
 6536         hc    226    bbb     H7   6536 0.04936100   1.008000   ; qtot -0.085314
 6537         hc    226    bbb     H8   6537 0.04936100   1.008000   ; qtot -0.035953
 6538         c3    226    bbb     C5   6538 0.11363000  12.010000   ; qtot 0.077677
 6539         hc    226    bbb     H9   6539 0.06265900   1.008000   ; qtot 0.140336
 6540         hc    226    bbb    H10   6540 0.06265900   1.008000   ; qtot 0.202995
 6541         c3    226    bbb     C6   6541 0.11363000  12.010000   ; qtot 0.316625
 6542         hc    226    bbb    H11   6542 0.06265900   1.008000   ; qtot 0.379284
 6543         hc    226    bbb    H12   6543 0.06265900   1.008000   ; qtot 0.441943
 6544         c3    226    bbb     C7   6544 0.05858200  12.010000   ; qtot 0.500525
 6545         h1    226    bbb    H13   6545 0.06123400   1.008000   ; qtot 0.561759
 6546         h1    226    bbb    H14   6546 0.06123400   1.008000   ; qtot 0.622993
 6547         c3    226    bbb     C8   6547 -0.72423400  12.010000   ; qtot -0.101241
 6548         h1    226    bbb    H15   6548 0.25637600   1.008000   ; qtot 0.155135
 6549         h1    226    bbb    H16   6549 0.25637600   1.008000   ; qtot 0.411511
 6550         c3    226    bbb     C9   6550 -0.72423400  12.010000   ; qtot -0.312723
 6551         h1    226    bbb    H17   6551 0.25637600   1.008000   ; qtot -0.056347
 6552         h1    226    bbb    H18   6552 0.25637600   1.008000   ; qtot 0.200029
 6553         os    226    bbb     O1   6553 -0.20025300  16.000000   ; qtot -0.000224
; residue  227 bbb rtp bbb q -0.0
 6554         n3    227    bbb     N1   6554 -0.59685800  14.010000   ; qtot -0.597082
 6555         c3    227    bbb     C1   6555 0.10137000  12.010000   ; qtot -0.495712
 6556         h1    227    bbb     H1   6556 0.04411300   1.008000   ; qtot -0.451599
 6557         h1    227    bbb     H2   6557 0.04411300   1.008000   ; qtot -0.407486
 6558         c3    227    bbb     C2   6558 0.10137000  12.010000   ; qtot -0.306116
 6559         h1    227    bbb     H3   6559 0.04411300   1.008000   ; qtot -0.262003
 6560         h1    227    bbb     H4   6560 0.04411300   1.008000   ; qtot -0.217890
 6561         c3    227    bbb     C3   6561 -0.00195300  12.010000   ; qtot -0.219843
 6562         h1    227    bbb     H5   6562 0.05064400   1.008000   ; qtot -0.169199
 6563         h1    227    bbb     H6   6563 0.05064400   1.008000   ; qtot -0.118555
 6564         c3    227    bbb     C4   6564 -0.01612100  12.010000   ; qtot -0.134676
 6565         hc    227    bbb     H7   6565 0.04936100   1.008000   ; qtot -0.085315
 6566         hc    227    bbb     H8   6566 0.04936100   1.008000   ; qtot -0.035954
 6567         c3    227    bbb     C5   6567 0.11363000  12.010000   ; qtot 0.077676
 6568         hc    227    bbb     H9   6568 0.06265900   1.008000   ; qtot 0.140335
 6569         hc    227    bbb    H10   6569 0.06265900   1.008000   ; qtot 0.202994
 6570         c3    227    bbb     C6   6570 0.11363000  12.010000   ; qtot 0.316624
 6571         hc    227    bbb    H11   6571 0.06265900   1.008000   ; qtot 0.379283
 6572         hc    227    bbb    H12   6572 0.06265900   1.008000   ; qtot 0.441942
 6573         c3    227    bbb     C7   6573 0.05858200  12.010000   ; qtot 0.500524
 6574         h1    227    bbb    H13   6574 0.06123400   1.008000   ; qtot 0.561758
 6575         h1    227    bbb    H14   6575 0.06123400   1.008000   ; qtot 0.622992
 6576         c3    227    bbb     C8   6576 -0.72423400  12.010000   ; qtot -0.101242
 6577         h1    227    bbb    H15   6577 0.25637600   1.008000   ; qtot 0.155134
 6578         h1    227    bbb    H16   6578 0.25637600   1.008000   ; qtot 0.411510
 6579         c3    227    bbb     C9   6579 -0.72423400  12.010000   ; qtot -0.312724
 6580         h1    227    bbb    H17   6580 0.25637600   1.008000   ; qtot -0.056348
 6581         h1    227    bbb    H18   6581 0.25637600   1.008000   ; qtot 0.200028
 6582         os    227    bbb     O1   6582 -0.20025300  16.000000   ; qtot -0.000225
; residue  228 bbb rtp bbb q -0.0
 6583         n3    228    bbb     N1   6583 -0.59685800  14.010000   ; qtot -0.597083
 6584         c3    228    bbb     C1   6584 0.10137000  12.010000   ; qtot -0.495713
 6585         h1    228    bbb     H1   6585 0.04411300   1.008000   ; qtot -0.451600
 6586         h1    228    bbb     H2   6586 0.04411300   1.008000   ; qtot -0.407487
 6587         c3    228    bbb     C2   6587 0.10137000  12.010000   ; qtot -0.306117
 6588         h1    228    bbb     H3   6588 0.04411300   1.008000   ; qtot -0.262004
 6589         h1    228    bbb     H4   6589 0.04411300   1.008000   ; qtot -0.217891
 6590         c3    228    bbb     C3   6590 -0.00195300  12.010000   ; qtot -0.219844
 6591         h1    228    bbb     H5   6591 0.05064400   1.008000   ; qtot -0.169200
 6592         h1    228    bbb     H6   6592 0.05064400   1.008000   ; qtot -0.118556
 6593         c3    228    bbb     C4   6593 -0.01612100  12.010000   ; qtot -0.134677
 6594         hc    228    bbb     H7   6594 0.04936100   1.008000   ; qtot -0.085316
 6595         hc    228    bbb     H8   6595 0.04936100   1.008000   ; qtot -0.035955
 6596         c3    228    bbb     C5   6596 0.11363000  12.010000   ; qtot 0.077675
 6597         hc    228    bbb     H9   6597 0.06265900   1.008000   ; qtot 0.140334
 6598         hc    228    bbb    H10   6598 0.06265900   1.008000   ; qtot 0.202993
 6599         c3    228    bbb     C6   6599 0.11363000  12.010000   ; qtot 0.316623
 6600         hc    228    bbb    H11   6600 0.06265900   1.008000   ; qtot 0.379282
 6601         hc    228    bbb    H12   6601 0.06265900   1.008000   ; qtot 0.441941
 6602         c3    228    bbb     C7   6602 0.05858200  12.010000   ; qtot 0.500523
 6603         h1    228    bbb    H13   6603 0.06123400   1.008000   ; qtot 0.561757
 6604         h1    228    bbb    H14   6604 0.06123400   1.008000   ; qtot 0.622991
 6605         c3    228    bbb     C8   6605 -0.72423400  12.010000   ; qtot -0.101243
 6606         h1    228    bbb    H15   6606 0.25637600   1.008000   ; qtot 0.155133
 6607         h1    228    bbb    H16   6607 0.25637600   1.008000   ; qtot 0.411509
 6608         c3    228    bbb     C9   6608 -0.72423400  12.010000   ; qtot -0.312725
 6609         h1    228    bbb    H17   6609 0.25637600   1.008000   ; qtot -0.056349
 6610         h1    228    bbb    H18   6610 0.25637600   1.008000   ; qtot 0.200027
 6611         os    228    bbb     O1   6611 -0.20025300  16.000000   ; qtot -0.000226
; residue  229 bbb rtp bbb q -0.0
 6612         n3    229    bbb     N1   6612 -0.59685800  14.010000   ; qtot -0.597084
 6613         c3    229    bbb     C1   6613 0.10137000  12.010000   ; qtot -0.495714
 6614         h1    229    bbb     H1   6614 0.04411300   1.008000   ; qtot -0.451601
 6615         h1    229    bbb     H2   6615 0.04411300   1.008000   ; qtot -0.407488
 6616         c3    229    bbb     C2   6616 0.10137000  12.010000   ; qtot -0.306118
 6617         h1    229    bbb     H3   6617 0.04411300   1.008000   ; qtot -0.262005
 6618         h1    229    bbb     H4   6618 0.04411300   1.008000   ; qtot -0.217892
 6619         c3    229    bbb     C3   6619 -0.00195300  12.010000   ; qtot -0.219845
 6620         h1    229    bbb     H5   6620 0.05064400   1.008000   ; qtot -0.169201
 6621         h1    229    bbb     H6   6621 0.05064400   1.008000   ; qtot -0.118557
 6622         c3    229    bbb     C4   6622 -0.01612100  12.010000   ; qtot -0.134678
 6623         hc    229    bbb     H7   6623 0.04936100   1.008000   ; qtot -0.085317
 6624         hc    229    bbb     H8   6624 0.04936100   1.008000   ; qtot -0.035956
 6625         c3    229    bbb     C5   6625 0.11363000  12.010000   ; qtot 0.077674
 6626         hc    229    bbb     H9   6626 0.06265900   1.008000   ; qtot 0.140333
 6627         hc    229    bbb    H10   6627 0.06265900   1.008000   ; qtot 0.202992
 6628         c3    229    bbb     C6   6628 0.11363000  12.010000   ; qtot 0.316622
 6629         hc    229    bbb    H11   6629 0.06265900   1.008000   ; qtot 0.379281
 6630         hc    229    bbb    H12   6630 0.06265900   1.008000   ; qtot 0.441940
 6631         c3    229    bbb     C7   6631 0.05858200  12.010000   ; qtot 0.500522
 6632         h1    229    bbb    H13   6632 0.06123400   1.008000   ; qtot 0.561756
 6633         h1    229    bbb    H14   6633 0.06123400   1.008000   ; qtot 0.622990
 6634         c3    229    bbb     C8   6634 -0.72423400  12.010000   ; qtot -0.101244
 6635         h1    229    bbb    H15   6635 0.25637600   1.008000   ; qtot 0.155132
 6636         h1    229    bbb    H16   6636 0.25637600   1.008000   ; qtot 0.411508
 6637         c3    229    bbb     C9   6637 -0.72423400  12.010000   ; qtot -0.312726
 6638         h1    229    bbb    H17   6638 0.25637600   1.008000   ; qtot -0.056350
 6639         h1    229    bbb    H18   6639 0.25637600   1.008000   ; qtot 0.200026
 6640         os    229    bbb     O1   6640 -0.20025300  16.000000   ; qtot -0.000227
; residue  230 bbb rtp bbb q -0.0
 6641         n3    230    bbb     N1   6641 -0.59685800  14.010000   ; qtot -0.597085
 6642         c3    230    bbb     C1   6642 0.10137000  12.010000   ; qtot -0.495715
 6643         h1    230    bbb     H1   6643 0.04411300   1.008000   ; qtot -0.451602
 6644         h1    230    bbb     H2   6644 0.04411300   1.008000   ; qtot -0.407489
 6645         c3    230    bbb     C2   6645 0.10137000  12.010000   ; qtot -0.306119
 6646         h1    230    bbb     H3   6646 0.04411300   1.008000   ; qtot -0.262006
 6647         h1    230    bbb     H4   6647 0.04411300   1.008000   ; qtot -0.217893
 6648         c3    230    bbb     C3   6648 -0.00195300  12.010000   ; qtot -0.219846
 6649         h1    230    bbb     H5   6649 0.05064400   1.008000   ; qtot -0.169202
 6650         h1    230    bbb     H6   6650 0.05064400   1.008000   ; qtot -0.118558
 6651         c3    230    bbb     C4   6651 -0.01612100  12.010000   ; qtot -0.134679
 6652         hc    230    bbb     H7   6652 0.04936100   1.008000   ; qtot -0.085318
 6653         hc    230    bbb     H8   6653 0.04936100   1.008000   ; qtot -0.035957
 6654         c3    230    bbb     C5   6654 0.11363000  12.010000   ; qtot 0.077673
 6655         hc    230    bbb     H9   6655 0.06265900   1.008000   ; qtot 0.140332
 6656         hc    230    bbb    H10   6656 0.06265900   1.008000   ; qtot 0.202991
 6657         c3    230    bbb     C6   6657 0.11363000  12.010000   ; qtot 0.316621
 6658         hc    230    bbb    H11   6658 0.06265900   1.008000   ; qtot 0.379280
 6659         hc    230    bbb    H12   6659 0.06265900   1.008000   ; qtot 0.441939
 6660         c3    230    bbb     C7   6660 0.05858200  12.010000   ; qtot 0.500521
 6661         h1    230    bbb    H13   6661 0.06123400   1.008000   ; qtot 0.561755
 6662         h1    230    bbb    H14   6662 0.06123400   1.008000   ; qtot 0.622989
 6663         c3    230    bbb     C8   6663 -0.72423400  12.010000   ; qtot -0.101245
 6664         h1    230    bbb    H15   6664 0.25637600   1.008000   ; qtot 0.155131
 6665         h1    230    bbb    H16   6665 0.25637600   1.008000   ; qtot 0.411507
 6666         c3    230    bbb     C9   6666 -0.72423400  12.010000   ; qtot -0.312727
 6667         h1    230    bbb    H17   6667 0.25637600   1.008000   ; qtot -0.056351
 6668         h1    230    bbb    H18   6668 0.25637600   1.008000   ; qtot 0.200025
 6669         os    230    bbb     O1   6669 -0.20025300  16.000000   ; qtot -0.000228
; residue  231 bbb rtp bbb q -0.0
 6670         n3    231    bbb     N1   6670 -0.59685800  14.010000   ; qtot -0.597086
 6671         c3    231    bbb     C1   6671 0.10137000  12.010000   ; qtot -0.495716
 6672         h1    231    bbb     H1   6672 0.04411300   1.008000   ; qtot -0.451603
 6673         h1    231    bbb     H2   6673 0.04411300   1.008000   ; qtot -0.407490
 6674         c3    231    bbb     C2   6674 0.10137000  12.010000   ; qtot -0.306120
 6675         h1    231    bbb     H3   6675 0.04411300   1.008000   ; qtot -0.262007
 6676         h1    231    bbb     H4   6676 0.04411300   1.008000   ; qtot -0.217894
 6677         c3    231    bbb     C3   6677 -0.00195300  12.010000   ; qtot -0.219847
 6678         h1    231    bbb     H5   6678 0.05064400   1.008000   ; qtot -0.169203
 6679         h1    231    bbb     H6   6679 0.05064400   1.008000   ; qtot -0.118559
 6680         c3    231    bbb     C4   6680 -0.01612100  12.010000   ; qtot -0.134680
 6681         hc    231    bbb     H7   6681 0.04936100   1.008000   ; qtot -0.085319
 6682         hc    231    bbb     H8   6682 0.04936100   1.008000   ; qtot -0.035958
 6683         c3    231    bbb     C5   6683 0.11363000  12.010000   ; qtot 0.077672
 6684         hc    231    bbb     H9   6684 0.06265900   1.008000   ; qtot 0.140331
 6685         hc    231    bbb    H10   6685 0.06265900   1.008000   ; qtot 0.202990
 6686         c3    231    bbb     C6   6686 0.11363000  12.010000   ; qtot 0.316620
 6687         hc    231    bbb    H11   6687 0.06265900   1.008000   ; qtot 0.379279
 6688         hc    231    bbb    H12   6688 0.06265900   1.008000   ; qtot 0.441938
 6689         c3    231    bbb     C7   6689 0.05858200  12.010000   ; qtot 0.500520
 6690         h1    231    bbb    H13   6690 0.06123400   1.008000   ; qtot 0.561754
 6691         h1    231    bbb    H14   6691 0.06123400   1.008000   ; qtot 0.622988
 6692         c3    231    bbb     C8   6692 -0.72423400  12.010000   ; qtot -0.101246
 6693         h1    231    bbb    H15   6693 0.25637600   1.008000   ; qtot 0.155130
 6694         h1    231    bbb    H16   6694 0.25637600   1.008000   ; qtot 0.411506
 6695         c3    231    bbb     C9   6695 -0.72423400  12.010000   ; qtot -0.312728
 6696         h1    231    bbb    H17   6696 0.25637600   1.008000   ; qtot -0.056352
 6697         h1    231    bbb    H18   6697 0.25637600   1.008000   ; qtot 0.200024
 6698         os    231    bbb     O1   6698 -0.20025300  16.000000   ; qtot -0.000229
; residue  232 bbb rtp bbb q -0.0
 6699         n3    232    bbb     N1   6699 -0.59685800  14.010000   ; qtot -0.597087
 6700         c3    232    bbb     C1   6700 0.10137000  12.010000   ; qtot -0.495717
 6701         h1    232    bbb     H1   6701 0.04411300   1.008000   ; qtot -0.451604
 6702         h1    232    bbb     H2   6702 0.04411300   1.008000   ; qtot -0.407491
 6703         c3    232    bbb     C2   6703 0.10137000  12.010000   ; qtot -0.306121
 6704         h1    232    bbb     H3   6704 0.04411300   1.008000   ; qtot -0.262008
 6705         h1    232    bbb     H4   6705 0.04411300   1.008000   ; qtot -0.217895
 6706         c3    232    bbb     C3   6706 -0.00195300  12.010000   ; qtot -0.219848
 6707         h1    232    bbb     H5   6707 0.05064400   1.008000   ; qtot -0.169204
 6708         h1    232    bbb     H6   6708 0.05064400   1.008000   ; qtot -0.118560
 6709         c3    232    bbb     C4   6709 -0.01612100  12.010000   ; qtot -0.134681
 6710         hc    232    bbb     H7   6710 0.04936100   1.008000   ; qtot -0.085320
 6711         hc    232    bbb     H8   6711 0.04936100   1.008000   ; qtot -0.035959
 6712         c3    232    bbb     C5   6712 0.11363000  12.010000   ; qtot 0.077671
 6713         hc    232    bbb     H9   6713 0.06265900   1.008000   ; qtot 0.140330
 6714         hc    232    bbb    H10   6714 0.06265900   1.008000   ; qtot 0.202989
 6715         c3    232    bbb     C6   6715 0.11363000  12.010000   ; qtot 0.316619
 6716         hc    232    bbb    H11   6716 0.06265900   1.008000   ; qtot 0.379278
 6717         hc    232    bbb    H12   6717 0.06265900   1.008000   ; qtot 0.441937
 6718         c3    232    bbb     C7   6718 0.05858200  12.010000   ; qtot 0.500519
 6719         h1    232    bbb    H13   6719 0.06123400   1.008000   ; qtot 0.561753
 6720         h1    232    bbb    H14   6720 0.06123400   1.008000   ; qtot 0.622987
 6721         c3    232    bbb     C8   6721 -0.72423400  12.010000   ; qtot -0.101247
 6722         h1    232    bbb    H15   6722 0.25637600   1.008000   ; qtot 0.155129
 6723         h1    232    bbb    H16   6723 0.25637600   1.008000   ; qtot 0.411505
 6724         c3    232    bbb     C9   6724 -0.72423400  12.010000   ; qtot -0.312729
 6725         h1    232    bbb    H17   6725 0.25637600   1.008000   ; qtot -0.056353
 6726         h1    232    bbb    H18   6726 0.25637600   1.008000   ; qtot 0.200023
 6727         os    232    bbb     O1   6727 -0.20025300  16.000000   ; qtot -0.000230
; residue  233 bbb rtp bbb q -0.0
 6728         n3    233    bbb     N1   6728 -0.59685800  14.010000   ; qtot -0.597088
 6729         c3    233    bbb     C1   6729 0.10137000  12.010000   ; qtot -0.495718
 6730         h1    233    bbb     H1   6730 0.04411300   1.008000   ; qtot -0.451605
 6731         h1    233    bbb     H2   6731 0.04411300   1.008000   ; qtot -0.407492
 6732         c3    233    bbb     C2   6732 0.10137000  12.010000   ; qtot -0.306122
 6733         h1    233    bbb     H3   6733 0.04411300   1.008000   ; qtot -0.262009
 6734         h1    233    bbb     H4   6734 0.04411300   1.008000   ; qtot -0.217896
 6735         c3    233    bbb     C3   6735 -0.00195300  12.010000   ; qtot -0.219849
 6736         h1    233    bbb     H5   6736 0.05064400   1.008000   ; qtot -0.169205
 6737         h1    233    bbb     H6   6737 0.05064400   1.008000   ; qtot -0.118561
 6738         c3    233    bbb     C4   6738 -0.01612100  12.010000   ; qtot -0.134682
 6739         hc    233    bbb     H7   6739 0.04936100   1.008000   ; qtot -0.085321
 6740         hc    233    bbb     H8   6740 0.04936100   1.008000   ; qtot -0.035960
 6741         c3    233    bbb     C5   6741 0.11363000  12.010000   ; qtot 0.077670
 6742         hc    233    bbb     H9   6742 0.06265900   1.008000   ; qtot 0.140329
 6743         hc    233    bbb    H10   6743 0.06265900   1.008000   ; qtot 0.202988
 6744         c3    233    bbb     C6   6744 0.11363000  12.010000   ; qtot 0.316618
 6745         hc    233    bbb    H11   6745 0.06265900   1.008000   ; qtot 0.379277
 6746         hc    233    bbb    H12   6746 0.06265900   1.008000   ; qtot 0.441936
 6747         c3    233    bbb     C7   6747 0.05858200  12.010000   ; qtot 0.500518
 6748         h1    233    bbb    H13   6748 0.06123400   1.008000   ; qtot 0.561752
 6749         h1    233    bbb    H14   6749 0.06123400   1.008000   ; qtot 0.622986
 6750         c3    233    bbb     C8   6750 -0.72423400  12.010000   ; qtot -0.101248
 6751         h1    233    bbb    H15   6751 0.25637600   1.008000   ; qtot 0.155128
 6752         h1    233    bbb    H16   6752 0.25637600   1.008000   ; qtot 0.411504
 6753         c3    233    bbb     C9   6753 -0.72423400  12.010000   ; qtot -0.312730
 6754         h1    233    bbb    H17   6754 0.25637600   1.008000   ; qtot -0.056354
 6755         h1    233    bbb    H18   6755 0.25637600   1.008000   ; qtot 0.200022
 6756         os    233    bbb     O1   6756 -0.20025300  16.000000   ; qtot -0.000231
; residue  234 bbb rtp bbb q -0.0
 6757         n3    234    bbb     N1   6757 -0.59685800  14.010000   ; qtot -0.597089
 6758         c3    234    bbb     C1   6758 0.10137000  12.010000   ; qtot -0.495719
 6759         h1    234    bbb     H1   6759 0.04411300   1.008000   ; qtot -0.451606
 6760         h1    234    bbb     H2   6760 0.04411300   1.008000   ; qtot -0.407493
 6761         c3    234    bbb     C2   6761 0.10137000  12.010000   ; qtot -0.306123
 6762         h1    234    bbb     H3   6762 0.04411300   1.008000   ; qtot -0.262010
 6763         h1    234    bbb     H4   6763 0.04411300   1.008000   ; qtot -0.217897
 6764         c3    234    bbb     C3   6764 -0.00195300  12.010000   ; qtot -0.219850
 6765         h1    234    bbb     H5   6765 0.05064400   1.008000   ; qtot -0.169206
 6766         h1    234    bbb     H6   6766 0.05064400   1.008000   ; qtot -0.118562
 6767         c3    234    bbb     C4   6767 -0.01612100  12.010000   ; qtot -0.134683
 6768         hc    234    bbb     H7   6768 0.04936100   1.008000   ; qtot -0.085322
 6769         hc    234    bbb     H8   6769 0.04936100   1.008000   ; qtot -0.035961
 6770         c3    234    bbb     C5   6770 0.11363000  12.010000   ; qtot 0.077669
 6771         hc    234    bbb     H9   6771 0.06265900   1.008000   ; qtot 0.140328
 6772         hc    234    bbb    H10   6772 0.06265900   1.008000   ; qtot 0.202987
 6773         c3    234    bbb     C6   6773 0.11363000  12.010000   ; qtot 0.316617
 6774         hc    234    bbb    H11   6774 0.06265900   1.008000   ; qtot 0.379276
 6775         hc    234    bbb    H12   6775 0.06265900   1.008000   ; qtot 0.441935
 6776         c3    234    bbb     C7   6776 0.05858200  12.010000   ; qtot 0.500517
 6777         h1    234    bbb    H13   6777 0.06123400   1.008000   ; qtot 0.561751
 6778         h1    234    bbb    H14   6778 0.06123400   1.008000   ; qtot 0.622985
 6779         c3    234    bbb     C8   6779 -0.72423400  12.010000   ; qtot -0.101249
 6780         h1    234    bbb    H15   6780 0.25637600   1.008000   ; qtot 0.155127
 6781         h1    234    bbb    H16   6781 0.25637600   1.008000   ; qtot 0.411503
 6782         c3    234    bbb     C9   6782 -0.72423400  12.010000   ; qtot -0.312731
 6783         h1    234    bbb    H17   6783 0.25637600   1.008000   ; qtot -0.056355
 6784         h1    234    bbb    H18   6784 0.25637600   1.008000   ; qtot 0.200021
 6785         os    234    bbb     O1   6785 -0.20025300  16.000000   ; qtot -0.000232
; residue  235 bbb rtp bbb q -0.0
 6786         n3    235    bbb     N1   6786 -0.59685800  14.010000   ; qtot -0.597090
 6787         c3    235    bbb     C1   6787 0.10137000  12.010000   ; qtot -0.495720
 6788         h1    235    bbb     H1   6788 0.04411300   1.008000   ; qtot -0.451607
 6789         h1    235    bbb     H2   6789 0.04411300   1.008000   ; qtot -0.407494
 6790         c3    235    bbb     C2   6790 0.10137000  12.010000   ; qtot -0.306124
 6791         h1    235    bbb     H3   6791 0.04411300   1.008000   ; qtot -0.262011
 6792         h1    235    bbb     H4   6792 0.04411300   1.008000   ; qtot -0.217898
 6793         c3    235    bbb     C3   6793 -0.00195300  12.010000   ; qtot -0.219851
 6794         h1    235    bbb     H5   6794 0.05064400   1.008000   ; qtot -0.169207
 6795         h1    235    bbb     H6   6795 0.05064400   1.008000   ; qtot -0.118563
 6796         c3    235    bbb     C4   6796 -0.01612100  12.010000   ; qtot -0.134684
 6797         hc    235    bbb     H7   6797 0.04936100   1.008000   ; qtot -0.085323
 6798         hc    235    bbb     H8   6798 0.04936100   1.008000   ; qtot -0.035962
 6799         c3    235    bbb     C5   6799 0.11363000  12.010000   ; qtot 0.077668
 6800         hc    235    bbb     H9   6800 0.06265900   1.008000   ; qtot 0.140327
 6801         hc    235    bbb    H10   6801 0.06265900   1.008000   ; qtot 0.202986
 6802         c3    235    bbb     C6   6802 0.11363000  12.010000   ; qtot 0.316616
 6803         hc    235    bbb    H11   6803 0.06265900   1.008000   ; qtot 0.379275
 6804         hc    235    bbb    H12   6804 0.06265900   1.008000   ; qtot 0.441934
 6805         c3    235    bbb     C7   6805 0.05858200  12.010000   ; qtot 0.500516
 6806         h1    235    bbb    H13   6806 0.06123400   1.008000   ; qtot 0.561750
 6807         h1    235    bbb    H14   6807 0.06123400   1.008000   ; qtot 0.622984
 6808         c3    235    bbb     C8   6808 -0.72423400  12.010000   ; qtot -0.101250
 6809         h1    235    bbb    H15   6809 0.25637600   1.008000   ; qtot 0.155126
 6810         h1    235    bbb    H16   6810 0.25637600   1.008000   ; qtot 0.411502
 6811         c3    235    bbb     C9   6811 -0.72423400  12.010000   ; qtot -0.312732
 6812         h1    235    bbb    H17   6812 0.25637600   1.008000   ; qtot -0.056356
 6813         h1    235    bbb    H18   6813 0.25637600   1.008000   ; qtot 0.200020
 6814         os    235    bbb     O1   6814 -0.20025300  16.000000   ; qtot -0.000233
; residue  236 bbb rtp bbb q -0.0
 6815         n3    236    bbb     N1   6815 -0.59685800  14.010000   ; qtot -0.597091
 6816         c3    236    bbb     C1   6816 0.10137000  12.010000   ; qtot -0.495721
 6817         h1    236    bbb     H1   6817 0.04411300   1.008000   ; qtot -0.451608
 6818         h1    236    bbb     H2   6818 0.04411300   1.008000   ; qtot -0.407495
 6819         c3    236    bbb     C2   6819 0.10137000  12.010000   ; qtot -0.306125
 6820         h1    236    bbb     H3   6820 0.04411300   1.008000   ; qtot -0.262012
 6821         h1    236    bbb     H4   6821 0.04411300   1.008000   ; qtot -0.217899
 6822         c3    236    bbb     C3   6822 -0.00195300  12.010000   ; qtot -0.219852
 6823         h1    236    bbb     H5   6823 0.05064400   1.008000   ; qtot -0.169208
 6824         h1    236    bbb     H6   6824 0.05064400   1.008000   ; qtot -0.118564
 6825         c3    236    bbb     C4   6825 -0.01612100  12.010000   ; qtot -0.134685
 6826         hc    236    bbb     H7   6826 0.04936100   1.008000   ; qtot -0.085324
 6827         hc    236    bbb     H8   6827 0.04936100   1.008000   ; qtot -0.035963
 6828         c3    236    bbb     C5   6828 0.11363000  12.010000   ; qtot 0.077667
 6829         hc    236    bbb     H9   6829 0.06265900   1.008000   ; qtot 0.140326
 6830         hc    236    bbb    H10   6830 0.06265900   1.008000   ; qtot 0.202985
 6831         c3    236    bbb     C6   6831 0.11363000  12.010000   ; qtot 0.316615
 6832         hc    236    bbb    H11   6832 0.06265900   1.008000   ; qtot 0.379274
 6833         hc    236    bbb    H12   6833 0.06265900   1.008000   ; qtot 0.441933
 6834         c3    236    bbb     C7   6834 0.05858200  12.010000   ; qtot 0.500515
 6835         h1    236    bbb    H13   6835 0.06123400   1.008000   ; qtot 0.561749
 6836         h1    236    bbb    H14   6836 0.06123400   1.008000   ; qtot 0.622983
 6837         c3    236    bbb     C8   6837 -0.72423400  12.010000   ; qtot -0.101251
 6838         h1    236    bbb    H15   6838 0.25637600   1.008000   ; qtot 0.155125
 6839         h1    236    bbb    H16   6839 0.25637600   1.008000   ; qtot 0.411501
 6840         c3    236    bbb     C9   6840 -0.72423400  12.010000   ; qtot -0.312733
 6841         h1    236    bbb    H17   6841 0.25637600   1.008000   ; qtot -0.056357
 6842         h1    236    bbb    H18   6842 0.25637600   1.008000   ; qtot 0.200019
 6843         os    236    bbb     O1   6843 -0.20025300  16.000000   ; qtot -0.000234
; residue  237 bbb rtp bbb q -0.0
 6844         n3    237    bbb     N1   6844 -0.59685800  14.010000   ; qtot -0.597092
 6845         c3    237    bbb     C1   6845 0.10137000  12.010000   ; qtot -0.495722
 6846         h1    237    bbb     H1   6846 0.04411300   1.008000   ; qtot -0.451609
 6847         h1    237    bbb     H2   6847 0.04411300   1.008000   ; qtot -0.407496
 6848         c3    237    bbb     C2   6848 0.10137000  12.010000   ; qtot -0.306126
 6849         h1    237    bbb     H3   6849 0.04411300   1.008000   ; qtot -0.262013
 6850         h1    237    bbb     H4   6850 0.04411300   1.008000   ; qtot -0.217900
 6851         c3    237    bbb     C3   6851 -0.00195300  12.010000   ; qtot -0.219853
 6852         h1    237    bbb     H5   6852 0.05064400   1.008000   ; qtot -0.169209
 6853         h1    237    bbb     H6   6853 0.05064400   1.008000   ; qtot -0.118565
 6854         c3    237    bbb     C4   6854 -0.01612100  12.010000   ; qtot -0.134686
 6855         hc    237    bbb     H7   6855 0.04936100   1.008000   ; qtot -0.085325
 6856         hc    237    bbb     H8   6856 0.04936100   1.008000   ; qtot -0.035964
 6857         c3    237    bbb     C5   6857 0.11363000  12.010000   ; qtot 0.077666
 6858         hc    237    bbb     H9   6858 0.06265900   1.008000   ; qtot 0.140325
 6859         hc    237    bbb    H10   6859 0.06265900   1.008000   ; qtot 0.202984
 6860         c3    237    bbb     C6   6860 0.11363000  12.010000   ; qtot 0.316614
 6861         hc    237    bbb    H11   6861 0.06265900   1.008000   ; qtot 0.379273
 6862         hc    237    bbb    H12   6862 0.06265900   1.008000   ; qtot 0.441932
 6863         c3    237    bbb     C7   6863 0.05858200  12.010000   ; qtot 0.500514
 6864         h1    237    bbb    H13   6864 0.06123400   1.008000   ; qtot 0.561748
 6865         h1    237    bbb    H14   6865 0.06123400   1.008000   ; qtot 0.622982
 6866         c3    237    bbb     C8   6866 -0.72423400  12.010000   ; qtot -0.101252
 6867         h1    237    bbb    H15   6867 0.25637600   1.008000   ; qtot 0.155124
 6868         h1    237    bbb    H16   6868 0.25637600   1.008000   ; qtot 0.411500
 6869         c3    237    bbb     C9   6869 -0.72423400  12.010000   ; qtot -0.312734
 6870         h1    237    bbb    H17   6870 0.25637600   1.008000   ; qtot -0.056358
 6871         h1    237    bbb    H18   6871 0.25637600   1.008000   ; qtot 0.200018
 6872         os    237    bbb     O1   6872 -0.20025300  16.000000   ; qtot -0.000235
; residue  238 bbb rtp bbb q -0.0
 6873         n3    238    bbb     N1   6873 -0.59685800  14.010000   ; qtot -0.597093
 6874         c3    238    bbb     C1   6874 0.10137000  12.010000   ; qtot -0.495723
 6875         h1    238    bbb     H1   6875 0.04411300   1.008000   ; qtot -0.451610
 6876         h1    238    bbb     H2   6876 0.04411300   1.008000   ; qtot -0.407497
 6877         c3    238    bbb     C2   6877 0.10137000  12.010000   ; qtot -0.306127
 6878         h1    238    bbb     H3   6878 0.04411300   1.008000   ; qtot -0.262014
 6879         h1    238    bbb     H4   6879 0.04411300   1.008000   ; qtot -0.217901
 6880         c3    238    bbb     C3   6880 -0.00195300  12.010000   ; qtot -0.219854
 6881         h1    238    bbb     H5   6881 0.05064400   1.008000   ; qtot -0.169210
 6882         h1    238    bbb     H6   6882 0.05064400   1.008000   ; qtot -0.118566
 6883         c3    238    bbb     C4   6883 -0.01612100  12.010000   ; qtot -0.134687
 6884         hc    238    bbb     H7   6884 0.04936100   1.008000   ; qtot -0.085326
 6885         hc    238    bbb     H8   6885 0.04936100   1.008000   ; qtot -0.035965
 6886         c3    238    bbb     C5   6886 0.11363000  12.010000   ; qtot 0.077665
 6887         hc    238    bbb     H9   6887 0.06265900   1.008000   ; qtot 0.140324
 6888         hc    238    bbb    H10   6888 0.06265900   1.008000   ; qtot 0.202983
 6889         c3    238    bbb     C6   6889 0.11363000  12.010000   ; qtot 0.316613
 6890         hc    238    bbb    H11   6890 0.06265900   1.008000   ; qtot 0.379272
 6891         hc    238    bbb    H12   6891 0.06265900   1.008000   ; qtot 0.441931
 6892         c3    238    bbb     C7   6892 0.05858200  12.010000   ; qtot 0.500513
 6893         h1    238    bbb    H13   6893 0.06123400   1.008000   ; qtot 0.561747
 6894         h1    238    bbb    H14   6894 0.06123400   1.008000   ; qtot 0.622981
 6895         c3    238    bbb     C8   6895 -0.72423400  12.010000   ; qtot -0.101253
 6896         h1    238    bbb    H15   6896 0.25637600   1.008000   ; qtot 0.155123
 6897         h1    238    bbb    H16   6897 0.25637600   1.008000   ; qtot 0.411499
 6898         c3    238    bbb     C9   6898 -0.72423400  12.010000   ; qtot -0.312735
 6899         h1    238    bbb    H17   6899 0.25637600   1.008000   ; qtot -0.056359
 6900         h1    238    bbb    H18   6900 0.25637600   1.008000   ; qtot 0.200017
 6901         os    238    bbb     O1   6901 -0.20025300  16.000000   ; qtot -0.000236
; residue  239 bbb rtp bbb q -0.0
 6902         n3    239    bbb     N1   6902 -0.59685800  14.010000   ; qtot -0.597094
 6903         c3    239    bbb     C1   6903 0.10137000  12.010000   ; qtot -0.495724
 6904         h1    239    bbb     H1   6904 0.04411300   1.008000   ; qtot -0.451611
 6905         h1    239    bbb     H2   6905 0.04411300   1.008000   ; qtot -0.407498
 6906         c3    239    bbb     C2   6906 0.10137000  12.010000   ; qtot -0.306128
 6907         h1    239    bbb     H3   6907 0.04411300   1.008000   ; qtot -0.262015
 6908         h1    239    bbb     H4   6908 0.04411300   1.008000   ; qtot -0.217902
 6909         c3    239    bbb     C3   6909 -0.00195300  12.010000   ; qtot -0.219855
 6910         h1    239    bbb     H5   6910 0.05064400   1.008000   ; qtot -0.169211
 6911         h1    239    bbb     H6   6911 0.05064400   1.008000   ; qtot -0.118567
 6912         c3    239    bbb     C4   6912 -0.01612100  12.010000   ; qtot -0.134688
 6913         hc    239    bbb     H7   6913 0.04936100   1.008000   ; qtot -0.085327
 6914         hc    239    bbb     H8   6914 0.04936100   1.008000   ; qtot -0.035966
 6915         c3    239    bbb     C5   6915 0.11363000  12.010000   ; qtot 0.077664
 6916         hc    239    bbb     H9   6916 0.06265900   1.008000   ; qtot 0.140323
 6917         hc    239    bbb    H10   6917 0.06265900   1.008000   ; qtot 0.202982
 6918         c3    239    bbb     C6   6918 0.11363000  12.010000   ; qtot 0.316612
 6919         hc    239    bbb    H11   6919 0.06265900   1.008000   ; qtot 0.379271
 6920         hc    239    bbb    H12   6920 0.06265900   1.008000   ; qtot 0.441930
 6921         c3    239    bbb     C7   6921 0.05858200  12.010000   ; qtot 0.500512
 6922         h1    239    bbb    H13   6922 0.06123400   1.008000   ; qtot 0.561746
 6923         h1    239    bbb    H14   6923 0.06123400   1.008000   ; qtot 0.622980
 6924         c3    239    bbb     C8   6924 -0.72423400  12.010000   ; qtot -0.101254
 6925         h1    239    bbb    H15   6925 0.25637600   1.008000   ; qtot 0.155122
 6926         h1    239    bbb    H16   6926 0.25637600   1.008000   ; qtot 0.411498
 6927         c3    239    bbb     C9   6927 -0.72423400  12.010000   ; qtot -0.312736
 6928         h1    239    bbb    H17   6928 0.25637600   1.008000   ; qtot -0.056360
 6929         h1    239    bbb    H18   6929 0.25637600   1.008000   ; qtot 0.200016
 6930         os    239    bbb     O1   6930 -0.20025300  16.000000   ; qtot -0.000237
; residue  240 bbb rtp bbb q -0.0
 6931         n3    240    bbb     N1   6931 -0.59685800  14.010000   ; qtot -0.597095
 6932         c3    240    bbb     C1   6932 0.10137000  12.010000   ; qtot -0.495725
 6933         h1    240    bbb     H1   6933 0.04411300   1.008000   ; qtot -0.451612
 6934         h1    240    bbb     H2   6934 0.04411300   1.008000   ; qtot -0.407499
 6935         c3    240    bbb     C2   6935 0.10137000  12.010000   ; qtot -0.306129
 6936         h1    240    bbb     H3   6936 0.04411300   1.008000   ; qtot -0.262016
 6937         h1    240    bbb     H4   6937 0.04411300   1.008000   ; qtot -0.217903
 6938         c3    240    bbb     C3   6938 -0.00195300  12.010000   ; qtot -0.219856
 6939         h1    240    bbb     H5   6939 0.05064400   1.008000   ; qtot -0.169212
 6940         h1    240    bbb     H6   6940 0.05064400   1.008000   ; qtot -0.118568
 6941         c3    240    bbb     C4   6941 -0.01612100  12.010000   ; qtot -0.134689
 6942         hc    240    bbb     H7   6942 0.04936100   1.008000   ; qtot -0.085328
 6943         hc    240    bbb     H8   6943 0.04936100   1.008000   ; qtot -0.035967
 6944         c3    240    bbb     C5   6944 0.11363000  12.010000   ; qtot 0.077663
 6945         hc    240    bbb     H9   6945 0.06265900   1.008000   ; qtot 0.140322
 6946         hc    240    bbb    H10   6946 0.06265900   1.008000   ; qtot 0.202981
 6947         c3    240    bbb     C6   6947 0.11363000  12.010000   ; qtot 0.316611
 6948         hc    240    bbb    H11   6948 0.06265900   1.008000   ; qtot 0.379270
 6949         hc    240    bbb    H12   6949 0.06265900   1.008000   ; qtot 0.441929
 6950         c3    240    bbb     C7   6950 0.05858200  12.010000   ; qtot 0.500511
 6951         h1    240    bbb    H13   6951 0.06123400   1.008000   ; qtot 0.561745
 6952         h1    240    bbb    H14   6952 0.06123400   1.008000   ; qtot 0.622979
 6953         c3    240    bbb     C8   6953 -0.72423400  12.010000   ; qtot -0.101255
 6954         h1    240    bbb    H15   6954 0.25637600   1.008000   ; qtot 0.155121
 6955         h1    240    bbb    H16   6955 0.25637600   1.008000   ; qtot 0.411497
 6956         c3    240    bbb     C9   6956 -0.72423400  12.010000   ; qtot -0.312737
 6957         h1    240    bbb    H17   6957 0.25637600   1.008000   ; qtot -0.056361
 6958         h1    240    bbb    H18   6958 0.25637600   1.008000   ; qtot 0.200015
 6959         os    240    bbb     O1   6959 -0.20025300  16.000000   ; qtot -0.000238
; residue  241 bbb rtp bbb q -0.0
 6960         n3    241    bbb     N1   6960 -0.59685800  14.010000   ; qtot -0.597096
 6961         c3    241    bbb     C1   6961 0.10137000  12.010000   ; qtot -0.495726
 6962         h1    241    bbb     H1   6962 0.04411300   1.008000   ; qtot -0.451613
 6963         h1    241    bbb     H2   6963 0.04411300   1.008000   ; qtot -0.407500
 6964         c3    241    bbb     C2   6964 0.10137000  12.010000   ; qtot -0.306130
 6965         h1    241    bbb     H3   6965 0.04411300   1.008000   ; qtot -0.262017
 6966         h1    241    bbb     H4   6966 0.04411300   1.008000   ; qtot -0.217904
 6967         c3    241    bbb     C3   6967 -0.00195300  12.010000   ; qtot -0.219857
 6968         h1    241    bbb     H5   6968 0.05064400   1.008000   ; qtot -0.169213
 6969         h1    241    bbb     H6   6969 0.05064400   1.008000   ; qtot -0.118569
 6970         c3    241    bbb     C4   6970 -0.01612100  12.010000   ; qtot -0.134690
 6971         hc    241    bbb     H7   6971 0.04936100   1.008000   ; qtot -0.085329
 6972         hc    241    bbb     H8   6972 0.04936100   1.008000   ; qtot -0.035968
 6973         c3    241    bbb     C5   6973 0.11363000  12.010000   ; qtot 0.077662
 6974         hc    241    bbb     H9   6974 0.06265900   1.008000   ; qtot 0.140321
 6975         hc    241    bbb    H10   6975 0.06265900   1.008000   ; qtot 0.202980
 6976         c3    241    bbb     C6   6976 0.11363000  12.010000   ; qtot 0.316610
 6977         hc    241    bbb    H11   6977 0.06265900   1.008000   ; qtot 0.379269
 6978         hc    241    bbb    H12   6978 0.06265900   1.008000   ; qtot 0.441928
 6979         c3    241    bbb     C7   6979 0.05858200  12.010000   ; qtot 0.500510
 6980         h1    241    bbb    H13   6980 0.06123400   1.008000   ; qtot 0.561744
 6981         h1    241    bbb    H14   6981 0.06123400   1.008000   ; qtot 0.622978
 6982         c3    241    bbb     C8   6982 -0.72423400  12.010000   ; qtot -0.101256
 6983         h1    241    bbb    H15   6983 0.25637600   1.008000   ; qtot 0.155120
 6984         h1    241    bbb    H16   6984 0.25637600   1.008000   ; qtot 0.411496
 6985         c3    241    bbb     C9   6985 -0.72423400  12.010000   ; qtot -0.312738
 6986         h1    241    bbb    H17   6986 0.25637600   1.008000   ; qtot -0.056362
 6987         h1    241    bbb    H18   6987 0.25637600   1.008000   ; qtot 0.200014
 6988         os    241    bbb     O1   6988 -0.20025300  16.000000   ; qtot -0.000239
; residue  242 bbb rtp bbb q -0.0
 6989         n3    242    bbb     N1   6989 -0.59685800  14.010000   ; qtot -0.597097
 6990         c3    242    bbb     C1   6990 0.10137000  12.010000   ; qtot -0.495727
 6991         h1    242    bbb     H1   6991 0.04411300   1.008000   ; qtot -0.451614
 6992         h1    242    bbb     H2   6992 0.04411300   1.008000   ; qtot -0.407501
 6993         c3    242    bbb     C2   6993 0.10137000  12.010000   ; qtot -0.306131
 6994         h1    242    bbb     H3   6994 0.04411300   1.008000   ; qtot -0.262018
 6995         h1    242    bbb     H4   6995 0.04411300   1.008000   ; qtot -0.217905
 6996         c3    242    bbb     C3   6996 -0.00195300  12.010000   ; qtot -0.219858
 6997         h1    242    bbb     H5   6997 0.05064400   1.008000   ; qtot -0.169214
 6998         h1    242    bbb     H6   6998 0.05064400   1.008000   ; qtot -0.118570
 6999         c3    242    bbb     C4   6999 -0.01612100  12.010000   ; qtot -0.134691
 7000         hc    242    bbb     H7   7000 0.04936100   1.008000   ; qtot -0.085330
 7001         hc    242    bbb     H8   7001 0.04936100   1.008000   ; qtot -0.035969
 7002         c3    242    bbb     C5   7002 0.11363000  12.010000   ; qtot 0.077661
 7003         hc    242    bbb     H9   7003 0.06265900   1.008000   ; qtot 0.140320
 7004         hc    242    bbb    H10   7004 0.06265900   1.008000   ; qtot 0.202979
 7005         c3    242    bbb     C6   7005 0.11363000  12.010000   ; qtot 0.316609
 7006         hc    242    bbb    H11   7006 0.06265900   1.008000   ; qtot 0.379268
 7007         hc    242    bbb    H12   7007 0.06265900   1.008000   ; qtot 0.441927
 7008         c3    242    bbb     C7   7008 0.05858200  12.010000   ; qtot 0.500509
 7009         h1    242    bbb    H13   7009 0.06123400   1.008000   ; qtot 0.561743
 7010         h1    242    bbb    H14   7010 0.06123400   1.008000   ; qtot 0.622977
 7011         c3    242    bbb     C8   7011 -0.72423400  12.010000   ; qtot -0.101257
 7012         h1    242    bbb    H15   7012 0.25637600   1.008000   ; qtot 0.155119
 7013         h1    242    bbb    H16   7013 0.25637600   1.008000   ; qtot 0.411495
 7014         c3    242    bbb     C9   7014 -0.72423400  12.010000   ; qtot -0.312739
 7015         h1    242    bbb    H17   7015 0.25637600   1.008000   ; qtot -0.056363
 7016         h1    242    bbb    H18   7016 0.25637600   1.008000   ; qtot 0.200013
 7017         os    242    bbb     O1   7017 -0.20025300  16.000000   ; qtot -0.000240
; residue  243 bbb rtp bbb q -0.0
 7018         n3    243    bbb     N1   7018 -0.59685800  14.010000   ; qtot -0.597098
 7019         c3    243    bbb     C1   7019 0.10137000  12.010000   ; qtot -0.495728
 7020         h1    243    bbb     H1   7020 0.04411300   1.008000   ; qtot -0.451615
 7021         h1    243    bbb     H2   7021 0.04411300   1.008000   ; qtot -0.407502
 7022         c3    243    bbb     C2   7022 0.10137000  12.010000   ; qtot -0.306132
 7023         h1    243    bbb     H3   7023 0.04411300   1.008000   ; qtot -0.262019
 7024         h1    243    bbb     H4   7024 0.04411300   1.008000   ; qtot -0.217906
 7025         c3    243    bbb     C3   7025 -0.00195300  12.010000   ; qtot -0.219859
 7026         h1    243    bbb     H5   7026 0.05064400   1.008000   ; qtot -0.169215
 7027         h1    243    bbb     H6   7027 0.05064400   1.008000   ; qtot -0.118571
 7028         c3    243    bbb     C4   7028 -0.01612100  12.010000   ; qtot -0.134692
 7029         hc    243    bbb     H7   7029 0.04936100   1.008000   ; qtot -0.085331
 7030         hc    243    bbb     H8   7030 0.04936100   1.008000   ; qtot -0.035970
 7031         c3    243    bbb     C5   7031 0.11363000  12.010000   ; qtot 0.077660
 7032         hc    243    bbb     H9   7032 0.06265900   1.008000   ; qtot 0.140319
 7033         hc    243    bbb    H10   7033 0.06265900   1.008000   ; qtot 0.202978
 7034         c3    243    bbb     C6   7034 0.11363000  12.010000   ; qtot 0.316608
 7035         hc    243    bbb    H11   7035 0.06265900   1.008000   ; qtot 0.379267
 7036         hc    243    bbb    H12   7036 0.06265900   1.008000   ; qtot 0.441926
 7037         c3    243    bbb     C7   7037 0.05858200  12.010000   ; qtot 0.500508
 7038         h1    243    bbb    H13   7038 0.06123400   1.008000   ; qtot 0.561742
 7039         h1    243    bbb    H14   7039 0.06123400   1.008000   ; qtot 0.622976
 7040         c3    243    bbb     C8   7040 -0.72423400  12.010000   ; qtot -0.101258
 7041         h1    243    bbb    H15   7041 0.25637600   1.008000   ; qtot 0.155118
 7042         h1    243    bbb    H16   7042 0.25637600   1.008000   ; qtot 0.411494
 7043         c3    243    bbb     C9   7043 -0.72423400  12.010000   ; qtot -0.312740
 7044         h1    243    bbb    H17   7044 0.25637600   1.008000   ; qtot -0.056364
 7045         h1    243    bbb    H18   7045 0.25637600   1.008000   ; qtot 0.200012
 7046         os    243    bbb     O1   7046 -0.20025300  16.000000   ; qtot -0.000241
; residue  244 bbb rtp bbb q -0.0
 7047         n3    244    bbb     N1   7047 -0.59685800  14.010000   ; qtot -0.597099
 7048         c3    244    bbb     C1   7048 0.10137000  12.010000   ; qtot -0.495729
 7049         h1    244    bbb     H1   7049 0.04411300   1.008000   ; qtot -0.451616
 7050         h1    244    bbb     H2   7050 0.04411300   1.008000   ; qtot -0.407503
 7051         c3    244    bbb     C2   7051 0.10137000  12.010000   ; qtot -0.306133
 7052         h1    244    bbb     H3   7052 0.04411300   1.008000   ; qtot -0.262020
 7053         h1    244    bbb     H4   7053 0.04411300   1.008000   ; qtot -0.217907
 7054         c3    244    bbb     C3   7054 -0.00195300  12.010000   ; qtot -0.219860
 7055         h1    244    bbb     H5   7055 0.05064400   1.008000   ; qtot -0.169216
 7056         h1    244    bbb     H6   7056 0.05064400   1.008000   ; qtot -0.118572
 7057         c3    244    bbb     C4   7057 -0.01612100  12.010000   ; qtot -0.134693
 7058         hc    244    bbb     H7   7058 0.04936100   1.008000   ; qtot -0.085332
 7059         hc    244    bbb     H8   7059 0.04936100   1.008000   ; qtot -0.035971
 7060         c3    244    bbb     C5   7060 0.11363000  12.010000   ; qtot 0.077659
 7061         hc    244    bbb     H9   7061 0.06265900   1.008000   ; qtot 0.140318
 7062         hc    244    bbb    H10   7062 0.06265900   1.008000   ; qtot 0.202977
 7063         c3    244    bbb     C6   7063 0.11363000  12.010000   ; qtot 0.316607
 7064         hc    244    bbb    H11   7064 0.06265900   1.008000   ; qtot 0.379266
 7065         hc    244    bbb    H12   7065 0.06265900   1.008000   ; qtot 0.441925
 7066         c3    244    bbb     C7   7066 0.05858200  12.010000   ; qtot 0.500507
 7067         h1    244    bbb    H13   7067 0.06123400   1.008000   ; qtot 0.561741
 7068         h1    244    bbb    H14   7068 0.06123400   1.008000   ; qtot 0.622975
 7069         c3    244    bbb     C8   7069 -0.72423400  12.010000   ; qtot -0.101259
 7070         h1    244    bbb    H15   7070 0.25637600   1.008000   ; qtot 0.155117
 7071         h1    244    bbb    H16   7071 0.25637600   1.008000   ; qtot 0.411493
 7072         c3    244    bbb     C9   7072 -0.72423400  12.010000   ; qtot -0.312741
 7073         h1    244    bbb    H17   7073 0.25637600   1.008000   ; qtot -0.056365
 7074         h1    244    bbb    H18   7074 0.25637600   1.008000   ; qtot 0.200011
 7075         os    244    bbb     O1   7075 -0.20025300  16.000000   ; qtot -0.000242
; residue  245 bbb rtp bbb q -0.0
 7076         n3    245    bbb     N1   7076 -0.59685800  14.010000   ; qtot -0.597100
 7077         c3    245    bbb     C1   7077 0.10137000  12.010000   ; qtot -0.495730
 7078         h1    245    bbb     H1   7078 0.04411300   1.008000   ; qtot -0.451617
 7079         h1    245    bbb     H2   7079 0.04411300   1.008000   ; qtot -0.407504
 7080         c3    245    bbb     C2   7080 0.10137000  12.010000   ; qtot -0.306134
 7081         h1    245    bbb     H3   7081 0.04411300   1.008000   ; qtot -0.262021
 7082         h1    245    bbb     H4   7082 0.04411300   1.008000   ; qtot -0.217908
 7083         c3    245    bbb     C3   7083 -0.00195300  12.010000   ; qtot -0.219861
 7084         h1    245    bbb     H5   7084 0.05064400   1.008000   ; qtot -0.169217
 7085         h1    245    bbb     H6   7085 0.05064400   1.008000   ; qtot -0.118573
 7086         c3    245    bbb     C4   7086 -0.01612100  12.010000   ; qtot -0.134694
 7087         hc    245    bbb     H7   7087 0.04936100   1.008000   ; qtot -0.085333
 7088         hc    245    bbb     H8   7088 0.04936100   1.008000   ; qtot -0.035972
 7089         c3    245    bbb     C5   7089 0.11363000  12.010000   ; qtot 0.077658
 7090         hc    245    bbb     H9   7090 0.06265900   1.008000   ; qtot 0.140317
 7091         hc    245    bbb    H10   7091 0.06265900   1.008000   ; qtot 0.202976
 7092         c3    245    bbb     C6   7092 0.11363000  12.010000   ; qtot 0.316606
 7093         hc    245    bbb    H11   7093 0.06265900   1.008000   ; qtot 0.379265
 7094         hc    245    bbb    H12   7094 0.06265900   1.008000   ; qtot 0.441924
 7095         c3    245    bbb     C7   7095 0.05858200  12.010000   ; qtot 0.500506
 7096         h1    245    bbb    H13   7096 0.06123400   1.008000   ; qtot 0.561740
 7097         h1    245    bbb    H14   7097 0.06123400   1.008000   ; qtot 0.622974
 7098         c3    245    bbb     C8   7098 -0.72423400  12.010000   ; qtot -0.101260
 7099         h1    245    bbb    H15   7099 0.25637600   1.008000   ; qtot 0.155116
 7100         h1    245    bbb    H16   7100 0.25637600   1.008000   ; qtot 0.411492
 7101         c3    245    bbb     C9   7101 -0.72423400  12.010000   ; qtot -0.312742
 7102         h1    245    bbb    H17   7102 0.25637600   1.008000   ; qtot -0.056366
 7103         h1    245    bbb    H18   7103 0.25637600   1.008000   ; qtot 0.200010
 7104         os    245    bbb     O1   7104 -0.20025300  16.000000   ; qtot -0.000243
; residue  246 bbb rtp bbb q -0.0
 7105         n3    246    bbb     N1   7105 -0.59685800  14.010000   ; qtot -0.597101
 7106         c3    246    bbb     C1   7106 0.10137000  12.010000   ; qtot -0.495731
 7107         h1    246    bbb     H1   7107 0.04411300   1.008000   ; qtot -0.451618
 7108         h1    246    bbb     H2   7108 0.04411300   1.008000   ; qtot -0.407505
 7109         c3    246    bbb     C2   7109 0.10137000  12.010000   ; qtot -0.306135
 7110         h1    246    bbb     H3   7110 0.04411300   1.008000   ; qtot -0.262022
 7111         h1    246    bbb     H4   7111 0.04411300   1.008000   ; qtot -0.217909
 7112         c3    246    bbb     C3   7112 -0.00195300  12.010000   ; qtot -0.219862
 7113         h1    246    bbb     H5   7113 0.05064400   1.008000   ; qtot -0.169218
 7114         h1    246    bbb     H6   7114 0.05064400   1.008000   ; qtot -0.118574
 7115         c3    246    bbb     C4   7115 -0.01612100  12.010000   ; qtot -0.134695
 7116         hc    246    bbb     H7   7116 0.04936100   1.008000   ; qtot -0.085334
 7117         hc    246    bbb     H8   7117 0.04936100   1.008000   ; qtot -0.035973
 7118         c3    246    bbb     C5   7118 0.11363000  12.010000   ; qtot 0.077657
 7119         hc    246    bbb     H9   7119 0.06265900   1.008000   ; qtot 0.140316
 7120         hc    246    bbb    H10   7120 0.06265900   1.008000   ; qtot 0.202975
 7121         c3    246    bbb     C6   7121 0.11363000  12.010000   ; qtot 0.316605
 7122         hc    246    bbb    H11   7122 0.06265900   1.008000   ; qtot 0.379264
 7123         hc    246    bbb    H12   7123 0.06265900   1.008000   ; qtot 0.441923
 7124         c3    246    bbb     C7   7124 0.05858200  12.010000   ; qtot 0.500505
 7125         h1    246    bbb    H13   7125 0.06123400   1.008000   ; qtot 0.561739
 7126         h1    246    bbb    H14   7126 0.06123400   1.008000   ; qtot 0.622973
 7127         c3    246    bbb     C8   7127 -0.72423400  12.010000   ; qtot -0.101261
 7128         h1    246    bbb    H15   7128 0.25637600   1.008000   ; qtot 0.155115
 7129         h1    246    bbb    H16   7129 0.25637600   1.008000   ; qtot 0.411491
 7130         c3    246    bbb     C9   7130 -0.72423400  12.010000   ; qtot -0.312743
 7131         h1    246    bbb    H17   7131 0.25637600   1.008000   ; qtot -0.056367
 7132         h1    246    bbb    H18   7132 0.25637600   1.008000   ; qtot 0.200009
 7133         os    246    bbb     O1   7133 -0.20025300  16.000000   ; qtot -0.000244
; residue  247 bbb rtp bbb q -0.0
 7134         n3    247    bbb     N1   7134 -0.59685800  14.010000   ; qtot -0.597102
 7135         c3    247    bbb     C1   7135 0.10137000  12.010000   ; qtot -0.495732
 7136         h1    247    bbb     H1   7136 0.04411300   1.008000   ; qtot -0.451619
 7137         h1    247    bbb     H2   7137 0.04411300   1.008000   ; qtot -0.407506
 7138         c3    247    bbb     C2   7138 0.10137000  12.010000   ; qtot -0.306136
 7139         h1    247    bbb     H3   7139 0.04411300   1.008000   ; qtot -0.262023
 7140         h1    247    bbb     H4   7140 0.04411300   1.008000   ; qtot -0.217910
 7141         c3    247    bbb     C3   7141 -0.00195300  12.010000   ; qtot -0.219863
 7142         h1    247    bbb     H5   7142 0.05064400   1.008000   ; qtot -0.169219
 7143         h1    247    bbb     H6   7143 0.05064400   1.008000   ; qtot -0.118575
 7144         c3    247    bbb     C4   7144 -0.01612100  12.010000   ; qtot -0.134696
 7145         hc    247    bbb     H7   7145 0.04936100   1.008000   ; qtot -0.085335
 7146         hc    247    bbb     H8   7146 0.04936100   1.008000   ; qtot -0.035974
 7147         c3    247    bbb     C5   7147 0.11363000  12.010000   ; qtot 0.077656
 7148         hc    247    bbb     H9   7148 0.06265900   1.008000   ; qtot 0.140315
 7149         hc    247    bbb    H10   7149 0.06265900   1.008000   ; qtot 0.202974
 7150         c3    247    bbb     C6   7150 0.11363000  12.010000   ; qtot 0.316604
 7151         hc    247    bbb    H11   7151 0.06265900   1.008000   ; qtot 0.379263
 7152         hc    247    bbb    H12   7152 0.06265900   1.008000   ; qtot 0.441922
 7153         c3    247    bbb     C7   7153 0.05858200  12.010000   ; qtot 0.500504
 7154         h1    247    bbb    H13   7154 0.06123400   1.008000   ; qtot 0.561738
 7155         h1    247    bbb    H14   7155 0.06123400   1.008000   ; qtot 0.622972
 7156         c3    247    bbb     C8   7156 -0.72423400  12.010000   ; qtot -0.101262
 7157         h1    247    bbb    H15   7157 0.25637600   1.008000   ; qtot 0.155114
 7158         h1    247    bbb    H16   7158 0.25637600   1.008000   ; qtot 0.411490
 7159         c3    247    bbb     C9   7159 -0.72423400  12.010000   ; qtot -0.312744
 7160         h1    247    bbb    H17   7160 0.25637600   1.008000   ; qtot -0.056368
 7161         h1    247    bbb    H18   7161 0.25637600   1.008000   ; qtot 0.200008
 7162         os    247    bbb     O1   7162 -0.20025300  16.000000   ; qtot -0.000245
; residue  248 bbb rtp bbb q -0.0
 7163         n3    248    bbb     N1   7163 -0.59685800  14.010000   ; qtot -0.597103
 7164         c3    248    bbb     C1   7164 0.10137000  12.010000   ; qtot -0.495733
 7165         h1    248    bbb     H1   7165 0.04411300   1.008000   ; qtot -0.451620
 7166         h1    248    bbb     H2   7166 0.04411300   1.008000   ; qtot -0.407507
 7167         c3    248    bbb     C2   7167 0.10137000  12.010000   ; qtot -0.306137
 7168         h1    248    bbb     H3   7168 0.04411300   1.008000   ; qtot -0.262024
 7169         h1    248    bbb     H4   7169 0.04411300   1.008000   ; qtot -0.217911
 7170         c3    248    bbb     C3   7170 -0.00195300  12.010000   ; qtot -0.219864
 7171         h1    248    bbb     H5   7171 0.05064400   1.008000   ; qtot -0.169220
 7172         h1    248    bbb     H6   7172 0.05064400   1.008000   ; qtot -0.118576
 7173         c3    248    bbb     C4   7173 -0.01612100  12.010000   ; qtot -0.134697
 7174         hc    248    bbb     H7   7174 0.04936100   1.008000   ; qtot -0.085336
 7175         hc    248    bbb     H8   7175 0.04936100   1.008000   ; qtot -0.035975
 7176         c3    248    bbb     C5   7176 0.11363000  12.010000   ; qtot 0.077655
 7177         hc    248    bbb     H9   7177 0.06265900   1.008000   ; qtot 0.140314
 7178         hc    248    bbb    H10   7178 0.06265900   1.008000   ; qtot 0.202973
 7179         c3    248    bbb     C6   7179 0.11363000  12.010000   ; qtot 0.316603
 7180         hc    248    bbb    H11   7180 0.06265900   1.008000   ; qtot 0.379262
 7181         hc    248    bbb    H12   7181 0.06265900   1.008000   ; qtot 0.441921
 7182         c3    248    bbb     C7   7182 0.05858200  12.010000   ; qtot 0.500503
 7183         h1    248    bbb    H13   7183 0.06123400   1.008000   ; qtot 0.561737
 7184         h1    248    bbb    H14   7184 0.06123400   1.008000   ; qtot 0.622971
 7185         c3    248    bbb     C8   7185 -0.72423400  12.010000   ; qtot -0.101263
 7186         h1    248    bbb    H15   7186 0.25637600   1.008000   ; qtot 0.155113
 7187         h1    248    bbb    H16   7187 0.25637600   1.008000   ; qtot 0.411489
 7188         c3    248    bbb     C9   7188 -0.72423400  12.010000   ; qtot -0.312745
 7189         h1    248    bbb    H17   7189 0.25637600   1.008000   ; qtot -0.056369
 7190         h1    248    bbb    H18   7190 0.25637600   1.008000   ; qtot 0.200007
 7191         os    248    bbb     O1   7191 -0.20025300  16.000000   ; qtot -0.000246
; residue  249 bbb rtp bbb q -0.0
 7192         n3    249    bbb     N1   7192 -0.59685800  14.010000   ; qtot -0.597104
 7193         c3    249    bbb     C1   7193 0.10137000  12.010000   ; qtot -0.495734
 7194         h1    249    bbb     H1   7194 0.04411300   1.008000   ; qtot -0.451621
 7195         h1    249    bbb     H2   7195 0.04411300   1.008000   ; qtot -0.407508
 7196         c3    249    bbb     C2   7196 0.10137000  12.010000   ; qtot -0.306138
 7197         h1    249    bbb     H3   7197 0.04411300   1.008000   ; qtot -0.262025
 7198         h1    249    bbb     H4   7198 0.04411300   1.008000   ; qtot -0.217912
 7199         c3    249    bbb     C3   7199 -0.00195300  12.010000   ; qtot -0.219865
 7200         h1    249    bbb     H5   7200 0.05064400   1.008000   ; qtot -0.169221
 7201         h1    249    bbb     H6   7201 0.05064400   1.008000   ; qtot -0.118577
 7202         c3    249    bbb     C4   7202 -0.01612100  12.010000   ; qtot -0.134698
 7203         hc    249    bbb     H7   7203 0.04936100   1.008000   ; qtot -0.085337
 7204         hc    249    bbb     H8   7204 0.04936100   1.008000   ; qtot -0.035976
 7205         c3    249    bbb     C5   7205 0.11363000  12.010000   ; qtot 0.077654
 7206         hc    249    bbb     H9   7206 0.06265900   1.008000   ; qtot 0.140313
 7207         hc    249    bbb    H10   7207 0.06265900   1.008000   ; qtot 0.202972
 7208         c3    249    bbb     C6   7208 0.11363000  12.010000   ; qtot 0.316602
 7209         hc    249    bbb    H11   7209 0.06265900   1.008000   ; qtot 0.379261
 7210         hc    249    bbb    H12   7210 0.06265900   1.008000   ; qtot 0.441920
 7211         c3    249    bbb     C7   7211 0.05858200  12.010000   ; qtot 0.500502
 7212         h1    249    bbb    H13   7212 0.06123400   1.008000   ; qtot 0.561736
 7213         h1    249    bbb    H14   7213 0.06123400   1.008000   ; qtot 0.622970
 7214         c3    249    bbb     C8   7214 -0.72423400  12.010000   ; qtot -0.101264
 7215         h1    249    bbb    H15   7215 0.25637600   1.008000   ; qtot 0.155112
 7216         h1    249    bbb    H16   7216 0.25637600   1.008000   ; qtot 0.411488
 7217         c3    249    bbb     C9   7217 -0.72423400  12.010000   ; qtot -0.312746
 7218         h1    249    bbb    H17   7218 0.25637600   1.008000   ; qtot -0.056370
 7219         h1    249    bbb    H18   7219 0.25637600   1.008000   ; qtot 0.200006
 7220         os    249    bbb     O1   7220 -0.20025300  16.000000   ; qtot -0.000247
; residue  250 bbb rtp bbb q -0.0
 7221         n3    250    bbb     N1   7221 -0.59685800  14.010000   ; qtot -0.597105
 7222         c3    250    bbb     C1   7222 0.10137000  12.010000   ; qtot -0.495735
 7223         h1    250    bbb     H1   7223 0.04411300   1.008000   ; qtot -0.451622
 7224         h1    250    bbb     H2   7224 0.04411300   1.008000   ; qtot -0.407509
 7225         c3    250    bbb     C2   7225 0.10137000  12.010000   ; qtot -0.306139
 7226         h1    250    bbb     H3   7226 0.04411300   1.008000   ; qtot -0.262026
 7227         h1    250    bbb     H4   7227 0.04411300   1.008000   ; qtot -0.217913
 7228         c3    250    bbb     C3   7228 -0.00195300  12.010000   ; qtot -0.219866
 7229         h1    250    bbb     H5   7229 0.05064400   1.008000   ; qtot -0.169222
 7230         h1    250    bbb     H6   7230 0.05064400   1.008000   ; qtot -0.118578
 7231         c3    250    bbb     C4   7231 -0.01612100  12.010000   ; qtot -0.134699
 7232         hc    250    bbb     H7   7232 0.04936100   1.008000   ; qtot -0.085338
 7233         hc    250    bbb     H8   7233 0.04936100   1.008000   ; qtot -0.035977
 7234         c3    250    bbb     C5   7234 0.11363000  12.010000   ; qtot 0.077653
 7235         hc    250    bbb     H9   7235 0.06265900   1.008000   ; qtot 0.140312
 7236         hc    250    bbb    H10   7236 0.06265900   1.008000   ; qtot 0.202971
 7237         c3    250    bbb     C6   7237 0.11363000  12.010000   ; qtot 0.316601
 7238         hc    250    bbb    H11   7238 0.06265900   1.008000   ; qtot 0.379260
 7239         hc    250    bbb    H12   7239 0.06265900   1.008000   ; qtot 0.441919
 7240         c3    250    bbb     C7   7240 0.05858200  12.010000   ; qtot 0.500501
 7241         h1    250    bbb    H13   7241 0.06123400   1.008000   ; qtot 0.561735
 7242         h1    250    bbb    H14   7242 0.06123400   1.008000   ; qtot 0.622969
 7243         c3    250    bbb     C8   7243 -0.72423400  12.010000   ; qtot -0.101265
 7244         h1    250    bbb    H15   7244 0.25637600   1.008000   ; qtot 0.155111
 7245         h1    250    bbb    H16   7245 0.25637600   1.008000   ; qtot 0.411487
 7246         c3    250    bbb     C9   7246 -0.72423400  12.010000   ; qtot -0.312747
 7247         h1    250    bbb    H17   7247 0.25637600   1.008000   ; qtot -0.056371
 7248         h1    250    bbb    H18   7248 0.25637600   1.008000   ; qtot 0.200005
 7249         os    250    bbb     O1   7249 -0.20025300  16.000000   ; qtot -0.000248
; residue  251 bbb rtp bbb q -0.0
 7250         n3    251    bbb     N1   7250 -0.59685800  14.010000   ; qtot -0.597106
 7251         c3    251    bbb     C1   7251 0.10137000  12.010000   ; qtot -0.495736
 7252         h1    251    bbb     H1   7252 0.04411300   1.008000   ; qtot -0.451623
 7253         h1    251    bbb     H2   7253 0.04411300   1.008000   ; qtot -0.407510
 7254         c3    251    bbb     C2   7254 0.10137000  12.010000   ; qtot -0.306140
 7255         h1    251    bbb     H3   7255 0.04411300   1.008000   ; qtot -0.262027
 7256         h1    251    bbb     H4   7256 0.04411300   1.008000   ; qtot -0.217914
 7257         c3    251    bbb     C3   7257 -0.00195300  12.010000   ; qtot -0.219867
 7258         h1    251    bbb     H5   7258 0.05064400   1.008000   ; qtot -0.169223
 7259         h1    251    bbb     H6   7259 0.05064400   1.008000   ; qtot -0.118579
 7260         c3    251    bbb     C4   7260 -0.01612100  12.010000   ; qtot -0.134700
 7261         hc    251    bbb     H7   7261 0.04936100   1.008000   ; qtot -0.085339
 7262         hc    251    bbb     H8   7262 0.04936100   1.008000   ; qtot -0.035978
 7263         c3    251    bbb     C5   7263 0.11363000  12.010000   ; qtot 0.077652
 7264         hc    251    bbb     H9   7264 0.06265900   1.008000   ; qtot 0.140311
 7265         hc    251    bbb    H10   7265 0.06265900   1.008000   ; qtot 0.202970
 7266         c3    251    bbb     C6   7266 0.11363000  12.010000   ; qtot 0.316600
 7267         hc    251    bbb    H11   7267 0.06265900   1.008000   ; qtot 0.379259
 7268         hc    251    bbb    H12   7268 0.06265900   1.008000   ; qtot 0.441918
 7269         c3    251    bbb     C7   7269 0.05858200  12.010000   ; qtot 0.500500
 7270         h1    251    bbb    H13   7270 0.06123400   1.008000   ; qtot 0.561734
 7271         h1    251    bbb    H14   7271 0.06123400   1.008000   ; qtot 0.622968
 7272         c3    251    bbb     C8   7272 -0.72423400  12.010000   ; qtot -0.101266
 7273         h1    251    bbb    H15   7273 0.25637600   1.008000   ; qtot 0.155110
 7274         h1    251    bbb    H16   7274 0.25637600   1.008000   ; qtot 0.411486
 7275         c3    251    bbb     C9   7275 -0.72423400  12.010000   ; qtot -0.312748
 7276         h1    251    bbb    H17   7276 0.25637600   1.008000   ; qtot -0.056372
 7277         h1    251    bbb    H18   7277 0.25637600   1.008000   ; qtot 0.200004
 7278         os    251    bbb     O1   7278 -0.20025300  16.000000   ; qtot -0.000249
; residue  252 bbb rtp bbb q -0.0
 7279         n3    252    bbb     N1   7279 -0.59685800  14.010000   ; qtot -0.597107
 7280         c3    252    bbb     C1   7280 0.10137000  12.010000   ; qtot -0.495737
 7281         h1    252    bbb     H1   7281 0.04411300   1.008000   ; qtot -0.451624
 7282         h1    252    bbb     H2   7282 0.04411300   1.008000   ; qtot -0.407511
 7283         c3    252    bbb     C2   7283 0.10137000  12.010000   ; qtot -0.306141
 7284         h1    252    bbb     H3   7284 0.04411300   1.008000   ; qtot -0.262028
 7285         h1    252    bbb     H4   7285 0.04411300   1.008000   ; qtot -0.217915
 7286         c3    252    bbb     C3   7286 -0.00195300  12.010000   ; qtot -0.219868
 7287         h1    252    bbb     H5   7287 0.05064400   1.008000   ; qtot -0.169224
 7288         h1    252    bbb     H6   7288 0.05064400   1.008000   ; qtot -0.118580
 7289         c3    252    bbb     C4   7289 -0.01612100  12.010000   ; qtot -0.134701
 7290         hc    252    bbb     H7   7290 0.04936100   1.008000   ; qtot -0.085340
 7291         hc    252    bbb     H8   7291 0.04936100   1.008000   ; qtot -0.035979
 7292         c3    252    bbb     C5   7292 0.11363000  12.010000   ; qtot 0.077651
 7293         hc    252    bbb     H9   7293 0.06265900   1.008000   ; qtot 0.140310
 7294         hc    252    bbb    H10   7294 0.06265900   1.008000   ; qtot 0.202969
 7295         c3    252    bbb     C6   7295 0.11363000  12.010000   ; qtot 0.316599
 7296         hc    252    bbb    H11   7296 0.06265900   1.008000   ; qtot 0.379258
 7297         hc    252    bbb    H12   7297 0.06265900   1.008000   ; qtot 0.441917
 7298         c3    252    bbb     C7   7298 0.05858200  12.010000   ; qtot 0.500499
 7299         h1    252    bbb    H13   7299 0.06123400   1.008000   ; qtot 0.561733
 7300         h1    252    bbb    H14   7300 0.06123400   1.008000   ; qtot 0.622967
 7301         c3    252    bbb     C8   7301 -0.72423400  12.010000   ; qtot -0.101267
 7302         h1    252    bbb    H15   7302 0.25637600   1.008000   ; qtot 0.155109
 7303         h1    252    bbb    H16   7303 0.25637600   1.008000   ; qtot 0.411485
 7304         c3    252    bbb     C9   7304 -0.72423400  12.010000   ; qtot -0.312749
 7305         h1    252    bbb    H17   7305 0.25637600   1.008000   ; qtot -0.056373
 7306         h1    252    bbb    H18   7306 0.25637600   1.008000   ; qtot 0.200003
 7307         os    252    bbb     O1   7307 -0.20025300  16.000000   ; qtot -0.000250
; residue  253 bbb rtp bbb q -0.0
 7308         n3    253    bbb     N1   7308 -0.59685800  14.010000   ; qtot -0.597108
 7309         c3    253    bbb     C1   7309 0.10137000  12.010000   ; qtot -0.495738
 7310         h1    253    bbb     H1   7310 0.04411300   1.008000   ; qtot -0.451625
 7311         h1    253    bbb     H2   7311 0.04411300   1.008000   ; qtot -0.407512
 7312         c3    253    bbb     C2   7312 0.10137000  12.010000   ; qtot -0.306142
 7313         h1    253    bbb     H3   7313 0.04411300   1.008000   ; qtot -0.262029
 7314         h1    253    bbb     H4   7314 0.04411300   1.008000   ; qtot -0.217916
 7315         c3    253    bbb     C3   7315 -0.00195300  12.010000   ; qtot -0.219869
 7316         h1    253    bbb     H5   7316 0.05064400   1.008000   ; qtot -0.169225
 7317         h1    253    bbb     H6   7317 0.05064400   1.008000   ; qtot -0.118581
 7318         c3    253    bbb     C4   7318 -0.01612100  12.010000   ; qtot -0.134702
 7319         hc    253    bbb     H7   7319 0.04936100   1.008000   ; qtot -0.085341
 7320         hc    253    bbb     H8   7320 0.04936100   1.008000   ; qtot -0.035980
 7321         c3    253    bbb     C5   7321 0.11363000  12.010000   ; qtot 0.077650
 7322         hc    253    bbb     H9   7322 0.06265900   1.008000   ; qtot 0.140309
 7323         hc    253    bbb    H10   7323 0.06265900   1.008000   ; qtot 0.202968
 7324         c3    253    bbb     C6   7324 0.11363000  12.010000   ; qtot 0.316598
 7325         hc    253    bbb    H11   7325 0.06265900   1.008000   ; qtot 0.379257
 7326         hc    253    bbb    H12   7326 0.06265900   1.008000   ; qtot 0.441916
 7327         c3    253    bbb     C7   7327 0.05858200  12.010000   ; qtot 0.500498
 7328         h1    253    bbb    H13   7328 0.06123400   1.008000   ; qtot 0.561732
 7329         h1    253    bbb    H14   7329 0.06123400   1.008000   ; qtot 0.622966
 7330         c3    253    bbb     C8   7330 -0.72423400  12.010000   ; qtot -0.101268
 7331         h1    253    bbb    H15   7331 0.25637600   1.008000   ; qtot 0.155108
 7332         h1    253    bbb    H16   7332 0.25637600   1.008000   ; qtot 0.411484
 7333         c3    253    bbb     C9   7333 -0.72423400  12.010000   ; qtot -0.312750
 7334         h1    253    bbb    H17   7334 0.25637600   1.008000   ; qtot -0.056374
 7335         h1    253    bbb    H18   7335 0.25637600   1.008000   ; qtot 0.200002
 7336         os    253    bbb     O1   7336 -0.20025300  16.000000   ; qtot -0.000251
; residue  254 bbb rtp bbb q -0.0
 7337         n3    254    bbb     N1   7337 -0.59685800  14.010000   ; qtot -0.597109
 7338         c3    254    bbb     C1   7338 0.10137000  12.010000   ; qtot -0.495739
 7339         h1    254    bbb     H1   7339 0.04411300   1.008000   ; qtot -0.451626
 7340         h1    254    bbb     H2   7340 0.04411300   1.008000   ; qtot -0.407513
 7341         c3    254    bbb     C2   7341 0.10137000  12.010000   ; qtot -0.306143
 7342         h1    254    bbb     H3   7342 0.04411300   1.008000   ; qtot -0.262030
 7343         h1    254    bbb     H4   7343 0.04411300   1.008000   ; qtot -0.217917
 7344         c3    254    bbb     C3   7344 -0.00195300  12.010000   ; qtot -0.219870
 7345         h1    254    bbb     H5   7345 0.05064400   1.008000   ; qtot -0.169226
 7346         h1    254    bbb     H6   7346 0.05064400   1.008000   ; qtot -0.118582
 7347         c3    254    bbb     C4   7347 -0.01612100  12.010000   ; qtot -0.134703
 7348         hc    254    bbb     H7   7348 0.04936100   1.008000   ; qtot -0.085342
 7349         hc    254    bbb     H8   7349 0.04936100   1.008000   ; qtot -0.035981
 7350         c3    254    bbb     C5   7350 0.11363000  12.010000   ; qtot 0.077649
 7351         hc    254    bbb     H9   7351 0.06265900   1.008000   ; qtot 0.140308
 7352         hc    254    bbb    H10   7352 0.06265900   1.008000   ; qtot 0.202967
 7353         c3    254    bbb     C6   7353 0.11363000  12.010000   ; qtot 0.316597
 7354         hc    254    bbb    H11   7354 0.06265900   1.008000   ; qtot 0.379256
 7355         hc    254    bbb    H12   7355 0.06265900   1.008000   ; qtot 0.441915
 7356         c3    254    bbb     C7   7356 0.05858200  12.010000   ; qtot 0.500497
 7357         h1    254    bbb    H13   7357 0.06123400   1.008000   ; qtot 0.561731
 7358         h1    254    bbb    H14   7358 0.06123400   1.008000   ; qtot 0.622965
 7359         c3    254    bbb     C8   7359 -0.72423400  12.010000   ; qtot -0.101269
 7360         h1    254    bbb    H15   7360 0.25637600   1.008000   ; qtot 0.155107
 7361         h1    254    bbb    H16   7361 0.25637600   1.008000   ; qtot 0.411483
 7362         c3    254    bbb     C9   7362 -0.72423400  12.010000   ; qtot -0.312751
 7363         h1    254    bbb    H17   7363 0.25637600   1.008000   ; qtot -0.056375
 7364         h1    254    bbb    H18   7364 0.25637600   1.008000   ; qtot 0.200001
 7365         os    254    bbb     O1   7365 -0.20025300  16.000000   ; qtot -0.000252
; residue  255 bbb rtp bbb q -0.0
 7366         n3    255    bbb     N1   7366 -0.59685800  14.010000   ; qtot -0.597110
 7367         c3    255    bbb     C1   7367 0.10137000  12.010000   ; qtot -0.495740
 7368         h1    255    bbb     H1   7368 0.04411300   1.008000   ; qtot -0.451627
 7369         h1    255    bbb     H2   7369 0.04411300   1.008000   ; qtot -0.407514
 7370         c3    255    bbb     C2   7370 0.10137000  12.010000   ; qtot -0.306144
 7371         h1    255    bbb     H3   7371 0.04411300   1.008000   ; qtot -0.262031
 7372         h1    255    bbb     H4   7372 0.04411300   1.008000   ; qtot -0.217918
 7373         c3    255    bbb     C3   7373 -0.00195300  12.010000   ; qtot -0.219871
 7374         h1    255    bbb     H5   7374 0.05064400   1.008000   ; qtot -0.169227
 7375         h1    255    bbb     H6   7375 0.05064400   1.008000   ; qtot -0.118583
 7376         c3    255    bbb     C4   7376 -0.01612100  12.010000   ; qtot -0.134704
 7377         hc    255    bbb     H7   7377 0.04936100   1.008000   ; qtot -0.085343
 7378         hc    255    bbb     H8   7378 0.04936100   1.008000   ; qtot -0.035982
 7379         c3    255    bbb     C5   7379 0.11363000  12.010000   ; qtot 0.077648
 7380         hc    255    bbb     H9   7380 0.06265900   1.008000   ; qtot 0.140307
 7381         hc    255    bbb    H10   7381 0.06265900   1.008000   ; qtot 0.202966
 7382         c3    255    bbb     C6   7382 0.11363000  12.010000   ; qtot 0.316596
 7383         hc    255    bbb    H11   7383 0.06265900   1.008000   ; qtot 0.379255
 7384         hc    255    bbb    H12   7384 0.06265900   1.008000   ; qtot 0.441914
 7385         c3    255    bbb     C7   7385 0.05858200  12.010000   ; qtot 0.500496
 7386         h1    255    bbb    H13   7386 0.06123400   1.008000   ; qtot 0.561730
 7387         h1    255    bbb    H14   7387 0.06123400   1.008000   ; qtot 0.622964
 7388         c3    255    bbb     C8   7388 -0.72423400  12.010000   ; qtot -0.101270
 7389         h1    255    bbb    H15   7389 0.25637600   1.008000   ; qtot 0.155106
 7390         h1    255    bbb    H16   7390 0.25637600   1.008000   ; qtot 0.411482
 7391         c3    255    bbb     C9   7391 -0.72423400  12.010000   ; qtot -0.312752
 7392         h1    255    bbb    H17   7392 0.25637600   1.008000   ; qtot -0.056376
 7393         h1    255    bbb    H18   7393 0.25637600   1.008000   ; qtot 0.200000
 7394         os    255    bbb     O1   7394 -0.20025300  16.000000   ; qtot -0.000253
; residue  256 bbb rtp bbb q -0.0
 7395         n3    256    bbb     N1   7395 -0.59685800  14.010000   ; qtot -0.597111
 7396         c3    256    bbb     C1   7396 0.10137000  12.010000   ; qtot -0.495741
 7397         h1    256    bbb     H1   7397 0.04411300   1.008000   ; qtot -0.451628
 7398         h1    256    bbb     H2   7398 0.04411300   1.008000   ; qtot -0.407515
 7399         c3    256    bbb     C2   7399 0.10137000  12.010000   ; qtot -0.306145
 7400         h1    256    bbb     H3   7400 0.04411300   1.008000   ; qtot -0.262032
 7401         h1    256    bbb     H4   7401 0.04411300   1.008000   ; qtot -0.217919
 7402         c3    256    bbb     C3   7402 -0.00195300  12.010000   ; qtot -0.219872
 7403         h1    256    bbb     H5   7403 0.05064400   1.008000   ; qtot -0.169228
 7404         h1    256    bbb     H6   7404 0.05064400   1.008000   ; qtot -0.118584
 7405         c3    256    bbb     C4   7405 -0.01612100  12.010000   ; qtot -0.134705
 7406         hc    256    bbb     H7   7406 0.04936100   1.008000   ; qtot -0.085344
 7407         hc    256    bbb     H8   7407 0.04936100   1.008000   ; qtot -0.035983
 7408         c3    256    bbb     C5   7408 0.11363000  12.010000   ; qtot 0.077647
 7409         hc    256    bbb     H9   7409 0.06265900   1.008000   ; qtot 0.140306
 7410         hc    256    bbb    H10   7410 0.06265900   1.008000   ; qtot 0.202965
 7411         c3    256    bbb     C6   7411 0.11363000  12.010000   ; qtot 0.316595
 7412         hc    256    bbb    H11   7412 0.06265900   1.008000   ; qtot 0.379254
 7413         hc    256    bbb    H12   7413 0.06265900   1.008000   ; qtot 0.441913
 7414         c3    256    bbb     C7   7414 0.05858200  12.010000   ; qtot 0.500495
 7415         h1    256    bbb    H13   7415 0.06123400   1.008000   ; qtot 0.561729
 7416         h1    256    bbb    H14   7416 0.06123400   1.008000   ; qtot 0.622963
 7417         c3    256    bbb     C8   7417 -0.72423400  12.010000   ; qtot -0.101271
 7418         h1    256    bbb    H15   7418 0.25637600   1.008000   ; qtot 0.155105
 7419         h1    256    bbb    H16   7419 0.25637600   1.008000   ; qtot 0.411481
 7420         c3    256    bbb     C9   7420 -0.72423400  12.010000   ; qtot -0.312753
 7421         h1    256    bbb    H17   7421 0.25637600   1.008000   ; qtot -0.056377
 7422         h1    256    bbb    H18   7422 0.25637600   1.008000   ; qtot 0.199999
 7423         os    256    bbb     O1   7423 -0.20025300  16.000000   ; qtot -0.000254
; residue  257 bbb rtp bbb q -0.0
 7424         n3    257    bbb     N1   7424 -0.59685800  14.010000   ; qtot -0.597112
 7425         c3    257    bbb     C1   7425 0.10137000  12.010000   ; qtot -0.495742
 7426         h1    257    bbb     H1   7426 0.04411300   1.008000   ; qtot -0.451629
 7427         h1    257    bbb     H2   7427 0.04411300   1.008000   ; qtot -0.407516
 7428         c3    257    bbb     C2   7428 0.10137000  12.010000   ; qtot -0.306146
 7429         h1    257    bbb     H3   7429 0.04411300   1.008000   ; qtot -0.262033
 7430         h1    257    bbb     H4   7430 0.04411300   1.008000   ; qtot -0.217920
 7431         c3    257    bbb     C3   7431 -0.00195300  12.010000   ; qtot -0.219873
 7432         h1    257    bbb     H5   7432 0.05064400   1.008000   ; qtot -0.169229
 7433         h1    257    bbb     H6   7433 0.05064400   1.008000   ; qtot -0.118585
 7434         c3    257    bbb     C4   7434 -0.01612100  12.010000   ; qtot -0.134706
 7435         hc    257    bbb     H7   7435 0.04936100   1.008000   ; qtot -0.085345
 7436         hc    257    bbb     H8   7436 0.04936100   1.008000   ; qtot -0.035984
 7437         c3    257    bbb     C5   7437 0.11363000  12.010000   ; qtot 0.077646
 7438         hc    257    bbb     H9   7438 0.06265900   1.008000   ; qtot 0.140305
 7439         hc    257    bbb    H10   7439 0.06265900   1.008000   ; qtot 0.202964
 7440         c3    257    bbb     C6   7440 0.11363000  12.010000   ; qtot 0.316594
 7441         hc    257    bbb    H11   7441 0.06265900   1.008000   ; qtot 0.379253
 7442         hc    257    bbb    H12   7442 0.06265900   1.008000   ; qtot 0.441912
 7443         c3    257    bbb     C7   7443 0.05858200  12.010000   ; qtot 0.500494
 7444         h1    257    bbb    H13   7444 0.06123400   1.008000   ; qtot 0.561728
 7445         h1    257    bbb    H14   7445 0.06123400   1.008000   ; qtot 0.622962
 7446         c3    257    bbb     C8   7446 -0.72423400  12.010000   ; qtot -0.101272
 7447         h1    257    bbb    H15   7447 0.25637600   1.008000   ; qtot 0.155104
 7448         h1    257    bbb    H16   7448 0.25637600   1.008000   ; qtot 0.411480
 7449         c3    257    bbb     C9   7449 -0.72423400  12.010000   ; qtot -0.312754
 7450         h1    257    bbb    H17   7450 0.25637600   1.008000   ; qtot -0.056378
 7451         h1    257    bbb    H18   7451 0.25637600   1.008000   ; qtot 0.199998
 7452         os    257    bbb     O1   7452 -0.20025300  16.000000   ; qtot -0.000255
; residue  258 bbb rtp bbb q -0.0
 7453         n3    258    bbb     N1   7453 -0.59685800  14.010000   ; qtot -0.597113
 7454         c3    258    bbb     C1   7454 0.10137000  12.010000   ; qtot -0.495743
 7455         h1    258    bbb     H1   7455 0.04411300   1.008000   ; qtot -0.451630
 7456         h1    258    bbb     H2   7456 0.04411300   1.008000   ; qtot -0.407517
 7457         c3    258    bbb     C2   7457 0.10137000  12.010000   ; qtot -0.306147
 7458         h1    258    bbb     H3   7458 0.04411300   1.008000   ; qtot -0.262034
 7459         h1    258    bbb     H4   7459 0.04411300   1.008000   ; qtot -0.217921
 7460         c3    258    bbb     C3   7460 -0.00195300  12.010000   ; qtot -0.219874
 7461         h1    258    bbb     H5   7461 0.05064400   1.008000   ; qtot -0.169230
 7462         h1    258    bbb     H6   7462 0.05064400   1.008000   ; qtot -0.118586
 7463         c3    258    bbb     C4   7463 -0.01612100  12.010000   ; qtot -0.134707
 7464         hc    258    bbb     H7   7464 0.04936100   1.008000   ; qtot -0.085346
 7465         hc    258    bbb     H8   7465 0.04936100   1.008000   ; qtot -0.035985
 7466         c3    258    bbb     C5   7466 0.11363000  12.010000   ; qtot 0.077645
 7467         hc    258    bbb     H9   7467 0.06265900   1.008000   ; qtot 0.140304
 7468         hc    258    bbb    H10   7468 0.06265900   1.008000   ; qtot 0.202963
 7469         c3    258    bbb     C6   7469 0.11363000  12.010000   ; qtot 0.316593
 7470         hc    258    bbb    H11   7470 0.06265900   1.008000   ; qtot 0.379252
 7471         hc    258    bbb    H12   7471 0.06265900   1.008000   ; qtot 0.441911
 7472         c3    258    bbb     C7   7472 0.05858200  12.010000   ; qtot 0.500493
 7473         h1    258    bbb    H13   7473 0.06123400   1.008000   ; qtot 0.561727
 7474         h1    258    bbb    H14   7474 0.06123400   1.008000   ; qtot 0.622961
 7475         c3    258    bbb     C8   7475 -0.72423400  12.010000   ; qtot -0.101273
 7476         h1    258    bbb    H15   7476 0.25637600   1.008000   ; qtot 0.155103
 7477         h1    258    bbb    H16   7477 0.25637600   1.008000   ; qtot 0.411479
 7478         c3    258    bbb     C9   7478 -0.72423400  12.010000   ; qtot -0.312755
 7479         h1    258    bbb    H17   7479 0.25637600   1.008000   ; qtot -0.056379
 7480         h1    258    bbb    H18   7480 0.25637600   1.008000   ; qtot 0.199997
 7481         os    258    bbb     O1   7481 -0.20025300  16.000000   ; qtot -0.000256
; residue  259 bbb rtp bbb q -0.0
 7482         n3    259    bbb     N1   7482 -0.59685800  14.010000   ; qtot -0.597114
 7483         c3    259    bbb     C1   7483 0.10137000  12.010000   ; qtot -0.495744
 7484         h1    259    bbb     H1   7484 0.04411300   1.008000   ; qtot -0.451631
 7485         h1    259    bbb     H2   7485 0.04411300   1.008000   ; qtot -0.407518
 7486         c3    259    bbb     C2   7486 0.10137000  12.010000   ; qtot -0.306148
 7487         h1    259    bbb     H3   7487 0.04411300   1.008000   ; qtot -0.262035
 7488         h1    259    bbb     H4   7488 0.04411300   1.008000   ; qtot -0.217922
 7489         c3    259    bbb     C3   7489 -0.00195300  12.010000   ; qtot -0.219875
 7490         h1    259    bbb     H5   7490 0.05064400   1.008000   ; qtot -0.169231
 7491         h1    259    bbb     H6   7491 0.05064400   1.008000   ; qtot -0.118587
 7492         c3    259    bbb     C4   7492 -0.01612100  12.010000   ; qtot -0.134708
 7493         hc    259    bbb     H7   7493 0.04936100   1.008000   ; qtot -0.085347
 7494         hc    259    bbb     H8   7494 0.04936100   1.008000   ; qtot -0.035986
 7495         c3    259    bbb     C5   7495 0.11363000  12.010000   ; qtot 0.077644
 7496         hc    259    bbb     H9   7496 0.06265900   1.008000   ; qtot 0.140303
 7497         hc    259    bbb    H10   7497 0.06265900   1.008000   ; qtot 0.202962
 7498         c3    259    bbb     C6   7498 0.11363000  12.010000   ; qtot 0.316592
 7499         hc    259    bbb    H11   7499 0.06265900   1.008000   ; qtot 0.379251
 7500         hc    259    bbb    H12   7500 0.06265900   1.008000   ; qtot 0.441910
 7501         c3    259    bbb     C7   7501 0.05858200  12.010000   ; qtot 0.500492
 7502         h1    259    bbb    H13   7502 0.06123400   1.008000   ; qtot 0.561726
 7503         h1    259    bbb    H14   7503 0.06123400   1.008000   ; qtot 0.622960
 7504         c3    259    bbb     C8   7504 -0.72423400  12.010000   ; qtot -0.101274
 7505         h1    259    bbb    H15   7505 0.25637600   1.008000   ; qtot 0.155102
 7506         h1    259    bbb    H16   7506 0.25637600   1.008000   ; qtot 0.411478
 7507         c3    259    bbb     C9   7507 -0.72423400  12.010000   ; qtot -0.312756
 7508         h1    259    bbb    H17   7508 0.25637600   1.008000   ; qtot -0.056380
 7509         h1    259    bbb    H18   7509 0.25637600   1.008000   ; qtot 0.199996
 7510         os    259    bbb     O1   7510 -0.20025300  16.000000   ; qtot -0.000257
; residue  260 bbb rtp bbb q -0.0
 7511         n3    260    bbb     N1   7511 -0.59685800  14.010000   ; qtot -0.597115
 7512         c3    260    bbb     C1   7512 0.10137000  12.010000   ; qtot -0.495745
 7513         h1    260    bbb     H1   7513 0.04411300   1.008000   ; qtot -0.451632
 7514         h1    260    bbb     H2   7514 0.04411300   1.008000   ; qtot -0.407519
 7515         c3    260    bbb     C2   7515 0.10137000  12.010000   ; qtot -0.306149
 7516         h1    260    bbb     H3   7516 0.04411300   1.008000   ; qtot -0.262036
 7517         h1    260    bbb     H4   7517 0.04411300   1.008000   ; qtot -0.217923
 7518         c3    260    bbb     C3   7518 -0.00195300  12.010000   ; qtot -0.219876
 7519         h1    260    bbb     H5   7519 0.05064400   1.008000   ; qtot -0.169232
 7520         h1    260    bbb     H6   7520 0.05064400   1.008000   ; qtot -0.118588
 7521         c3    260    bbb     C4   7521 -0.01612100  12.010000   ; qtot -0.134709
 7522         hc    260    bbb     H7   7522 0.04936100   1.008000   ; qtot -0.085348
 7523         hc    260    bbb     H8   7523 0.04936100   1.008000   ; qtot -0.035987
 7524         c3    260    bbb     C5   7524 0.11363000  12.010000   ; qtot 0.077643
 7525         hc    260    bbb     H9   7525 0.06265900   1.008000   ; qtot 0.140302
 7526         hc    260    bbb    H10   7526 0.06265900   1.008000   ; qtot 0.202961
 7527         c3    260    bbb     C6   7527 0.11363000  12.010000   ; qtot 0.316591
 7528         hc    260    bbb    H11   7528 0.06265900   1.008000   ; qtot 0.379250
 7529         hc    260    bbb    H12   7529 0.06265900   1.008000   ; qtot 0.441909
 7530         c3    260    bbb     C7   7530 0.05858200  12.010000   ; qtot 0.500491
 7531         h1    260    bbb    H13   7531 0.06123400   1.008000   ; qtot 0.561725
 7532         h1    260    bbb    H14   7532 0.06123400   1.008000   ; qtot 0.622959
 7533         c3    260    bbb     C8   7533 -0.72423400  12.010000   ; qtot -0.101275
 7534         h1    260    bbb    H15   7534 0.25637600   1.008000   ; qtot 0.155101
 7535         h1    260    bbb    H16   7535 0.25637600   1.008000   ; qtot 0.411477
 7536         c3    260    bbb     C9   7536 -0.72423400  12.010000   ; qtot -0.312757
 7537         h1    260    bbb    H17   7537 0.25637600   1.008000   ; qtot -0.056381
 7538         h1    260    bbb    H18   7538 0.25637600   1.008000   ; qtot 0.199995
 7539         os    260    bbb     O1   7539 -0.20025300  16.000000   ; qtot -0.000258
; residue  261 bbb rtp bbb q -0.0
 7540         n3    261    bbb     N1   7540 -0.59685800  14.010000   ; qtot -0.597116
 7541         c3    261    bbb     C1   7541 0.10137000  12.010000   ; qtot -0.495746
 7542         h1    261    bbb     H1   7542 0.04411300   1.008000   ; qtot -0.451633
 7543         h1    261    bbb     H2   7543 0.04411300   1.008000   ; qtot -0.407520
 7544         c3    261    bbb     C2   7544 0.10137000  12.010000   ; qtot -0.306150
 7545         h1    261    bbb     H3   7545 0.04411300   1.008000   ; qtot -0.262037
 7546         h1    261    bbb     H4   7546 0.04411300   1.008000   ; qtot -0.217924
 7547         c3    261    bbb     C3   7547 -0.00195300  12.010000   ; qtot -0.219877
 7548         h1    261    bbb     H5   7548 0.05064400   1.008000   ; qtot -0.169233
 7549         h1    261    bbb     H6   7549 0.05064400   1.008000   ; qtot -0.118589
 7550         c3    261    bbb     C4   7550 -0.01612100  12.010000   ; qtot -0.134710
 7551         hc    261    bbb     H7   7551 0.04936100   1.008000   ; qtot -0.085349
 7552         hc    261    bbb     H8   7552 0.04936100   1.008000   ; qtot -0.035988
 7553         c3    261    bbb     C5   7553 0.11363000  12.010000   ; qtot 0.077642
 7554         hc    261    bbb     H9   7554 0.06265900   1.008000   ; qtot 0.140301
 7555         hc    261    bbb    H10   7555 0.06265900   1.008000   ; qtot 0.202960
 7556         c3    261    bbb     C6   7556 0.11363000  12.010000   ; qtot 0.316590
 7557         hc    261    bbb    H11   7557 0.06265900   1.008000   ; qtot 0.379249
 7558         hc    261    bbb    H12   7558 0.06265900   1.008000   ; qtot 0.441908
 7559         c3    261    bbb     C7   7559 0.05858200  12.010000   ; qtot 0.500490
 7560         h1    261    bbb    H13   7560 0.06123400   1.008000   ; qtot 0.561724
 7561         h1    261    bbb    H14   7561 0.06123400   1.008000   ; qtot 0.622958
 7562         c3    261    bbb     C8   7562 -0.72423400  12.010000   ; qtot -0.101276
 7563         h1    261    bbb    H15   7563 0.25637600   1.008000   ; qtot 0.155100
 7564         h1    261    bbb    H16   7564 0.25637600   1.008000   ; qtot 0.411476
 7565         c3    261    bbb     C9   7565 -0.72423400  12.010000   ; qtot -0.312758
 7566         h1    261    bbb    H17   7566 0.25637600   1.008000   ; qtot -0.056382
 7567         h1    261    bbb    H18   7567 0.25637600   1.008000   ; qtot 0.199994
 7568         os    261    bbb     O1   7568 -0.20025300  16.000000   ; qtot -0.000259
; residue  262 bbb rtp bbb q -0.0
 7569         n3    262    bbb     N1   7569 -0.59685800  14.010000   ; qtot -0.597117
 7570         c3    262    bbb     C1   7570 0.10137000  12.010000   ; qtot -0.495747
 7571         h1    262    bbb     H1   7571 0.04411300   1.008000   ; qtot -0.451634
 7572         h1    262    bbb     H2   7572 0.04411300   1.008000   ; qtot -0.407521
 7573         c3    262    bbb     C2   7573 0.10137000  12.010000   ; qtot -0.306151
 7574         h1    262    bbb     H3   7574 0.04411300   1.008000   ; qtot -0.262038
 7575         h1    262    bbb     H4   7575 0.04411300   1.008000   ; qtot -0.217925
 7576         c3    262    bbb     C3   7576 -0.00195300  12.010000   ; qtot -0.219878
 7577         h1    262    bbb     H5   7577 0.05064400   1.008000   ; qtot -0.169234
 7578         h1    262    bbb     H6   7578 0.05064400   1.008000   ; qtot -0.118590
 7579         c3    262    bbb     C4   7579 -0.01612100  12.010000   ; qtot -0.134711
 7580         hc    262    bbb     H7   7580 0.04936100   1.008000   ; qtot -0.085350
 7581         hc    262    bbb     H8   7581 0.04936100   1.008000   ; qtot -0.035989
 7582         c3    262    bbb     C5   7582 0.11363000  12.010000   ; qtot 0.077641
 7583         hc    262    bbb     H9   7583 0.06265900   1.008000   ; qtot 0.140300
 7584         hc    262    bbb    H10   7584 0.06265900   1.008000   ; qtot 0.202959
 7585         c3    262    bbb     C6   7585 0.11363000  12.010000   ; qtot 0.316589
 7586         hc    262    bbb    H11   7586 0.06265900   1.008000   ; qtot 0.379248
 7587         hc    262    bbb    H12   7587 0.06265900   1.008000   ; qtot 0.441907
 7588         c3    262    bbb     C7   7588 0.05858200  12.010000   ; qtot 0.500489
 7589         h1    262    bbb    H13   7589 0.06123400   1.008000   ; qtot 0.561723
 7590         h1    262    bbb    H14   7590 0.06123400   1.008000   ; qtot 0.622957
 7591         c3    262    bbb     C8   7591 -0.72423400  12.010000   ; qtot -0.101277
 7592         h1    262    bbb    H15   7592 0.25637600   1.008000   ; qtot 0.155099
 7593         h1    262    bbb    H16   7593 0.25637600   1.008000   ; qtot 0.411475
 7594         c3    262    bbb     C9   7594 -0.72423400  12.010000   ; qtot -0.312759
 7595         h1    262    bbb    H17   7595 0.25637600   1.008000   ; qtot -0.056383
 7596         h1    262    bbb    H18   7596 0.25637600   1.008000   ; qtot 0.199993
 7597         os    262    bbb     O1   7597 -0.20025300  16.000000   ; qtot -0.000260
; residue  263 bbb rtp bbb q -0.0
 7598         n3    263    bbb     N1   7598 -0.59685800  14.010000   ; qtot -0.597118
 7599         c3    263    bbb     C1   7599 0.10137000  12.010000   ; qtot -0.495748
 7600         h1    263    bbb     H1   7600 0.04411300   1.008000   ; qtot -0.451635
 7601         h1    263    bbb     H2   7601 0.04411300   1.008000   ; qtot -0.407522
 7602         c3    263    bbb     C2   7602 0.10137000  12.010000   ; qtot -0.306152
 7603         h1    263    bbb     H3   7603 0.04411300   1.008000   ; qtot -0.262039
 7604         h1    263    bbb     H4   7604 0.04411300   1.008000   ; qtot -0.217926
 7605         c3    263    bbb     C3   7605 -0.00195300  12.010000   ; qtot -0.219879
 7606         h1    263    bbb     H5   7606 0.05064400   1.008000   ; qtot -0.169235
 7607         h1    263    bbb     H6   7607 0.05064400   1.008000   ; qtot -0.118591
 7608         c3    263    bbb     C4   7608 -0.01612100  12.010000   ; qtot -0.134712
 7609         hc    263    bbb     H7   7609 0.04936100   1.008000   ; qtot -0.085351
 7610         hc    263    bbb     H8   7610 0.04936100   1.008000   ; qtot -0.035990
 7611         c3    263    bbb     C5   7611 0.11363000  12.010000   ; qtot 0.077640
 7612         hc    263    bbb     H9   7612 0.06265900   1.008000   ; qtot 0.140299
 7613         hc    263    bbb    H10   7613 0.06265900   1.008000   ; qtot 0.202958
 7614         c3    263    bbb     C6   7614 0.11363000  12.010000   ; qtot 0.316588
 7615         hc    263    bbb    H11   7615 0.06265900   1.008000   ; qtot 0.379247
 7616         hc    263    bbb    H12   7616 0.06265900   1.008000   ; qtot 0.441906
 7617         c3    263    bbb     C7   7617 0.05858200  12.010000   ; qtot 0.500488
 7618         h1    263    bbb    H13   7618 0.06123400   1.008000   ; qtot 0.561722
 7619         h1    263    bbb    H14   7619 0.06123400   1.008000   ; qtot 0.622956
 7620         c3    263    bbb     C8   7620 -0.72423400  12.010000   ; qtot -0.101278
 7621         h1    263    bbb    H15   7621 0.25637600   1.008000   ; qtot 0.155098
 7622         h1    263    bbb    H16   7622 0.25637600   1.008000   ; qtot 0.411474
 7623         c3    263    bbb     C9   7623 -0.72423400  12.010000   ; qtot -0.312760
 7624         h1    263    bbb    H17   7624 0.25637600   1.008000   ; qtot -0.056384
 7625         h1    263    bbb    H18   7625 0.25637600   1.008000   ; qtot 0.199992
 7626         os    263    bbb     O1   7626 -0.20025300  16.000000   ; qtot -0.000261
; residue  264 bbb rtp bbb q -0.0
 7627         n3    264    bbb     N1   7627 -0.59685800  14.010000   ; qtot -0.597119
 7628         c3    264    bbb     C1   7628 0.10137000  12.010000   ; qtot -0.495749
 7629         h1    264    bbb     H1   7629 0.04411300   1.008000   ; qtot -0.451636
 7630         h1    264    bbb     H2   7630 0.04411300   1.008000   ; qtot -0.407523
 7631         c3    264    bbb     C2   7631 0.10137000  12.010000   ; qtot -0.306153
 7632         h1    264    bbb     H3   7632 0.04411300   1.008000   ; qtot -0.262040
 7633         h1    264    bbb     H4   7633 0.04411300   1.008000   ; qtot -0.217927
 7634         c3    264    bbb     C3   7634 -0.00195300  12.010000   ; qtot -0.219880
 7635         h1    264    bbb     H5   7635 0.05064400   1.008000   ; qtot -0.169236
 7636         h1    264    bbb     H6   7636 0.05064400   1.008000   ; qtot -0.118592
 7637         c3    264    bbb     C4   7637 -0.01612100  12.010000   ; qtot -0.134713
 7638         hc    264    bbb     H7   7638 0.04936100   1.008000   ; qtot -0.085352
 7639         hc    264    bbb     H8   7639 0.04936100   1.008000   ; qtot -0.035991
 7640         c3    264    bbb     C5   7640 0.11363000  12.010000   ; qtot 0.077639
 7641         hc    264    bbb     H9   7641 0.06265900   1.008000   ; qtot 0.140298
 7642         hc    264    bbb    H10   7642 0.06265900   1.008000   ; qtot 0.202957
 7643         c3    264    bbb     C6   7643 0.11363000  12.010000   ; qtot 0.316587
 7644         hc    264    bbb    H11   7644 0.06265900   1.008000   ; qtot 0.379246
 7645         hc    264    bbb    H12   7645 0.06265900   1.008000   ; qtot 0.441905
 7646         c3    264    bbb     C7   7646 0.05858200  12.010000   ; qtot 0.500487
 7647         h1    264    bbb    H13   7647 0.06123400   1.008000   ; qtot 0.561721
 7648         h1    264    bbb    H14   7648 0.06123400   1.008000   ; qtot 0.622955
 7649         c3    264    bbb     C8   7649 -0.72423400  12.010000   ; qtot -0.101279
 7650         h1    264    bbb    H15   7650 0.25637600   1.008000   ; qtot 0.155097
 7651         h1    264    bbb    H16   7651 0.25637600   1.008000   ; qtot 0.411473
 7652         c3    264    bbb     C9   7652 -0.72423400  12.010000   ; qtot -0.312761
 7653         h1    264    bbb    H17   7653 0.25637600   1.008000   ; qtot -0.056385
 7654         h1    264    bbb    H18   7654 0.25637600   1.008000   ; qtot 0.199991
 7655         os    264    bbb     O1   7655 -0.20025300  16.000000   ; qtot -0.000262
; residue  265 bbb rtp bbb q -0.0
 7656         n3    265    bbb     N1   7656 -0.59685800  14.010000   ; qtot -0.597120
 7657         c3    265    bbb     C1   7657 0.10137000  12.010000   ; qtot -0.495750
 7658         h1    265    bbb     H1   7658 0.04411300   1.008000   ; qtot -0.451637
 7659         h1    265    bbb     H2   7659 0.04411300   1.008000   ; qtot -0.407524
 7660         c3    265    bbb     C2   7660 0.10137000  12.010000   ; qtot -0.306154
 7661         h1    265    bbb     H3   7661 0.04411300   1.008000   ; qtot -0.262041
 7662         h1    265    bbb     H4   7662 0.04411300   1.008000   ; qtot -0.217928
 7663         c3    265    bbb     C3   7663 -0.00195300  12.010000   ; qtot -0.219881
 7664         h1    265    bbb     H5   7664 0.05064400   1.008000   ; qtot -0.169237
 7665         h1    265    bbb     H6   7665 0.05064400   1.008000   ; qtot -0.118593
 7666         c3    265    bbb     C4   7666 -0.01612100  12.010000   ; qtot -0.134714
 7667         hc    265    bbb     H7   7667 0.04936100   1.008000   ; qtot -0.085353
 7668         hc    265    bbb     H8   7668 0.04936100   1.008000   ; qtot -0.035992
 7669         c3    265    bbb     C5   7669 0.11363000  12.010000   ; qtot 0.077638
 7670         hc    265    bbb     H9   7670 0.06265900   1.008000   ; qtot 0.140297
 7671         hc    265    bbb    H10   7671 0.06265900   1.008000   ; qtot 0.202956
 7672         c3    265    bbb     C6   7672 0.11363000  12.010000   ; qtot 0.316586
 7673         hc    265    bbb    H11   7673 0.06265900   1.008000   ; qtot 0.379245
 7674         hc    265    bbb    H12   7674 0.06265900   1.008000   ; qtot 0.441904
 7675         c3    265    bbb     C7   7675 0.05858200  12.010000   ; qtot 0.500486
 7676         h1    265    bbb    H13   7676 0.06123400   1.008000   ; qtot 0.561720
 7677         h1    265    bbb    H14   7677 0.06123400   1.008000   ; qtot 0.622954
 7678         c3    265    bbb     C8   7678 -0.72423400  12.010000   ; qtot -0.101280
 7679         h1    265    bbb    H15   7679 0.25637600   1.008000   ; qtot 0.155096
 7680         h1    265    bbb    H16   7680 0.25637600   1.008000   ; qtot 0.411472
 7681         c3    265    bbb     C9   7681 -0.72423400  12.010000   ; qtot -0.312762
 7682         h1    265    bbb    H17   7682 0.25637600   1.008000   ; qtot -0.056386
 7683         h1    265    bbb    H18   7683 0.25637600   1.008000   ; qtot 0.199990
 7684         os    265    bbb     O1   7684 -0.20025300  16.000000   ; qtot -0.000263
; residue  266 bbb rtp bbb q -0.0
 7685         n3    266    bbb     N1   7685 -0.59685800  14.010000   ; qtot -0.597121
 7686         c3    266    bbb     C1   7686 0.10137000  12.010000   ; qtot -0.495751
 7687         h1    266    bbb     H1   7687 0.04411300   1.008000   ; qtot -0.451638
 7688         h1    266    bbb     H2   7688 0.04411300   1.008000   ; qtot -0.407525
 7689         c3    266    bbb     C2   7689 0.10137000  12.010000   ; qtot -0.306155
 7690         h1    266    bbb     H3   7690 0.04411300   1.008000   ; qtot -0.262042
 7691         h1    266    bbb     H4   7691 0.04411300   1.008000   ; qtot -0.217929
 7692         c3    266    bbb     C3   7692 -0.00195300  12.010000   ; qtot -0.219882
 7693         h1    266    bbb     H5   7693 0.05064400   1.008000   ; qtot -0.169238
 7694         h1    266    bbb     H6   7694 0.05064400   1.008000   ; qtot -0.118594
 7695         c3    266    bbb     C4   7695 -0.01612100  12.010000   ; qtot -0.134715
 7696         hc    266    bbb     H7   7696 0.04936100   1.008000   ; qtot -0.085354
 7697         hc    266    bbb     H8   7697 0.04936100   1.008000   ; qtot -0.035993
 7698         c3    266    bbb     C5   7698 0.11363000  12.010000   ; qtot 0.077637
 7699         hc    266    bbb     H9   7699 0.06265900   1.008000   ; qtot 0.140296
 7700         hc    266    bbb    H10   7700 0.06265900   1.008000   ; qtot 0.202955
 7701         c3    266    bbb     C6   7701 0.11363000  12.010000   ; qtot 0.316585
 7702         hc    266    bbb    H11   7702 0.06265900   1.008000   ; qtot 0.379244
 7703         hc    266    bbb    H12   7703 0.06265900   1.008000   ; qtot 0.441903
 7704         c3    266    bbb     C7   7704 0.05858200  12.010000   ; qtot 0.500485
 7705         h1    266    bbb    H13   7705 0.06123400   1.008000   ; qtot 0.561719
 7706         h1    266    bbb    H14   7706 0.06123400   1.008000   ; qtot 0.622953
 7707         c3    266    bbb     C8   7707 -0.72423400  12.010000   ; qtot -0.101281
 7708         h1    266    bbb    H15   7708 0.25637600   1.008000   ; qtot 0.155095
 7709         h1    266    bbb    H16   7709 0.25637600   1.008000   ; qtot 0.411471
 7710         c3    266    bbb     C9   7710 -0.72423400  12.010000   ; qtot -0.312763
 7711         h1    266    bbb    H17   7711 0.25637600   1.008000   ; qtot -0.056387
 7712         h1    266    bbb    H18   7712 0.25637600   1.008000   ; qtot 0.199989
 7713         os    266    bbb     O1   7713 -0.20025300  16.000000   ; qtot -0.000264
; residue  267 bbb rtp bbb q -0.0
 7714         n3    267    bbb     N1   7714 -0.59685800  14.010000   ; qtot -0.597122
 7715         c3    267    bbb     C1   7715 0.10137000  12.010000   ; qtot -0.495752
 7716         h1    267    bbb     H1   7716 0.04411300   1.008000   ; qtot -0.451639
 7717         h1    267    bbb     H2   7717 0.04411300   1.008000   ; qtot -0.407526
 7718         c3    267    bbb     C2   7718 0.10137000  12.010000   ; qtot -0.306156
 7719         h1    267    bbb     H3   7719 0.04411300   1.008000   ; qtot -0.262043
 7720         h1    267    bbb     H4   7720 0.04411300   1.008000   ; qtot -0.217930
 7721         c3    267    bbb     C3   7721 -0.00195300  12.010000   ; qtot -0.219883
 7722         h1    267    bbb     H5   7722 0.05064400   1.008000   ; qtot -0.169239
 7723         h1    267    bbb     H6   7723 0.05064400   1.008000   ; qtot -0.118595
 7724         c3    267    bbb     C4   7724 -0.01612100  12.010000   ; qtot -0.134716
 7725         hc    267    bbb     H7   7725 0.04936100   1.008000   ; qtot -0.085355
 7726         hc    267    bbb     H8   7726 0.04936100   1.008000   ; qtot -0.035994
 7727         c3    267    bbb     C5   7727 0.11363000  12.010000   ; qtot 0.077636
 7728         hc    267    bbb     H9   7728 0.06265900   1.008000   ; qtot 0.140295
 7729         hc    267    bbb    H10   7729 0.06265900   1.008000   ; qtot 0.202954
 7730         c3    267    bbb     C6   7730 0.11363000  12.010000   ; qtot 0.316584
 7731         hc    267    bbb    H11   7731 0.06265900   1.008000   ; qtot 0.379243
 7732         hc    267    bbb    H12   7732 0.06265900   1.008000   ; qtot 0.441902
 7733         c3    267    bbb     C7   7733 0.05858200  12.010000   ; qtot 0.500484
 7734         h1    267    bbb    H13   7734 0.06123400   1.008000   ; qtot 0.561718
 7735         h1    267    bbb    H14   7735 0.06123400   1.008000   ; qtot 0.622952
 7736         c3    267    bbb     C8   7736 -0.72423400  12.010000   ; qtot -0.101282
 7737         h1    267    bbb    H15   7737 0.25637600   1.008000   ; qtot 0.155094
 7738         h1    267    bbb    H16   7738 0.25637600   1.008000   ; qtot 0.411470
 7739         c3    267    bbb     C9   7739 -0.72423400  12.010000   ; qtot -0.312764
 7740         h1    267    bbb    H17   7740 0.25637600   1.008000   ; qtot -0.056388
 7741         h1    267    bbb    H18   7741 0.25637600   1.008000   ; qtot 0.199988
 7742         os    267    bbb     O1   7742 -0.20025300  16.000000   ; qtot -0.000265
; residue  268 bbb rtp bbb q -0.0
 7743         n3    268    bbb     N1   7743 -0.59685800  14.010000   ; qtot -0.597123
 7744         c3    268    bbb     C1   7744 0.10137000  12.010000   ; qtot -0.495753
 7745         h1    268    bbb     H1   7745 0.04411300   1.008000   ; qtot -0.451640
 7746         h1    268    bbb     H2   7746 0.04411300   1.008000   ; qtot -0.407527
 7747         c3    268    bbb     C2   7747 0.10137000  12.010000   ; qtot -0.306157
 7748         h1    268    bbb     H3   7748 0.04411300   1.008000   ; qtot -0.262044
 7749         h1    268    bbb     H4   7749 0.04411300   1.008000   ; qtot -0.217931
 7750         c3    268    bbb     C3   7750 -0.00195300  12.010000   ; qtot -0.219884
 7751         h1    268    bbb     H5   7751 0.05064400   1.008000   ; qtot -0.169240
 7752         h1    268    bbb     H6   7752 0.05064400   1.008000   ; qtot -0.118596
 7753         c3    268    bbb     C4   7753 -0.01612100  12.010000   ; qtot -0.134717
 7754         hc    268    bbb     H7   7754 0.04936100   1.008000   ; qtot -0.085356
 7755         hc    268    bbb     H8   7755 0.04936100   1.008000   ; qtot -0.035995
 7756         c3    268    bbb     C5   7756 0.11363000  12.010000   ; qtot 0.077635
 7757         hc    268    bbb     H9   7757 0.06265900   1.008000   ; qtot 0.140294
 7758         hc    268    bbb    H10   7758 0.06265900   1.008000   ; qtot 0.202953
 7759         c3    268    bbb     C6   7759 0.11363000  12.010000   ; qtot 0.316583
 7760         hc    268    bbb    H11   7760 0.06265900   1.008000   ; qtot 0.379242
 7761         hc    268    bbb    H12   7761 0.06265900   1.008000   ; qtot 0.441901
 7762         c3    268    bbb     C7   7762 0.05858200  12.010000   ; qtot 0.500483
 7763         h1    268    bbb    H13   7763 0.06123400   1.008000   ; qtot 0.561717
 7764         h1    268    bbb    H14   7764 0.06123400   1.008000   ; qtot 0.622951
 7765         c3    268    bbb     C8   7765 -0.72423400  12.010000   ; qtot -0.101283
 7766         h1    268    bbb    H15   7766 0.25637600   1.008000   ; qtot 0.155093
 7767         h1    268    bbb    H16   7767 0.25637600   1.008000   ; qtot 0.411469
 7768         c3    268    bbb     C9   7768 -0.72423400  12.010000   ; qtot -0.312765
 7769         h1    268    bbb    H17   7769 0.25637600   1.008000   ; qtot -0.056389
 7770         h1    268    bbb    H18   7770 0.25637600   1.008000   ; qtot 0.199987
 7771         os    268    bbb     O1   7771 -0.20025300  16.000000   ; qtot -0.000266
; residue  269 bbb rtp bbb q -0.0
 7772         n3    269    bbb     N1   7772 -0.59685800  14.010000   ; qtot -0.597124
 7773         c3    269    bbb     C1   7773 0.10137000  12.010000   ; qtot -0.495754
 7774         h1    269    bbb     H1   7774 0.04411300   1.008000   ; qtot -0.451641
 7775         h1    269    bbb     H2   7775 0.04411300   1.008000   ; qtot -0.407528
 7776         c3    269    bbb     C2   7776 0.10137000  12.010000   ; qtot -0.306158
 7777         h1    269    bbb     H3   7777 0.04411300   1.008000   ; qtot -0.262045
 7778         h1    269    bbb     H4   7778 0.04411300   1.008000   ; qtot -0.217932
 7779         c3    269    bbb     C3   7779 -0.00195300  12.010000   ; qtot -0.219885
 7780         h1    269    bbb     H5   7780 0.05064400   1.008000   ; qtot -0.169241
 7781         h1    269    bbb     H6   7781 0.05064400   1.008000   ; qtot -0.118597
 7782         c3    269    bbb     C4   7782 -0.01612100  12.010000   ; qtot -0.134718
 7783         hc    269    bbb     H7   7783 0.04936100   1.008000   ; qtot -0.085357
 7784         hc    269    bbb     H8   7784 0.04936100   1.008000   ; qtot -0.035996
 7785         c3    269    bbb     C5   7785 0.11363000  12.010000   ; qtot 0.077634
 7786         hc    269    bbb     H9   7786 0.06265900   1.008000   ; qtot 0.140293
 7787         hc    269    bbb    H10   7787 0.06265900   1.008000   ; qtot 0.202952
 7788         c3    269    bbb     C6   7788 0.11363000  12.010000   ; qtot 0.316582
 7789         hc    269    bbb    H11   7789 0.06265900   1.008000   ; qtot 0.379241
 7790         hc    269    bbb    H12   7790 0.06265900   1.008000   ; qtot 0.441900
 7791         c3    269    bbb     C7   7791 0.05858200  12.010000   ; qtot 0.500482
 7792         h1    269    bbb    H13   7792 0.06123400   1.008000   ; qtot 0.561716
 7793         h1    269    bbb    H14   7793 0.06123400   1.008000   ; qtot 0.622950
 7794         c3    269    bbb     C8   7794 -0.72423400  12.010000   ; qtot -0.101284
 7795         h1    269    bbb    H15   7795 0.25637600   1.008000   ; qtot 0.155092
 7796         h1    269    bbb    H16   7796 0.25637600   1.008000   ; qtot 0.411468
 7797         c3    269    bbb     C9   7797 -0.72423400  12.010000   ; qtot -0.312766
 7798         h1    269    bbb    H17   7798 0.25637600   1.008000   ; qtot -0.056390
 7799         h1    269    bbb    H18   7799 0.25637600   1.008000   ; qtot 0.199986
 7800         os    269    bbb     O1   7800 -0.20025300  16.000000   ; qtot -0.000267
; residue  270 bbb rtp bbb q -0.0
 7801         n3    270    bbb     N1   7801 -0.59685800  14.010000   ; qtot -0.597125
 7802         c3    270    bbb     C1   7802 0.10137000  12.010000   ; qtot -0.495755
 7803         h1    270    bbb     H1   7803 0.04411300   1.008000   ; qtot -0.451642
 7804         h1    270    bbb     H2   7804 0.04411300   1.008000   ; qtot -0.407529
 7805         c3    270    bbb     C2   7805 0.10137000  12.010000   ; qtot -0.306159
 7806         h1    270    bbb     H3   7806 0.04411300   1.008000   ; qtot -0.262046
 7807         h1    270    bbb     H4   7807 0.04411300   1.008000   ; qtot -0.217933
 7808         c3    270    bbb     C3   7808 -0.00195300  12.010000   ; qtot -0.219886
 7809         h1    270    bbb     H5   7809 0.05064400   1.008000   ; qtot -0.169242
 7810         h1    270    bbb     H6   7810 0.05064400   1.008000   ; qtot -0.118598
 7811         c3    270    bbb     C4   7811 -0.01612100  12.010000   ; qtot -0.134719
 7812         hc    270    bbb     H7   7812 0.04936100   1.008000   ; qtot -0.085358
 7813         hc    270    bbb     H8   7813 0.04936100   1.008000   ; qtot -0.035997
 7814         c3    270    bbb     C5   7814 0.11363000  12.010000   ; qtot 0.077633
 7815         hc    270    bbb     H9   7815 0.06265900   1.008000   ; qtot 0.140292
 7816         hc    270    bbb    H10   7816 0.06265900   1.008000   ; qtot 0.202951
 7817         c3    270    bbb     C6   7817 0.11363000  12.010000   ; qtot 0.316581
 7818         hc    270    bbb    H11   7818 0.06265900   1.008000   ; qtot 0.379240
 7819         hc    270    bbb    H12   7819 0.06265900   1.008000   ; qtot 0.441899
 7820         c3    270    bbb     C7   7820 0.05858200  12.010000   ; qtot 0.500481
 7821         h1    270    bbb    H13   7821 0.06123400   1.008000   ; qtot 0.561715
 7822         h1    270    bbb    H14   7822 0.06123400   1.008000   ; qtot 0.622949
 7823         c3    270    bbb     C8   7823 -0.72423400  12.010000   ; qtot -0.101285
 7824         h1    270    bbb    H15   7824 0.25637600   1.008000   ; qtot 0.155091
 7825         h1    270    bbb    H16   7825 0.25637600   1.008000   ; qtot 0.411467
 7826         c3    270    bbb     C9   7826 -0.72423400  12.010000   ; qtot -0.312767
 7827         h1    270    bbb    H17   7827 0.25637600   1.008000   ; qtot -0.056391
 7828         h1    270    bbb    H18   7828 0.25637600   1.008000   ; qtot 0.199985
 7829         os    270    bbb     O1   7829 -0.20025300  16.000000   ; qtot -0.000268
; residue  271 bbb rtp bbb q -0.0
 7830         n3    271    bbb     N1   7830 -0.59685800  14.010000   ; qtot -0.597126
 7831         c3    271    bbb     C1   7831 0.10137000  12.010000   ; qtot -0.495756
 7832         h1    271    bbb     H1   7832 0.04411300   1.008000   ; qtot -0.451643
 7833         h1    271    bbb     H2   7833 0.04411300   1.008000   ; qtot -0.407530
 7834         c3    271    bbb     C2   7834 0.10137000  12.010000   ; qtot -0.306160
 7835         h1    271    bbb     H3   7835 0.04411300   1.008000   ; qtot -0.262047
 7836         h1    271    bbb     H4   7836 0.04411300   1.008000   ; qtot -0.217934
 7837         c3    271    bbb     C3   7837 -0.00195300  12.010000   ; qtot -0.219887
 7838         h1    271    bbb     H5   7838 0.05064400   1.008000   ; qtot -0.169243
 7839         h1    271    bbb     H6   7839 0.05064400   1.008000   ; qtot -0.118599
 7840         c3    271    bbb     C4   7840 -0.01612100  12.010000   ; qtot -0.134720
 7841         hc    271    bbb     H7   7841 0.04936100   1.008000   ; qtot -0.085359
 7842         hc    271    bbb     H8   7842 0.04936100   1.008000   ; qtot -0.035998
 7843         c3    271    bbb     C5   7843 0.11363000  12.010000   ; qtot 0.077632
 7844         hc    271    bbb     H9   7844 0.06265900   1.008000   ; qtot 0.140291
 7845         hc    271    bbb    H10   7845 0.06265900   1.008000   ; qtot 0.202950
 7846         c3    271    bbb     C6   7846 0.11363000  12.010000   ; qtot 0.316580
 7847         hc    271    bbb    H11   7847 0.06265900   1.008000   ; qtot 0.379239
 7848         hc    271    bbb    H12   7848 0.06265900   1.008000   ; qtot 0.441898
 7849         c3    271    bbb     C7   7849 0.05858200  12.010000   ; qtot 0.500480
 7850         h1    271    bbb    H13   7850 0.06123400   1.008000   ; qtot 0.561714
 7851         h1    271    bbb    H14   7851 0.06123400   1.008000   ; qtot 0.622948
 7852         c3    271    bbb     C8   7852 -0.72423400  12.010000   ; qtot -0.101286
 7853         h1    271    bbb    H15   7853 0.25637600   1.008000   ; qtot 0.155090
 7854         h1    271    bbb    H16   7854 0.25637600   1.008000   ; qtot 0.411466
 7855         c3    271    bbb     C9   7855 -0.72423400  12.010000   ; qtot -0.312768
 7856         h1    271    bbb    H17   7856 0.25637600   1.008000   ; qtot -0.056392
 7857         h1    271    bbb    H18   7857 0.25637600   1.008000   ; qtot 0.199984
 7858         os    271    bbb     O1   7858 -0.20025300  16.000000   ; qtot -0.000269
; residue  272 bbb rtp bbb q -0.0
 7859         n3    272    bbb     N1   7859 -0.59685800  14.010000   ; qtot -0.597127
 7860         c3    272    bbb     C1   7860 0.10137000  12.010000   ; qtot -0.495757
 7861         h1    272    bbb     H1   7861 0.04411300   1.008000   ; qtot -0.451644
 7862         h1    272    bbb     H2   7862 0.04411300   1.008000   ; qtot -0.407531
 7863         c3    272    bbb     C2   7863 0.10137000  12.010000   ; qtot -0.306161
 7864         h1    272    bbb     H3   7864 0.04411300   1.008000   ; qtot -0.262048
 7865         h1    272    bbb     H4   7865 0.04411300   1.008000   ; qtot -0.217935
 7866         c3    272    bbb     C3   7866 -0.00195300  12.010000   ; qtot -0.219888
 7867         h1    272    bbb     H5   7867 0.05064400   1.008000   ; qtot -0.169244
 7868         h1    272    bbb     H6   7868 0.05064400   1.008000   ; qtot -0.118600
 7869         c3    272    bbb     C4   7869 -0.01612100  12.010000   ; qtot -0.134721
 7870         hc    272    bbb     H7   7870 0.04936100   1.008000   ; qtot -0.085360
 7871         hc    272    bbb     H8   7871 0.04936100   1.008000   ; qtot -0.035999
 7872         c3    272    bbb     C5   7872 0.11363000  12.010000   ; qtot 0.077631
 7873         hc    272    bbb     H9   7873 0.06265900   1.008000   ; qtot 0.140290
 7874         hc    272    bbb    H10   7874 0.06265900   1.008000   ; qtot 0.202949
 7875         c3    272    bbb     C6   7875 0.11363000  12.010000   ; qtot 0.316579
 7876         hc    272    bbb    H11   7876 0.06265900   1.008000   ; qtot 0.379238
 7877         hc    272    bbb    H12   7877 0.06265900   1.008000   ; qtot 0.441897
 7878         c3    272    bbb     C7   7878 0.05858200  12.010000   ; qtot 0.500479
 7879         h1    272    bbb    H13   7879 0.06123400   1.008000   ; qtot 0.561713
 7880         h1    272    bbb    H14   7880 0.06123400   1.008000   ; qtot 0.622947
 7881         c3    272    bbb     C8   7881 -0.72423400  12.010000   ; qtot -0.101287
 7882         h1    272    bbb    H15   7882 0.25637600   1.008000   ; qtot 0.155089
 7883         h1    272    bbb    H16   7883 0.25637600   1.008000   ; qtot 0.411465
 7884         c3    272    bbb     C9   7884 -0.72423400  12.010000   ; qtot -0.312769
 7885         h1    272    bbb    H17   7885 0.25637600   1.008000   ; qtot -0.056393
 7886         h1    272    bbb    H18   7886 0.25637600   1.008000   ; qtot 0.199983
 7887         os    272    bbb     O1   7887 -0.20025300  16.000000   ; qtot -0.000270
; residue  273 bbb rtp bbb q -0.0
 7888         n3    273    bbb     N1   7888 -0.59685800  14.010000   ; qtot -0.597128
 7889         c3    273    bbb     C1   7889 0.10137000  12.010000   ; qtot -0.495758
 7890         h1    273    bbb     H1   7890 0.04411300   1.008000   ; qtot -0.451645
 7891         h1    273    bbb     H2   7891 0.04411300   1.008000   ; qtot -0.407532
 7892         c3    273    bbb     C2   7892 0.10137000  12.010000   ; qtot -0.306162
 7893         h1    273    bbb     H3   7893 0.04411300   1.008000   ; qtot -0.262049
 7894         h1    273    bbb     H4   7894 0.04411300   1.008000   ; qtot -0.217936
 7895         c3    273    bbb     C3   7895 -0.00195300  12.010000   ; qtot -0.219889
 7896         h1    273    bbb     H5   7896 0.05064400   1.008000   ; qtot -0.169245
 7897         h1    273    bbb     H6   7897 0.05064400   1.008000   ; qtot -0.118601
 7898         c3    273    bbb     C4   7898 -0.01612100  12.010000   ; qtot -0.134722
 7899         hc    273    bbb     H7   7899 0.04936100   1.008000   ; qtot -0.085361
 7900         hc    273    bbb     H8   7900 0.04936100   1.008000   ; qtot -0.036000
 7901         c3    273    bbb     C5   7901 0.11363000  12.010000   ; qtot 0.077630
 7902         hc    273    bbb     H9   7902 0.06265900   1.008000   ; qtot 0.140289
 7903         hc    273    bbb    H10   7903 0.06265900   1.008000   ; qtot 0.202948
 7904         c3    273    bbb     C6   7904 0.11363000  12.010000   ; qtot 0.316578
 7905         hc    273    bbb    H11   7905 0.06265900   1.008000   ; qtot 0.379237
 7906         hc    273    bbb    H12   7906 0.06265900   1.008000   ; qtot 0.441896
 7907         c3    273    bbb     C7   7907 0.05858200  12.010000   ; qtot 0.500478
 7908         h1    273    bbb    H13   7908 0.06123400   1.008000   ; qtot 0.561712
 7909         h1    273    bbb    H14   7909 0.06123400   1.008000   ; qtot 0.622946
 7910         c3    273    bbb     C8   7910 -0.72423400  12.010000   ; qtot -0.101288
 7911         h1    273    bbb    H15   7911 0.25637600   1.008000   ; qtot 0.155088
 7912         h1    273    bbb    H16   7912 0.25637600   1.008000   ; qtot 0.411464
 7913         c3    273    bbb     C9   7913 -0.72423400  12.010000   ; qtot -0.312770
 7914         h1    273    bbb    H17   7914 0.25637600   1.008000   ; qtot -0.056394
 7915         h1    273    bbb    H18   7915 0.25637600   1.008000   ; qtot 0.199982
 7916         os    273    bbb     O1   7916 -0.20025300  16.000000   ; qtot -0.000271
; residue  274 bbb rtp bbb q -0.0
 7917         n3    274    bbb     N1   7917 -0.59685800  14.010000   ; qtot -0.597129
 7918         c3    274    bbb     C1   7918 0.10137000  12.010000   ; qtot -0.495759
 7919         h1    274    bbb     H1   7919 0.04411300   1.008000   ; qtot -0.451646
 7920         h1    274    bbb     H2   7920 0.04411300   1.008000   ; qtot -0.407533
 7921         c3    274    bbb     C2   7921 0.10137000  12.010000   ; qtot -0.306163
 7922         h1    274    bbb     H3   7922 0.04411300   1.008000   ; qtot -0.262050
 7923         h1    274    bbb     H4   7923 0.04411300   1.008000   ; qtot -0.217937
 7924         c3    274    bbb     C3   7924 -0.00195300  12.010000   ; qtot -0.219890
 7925         h1    274    bbb     H5   7925 0.05064400   1.008000   ; qtot -0.169246
 7926         h1    274    bbb     H6   7926 0.05064400   1.008000   ; qtot -0.118602
 7927         c3    274    bbb     C4   7927 -0.01612100  12.010000   ; qtot -0.134723
 7928         hc    274    bbb     H7   7928 0.04936100   1.008000   ; qtot -0.085362
 7929         hc    274    bbb     H8   7929 0.04936100   1.008000   ; qtot -0.036001
 7930         c3    274    bbb     C5   7930 0.11363000  12.010000   ; qtot 0.077629
 7931         hc    274    bbb     H9   7931 0.06265900   1.008000   ; qtot 0.140288
 7932         hc    274    bbb    H10   7932 0.06265900   1.008000   ; qtot 0.202947
 7933         c3    274    bbb     C6   7933 0.11363000  12.010000   ; qtot 0.316577
 7934         hc    274    bbb    H11   7934 0.06265900   1.008000   ; qtot 0.379236
 7935         hc    274    bbb    H12   7935 0.06265900   1.008000   ; qtot 0.441895
 7936         c3    274    bbb     C7   7936 0.05858200  12.010000   ; qtot 0.500477
 7937         h1    274    bbb    H13   7937 0.06123400   1.008000   ; qtot 0.561711
 7938         h1    274    bbb    H14   7938 0.06123400   1.008000   ; qtot 0.622945
 7939         c3    274    bbb     C8   7939 -0.72423400  12.010000   ; qtot -0.101289
 7940         h1    274    bbb    H15   7940 0.25637600   1.008000   ; qtot 0.155087
 7941         h1    274    bbb    H16   7941 0.25637600   1.008000   ; qtot 0.411463
 7942         c3    274    bbb     C9   7942 -0.72423400  12.010000   ; qtot -0.312771
 7943         h1    274    bbb    H17   7943 0.25637600   1.008000   ; qtot -0.056395
 7944         h1    274    bbb    H18   7944 0.25637600   1.008000   ; qtot 0.199981
 7945         os    274    bbb     O1   7945 -0.20025300  16.000000   ; qtot -0.000272
; residue  275 bbb rtp bbb q -0.0
 7946         n3    275    bbb     N1   7946 -0.59685800  14.010000   ; qtot -0.597130
 7947         c3    275    bbb     C1   7947 0.10137000  12.010000   ; qtot -0.495760
 7948         h1    275    bbb     H1   7948 0.04411300   1.008000   ; qtot -0.451647
 7949         h1    275    bbb     H2   7949 0.04411300   1.008000   ; qtot -0.407534
 7950         c3    275    bbb     C2   7950 0.10137000  12.010000   ; qtot -0.306164
 7951         h1    275    bbb     H3   7951 0.04411300   1.008000   ; qtot -0.262051
 7952         h1    275    bbb     H4   7952 0.04411300   1.008000   ; qtot -0.217938
 7953         c3    275    bbb     C3   7953 -0.00195300  12.010000   ; qtot -0.219891
 7954         h1    275    bbb     H5   7954 0.05064400   1.008000   ; qtot -0.169247
 7955         h1    275    bbb     H6   7955 0.05064400   1.008000   ; qtot -0.118603
 7956         c3    275    bbb     C4   7956 -0.01612100  12.010000   ; qtot -0.134724
 7957         hc    275    bbb     H7   7957 0.04936100   1.008000   ; qtot -0.085363
 7958         hc    275    bbb     H8   7958 0.04936100   1.008000   ; qtot -0.036002
 7959         c3    275    bbb     C5   7959 0.11363000  12.010000   ; qtot 0.077628
 7960         hc    275    bbb     H9   7960 0.06265900   1.008000   ; qtot 0.140287
 7961         hc    275    bbb    H10   7961 0.06265900   1.008000   ; qtot 0.202946
 7962         c3    275    bbb     C6   7962 0.11363000  12.010000   ; qtot 0.316576
 7963         hc    275    bbb    H11   7963 0.06265900   1.008000   ; qtot 0.379235
 7964         hc    275    bbb    H12   7964 0.06265900   1.008000   ; qtot 0.441894
 7965         c3    275    bbb     C7   7965 0.05858200  12.010000   ; qtot 0.500476
 7966         h1    275    bbb    H13   7966 0.06123400   1.008000   ; qtot 0.561710
 7967         h1    275    bbb    H14   7967 0.06123400   1.008000   ; qtot 0.622944
 7968         c3    275    bbb     C8   7968 -0.72423400  12.010000   ; qtot -0.101290
 7969         h1    275    bbb    H15   7969 0.25637600   1.008000   ; qtot 0.155086
 7970         h1    275    bbb    H16   7970 0.25637600   1.008000   ; qtot 0.411462
 7971         c3    275    bbb     C9   7971 -0.72423400  12.010000   ; qtot -0.312772
 7972         h1    275    bbb    H17   7972 0.25637600   1.008000   ; qtot -0.056396
 7973         h1    275    bbb    H18   7973 0.25637600   1.008000   ; qtot 0.199980
 7974         os    275    bbb     O1   7974 -0.20025300  16.000000   ; qtot -0.000273
; residue  276 bbb rtp bbb q -0.0
 7975         n3    276    bbb     N1   7975 -0.59685800  14.010000   ; qtot -0.597131
 7976         c3    276    bbb     C1   7976 0.10137000  12.010000   ; qtot -0.495761
 7977         h1    276    bbb     H1   7977 0.04411300   1.008000   ; qtot -0.451648
 7978         h1    276    bbb     H2   7978 0.04411300   1.008000   ; qtot -0.407535
 7979         c3    276    bbb     C2   7979 0.10137000  12.010000   ; qtot -0.306165
 7980         h1    276    bbb     H3   7980 0.04411300   1.008000   ; qtot -0.262052
 7981         h1    276    bbb     H4   7981 0.04411300   1.008000   ; qtot -0.217939
 7982         c3    276    bbb     C3   7982 -0.00195300  12.010000   ; qtot -0.219892
 7983         h1    276    bbb     H5   7983 0.05064400   1.008000   ; qtot -0.169248
 7984         h1    276    bbb     H6   7984 0.05064400   1.008000   ; qtot -0.118604
 7985         c3    276    bbb     C4   7985 -0.01612100  12.010000   ; qtot -0.134725
 7986         hc    276    bbb     H7   7986 0.04936100   1.008000   ; qtot -0.085364
 7987         hc    276    bbb     H8   7987 0.04936100   1.008000   ; qtot -0.036003
 7988         c3    276    bbb     C5   7988 0.11363000  12.010000   ; qtot 0.077627
 7989         hc    276    bbb     H9   7989 0.06265900   1.008000   ; qtot 0.140286
 7990         hc    276    bbb    H10   7990 0.06265900   1.008000   ; qtot 0.202945
 7991         c3    276    bbb     C6   7991 0.11363000  12.010000   ; qtot 0.316575
 7992         hc    276    bbb    H11   7992 0.06265900   1.008000   ; qtot 0.379234
 7993         hc    276    bbb    H12   7993 0.06265900   1.008000   ; qtot 0.441893
 7994         c3    276    bbb     C7   7994 0.05858200  12.010000   ; qtot 0.500475
 7995         h1    276    bbb    H13   7995 0.06123400   1.008000   ; qtot 0.561709
 7996         h1    276    bbb    H14   7996 0.06123400   1.008000   ; qtot 0.622943
 7997         c3    276    bbb     C8   7997 -0.72423400  12.010000   ; qtot -0.101291
 7998         h1    276    bbb    H15   7998 0.25637600   1.008000   ; qtot 0.155085
 7999         h1    276    bbb    H16   7999 0.25637600   1.008000   ; qtot 0.411461
 8000         c3    276    bbb     C9   8000 -0.72423400  12.010000   ; qtot -0.312773
 8001         h1    276    bbb    H17   8001 0.25637600   1.008000   ; qtot -0.056397
 8002         h1    276    bbb    H18   8002 0.25637600   1.008000   ; qtot 0.199979
 8003         os    276    bbb     O1   8003 -0.20025300  16.000000   ; qtot -0.000274
; residue  277 bbb rtp bbb q -0.0
 8004         n3    277    bbb     N1   8004 -0.59685800  14.010000   ; qtot -0.597132
 8005         c3    277    bbb     C1   8005 0.10137000  12.010000   ; qtot -0.495762
 8006         h1    277    bbb     H1   8006 0.04411300   1.008000   ; qtot -0.451649
 8007         h1    277    bbb     H2   8007 0.04411300   1.008000   ; qtot -0.407536
 8008         c3    277    bbb     C2   8008 0.10137000  12.010000   ; qtot -0.306166
 8009         h1    277    bbb     H3   8009 0.04411300   1.008000   ; qtot -0.262053
 8010         h1    277    bbb     H4   8010 0.04411300   1.008000   ; qtot -0.217940
 8011         c3    277    bbb     C3   8011 -0.00195300  12.010000   ; qtot -0.219893
 8012         h1    277    bbb     H5   8012 0.05064400   1.008000   ; qtot -0.169249
 8013         h1    277    bbb     H6   8013 0.05064400   1.008000   ; qtot -0.118605
 8014         c3    277    bbb     C4   8014 -0.01612100  12.010000   ; qtot -0.134726
 8015         hc    277    bbb     H7   8015 0.04936100   1.008000   ; qtot -0.085365
 8016         hc    277    bbb     H8   8016 0.04936100   1.008000   ; qtot -0.036004
 8017         c3    277    bbb     C5   8017 0.11363000  12.010000   ; qtot 0.077626
 8018         hc    277    bbb     H9   8018 0.06265900   1.008000   ; qtot 0.140285
 8019         hc    277    bbb    H10   8019 0.06265900   1.008000   ; qtot 0.202944
 8020         c3    277    bbb     C6   8020 0.11363000  12.010000   ; qtot 0.316574
 8021         hc    277    bbb    H11   8021 0.06265900   1.008000   ; qtot 0.379233
 8022         hc    277    bbb    H12   8022 0.06265900   1.008000   ; qtot 0.441892
 8023         c3    277    bbb     C7   8023 0.05858200  12.010000   ; qtot 0.500474
 8024         h1    277    bbb    H13   8024 0.06123400   1.008000   ; qtot 0.561708
 8025         h1    277    bbb    H14   8025 0.06123400   1.008000   ; qtot 0.622942
 8026         c3    277    bbb     C8   8026 -0.72423400  12.010000   ; qtot -0.101292
 8027         h1    277    bbb    H15   8027 0.25637600   1.008000   ; qtot 0.155084
 8028         h1    277    bbb    H16   8028 0.25637600   1.008000   ; qtot 0.411460
 8029         c3    277    bbb     C9   8029 -0.72423400  12.010000   ; qtot -0.312774
 8030         h1    277    bbb    H17   8030 0.25637600   1.008000   ; qtot -0.056398
 8031         h1    277    bbb    H18   8031 0.25637600   1.008000   ; qtot 0.199978
 8032         os    277    bbb     O1   8032 -0.20025300  16.000000   ; qtot -0.000275
; residue  278 bbb rtp bbb q -0.0
 8033         n3    278    bbb     N1   8033 -0.59685800  14.010000   ; qtot -0.597133
 8034         c3    278    bbb     C1   8034 0.10137000  12.010000   ; qtot -0.495763
 8035         h1    278    bbb     H1   8035 0.04411300   1.008000   ; qtot -0.451650
 8036         h1    278    bbb     H2   8036 0.04411300   1.008000   ; qtot -0.407537
 8037         c3    278    bbb     C2   8037 0.10137000  12.010000   ; qtot -0.306167
 8038         h1    278    bbb     H3   8038 0.04411300   1.008000   ; qtot -0.262054
 8039         h1    278    bbb     H4   8039 0.04411300   1.008000   ; qtot -0.217941
 8040         c3    278    bbb     C3   8040 -0.00195300  12.010000   ; qtot -0.219894
 8041         h1    278    bbb     H5   8041 0.05064400   1.008000   ; qtot -0.169250
 8042         h1    278    bbb     H6   8042 0.05064400   1.008000   ; qtot -0.118606
 8043         c3    278    bbb     C4   8043 -0.01612100  12.010000   ; qtot -0.134727
 8044         hc    278    bbb     H7   8044 0.04936100   1.008000   ; qtot -0.085366
 8045         hc    278    bbb     H8   8045 0.04936100   1.008000   ; qtot -0.036005
 8046         c3    278    bbb     C5   8046 0.11363000  12.010000   ; qtot 0.077625
 8047         hc    278    bbb     H9   8047 0.06265900   1.008000   ; qtot 0.140284
 8048         hc    278    bbb    H10   8048 0.06265900   1.008000   ; qtot 0.202943
 8049         c3    278    bbb     C6   8049 0.11363000  12.010000   ; qtot 0.316573
 8050         hc    278    bbb    H11   8050 0.06265900   1.008000   ; qtot 0.379232
 8051         hc    278    bbb    H12   8051 0.06265900   1.008000   ; qtot 0.441891
 8052         c3    278    bbb     C7   8052 0.05858200  12.010000   ; qtot 0.500473
 8053         h1    278    bbb    H13   8053 0.06123400   1.008000   ; qtot 0.561707
 8054         h1    278    bbb    H14   8054 0.06123400   1.008000   ; qtot 0.622941
 8055         c3    278    bbb     C8   8055 -0.72423400  12.010000   ; qtot -0.101293
 8056         h1    278    bbb    H15   8056 0.25637600   1.008000   ; qtot 0.155083
 8057         h1    278    bbb    H16   8057 0.25637600   1.008000   ; qtot 0.411459
 8058         c3    278    bbb     C9   8058 -0.72423400  12.010000   ; qtot -0.312775
 8059         h1    278    bbb    H17   8059 0.25637600   1.008000   ; qtot -0.056399
 8060         h1    278    bbb    H18   8060 0.25637600   1.008000   ; qtot 0.199977
 8061         os    278    bbb     O1   8061 -0.20025300  16.000000   ; qtot -0.000276
; residue  279 bbb rtp bbb q -0.0
 8062         n3    279    bbb     N1   8062 -0.59685800  14.010000   ; qtot -0.597134
 8063         c3    279    bbb     C1   8063 0.10137000  12.010000   ; qtot -0.495764
 8064         h1    279    bbb     H1   8064 0.04411300   1.008000   ; qtot -0.451651
 8065         h1    279    bbb     H2   8065 0.04411300   1.008000   ; qtot -0.407538
 8066         c3    279    bbb     C2   8066 0.10137000  12.010000   ; qtot -0.306168
 8067         h1    279    bbb     H3   8067 0.04411300   1.008000   ; qtot -0.262055
 8068         h1    279    bbb     H4   8068 0.04411300   1.008000   ; qtot -0.217942
 8069         c3    279    bbb     C3   8069 -0.00195300  12.010000   ; qtot -0.219895
 8070         h1    279    bbb     H5   8070 0.05064400   1.008000   ; qtot -0.169251
 8071         h1    279    bbb     H6   8071 0.05064400   1.008000   ; qtot -0.118607
 8072         c3    279    bbb     C4   8072 -0.01612100  12.010000   ; qtot -0.134728
 8073         hc    279    bbb     H7   8073 0.04936100   1.008000   ; qtot -0.085367
 8074         hc    279    bbb     H8   8074 0.04936100   1.008000   ; qtot -0.036006
 8075         c3    279    bbb     C5   8075 0.11363000  12.010000   ; qtot 0.077624
 8076         hc    279    bbb     H9   8076 0.06265900   1.008000   ; qtot 0.140283
 8077         hc    279    bbb    H10   8077 0.06265900   1.008000   ; qtot 0.202942
 8078         c3    279    bbb     C6   8078 0.11363000  12.010000   ; qtot 0.316572
 8079         hc    279    bbb    H11   8079 0.06265900   1.008000   ; qtot 0.379231
 8080         hc    279    bbb    H12   8080 0.06265900   1.008000   ; qtot 0.441890
 8081         c3    279    bbb     C7   8081 0.05858200  12.010000   ; qtot 0.500472
 8082         h1    279    bbb    H13   8082 0.06123400   1.008000   ; qtot 0.561706
 8083         h1    279    bbb    H14   8083 0.06123400   1.008000   ; qtot 0.622940
 8084         c3    279    bbb     C8   8084 -0.72423400  12.010000   ; qtot -0.101294
 8085         h1    279    bbb    H15   8085 0.25637600   1.008000   ; qtot 0.155082
 8086         h1    279    bbb    H16   8086 0.25637600   1.008000   ; qtot 0.411458
 8087         c3    279    bbb     C9   8087 -0.72423400  12.010000   ; qtot -0.312776
 8088         h1    279    bbb    H17   8088 0.25637600   1.008000   ; qtot -0.056400
 8089         h1    279    bbb    H18   8089 0.25637600   1.008000   ; qtot 0.199976
 8090         os    279    bbb     O1   8090 -0.20025300  16.000000   ; qtot -0.000277
; residue  280 bbb rtp bbb q -0.0
 8091         n3    280    bbb     N1   8091 -0.59685800  14.010000   ; qtot -0.597135
 8092         c3    280    bbb     C1   8092 0.10137000  12.010000   ; qtot -0.495765
 8093         h1    280    bbb     H1   8093 0.04411300   1.008000   ; qtot -0.451652
 8094         h1    280    bbb     H2   8094 0.04411300   1.008000   ; qtot -0.407539
 8095         c3    280    bbb     C2   8095 0.10137000  12.010000   ; qtot -0.306169
 8096         h1    280    bbb     H3   8096 0.04411300   1.008000   ; qtot -0.262056
 8097         h1    280    bbb     H4   8097 0.04411300   1.008000   ; qtot -0.217943
 8098         c3    280    bbb     C3   8098 -0.00195300  12.010000   ; qtot -0.219896
 8099         h1    280    bbb     H5   8099 0.05064400   1.008000   ; qtot -0.169252
 8100         h1    280    bbb     H6   8100 0.05064400   1.008000   ; qtot -0.118608
 8101         c3    280    bbb     C4   8101 -0.01612100  12.010000   ; qtot -0.134729
 8102         hc    280    bbb     H7   8102 0.04936100   1.008000   ; qtot -0.085368
 8103         hc    280    bbb     H8   8103 0.04936100   1.008000   ; qtot -0.036007
 8104         c3    280    bbb     C5   8104 0.11363000  12.010000   ; qtot 0.077623
 8105         hc    280    bbb     H9   8105 0.06265900   1.008000   ; qtot 0.140282
 8106         hc    280    bbb    H10   8106 0.06265900   1.008000   ; qtot 0.202941
 8107         c3    280    bbb     C6   8107 0.11363000  12.010000   ; qtot 0.316571
 8108         hc    280    bbb    H11   8108 0.06265900   1.008000   ; qtot 0.379230
 8109         hc    280    bbb    H12   8109 0.06265900   1.008000   ; qtot 0.441889
 8110         c3    280    bbb     C7   8110 0.05858200  12.010000   ; qtot 0.500471
 8111         h1    280    bbb    H13   8111 0.06123400   1.008000   ; qtot 0.561705
 8112         h1    280    bbb    H14   8112 0.06123400   1.008000   ; qtot 0.622939
 8113         c3    280    bbb     C8   8113 -0.72423400  12.010000   ; qtot -0.101295
 8114         h1    280    bbb    H15   8114 0.25637600   1.008000   ; qtot 0.155081
 8115         h1    280    bbb    H16   8115 0.25637600   1.008000   ; qtot 0.411457
 8116         c3    280    bbb     C9   8116 -0.72423400  12.010000   ; qtot -0.312777
 8117         h1    280    bbb    H17   8117 0.25637600   1.008000   ; qtot -0.056401
 8118         h1    280    bbb    H18   8118 0.25637600   1.008000   ; qtot 0.199975
 8119         os    280    bbb     O1   8119 -0.20025300  16.000000   ; qtot -0.000278
; residue  281 bbb rtp bbb q -0.0
 8120         n3    281    bbb     N1   8120 -0.59685800  14.010000   ; qtot -0.597136
 8121         c3    281    bbb     C1   8121 0.10137000  12.010000   ; qtot -0.495766
 8122         h1    281    bbb     H1   8122 0.04411300   1.008000   ; qtot -0.451653
 8123         h1    281    bbb     H2   8123 0.04411300   1.008000   ; qtot -0.407540
 8124         c3    281    bbb     C2   8124 0.10137000  12.010000   ; qtot -0.306170
 8125         h1    281    bbb     H3   8125 0.04411300   1.008000   ; qtot -0.262057
 8126         h1    281    bbb     H4   8126 0.04411300   1.008000   ; qtot -0.217944
 8127         c3    281    bbb     C3   8127 -0.00195300  12.010000   ; qtot -0.219897
 8128         h1    281    bbb     H5   8128 0.05064400   1.008000   ; qtot -0.169253
 8129         h1    281    bbb     H6   8129 0.05064400   1.008000   ; qtot -0.118609
 8130         c3    281    bbb     C4   8130 -0.01612100  12.010000   ; qtot -0.134730
 8131         hc    281    bbb     H7   8131 0.04936100   1.008000   ; qtot -0.085369
 8132         hc    281    bbb     H8   8132 0.04936100   1.008000   ; qtot -0.036008
 8133         c3    281    bbb     C5   8133 0.11363000  12.010000   ; qtot 0.077622
 8134         hc    281    bbb     H9   8134 0.06265900   1.008000   ; qtot 0.140281
 8135         hc    281    bbb    H10   8135 0.06265900   1.008000   ; qtot 0.202940
 8136         c3    281    bbb     C6   8136 0.11363000  12.010000   ; qtot 0.316570
 8137         hc    281    bbb    H11   8137 0.06265900   1.008000   ; qtot 0.379229
 8138         hc    281    bbb    H12   8138 0.06265900   1.008000   ; qtot 0.441888
 8139         c3    281    bbb     C7   8139 0.05858200  12.010000   ; qtot 0.500470
 8140         h1    281    bbb    H13   8140 0.06123400   1.008000   ; qtot 0.561704
 8141         h1    281    bbb    H14   8141 0.06123400   1.008000   ; qtot 0.622938
 8142         c3    281    bbb     C8   8142 -0.72423400  12.010000   ; qtot -0.101296
 8143         h1    281    bbb    H15   8143 0.25637600   1.008000   ; qtot 0.155080
 8144         h1    281    bbb    H16   8144 0.25637600   1.008000   ; qtot 0.411456
 8145         c3    281    bbb     C9   8145 -0.72423400  12.010000   ; qtot -0.312778
 8146         h1    281    bbb    H17   8146 0.25637600   1.008000   ; qtot -0.056402
 8147         h1    281    bbb    H18   8147 0.25637600   1.008000   ; qtot 0.199974
 8148         os    281    bbb     O1   8148 -0.20025300  16.000000   ; qtot -0.000279
; residue  282 bbb rtp bbb q -0.0
 8149         n3    282    bbb     N1   8149 -0.59685800  14.010000   ; qtot -0.597137
 8150         c3    282    bbb     C1   8150 0.10137000  12.010000   ; qtot -0.495767
 8151         h1    282    bbb     H1   8151 0.04411300   1.008000   ; qtot -0.451654
 8152         h1    282    bbb     H2   8152 0.04411300   1.008000   ; qtot -0.407541
 8153         c3    282    bbb     C2   8153 0.10137000  12.010000   ; qtot -0.306171
 8154         h1    282    bbb     H3   8154 0.04411300   1.008000   ; qtot -0.262058
 8155         h1    282    bbb     H4   8155 0.04411300   1.008000   ; qtot -0.217945
 8156         c3    282    bbb     C3   8156 -0.00195300  12.010000   ; qtot -0.219898
 8157         h1    282    bbb     H5   8157 0.05064400   1.008000   ; qtot -0.169254
 8158         h1    282    bbb     H6   8158 0.05064400   1.008000   ; qtot -0.118610
 8159         c3    282    bbb     C4   8159 -0.01612100  12.010000   ; qtot -0.134731
 8160         hc    282    bbb     H7   8160 0.04936100   1.008000   ; qtot -0.085370
 8161         hc    282    bbb     H8   8161 0.04936100   1.008000   ; qtot -0.036009
 8162         c3    282    bbb     C5   8162 0.11363000  12.010000   ; qtot 0.077621
 8163         hc    282    bbb     H9   8163 0.06265900   1.008000   ; qtot 0.140280
 8164         hc    282    bbb    H10   8164 0.06265900   1.008000   ; qtot 0.202939
 8165         c3    282    bbb     C6   8165 0.11363000  12.010000   ; qtot 0.316569
 8166         hc    282    bbb    H11   8166 0.06265900   1.008000   ; qtot 0.379228
 8167         hc    282    bbb    H12   8167 0.06265900   1.008000   ; qtot 0.441887
 8168         c3    282    bbb     C7   8168 0.05858200  12.010000   ; qtot 0.500469
 8169         h1    282    bbb    H13   8169 0.06123400   1.008000   ; qtot 0.561703
 8170         h1    282    bbb    H14   8170 0.06123400   1.008000   ; qtot 0.622937
 8171         c3    282    bbb     C8   8171 -0.72423400  12.010000   ; qtot -0.101297
 8172         h1    282    bbb    H15   8172 0.25637600   1.008000   ; qtot 0.155079
 8173         h1    282    bbb    H16   8173 0.25637600   1.008000   ; qtot 0.411455
 8174         c3    282    bbb     C9   8174 -0.72423400  12.010000   ; qtot -0.312779
 8175         h1    282    bbb    H17   8175 0.25637600   1.008000   ; qtot -0.056403
 8176         h1    282    bbb    H18   8176 0.25637600   1.008000   ; qtot 0.199973
 8177         os    282    bbb     O1   8177 -0.20025300  16.000000   ; qtot -0.000280
; residue  283 bbb rtp bbb q -0.0
 8178         n3    283    bbb     N1   8178 -0.59685800  14.010000   ; qtot -0.597138
 8179         c3    283    bbb     C1   8179 0.10137000  12.010000   ; qtot -0.495768
 8180         h1    283    bbb     H1   8180 0.04411300   1.008000   ; qtot -0.451655
 8181         h1    283    bbb     H2   8181 0.04411300   1.008000   ; qtot -0.407542
 8182         c3    283    bbb     C2   8182 0.10137000  12.010000   ; qtot -0.306172
 8183         h1    283    bbb     H3   8183 0.04411300   1.008000   ; qtot -0.262059
 8184         h1    283    bbb     H4   8184 0.04411300   1.008000   ; qtot -0.217946
 8185         c3    283    bbb     C3   8185 -0.00195300  12.010000   ; qtot -0.219899
 8186         h1    283    bbb     H5   8186 0.05064400   1.008000   ; qtot -0.169255
 8187         h1    283    bbb     H6   8187 0.05064400   1.008000   ; qtot -0.118611
 8188         c3    283    bbb     C4   8188 -0.01612100  12.010000   ; qtot -0.134732
 8189         hc    283    bbb     H7   8189 0.04936100   1.008000   ; qtot -0.085371
 8190         hc    283    bbb     H8   8190 0.04936100   1.008000   ; qtot -0.036010
 8191         c3    283    bbb     C5   8191 0.11363000  12.010000   ; qtot 0.077620
 8192         hc    283    bbb     H9   8192 0.06265900   1.008000   ; qtot 0.140279
 8193         hc    283    bbb    H10   8193 0.06265900   1.008000   ; qtot 0.202938
 8194         c3    283    bbb     C6   8194 0.11363000  12.010000   ; qtot 0.316568
 8195         hc    283    bbb    H11   8195 0.06265900   1.008000   ; qtot 0.379227
 8196         hc    283    bbb    H12   8196 0.06265900   1.008000   ; qtot 0.441886
 8197         c3    283    bbb     C7   8197 0.05858200  12.010000   ; qtot 0.500468
 8198         h1    283    bbb    H13   8198 0.06123400   1.008000   ; qtot 0.561702
 8199         h1    283    bbb    H14   8199 0.06123400   1.008000   ; qtot 0.622936
 8200         c3    283    bbb     C8   8200 -0.72423400  12.010000   ; qtot -0.101298
 8201         h1    283    bbb    H15   8201 0.25637600   1.008000   ; qtot 0.155078
 8202         h1    283    bbb    H16   8202 0.25637600   1.008000   ; qtot 0.411454
 8203         c3    283    bbb     C9   8203 -0.72423400  12.010000   ; qtot -0.312780
 8204         h1    283    bbb    H17   8204 0.25637600   1.008000   ; qtot -0.056404
 8205         h1    283    bbb    H18   8205 0.25637600   1.008000   ; qtot 0.199972
 8206         os    283    bbb     O1   8206 -0.20025300  16.000000   ; qtot -0.000281
; residue  284 bbb rtp bbb q -0.0
 8207         n3    284    bbb     N1   8207 -0.59685800  14.010000   ; qtot -0.597139
 8208         c3    284    bbb     C1   8208 0.10137000  12.010000   ; qtot -0.495769
 8209         h1    284    bbb     H1   8209 0.04411300   1.008000   ; qtot -0.451656
 8210         h1    284    bbb     H2   8210 0.04411300   1.008000   ; qtot -0.407543
 8211         c3    284    bbb     C2   8211 0.10137000  12.010000   ; qtot -0.306173
 8212         h1    284    bbb     H3   8212 0.04411300   1.008000   ; qtot -0.262060
 8213         h1    284    bbb     H4   8213 0.04411300   1.008000   ; qtot -0.217947
 8214         c3    284    bbb     C3   8214 -0.00195300  12.010000   ; qtot -0.219900
 8215         h1    284    bbb     H5   8215 0.05064400   1.008000   ; qtot -0.169256
 8216         h1    284    bbb     H6   8216 0.05064400   1.008000   ; qtot -0.118612
 8217         c3    284    bbb     C4   8217 -0.01612100  12.010000   ; qtot -0.134733
 8218         hc    284    bbb     H7   8218 0.04936100   1.008000   ; qtot -0.085372
 8219         hc    284    bbb     H8   8219 0.04936100   1.008000   ; qtot -0.036011
 8220         c3    284    bbb     C5   8220 0.11363000  12.010000   ; qtot 0.077619
 8221         hc    284    bbb     H9   8221 0.06265900   1.008000   ; qtot 0.140278
 8222         hc    284    bbb    H10   8222 0.06265900   1.008000   ; qtot 0.202937
 8223         c3    284    bbb     C6   8223 0.11363000  12.010000   ; qtot 0.316567
 8224         hc    284    bbb    H11   8224 0.06265900   1.008000   ; qtot 0.379226
 8225         hc    284    bbb    H12   8225 0.06265900   1.008000   ; qtot 0.441885
 8226         c3    284    bbb     C7   8226 0.05858200  12.010000   ; qtot 0.500467
 8227         h1    284    bbb    H13   8227 0.06123400   1.008000   ; qtot 0.561701
 8228         h1    284    bbb    H14   8228 0.06123400   1.008000   ; qtot 0.622935
 8229         c3    284    bbb     C8   8229 -0.72423400  12.010000   ; qtot -0.101299
 8230         h1    284    bbb    H15   8230 0.25637600   1.008000   ; qtot 0.155077
 8231         h1    284    bbb    H16   8231 0.25637600   1.008000   ; qtot 0.411453
 8232         c3    284    bbb     C9   8232 -0.72423400  12.010000   ; qtot -0.312781
 8233         h1    284    bbb    H17   8233 0.25637600   1.008000   ; qtot -0.056405
 8234         h1    284    bbb    H18   8234 0.25637600   1.008000   ; qtot 0.199971
 8235         os    284    bbb     O1   8235 -0.20025300  16.000000   ; qtot -0.000282
; residue  285 bbb rtp bbb q -0.0
 8236         n3    285    bbb     N1   8236 -0.59685800  14.010000   ; qtot -0.597140
 8237         c3    285    bbb     C1   8237 0.10137000  12.010000   ; qtot -0.495770
 8238         h1    285    bbb     H1   8238 0.04411300   1.008000   ; qtot -0.451657
 8239         h1    285    bbb     H2   8239 0.04411300   1.008000   ; qtot -0.407544
 8240         c3    285    bbb     C2   8240 0.10137000  12.010000   ; qtot -0.306174
 8241         h1    285    bbb     H3   8241 0.04411300   1.008000   ; qtot -0.262061
 8242         h1    285    bbb     H4   8242 0.04411300   1.008000   ; qtot -0.217948
 8243         c3    285    bbb     C3   8243 -0.00195300  12.010000   ; qtot -0.219901
 8244         h1    285    bbb     H5   8244 0.05064400   1.008000   ; qtot -0.169257
 8245         h1    285    bbb     H6   8245 0.05064400   1.008000   ; qtot -0.118613
 8246         c3    285    bbb     C4   8246 -0.01612100  12.010000   ; qtot -0.134734
 8247         hc    285    bbb     H7   8247 0.04936100   1.008000   ; qtot -0.085373
 8248         hc    285    bbb     H8   8248 0.04936100   1.008000   ; qtot -0.036012
 8249         c3    285    bbb     C5   8249 0.11363000  12.010000   ; qtot 0.077618
 8250         hc    285    bbb     H9   8250 0.06265900   1.008000   ; qtot 0.140277
 8251         hc    285    bbb    H10   8251 0.06265900   1.008000   ; qtot 0.202936
 8252         c3    285    bbb     C6   8252 0.11363000  12.010000   ; qtot 0.316566
 8253         hc    285    bbb    H11   8253 0.06265900   1.008000   ; qtot 0.379225
 8254         hc    285    bbb    H12   8254 0.06265900   1.008000   ; qtot 0.441884
 8255         c3    285    bbb     C7   8255 0.05858200  12.010000   ; qtot 0.500466
 8256         h1    285    bbb    H13   8256 0.06123400   1.008000   ; qtot 0.561700
 8257         h1    285    bbb    H14   8257 0.06123400   1.008000   ; qtot 0.622934
 8258         c3    285    bbb     C8   8258 -0.72423400  12.010000   ; qtot -0.101300
 8259         h1    285    bbb    H15   8259 0.25637600   1.008000   ; qtot 0.155076
 8260         h1    285    bbb    H16   8260 0.25637600   1.008000   ; qtot 0.411452
 8261         c3    285    bbb     C9   8261 -0.72423400  12.010000   ; qtot -0.312782
 8262         h1    285    bbb    H17   8262 0.25637600   1.008000   ; qtot -0.056406
 8263         h1    285    bbb    H18   8263 0.25637600   1.008000   ; qtot 0.199970
 8264         os    285    bbb     O1   8264 -0.20025300  16.000000   ; qtot -0.000283
; residue  286 bbb rtp bbb q -0.0
 8265         n3    286    bbb     N1   8265 -0.59685800  14.010000   ; qtot -0.597141
 8266         c3    286    bbb     C1   8266 0.10137000  12.010000   ; qtot -0.495771
 8267         h1    286    bbb     H1   8267 0.04411300   1.008000   ; qtot -0.451658
 8268         h1    286    bbb     H2   8268 0.04411300   1.008000   ; qtot -0.407545
 8269         c3    286    bbb     C2   8269 0.10137000  12.010000   ; qtot -0.306175
 8270         h1    286    bbb     H3   8270 0.04411300   1.008000   ; qtot -0.262062
 8271         h1    286    bbb     H4   8271 0.04411300   1.008000   ; qtot -0.217949
 8272         c3    286    bbb     C3   8272 -0.00195300  12.010000   ; qtot -0.219902
 8273         h1    286    bbb     H5   8273 0.05064400   1.008000   ; qtot -0.169258
 8274         h1    286    bbb     H6   8274 0.05064400   1.008000   ; qtot -0.118614
 8275         c3    286    bbb     C4   8275 -0.01612100  12.010000   ; qtot -0.134735
 8276         hc    286    bbb     H7   8276 0.04936100   1.008000   ; qtot -0.085374
 8277         hc    286    bbb     H8   8277 0.04936100   1.008000   ; qtot -0.036013
 8278         c3    286    bbb     C5   8278 0.11363000  12.010000   ; qtot 0.077617
 8279         hc    286    bbb     H9   8279 0.06265900   1.008000   ; qtot 0.140276
 8280         hc    286    bbb    H10   8280 0.06265900   1.008000   ; qtot 0.202935
 8281         c3    286    bbb     C6   8281 0.11363000  12.010000   ; qtot 0.316565
 8282         hc    286    bbb    H11   8282 0.06265900   1.008000   ; qtot 0.379224
 8283         hc    286    bbb    H12   8283 0.06265900   1.008000   ; qtot 0.441883
 8284         c3    286    bbb     C7   8284 0.05858200  12.010000   ; qtot 0.500465
 8285         h1    286    bbb    H13   8285 0.06123400   1.008000   ; qtot 0.561699
 8286         h1    286    bbb    H14   8286 0.06123400   1.008000   ; qtot 0.622933
 8287         c3    286    bbb     C8   8287 -0.72423400  12.010000   ; qtot -0.101301
 8288         h1    286    bbb    H15   8288 0.25637600   1.008000   ; qtot 0.155075
 8289         h1    286    bbb    H16   8289 0.25637600   1.008000   ; qtot 0.411451
 8290         c3    286    bbb     C9   8290 -0.72423400  12.010000   ; qtot -0.312783
 8291         h1    286    bbb    H17   8291 0.25637600   1.008000   ; qtot -0.056407
 8292         h1    286    bbb    H18   8292 0.25637600   1.008000   ; qtot 0.199969
 8293         os    286    bbb     O1   8293 -0.20025300  16.000000   ; qtot -0.000284
; residue  287 bbb rtp bbb q -0.0
 8294         n3    287    bbb     N1   8294 -0.59685800  14.010000   ; qtot -0.597142
 8295         c3    287    bbb     C1   8295 0.10137000  12.010000   ; qtot -0.495772
 8296         h1    287    bbb     H1   8296 0.04411300   1.008000   ; qtot -0.451659
 8297         h1    287    bbb     H2   8297 0.04411300   1.008000   ; qtot -0.407546
 8298         c3    287    bbb     C2   8298 0.10137000  12.010000   ; qtot -0.306176
 8299         h1    287    bbb     H3   8299 0.04411300   1.008000   ; qtot -0.262063
 8300         h1    287    bbb     H4   8300 0.04411300   1.008000   ; qtot -0.217950
 8301         c3    287    bbb     C3   8301 -0.00195300  12.010000   ; qtot -0.219903
 8302         h1    287    bbb     H5   8302 0.05064400   1.008000   ; qtot -0.169259
 8303         h1    287    bbb     H6   8303 0.05064400   1.008000   ; qtot -0.118615
 8304         c3    287    bbb     C4   8304 -0.01612100  12.010000   ; qtot -0.134736
 8305         hc    287    bbb     H7   8305 0.04936100   1.008000   ; qtot -0.085375
 8306         hc    287    bbb     H8   8306 0.04936100   1.008000   ; qtot -0.036014
 8307         c3    287    bbb     C5   8307 0.11363000  12.010000   ; qtot 0.077616
 8308         hc    287    bbb     H9   8308 0.06265900   1.008000   ; qtot 0.140275
 8309         hc    287    bbb    H10   8309 0.06265900   1.008000   ; qtot 0.202934
 8310         c3    287    bbb     C6   8310 0.11363000  12.010000   ; qtot 0.316564
 8311         hc    287    bbb    H11   8311 0.06265900   1.008000   ; qtot 0.379223
 8312         hc    287    bbb    H12   8312 0.06265900   1.008000   ; qtot 0.441882
 8313         c3    287    bbb     C7   8313 0.05858200  12.010000   ; qtot 0.500464
 8314         h1    287    bbb    H13   8314 0.06123400   1.008000   ; qtot 0.561698
 8315         h1    287    bbb    H14   8315 0.06123400   1.008000   ; qtot 0.622932
 8316         c3    287    bbb     C8   8316 -0.72423400  12.010000   ; qtot -0.101302
 8317         h1    287    bbb    H15   8317 0.25637600   1.008000   ; qtot 0.155074
 8318         h1    287    bbb    H16   8318 0.25637600   1.008000   ; qtot 0.411450
 8319         c3    287    bbb     C9   8319 -0.72423400  12.010000   ; qtot -0.312784
 8320         h1    287    bbb    H17   8320 0.25637600   1.008000   ; qtot -0.056408
 8321         h1    287    bbb    H18   8321 0.25637600   1.008000   ; qtot 0.199968
 8322         os    287    bbb     O1   8322 -0.20025300  16.000000   ; qtot -0.000285
; residue  288 bbb rtp bbb q -0.0
 8323         n3    288    bbb     N1   8323 -0.59685800  14.010000   ; qtot -0.597143
 8324         c3    288    bbb     C1   8324 0.10137000  12.010000   ; qtot -0.495773
 8325         h1    288    bbb     H1   8325 0.04411300   1.008000   ; qtot -0.451660
 8326         h1    288    bbb     H2   8326 0.04411300   1.008000   ; qtot -0.407547
 8327         c3    288    bbb     C2   8327 0.10137000  12.010000   ; qtot -0.306177
 8328         h1    288    bbb     H3   8328 0.04411300   1.008000   ; qtot -0.262064
 8329         h1    288    bbb     H4   8329 0.04411300   1.008000   ; qtot -0.217951
 8330         c3    288    bbb     C3   8330 -0.00195300  12.010000   ; qtot -0.219904
 8331         h1    288    bbb     H5   8331 0.05064400   1.008000   ; qtot -0.169260
 8332         h1    288    bbb     H6   8332 0.05064400   1.008000   ; qtot -0.118616
 8333         c3    288    bbb     C4   8333 -0.01612100  12.010000   ; qtot -0.134737
 8334         hc    288    bbb     H7   8334 0.04936100   1.008000   ; qtot -0.085376
 8335         hc    288    bbb     H8   8335 0.04936100   1.008000   ; qtot -0.036015
 8336         c3    288    bbb     C5   8336 0.11363000  12.010000   ; qtot 0.077615
 8337         hc    288    bbb     H9   8337 0.06265900   1.008000   ; qtot 0.140274
 8338         hc    288    bbb    H10   8338 0.06265900   1.008000   ; qtot 0.202933
 8339         c3    288    bbb     C6   8339 0.11363000  12.010000   ; qtot 0.316563
 8340         hc    288    bbb    H11   8340 0.06265900   1.008000   ; qtot 0.379222
 8341         hc    288    bbb    H12   8341 0.06265900   1.008000   ; qtot 0.441881
 8342         c3    288    bbb     C7   8342 0.05858200  12.010000   ; qtot 0.500463
 8343         h1    288    bbb    H13   8343 0.06123400   1.008000   ; qtot 0.561697
 8344         h1    288    bbb    H14   8344 0.06123400   1.008000   ; qtot 0.622931
 8345         c3    288    bbb     C8   8345 -0.72423400  12.010000   ; qtot -0.101303
 8346         h1    288    bbb    H15   8346 0.25637600   1.008000   ; qtot 0.155073
 8347         h1    288    bbb    H16   8347 0.25637600   1.008000   ; qtot 0.411449
 8348         c3    288    bbb     C9   8348 -0.72423400  12.010000   ; qtot -0.312785
 8349         h1    288    bbb    H17   8349 0.25637600   1.008000   ; qtot -0.056409
 8350         h1    288    bbb    H18   8350 0.25637600   1.008000   ; qtot 0.199967
 8351         os    288    bbb     O1   8351 -0.20025300  16.000000   ; qtot -0.000286
; residue  289 bbb rtp bbb q -0.0
 8352         n3    289    bbb     N1   8352 -0.59685800  14.010000   ; qtot -0.597144
 8353         c3    289    bbb     C1   8353 0.10137000  12.010000   ; qtot -0.495774
 8354         h1    289    bbb     H1   8354 0.04411300   1.008000   ; qtot -0.451661
 8355         h1    289    bbb     H2   8355 0.04411300   1.008000   ; qtot -0.407548
 8356         c3    289    bbb     C2   8356 0.10137000  12.010000   ; qtot -0.306178
 8357         h1    289    bbb     H3   8357 0.04411300   1.008000   ; qtot -0.262065
 8358         h1    289    bbb     H4   8358 0.04411300   1.008000   ; qtot -0.217952
 8359         c3    289    bbb     C3   8359 -0.00195300  12.010000   ; qtot -0.219905
 8360         h1    289    bbb     H5   8360 0.05064400   1.008000   ; qtot -0.169261
 8361         h1    289    bbb     H6   8361 0.05064400   1.008000   ; qtot -0.118617
 8362         c3    289    bbb     C4   8362 -0.01612100  12.010000   ; qtot -0.134738
 8363         hc    289    bbb     H7   8363 0.04936100   1.008000   ; qtot -0.085377
 8364         hc    289    bbb     H8   8364 0.04936100   1.008000   ; qtot -0.036016
 8365         c3    289    bbb     C5   8365 0.11363000  12.010000   ; qtot 0.077614
 8366         hc    289    bbb     H9   8366 0.06265900   1.008000   ; qtot 0.140273
 8367         hc    289    bbb    H10   8367 0.06265900   1.008000   ; qtot 0.202932
 8368         c3    289    bbb     C6   8368 0.11363000  12.010000   ; qtot 0.316562
 8369         hc    289    bbb    H11   8369 0.06265900   1.008000   ; qtot 0.379221
 8370         hc    289    bbb    H12   8370 0.06265900   1.008000   ; qtot 0.441880
 8371         c3    289    bbb     C7   8371 0.05858200  12.010000   ; qtot 0.500462
 8372         h1    289    bbb    H13   8372 0.06123400   1.008000   ; qtot 0.561696
 8373         h1    289    bbb    H14   8373 0.06123400   1.008000   ; qtot 0.622930
 8374         c3    289    bbb     C8   8374 -0.72423400  12.010000   ; qtot -0.101304
 8375         h1    289    bbb    H15   8375 0.25637600   1.008000   ; qtot 0.155072
 8376         h1    289    bbb    H16   8376 0.25637600   1.008000   ; qtot 0.411448
 8377         c3    289    bbb     C9   8377 -0.72423400  12.010000   ; qtot -0.312786
 8378         h1    289    bbb    H17   8378 0.25637600   1.008000   ; qtot -0.056410
 8379         h1    289    bbb    H18   8379 0.25637600   1.008000   ; qtot 0.199966
 8380         os    289    bbb     O1   8380 -0.20025300  16.000000   ; qtot -0.000287
; residue  290 bbb rtp bbb q -0.0
 8381         n3    290    bbb     N1   8381 -0.59685800  14.010000   ; qtot -0.597145
 8382         c3    290    bbb     C1   8382 0.10137000  12.010000   ; qtot -0.495775
 8383         h1    290    bbb     H1   8383 0.04411300   1.008000   ; qtot -0.451662
 8384         h1    290    bbb     H2   8384 0.04411300   1.008000   ; qtot -0.407549
 8385         c3    290    bbb     C2   8385 0.10137000  12.010000   ; qtot -0.306179
 8386         h1    290    bbb     H3   8386 0.04411300   1.008000   ; qtot -0.262066
 8387         h1    290    bbb     H4   8387 0.04411300   1.008000   ; qtot -0.217953
 8388         c3    290    bbb     C3   8388 -0.00195300  12.010000   ; qtot -0.219906
 8389         h1    290    bbb     H5   8389 0.05064400   1.008000   ; qtot -0.169262
 8390         h1    290    bbb     H6   8390 0.05064400   1.008000   ; qtot -0.118618
 8391         c3    290    bbb     C4   8391 -0.01612100  12.010000   ; qtot -0.134739
 8392         hc    290    bbb     H7   8392 0.04936100   1.008000   ; qtot -0.085378
 8393         hc    290    bbb     H8   8393 0.04936100   1.008000   ; qtot -0.036017
 8394         c3    290    bbb     C5   8394 0.11363000  12.010000   ; qtot 0.077613
 8395         hc    290    bbb     H9   8395 0.06265900   1.008000   ; qtot 0.140272
 8396         hc    290    bbb    H10   8396 0.06265900   1.008000   ; qtot 0.202931
 8397         c3    290    bbb     C6   8397 0.11363000  12.010000   ; qtot 0.316561
 8398         hc    290    bbb    H11   8398 0.06265900   1.008000   ; qtot 0.379220
 8399         hc    290    bbb    H12   8399 0.06265900   1.008000   ; qtot 0.441879
 8400         c3    290    bbb     C7   8400 0.05858200  12.010000   ; qtot 0.500461
 8401         h1    290    bbb    H13   8401 0.06123400   1.008000   ; qtot 0.561695
 8402         h1    290    bbb    H14   8402 0.06123400   1.008000   ; qtot 0.622929
 8403         c3    290    bbb     C8   8403 -0.72423400  12.010000   ; qtot -0.101305
 8404         h1    290    bbb    H15   8404 0.25637600   1.008000   ; qtot 0.155071
 8405         h1    290    bbb    H16   8405 0.25637600   1.008000   ; qtot 0.411447
 8406         c3    290    bbb     C9   8406 -0.72423400  12.010000   ; qtot -0.312787
 8407         h1    290    bbb    H17   8407 0.25637600   1.008000   ; qtot -0.056411
 8408         h1    290    bbb    H18   8408 0.25637600   1.008000   ; qtot 0.199965
 8409         os    290    bbb     O1   8409 -0.20025300  16.000000   ; qtot -0.000288
; residue  291 bbb rtp bbb q -0.0
 8410         n3    291    bbb     N1   8410 -0.59685800  14.010000   ; qtot -0.597146
 8411         c3    291    bbb     C1   8411 0.10137000  12.010000   ; qtot -0.495776
 8412         h1    291    bbb     H1   8412 0.04411300   1.008000   ; qtot -0.451663
 8413         h1    291    bbb     H2   8413 0.04411300   1.008000   ; qtot -0.407550
 8414         c3    291    bbb     C2   8414 0.10137000  12.010000   ; qtot -0.306180
 8415         h1    291    bbb     H3   8415 0.04411300   1.008000   ; qtot -0.262067
 8416         h1    291    bbb     H4   8416 0.04411300   1.008000   ; qtot -0.217954
 8417         c3    291    bbb     C3   8417 -0.00195300  12.010000   ; qtot -0.219907
 8418         h1    291    bbb     H5   8418 0.05064400   1.008000   ; qtot -0.169263
 8419         h1    291    bbb     H6   8419 0.05064400   1.008000   ; qtot -0.118619
 8420         c3    291    bbb     C4   8420 -0.01612100  12.010000   ; qtot -0.134740
 8421         hc    291    bbb     H7   8421 0.04936100   1.008000   ; qtot -0.085379
 8422         hc    291    bbb     H8   8422 0.04936100   1.008000   ; qtot -0.036018
 8423         c3    291    bbb     C5   8423 0.11363000  12.010000   ; qtot 0.077612
 8424         hc    291    bbb     H9   8424 0.06265900   1.008000   ; qtot 0.140271
 8425         hc    291    bbb    H10   8425 0.06265900   1.008000   ; qtot 0.202930
 8426         c3    291    bbb     C6   8426 0.11363000  12.010000   ; qtot 0.316560
 8427         hc    291    bbb    H11   8427 0.06265900   1.008000   ; qtot 0.379219
 8428         hc    291    bbb    H12   8428 0.06265900   1.008000   ; qtot 0.441878
 8429         c3    291    bbb     C7   8429 0.05858200  12.010000   ; qtot 0.500460
 8430         h1    291    bbb    H13   8430 0.06123400   1.008000   ; qtot 0.561694
 8431         h1    291    bbb    H14   8431 0.06123400   1.008000   ; qtot 0.622928
 8432         c3    291    bbb     C8   8432 -0.72423400  12.010000   ; qtot -0.101306
 8433         h1    291    bbb    H15   8433 0.25637600   1.008000   ; qtot 0.155070
 8434         h1    291    bbb    H16   8434 0.25637600   1.008000   ; qtot 0.411446
 8435         c3    291    bbb     C9   8435 -0.72423400  12.010000   ; qtot -0.312788
 8436         h1    291    bbb    H17   8436 0.25637600   1.008000   ; qtot -0.056412
 8437         h1    291    bbb    H18   8437 0.25637600   1.008000   ; qtot 0.199964
 8438         os    291    bbb     O1   8438 -0.20025300  16.000000   ; qtot -0.000289
; residue  292 bbb rtp bbb q -0.0
 8439         n3    292    bbb     N1   8439 -0.59685800  14.010000   ; qtot -0.597147
 8440         c3    292    bbb     C1   8440 0.10137000  12.010000   ; qtot -0.495777
 8441         h1    292    bbb     H1   8441 0.04411300   1.008000   ; qtot -0.451664
 8442         h1    292    bbb     H2   8442 0.04411300   1.008000   ; qtot -0.407551
 8443         c3    292    bbb     C2   8443 0.10137000  12.010000   ; qtot -0.306181
 8444         h1    292    bbb     H3   8444 0.04411300   1.008000   ; qtot -0.262068
 8445         h1    292    bbb     H4   8445 0.04411300   1.008000   ; qtot -0.217955
 8446         c3    292    bbb     C3   8446 -0.00195300  12.010000   ; qtot -0.219908
 8447         h1    292    bbb     H5   8447 0.05064400   1.008000   ; qtot -0.169264
 8448         h1    292    bbb     H6   8448 0.05064400   1.008000   ; qtot -0.118620
 8449         c3    292    bbb     C4   8449 -0.01612100  12.010000   ; qtot -0.134741
 8450         hc    292    bbb     H7   8450 0.04936100   1.008000   ; qtot -0.085380
 8451         hc    292    bbb     H8   8451 0.04936100   1.008000   ; qtot -0.036019
 8452         c3    292    bbb     C5   8452 0.11363000  12.010000   ; qtot 0.077611
 8453         hc    292    bbb     H9   8453 0.06265900   1.008000   ; qtot 0.140270
 8454         hc    292    bbb    H10   8454 0.06265900   1.008000   ; qtot 0.202929
 8455         c3    292    bbb     C6   8455 0.11363000  12.010000   ; qtot 0.316559
 8456         hc    292    bbb    H11   8456 0.06265900   1.008000   ; qtot 0.379218
 8457         hc    292    bbb    H12   8457 0.06265900   1.008000   ; qtot 0.441877
 8458         c3    292    bbb     C7   8458 0.05858200  12.010000   ; qtot 0.500459
 8459         h1    292    bbb    H13   8459 0.06123400   1.008000   ; qtot 0.561693
 8460         h1    292    bbb    H14   8460 0.06123400   1.008000   ; qtot 0.622927
 8461         c3    292    bbb     C8   8461 -0.72423400  12.010000   ; qtot -0.101307
 8462         h1    292    bbb    H15   8462 0.25637600   1.008000   ; qtot 0.155069
 8463         h1    292    bbb    H16   8463 0.25637600   1.008000   ; qtot 0.411445
 8464         c3    292    bbb     C9   8464 -0.72423400  12.010000   ; qtot -0.312789
 8465         h1    292    bbb    H17   8465 0.25637600   1.008000   ; qtot -0.056413
 8466         h1    292    bbb    H18   8466 0.25637600   1.008000   ; qtot 0.199963
 8467         os    292    bbb     O1   8467 -0.20025300  16.000000   ; qtot -0.000290
; residue  293 bbb rtp bbb q -0.0
 8468         n3    293    bbb     N1   8468 -0.59685800  14.010000   ; qtot -0.597148
 8469         c3    293    bbb     C1   8469 0.10137000  12.010000   ; qtot -0.495778
 8470         h1    293    bbb     H1   8470 0.04411300   1.008000   ; qtot -0.451665
 8471         h1    293    bbb     H2   8471 0.04411300   1.008000   ; qtot -0.407552
 8472         c3    293    bbb     C2   8472 0.10137000  12.010000   ; qtot -0.306182
 8473         h1    293    bbb     H3   8473 0.04411300   1.008000   ; qtot -0.262069
 8474         h1    293    bbb     H4   8474 0.04411300   1.008000   ; qtot -0.217956
 8475         c3    293    bbb     C3   8475 -0.00195300  12.010000   ; qtot -0.219909
 8476         h1    293    bbb     H5   8476 0.05064400   1.008000   ; qtot -0.169265
 8477         h1    293    bbb     H6   8477 0.05064400   1.008000   ; qtot -0.118621
 8478         c3    293    bbb     C4   8478 -0.01612100  12.010000   ; qtot -0.134742
 8479         hc    293    bbb     H7   8479 0.04936100   1.008000   ; qtot -0.085381
 8480         hc    293    bbb     H8   8480 0.04936100   1.008000   ; qtot -0.036020
 8481         c3    293    bbb     C5   8481 0.11363000  12.010000   ; qtot 0.077610
 8482         hc    293    bbb     H9   8482 0.06265900   1.008000   ; qtot 0.140269
 8483         hc    293    bbb    H10   8483 0.06265900   1.008000   ; qtot 0.202928
 8484         c3    293    bbb     C6   8484 0.11363000  12.010000   ; qtot 0.316558
 8485         hc    293    bbb    H11   8485 0.06265900   1.008000   ; qtot 0.379217
 8486         hc    293    bbb    H12   8486 0.06265900   1.008000   ; qtot 0.441876
 8487         c3    293    bbb     C7   8487 0.05858200  12.010000   ; qtot 0.500458
 8488         h1    293    bbb    H13   8488 0.06123400   1.008000   ; qtot 0.561692
 8489         h1    293    bbb    H14   8489 0.06123400   1.008000   ; qtot 0.622926
 8490         c3    293    bbb     C8   8490 -0.72423400  12.010000   ; qtot -0.101308
 8491         h1    293    bbb    H15   8491 0.25637600   1.008000   ; qtot 0.155068
 8492         h1    293    bbb    H16   8492 0.25637600   1.008000   ; qtot 0.411444
 8493         c3    293    bbb     C9   8493 -0.72423400  12.010000   ; qtot -0.312790
 8494         h1    293    bbb    H17   8494 0.25637600   1.008000   ; qtot -0.056414
 8495         h1    293    bbb    H18   8495 0.25637600   1.008000   ; qtot 0.199962
 8496         os    293    bbb     O1   8496 -0.20025300  16.000000   ; qtot -0.000291
; residue  294 bbb rtp bbb q -0.0
 8497         n3    294    bbb     N1   8497 -0.59685800  14.010000   ; qtot -0.597149
 8498         c3    294    bbb     C1   8498 0.10137000  12.010000   ; qtot -0.495779
 8499         h1    294    bbb     H1   8499 0.04411300   1.008000   ; qtot -0.451666
 8500         h1    294    bbb     H2   8500 0.04411300   1.008000   ; qtot -0.407553
 8501         c3    294    bbb     C2   8501 0.10137000  12.010000   ; qtot -0.306183
 8502         h1    294    bbb     H3   8502 0.04411300   1.008000   ; qtot -0.262070
 8503         h1    294    bbb     H4   8503 0.04411300   1.008000   ; qtot -0.217957
 8504         c3    294    bbb     C3   8504 -0.00195300  12.010000   ; qtot -0.219910
 8505         h1    294    bbb     H5   8505 0.05064400   1.008000   ; qtot -0.169266
 8506         h1    294    bbb     H6   8506 0.05064400   1.008000   ; qtot -0.118622
 8507         c3    294    bbb     C4   8507 -0.01612100  12.010000   ; qtot -0.134743
 8508         hc    294    bbb     H7   8508 0.04936100   1.008000   ; qtot -0.085382
 8509         hc    294    bbb     H8   8509 0.04936100   1.008000   ; qtot -0.036021
 8510         c3    294    bbb     C5   8510 0.11363000  12.010000   ; qtot 0.077609
 8511         hc    294    bbb     H9   8511 0.06265900   1.008000   ; qtot 0.140268
 8512         hc    294    bbb    H10   8512 0.06265900   1.008000   ; qtot 0.202927
 8513         c3    294    bbb     C6   8513 0.11363000  12.010000   ; qtot 0.316557
 8514         hc    294    bbb    H11   8514 0.06265900   1.008000   ; qtot 0.379216
 8515         hc    294    bbb    H12   8515 0.06265900   1.008000   ; qtot 0.441875
 8516         c3    294    bbb     C7   8516 0.05858200  12.010000   ; qtot 0.500457
 8517         h1    294    bbb    H13   8517 0.06123400   1.008000   ; qtot 0.561691
 8518         h1    294    bbb    H14   8518 0.06123400   1.008000   ; qtot 0.622925
 8519         c3    294    bbb     C8   8519 -0.72423400  12.010000   ; qtot -0.101309
 8520         h1    294    bbb    H15   8520 0.25637600   1.008000   ; qtot 0.155067
 8521         h1    294    bbb    H16   8521 0.25637600   1.008000   ; qtot 0.411443
 8522         c3    294    bbb     C9   8522 -0.72423400  12.010000   ; qtot -0.312791
 8523         h1    294    bbb    H17   8523 0.25637600   1.008000   ; qtot -0.056415
 8524         h1    294    bbb    H18   8524 0.25637600   1.008000   ; qtot 0.199961
 8525         os    294    bbb     O1   8525 -0.20025300  16.000000   ; qtot -0.000292
; residue  295 bbb rtp bbb q -0.0
 8526         n3    295    bbb     N1   8526 -0.59685800  14.010000   ; qtot -0.597150
 8527         c3    295    bbb     C1   8527 0.10137000  12.010000   ; qtot -0.495780
 8528         h1    295    bbb     H1   8528 0.04411300   1.008000   ; qtot -0.451667
 8529         h1    295    bbb     H2   8529 0.04411300   1.008000   ; qtot -0.407554
 8530         c3    295    bbb     C2   8530 0.10137000  12.010000   ; qtot -0.306184
 8531         h1    295    bbb     H3   8531 0.04411300   1.008000   ; qtot -0.262071
 8532         h1    295    bbb     H4   8532 0.04411300   1.008000   ; qtot -0.217958
 8533         c3    295    bbb     C3   8533 -0.00195300  12.010000   ; qtot -0.219911
 8534         h1    295    bbb     H5   8534 0.05064400   1.008000   ; qtot -0.169267
 8535         h1    295    bbb     H6   8535 0.05064400   1.008000   ; qtot -0.118623
 8536         c3    295    bbb     C4   8536 -0.01612100  12.010000   ; qtot -0.134744
 8537         hc    295    bbb     H7   8537 0.04936100   1.008000   ; qtot -0.085383
 8538         hc    295    bbb     H8   8538 0.04936100   1.008000   ; qtot -0.036022
 8539         c3    295    bbb     C5   8539 0.11363000  12.010000   ; qtot 0.077608
 8540         hc    295    bbb     H9   8540 0.06265900   1.008000   ; qtot 0.140267
 8541         hc    295    bbb    H10   8541 0.06265900   1.008000   ; qtot 0.202926
 8542         c3    295    bbb     C6   8542 0.11363000  12.010000   ; qtot 0.316556
 8543         hc    295    bbb    H11   8543 0.06265900   1.008000   ; qtot 0.379215
 8544         hc    295    bbb    H12   8544 0.06265900   1.008000   ; qtot 0.441874
 8545         c3    295    bbb     C7   8545 0.05858200  12.010000   ; qtot 0.500456
 8546         h1    295    bbb    H13   8546 0.06123400   1.008000   ; qtot 0.561690
 8547         h1    295    bbb    H14   8547 0.06123400   1.008000   ; qtot 0.622924
 8548         c3    295    bbb     C8   8548 -0.72423400  12.010000   ; qtot -0.101310
 8549         h1    295    bbb    H15   8549 0.25637600   1.008000   ; qtot 0.155066
 8550         h1    295    bbb    H16   8550 0.25637600   1.008000   ; qtot 0.411442
 8551         c3    295    bbb     C9   8551 -0.72423400  12.010000   ; qtot -0.312792
 8552         h1    295    bbb    H17   8552 0.25637600   1.008000   ; qtot -0.056416
 8553         h1    295    bbb    H18   8553 0.25637600   1.008000   ; qtot 0.199960
 8554         os    295    bbb     O1   8554 -0.20025300  16.000000   ; qtot -0.000293
; residue  296 bbb rtp bbb q -0.0
 8555         n3    296    bbb     N1   8555 -0.59685800  14.010000   ; qtot -0.597151
 8556         c3    296    bbb     C1   8556 0.10137000  12.010000   ; qtot -0.495781
 8557         h1    296    bbb     H1   8557 0.04411300   1.008000   ; qtot -0.451668
 8558         h1    296    bbb     H2   8558 0.04411300   1.008000   ; qtot -0.407555
 8559         c3    296    bbb     C2   8559 0.10137000  12.010000   ; qtot -0.306185
 8560         h1    296    bbb     H3   8560 0.04411300   1.008000   ; qtot -0.262072
 8561         h1    296    bbb     H4   8561 0.04411300   1.008000   ; qtot -0.217959
 8562         c3    296    bbb     C3   8562 -0.00195300  12.010000   ; qtot -0.219912
 8563         h1    296    bbb     H5   8563 0.05064400   1.008000   ; qtot -0.169268
 8564         h1    296    bbb     H6   8564 0.05064400   1.008000   ; qtot -0.118624
 8565         c3    296    bbb     C4   8565 -0.01612100  12.010000   ; qtot -0.134745
 8566         hc    296    bbb     H7   8566 0.04936100   1.008000   ; qtot -0.085384
 8567         hc    296    bbb     H8   8567 0.04936100   1.008000   ; qtot -0.036023
 8568         c3    296    bbb     C5   8568 0.11363000  12.010000   ; qtot 0.077607
 8569         hc    296    bbb     H9   8569 0.06265900   1.008000   ; qtot 0.140266
 8570         hc    296    bbb    H10   8570 0.06265900   1.008000   ; qtot 0.202925
 8571         c3    296    bbb     C6   8571 0.11363000  12.010000   ; qtot 0.316555
 8572         hc    296    bbb    H11   8572 0.06265900   1.008000   ; qtot 0.379214
 8573         hc    296    bbb    H12   8573 0.06265900   1.008000   ; qtot 0.441873
 8574         c3    296    bbb     C7   8574 0.05858200  12.010000   ; qtot 0.500455
 8575         h1    296    bbb    H13   8575 0.06123400   1.008000   ; qtot 0.561689
 8576         h1    296    bbb    H14   8576 0.06123400   1.008000   ; qtot 0.622923
 8577         c3    296    bbb     C8   8577 -0.72423400  12.010000   ; qtot -0.101311
 8578         h1    296    bbb    H15   8578 0.25637600   1.008000   ; qtot 0.155065
 8579         h1    296    bbb    H16   8579 0.25637600   1.008000   ; qtot 0.411441
 8580         c3    296    bbb     C9   8580 -0.72423400  12.010000   ; qtot -0.312793
 8581         h1    296    bbb    H17   8581 0.25637600   1.008000   ; qtot -0.056417
 8582         h1    296    bbb    H18   8582 0.25637600   1.008000   ; qtot 0.199959
 8583         os    296    bbb     O1   8583 -0.20025300  16.000000   ; qtot -0.000294
; residue  297 bbb rtp bbb q -0.0
 8584         n3    297    bbb     N1   8584 -0.59685800  14.010000   ; qtot -0.597152
 8585         c3    297    bbb     C1   8585 0.10137000  12.010000   ; qtot -0.495782
 8586         h1    297    bbb     H1   8586 0.04411300   1.008000   ; qtot -0.451669
 8587         h1    297    bbb     H2   8587 0.04411300   1.008000   ; qtot -0.407556
 8588         c3    297    bbb     C2   8588 0.10137000  12.010000   ; qtot -0.306186
 8589         h1    297    bbb     H3   8589 0.04411300   1.008000   ; qtot -0.262073
 8590         h1    297    bbb     H4   8590 0.04411300   1.008000   ; qtot -0.217960
 8591         c3    297    bbb     C3   8591 -0.00195300  12.010000   ; qtot -0.219913
 8592         h1    297    bbb     H5   8592 0.05064400   1.008000   ; qtot -0.169269
 8593         h1    297    bbb     H6   8593 0.05064400   1.008000   ; qtot -0.118625
 8594         c3    297    bbb     C4   8594 -0.01612100  12.010000   ; qtot -0.134746
 8595         hc    297    bbb     H7   8595 0.04936100   1.008000   ; qtot -0.085385
 8596         hc    297    bbb     H8   8596 0.04936100   1.008000   ; qtot -0.036024
 8597         c3    297    bbb     C5   8597 0.11363000  12.010000   ; qtot 0.077606
 8598         hc    297    bbb     H9   8598 0.06265900   1.008000   ; qtot 0.140265
 8599         hc    297    bbb    H10   8599 0.06265900   1.008000   ; qtot 0.202924
 8600         c3    297    bbb     C6   8600 0.11363000  12.010000   ; qtot 0.316554
 8601         hc    297    bbb    H11   8601 0.06265900   1.008000   ; qtot 0.379213
 8602         hc    297    bbb    H12   8602 0.06265900   1.008000   ; qtot 0.441872
 8603         c3    297    bbb     C7   8603 0.05858200  12.010000   ; qtot 0.500454
 8604         h1    297    bbb    H13   8604 0.06123400   1.008000   ; qtot 0.561688
 8605         h1    297    bbb    H14   8605 0.06123400   1.008000   ; qtot 0.622922
 8606         c3    297    bbb     C8   8606 -0.72423400  12.010000   ; qtot -0.101312
 8607         h1    297    bbb    H15   8607 0.25637600   1.008000   ; qtot 0.155064
 8608         h1    297    bbb    H16   8608 0.25637600   1.008000   ; qtot 0.411440
 8609         c3    297    bbb     C9   8609 -0.72423400  12.010000   ; qtot -0.312794
 8610         h1    297    bbb    H17   8610 0.25637600   1.008000   ; qtot -0.056418
 8611         h1    297    bbb    H18   8611 0.25637600   1.008000   ; qtot 0.199958
 8612         os    297    bbb     O1   8612 -0.20025300  16.000000   ; qtot -0.000295
; residue  298 bbb rtp bbb q -0.0
 8613         n3    298    bbb     N1   8613 -0.59685800  14.010000   ; qtot -0.597153
 8614         c3    298    bbb     C1   8614 0.10137000  12.010000   ; qtot -0.495783
 8615         h1    298    bbb     H1   8615 0.04411300   1.008000   ; qtot -0.451670
 8616         h1    298    bbb     H2   8616 0.04411300   1.008000   ; qtot -0.407557
 8617         c3    298    bbb     C2   8617 0.10137000  12.010000   ; qtot -0.306187
 8618         h1    298    bbb     H3   8618 0.04411300   1.008000   ; qtot -0.262074
 8619         h1    298    bbb     H4   8619 0.04411300   1.008000   ; qtot -0.217961
 8620         c3    298    bbb     C3   8620 -0.00195300  12.010000   ; qtot -0.219914
 8621         h1    298    bbb     H5   8621 0.05064400   1.008000   ; qtot -0.169270
 8622         h1    298    bbb     H6   8622 0.05064400   1.008000   ; qtot -0.118626
 8623         c3    298    bbb     C4   8623 -0.01612100  12.010000   ; qtot -0.134747
 8624         hc    298    bbb     H7   8624 0.04936100   1.008000   ; qtot -0.085386
 8625         hc    298    bbb     H8   8625 0.04936100   1.008000   ; qtot -0.036025
 8626         c3    298    bbb     C5   8626 0.11363000  12.010000   ; qtot 0.077605
 8627         hc    298    bbb     H9   8627 0.06265900   1.008000   ; qtot 0.140264
 8628         hc    298    bbb    H10   8628 0.06265900   1.008000   ; qtot 0.202923
 8629         c3    298    bbb     C6   8629 0.11363000  12.010000   ; qtot 0.316553
 8630         hc    298    bbb    H11   8630 0.06265900   1.008000   ; qtot 0.379212
 8631         hc    298    bbb    H12   8631 0.06265900   1.008000   ; qtot 0.441871
 8632         c3    298    bbb     C7   8632 0.05858200  12.010000   ; qtot 0.500453
 8633         h1    298    bbb    H13   8633 0.06123400   1.008000   ; qtot 0.561687
 8634         h1    298    bbb    H14   8634 0.06123400   1.008000   ; qtot 0.622921
 8635         c3    298    bbb     C8   8635 -0.72423400  12.010000   ; qtot -0.101313
 8636         h1    298    bbb    H15   8636 0.25637600   1.008000   ; qtot 0.155063
 8637         h1    298    bbb    H16   8637 0.25637600   1.008000   ; qtot 0.411439
 8638         c3    298    bbb     C9   8638 -0.72423400  12.010000   ; qtot -0.312795
 8639         h1    298    bbb    H17   8639 0.25637600   1.008000   ; qtot -0.056419
 8640         h1    298    bbb    H18   8640 0.25637600   1.008000   ; qtot 0.199957
 8641         os    298    bbb     O1   8641 -0.20025300  16.000000   ; qtot -0.000296
; residue  299 bbb rtp bbb q -0.0
 8642         n3    299    bbb     N1   8642 -0.59685800  14.010000   ; qtot -0.597154
 8643         c3    299    bbb     C1   8643 0.10137000  12.010000   ; qtot -0.495784
 8644         h1    299    bbb     H1   8644 0.04411300   1.008000   ; qtot -0.451671
 8645         h1    299    bbb     H2   8645 0.04411300   1.008000   ; qtot -0.407558
 8646         c3    299    bbb     C2   8646 0.10137000  12.010000   ; qtot -0.306188
 8647         h1    299    bbb     H3   8647 0.04411300   1.008000   ; qtot -0.262075
 8648         h1    299    bbb     H4   8648 0.04411300   1.008000   ; qtot -0.217962
 8649         c3    299    bbb     C3   8649 -0.00195300  12.010000   ; qtot -0.219915
 8650         h1    299    bbb     H5   8650 0.05064400   1.008000   ; qtot -0.169271
 8651         h1    299    bbb     H6   8651 0.05064400   1.008000   ; qtot -0.118627
 8652         c3    299    bbb     C4   8652 -0.01612100  12.010000   ; qtot -0.134748
 8653         hc    299    bbb     H7   8653 0.04936100   1.008000   ; qtot -0.085387
 8654         hc    299    bbb     H8   8654 0.04936100   1.008000   ; qtot -0.036026
 8655         c3    299    bbb     C5   8655 0.11363000  12.010000   ; qtot 0.077604
 8656         hc    299    bbb     H9   8656 0.06265900   1.008000   ; qtot 0.140263
 8657         hc    299    bbb    H10   8657 0.06265900   1.008000   ; qtot 0.202922
 8658         c3    299    bbb     C6   8658 0.11363000  12.010000   ; qtot 0.316552
 8659         hc    299    bbb    H11   8659 0.06265900   1.008000   ; qtot 0.379211
 8660         hc    299    bbb    H12   8660 0.06265900   1.008000   ; qtot 0.441870
 8661         c3    299    bbb     C7   8661 0.05858200  12.010000   ; qtot 0.500452
 8662         h1    299    bbb    H13   8662 0.06123400   1.008000   ; qtot 0.561686
 8663         h1    299    bbb    H14   8663 0.06123400   1.008000   ; qtot 0.622920
 8664         c3    299    bbb     C8   8664 -0.72423400  12.010000   ; qtot -0.101314
 8665         h1    299    bbb    H15   8665 0.25637600   1.008000   ; qtot 0.155062
 8666         h1    299    bbb    H16   8666 0.25637600   1.008000   ; qtot 0.411438
 8667         c3    299    bbb     C9   8667 -0.72423400  12.010000   ; qtot -0.312796
 8668         h1    299    bbb    H17   8668 0.25637600   1.008000   ; qtot -0.056420
 8669         h1    299    bbb    H18   8669 0.25637600   1.008000   ; qtot 0.199956
 8670         os    299    bbb     O1   8670 -0.20025300  16.000000   ; qtot -0.000297
; residue  300 bbb rtp bbb q -0.0
 8671         n3    300    bbb     N1   8671 -0.59685800  14.010000   ; qtot -0.597155
 8672         c3    300    bbb     C1   8672 0.10137000  12.010000   ; qtot -0.495785
 8673         h1    300    bbb     H1   8673 0.04411300   1.008000   ; qtot -0.451672
 8674         h1    300    bbb     H2   8674 0.04411300   1.008000   ; qtot -0.407559
 8675         c3    300    bbb     C2   8675 0.10137000  12.010000   ; qtot -0.306189
 8676         h1    300    bbb     H3   8676 0.04411300   1.008000   ; qtot -0.262076
 8677         h1    300    bbb     H4   8677 0.04411300   1.008000   ; qtot -0.217963
 8678         c3    300    bbb     C3   8678 -0.00195300  12.010000   ; qtot -0.219916
 8679         h1    300    bbb     H5   8679 0.05064400   1.008000   ; qtot -0.169272
 8680         h1    300    bbb     H6   8680 0.05064400   1.008000   ; qtot -0.118628
 8681         c3    300    bbb     C4   8681 -0.01612100  12.010000   ; qtot -0.134749
 8682         hc    300    bbb     H7   8682 0.04936100   1.008000   ; qtot -0.085388
 8683         hc    300    bbb     H8   8683 0.04936100   1.008000   ; qtot -0.036027
 8684         c3    300    bbb     C5   8684 0.11363000  12.010000   ; qtot 0.077603
 8685         hc    300    bbb     H9   8685 0.06265900   1.008000   ; qtot 0.140262
 8686         hc    300    bbb    H10   8686 0.06265900   1.008000   ; qtot 0.202921
 8687         c3    300    bbb     C6   8687 0.11363000  12.010000   ; qtot 0.316551
 8688         hc    300    bbb    H11   8688 0.06265900   1.008000   ; qtot 0.379210
 8689         hc    300    bbb    H12   8689 0.06265900   1.008000   ; qtot 0.441869
 8690         c3    300    bbb     C7   8690 0.05858200  12.010000   ; qtot 0.500451
 8691         h1    300    bbb    H13   8691 0.06123400   1.008000   ; qtot 0.561685
 8692         h1    300    bbb    H14   8692 0.06123400   1.008000   ; qtot 0.622919
 8693         c3    300    bbb     C8   8693 -0.72423400  12.010000   ; qtot -0.101315
 8694         h1    300    bbb    H15   8694 0.25637600   1.008000   ; qtot 0.155061
 8695         h1    300    bbb    H16   8695 0.25637600   1.008000   ; qtot 0.411437
 8696         c3    300    bbb     C9   8696 -0.72423400  12.010000   ; qtot -0.312797
 8697         h1    300    bbb    H17   8697 0.25637600   1.008000   ; qtot -0.056421
 8698         h1    300    bbb    H18   8698 0.25637600   1.008000   ; qtot 0.199955
 8699         os    300    bbb     O1   8699 -0.20025300  16.000000   ; qtot -0.000298
; residue  301 bbb rtp bbb q -0.0
 8700         n3    301    bbb     N1   8700 -0.59685800  14.010000   ; qtot -0.597156
 8701         c3    301    bbb     C1   8701 0.10137000  12.010000   ; qtot -0.495786
 8702         h1    301    bbb     H1   8702 0.04411300   1.008000   ; qtot -0.451673
 8703         h1    301    bbb     H2   8703 0.04411300   1.008000   ; qtot -0.407560
 8704         c3    301    bbb     C2   8704 0.10137000  12.010000   ; qtot -0.306190
 8705         h1    301    bbb     H3   8705 0.04411300   1.008000   ; qtot -0.262077
 8706         h1    301    bbb     H4   8706 0.04411300   1.008000   ; qtot -0.217964
 8707         c3    301    bbb     C3   8707 -0.00195300  12.010000   ; qtot -0.219917
 8708         h1    301    bbb     H5   8708 0.05064400   1.008000   ; qtot -0.169273
 8709         h1    301    bbb     H6   8709 0.05064400   1.008000   ; qtot -0.118629
 8710         c3    301    bbb     C4   8710 -0.01612100  12.010000   ; qtot -0.134750
 8711         hc    301    bbb     H7   8711 0.04936100   1.008000   ; qtot -0.085389
 8712         hc    301    bbb     H8   8712 0.04936100   1.008000   ; qtot -0.036028
 8713         c3    301    bbb     C5   8713 0.11363000  12.010000   ; qtot 0.077602
 8714         hc    301    bbb     H9   8714 0.06265900   1.008000   ; qtot 0.140261
 8715         hc    301    bbb    H10   8715 0.06265900   1.008000   ; qtot 0.202920
 8716         c3    301    bbb     C6   8716 0.11363000  12.010000   ; qtot 0.316550
 8717         hc    301    bbb    H11   8717 0.06265900   1.008000   ; qtot 0.379209
 8718         hc    301    bbb    H12   8718 0.06265900   1.008000   ; qtot 0.441868
 8719         c3    301    bbb     C7   8719 0.05858200  12.010000   ; qtot 0.500450
 8720         h1    301    bbb    H13   8720 0.06123400   1.008000   ; qtot 0.561684
 8721         h1    301    bbb    H14   8721 0.06123400   1.008000   ; qtot 0.622918
 8722         c3    301    bbb     C8   8722 -0.72423400  12.010000   ; qtot -0.101316
 8723         h1    301    bbb    H15   8723 0.25637600   1.008000   ; qtot 0.155060
 8724         h1    301    bbb    H16   8724 0.25637600   1.008000   ; qtot 0.411436
 8725         c3    301    bbb     C9   8725 -0.72423400  12.010000   ; qtot -0.312798
 8726         h1    301    bbb    H17   8726 0.25637600   1.008000   ; qtot -0.056422
 8727         h1    301    bbb    H18   8727 0.25637600   1.008000   ; qtot 0.199954
 8728         os    301    bbb     O1   8728 -0.20025300  16.000000   ; qtot -0.000299
; residue  302 bbb rtp bbb q -0.0
 8729         n3    302    bbb     N1   8729 -0.59685800  14.010000   ; qtot -0.597157
 8730         c3    302    bbb     C1   8730 0.10137000  12.010000   ; qtot -0.495787
 8731         h1    302    bbb     H1   8731 0.04411300   1.008000   ; qtot -0.451674
 8732         h1    302    bbb     H2   8732 0.04411300   1.008000   ; qtot -0.407561
 8733         c3    302    bbb     C2   8733 0.10137000  12.010000   ; qtot -0.306191
 8734         h1    302    bbb     H3   8734 0.04411300   1.008000   ; qtot -0.262078
 8735         h1    302    bbb     H4   8735 0.04411300   1.008000   ; qtot -0.217965
 8736         c3    302    bbb     C3   8736 -0.00195300  12.010000   ; qtot -0.219918
 8737         h1    302    bbb     H5   8737 0.05064400   1.008000   ; qtot -0.169274
 8738         h1    302    bbb     H6   8738 0.05064400   1.008000   ; qtot -0.118630
 8739         c3    302    bbb     C4   8739 -0.01612100  12.010000   ; qtot -0.134751
 8740         hc    302    bbb     H7   8740 0.04936100   1.008000   ; qtot -0.085390
 8741         hc    302    bbb     H8   8741 0.04936100   1.008000   ; qtot -0.036029
 8742         c3    302    bbb     C5   8742 0.11363000  12.010000   ; qtot 0.077601
 8743         hc    302    bbb     H9   8743 0.06265900   1.008000   ; qtot 0.140260
 8744         hc    302    bbb    H10   8744 0.06265900   1.008000   ; qtot 0.202919
 8745         c3    302    bbb     C6   8745 0.11363000  12.010000   ; qtot 0.316549
 8746         hc    302    bbb    H11   8746 0.06265900   1.008000   ; qtot 0.379208
 8747         hc    302    bbb    H12   8747 0.06265900   1.008000   ; qtot 0.441867
 8748         c3    302    bbb     C7   8748 0.05858200  12.010000   ; qtot 0.500449
 8749         h1    302    bbb    H13   8749 0.06123400   1.008000   ; qtot 0.561683
 8750         h1    302    bbb    H14   8750 0.06123400   1.008000   ; qtot 0.622917
 8751         c3    302    bbb     C8   8751 -0.72423400  12.010000   ; qtot -0.101317
 8752         h1    302    bbb    H15   8752 0.25637600   1.008000   ; qtot 0.155059
 8753         h1    302    bbb    H16   8753 0.25637600   1.008000   ; qtot 0.411435
 8754         c3    302    bbb     C9   8754 -0.72423400  12.010000   ; qtot -0.312799
 8755         h1    302    bbb    H17   8755 0.25637600   1.008000   ; qtot -0.056423
 8756         h1    302    bbb    H18   8756 0.25637600   1.008000   ; qtot 0.199953
 8757         os    302    bbb     O1   8757 -0.20025300  16.000000   ; qtot -0.000300
; residue  303 bbb rtp bbb q -0.0
 8758         n3    303    bbb     N1   8758 -0.59685800  14.010000   ; qtot -0.597158
 8759         c3    303    bbb     C1   8759 0.10137000  12.010000   ; qtot -0.495788
 8760         h1    303    bbb     H1   8760 0.04411300   1.008000   ; qtot -0.451675
 8761         h1    303    bbb     H2   8761 0.04411300   1.008000   ; qtot -0.407562
 8762         c3    303    bbb     C2   8762 0.10137000  12.010000   ; qtot -0.306192
 8763         h1    303    bbb     H3   8763 0.04411300   1.008000   ; qtot -0.262079
 8764         h1    303    bbb     H4   8764 0.04411300   1.008000   ; qtot -0.217966
 8765         c3    303    bbb     C3   8765 -0.00195300  12.010000   ; qtot -0.219919
 8766         h1    303    bbb     H5   8766 0.05064400   1.008000   ; qtot -0.169275
 8767         h1    303    bbb     H6   8767 0.05064400   1.008000   ; qtot -0.118631
 8768         c3    303    bbb     C4   8768 -0.01612100  12.010000   ; qtot -0.134752
 8769         hc    303    bbb     H7   8769 0.04936100   1.008000   ; qtot -0.085391
 8770         hc    303    bbb     H8   8770 0.04936100   1.008000   ; qtot -0.036030
 8771         c3    303    bbb     C5   8771 0.11363000  12.010000   ; qtot 0.077600
 8772         hc    303    bbb     H9   8772 0.06265900   1.008000   ; qtot 0.140259
 8773         hc    303    bbb    H10   8773 0.06265900   1.008000   ; qtot 0.202918
 8774         c3    303    bbb     C6   8774 0.11363000  12.010000   ; qtot 0.316548
 8775         hc    303    bbb    H11   8775 0.06265900   1.008000   ; qtot 0.379207
 8776         hc    303    bbb    H12   8776 0.06265900   1.008000   ; qtot 0.441866
 8777         c3    303    bbb     C7   8777 0.05858200  12.010000   ; qtot 0.500448
 8778         h1    303    bbb    H13   8778 0.06123400   1.008000   ; qtot 0.561682
 8779         h1    303    bbb    H14   8779 0.06123400   1.008000   ; qtot 0.622916
 8780         c3    303    bbb     C8   8780 -0.72423400  12.010000   ; qtot -0.101318
 8781         h1    303    bbb    H15   8781 0.25637600   1.008000   ; qtot 0.155058
 8782         h1    303    bbb    H16   8782 0.25637600   1.008000   ; qtot 0.411434
 8783         c3    303    bbb     C9   8783 -0.72423400  12.010000   ; qtot -0.312800
 8784         h1    303    bbb    H17   8784 0.25637600   1.008000   ; qtot -0.056424
 8785         h1    303    bbb    H18   8785 0.25637600   1.008000   ; qtot 0.199952
 8786         os    303    bbb     O1   8786 -0.20025300  16.000000   ; qtot -0.000301
; residue  304 bbb rtp bbb q -0.0
 8787         n3    304    bbb     N1   8787 -0.59685800  14.010000   ; qtot -0.597159
 8788         c3    304    bbb     C1   8788 0.10137000  12.010000   ; qtot -0.495789
 8789         h1    304    bbb     H1   8789 0.04411300   1.008000   ; qtot -0.451676
 8790         h1    304    bbb     H2   8790 0.04411300   1.008000   ; qtot -0.407563
 8791         c3    304    bbb     C2   8791 0.10137000  12.010000   ; qtot -0.306193
 8792         h1    304    bbb     H3   8792 0.04411300   1.008000   ; qtot -0.262080
 8793         h1    304    bbb     H4   8793 0.04411300   1.008000   ; qtot -0.217967
 8794         c3    304    bbb     C3   8794 -0.00195300  12.010000   ; qtot -0.219920
 8795         h1    304    bbb     H5   8795 0.05064400   1.008000   ; qtot -0.169276
 8796         h1    304    bbb     H6   8796 0.05064400   1.008000   ; qtot -0.118632
 8797         c3    304    bbb     C4   8797 -0.01612100  12.010000   ; qtot -0.134753
 8798         hc    304    bbb     H7   8798 0.04936100   1.008000   ; qtot -0.085392
 8799         hc    304    bbb     H8   8799 0.04936100   1.008000   ; qtot -0.036031
 8800         c3    304    bbb     C5   8800 0.11363000  12.010000   ; qtot 0.077599
 8801         hc    304    bbb     H9   8801 0.06265900   1.008000   ; qtot 0.140258
 8802         hc    304    bbb    H10   8802 0.06265900   1.008000   ; qtot 0.202917
 8803         c3    304    bbb     C6   8803 0.11363000  12.010000   ; qtot 0.316547
 8804         hc    304    bbb    H11   8804 0.06265900   1.008000   ; qtot 0.379206
 8805         hc    304    bbb    H12   8805 0.06265900   1.008000   ; qtot 0.441865
 8806         c3    304    bbb     C7   8806 0.05858200  12.010000   ; qtot 0.500447
 8807         h1    304    bbb    H13   8807 0.06123400   1.008000   ; qtot 0.561681
 8808         h1    304    bbb    H14   8808 0.06123400   1.008000   ; qtot 0.622915
 8809         c3    304    bbb     C8   8809 -0.72423400  12.010000   ; qtot -0.101319
 8810         h1    304    bbb    H15   8810 0.25637600   1.008000   ; qtot 0.155057
 8811         h1    304    bbb    H16   8811 0.25637600   1.008000   ; qtot 0.411433
 8812         c3    304    bbb     C9   8812 -0.72423400  12.010000   ; qtot -0.312801
 8813         h1    304    bbb    H17   8813 0.25637600   1.008000   ; qtot -0.056425
 8814         h1    304    bbb    H18   8814 0.25637600   1.008000   ; qtot 0.199951
 8815         os    304    bbb     O1   8815 -0.20025300  16.000000   ; qtot -0.000302
; residue  305 bbb rtp bbb q -0.0
 8816         n3    305    bbb     N1   8816 -0.59685800  14.010000   ; qtot -0.597160
 8817         c3    305    bbb     C1   8817 0.10137000  12.010000   ; qtot -0.495790
 8818         h1    305    bbb     H1   8818 0.04411300   1.008000   ; qtot -0.451677
 8819         h1    305    bbb     H2   8819 0.04411300   1.008000   ; qtot -0.407564
 8820         c3    305    bbb     C2   8820 0.10137000  12.010000   ; qtot -0.306194
 8821         h1    305    bbb     H3   8821 0.04411300   1.008000   ; qtot -0.262081
 8822         h1    305    bbb     H4   8822 0.04411300   1.008000   ; qtot -0.217968
 8823         c3    305    bbb     C3   8823 -0.00195300  12.010000   ; qtot -0.219921
 8824         h1    305    bbb     H5   8824 0.05064400   1.008000   ; qtot -0.169277
 8825         h1    305    bbb     H6   8825 0.05064400   1.008000   ; qtot -0.118633
 8826         c3    305    bbb     C4   8826 -0.01612100  12.010000   ; qtot -0.134754
 8827         hc    305    bbb     H7   8827 0.04936100   1.008000   ; qtot -0.085393
 8828         hc    305    bbb     H8   8828 0.04936100   1.008000   ; qtot -0.036032
 8829         c3    305    bbb     C5   8829 0.11363000  12.010000   ; qtot 0.077598
 8830         hc    305    bbb     H9   8830 0.06265900   1.008000   ; qtot 0.140257
 8831         hc    305    bbb    H10   8831 0.06265900   1.008000   ; qtot 0.202916
 8832         c3    305    bbb     C6   8832 0.11363000  12.010000   ; qtot 0.316546
 8833         hc    305    bbb    H11   8833 0.06265900   1.008000   ; qtot 0.379205
 8834         hc    305    bbb    H12   8834 0.06265900   1.008000   ; qtot 0.441864
 8835         c3    305    bbb     C7   8835 0.05858200  12.010000   ; qtot 0.500446
 8836         h1    305    bbb    H13   8836 0.06123400   1.008000   ; qtot 0.561680
 8837         h1    305    bbb    H14   8837 0.06123400   1.008000   ; qtot 0.622914
 8838         c3    305    bbb     C8   8838 -0.72423400  12.010000   ; qtot -0.101320
 8839         h1    305    bbb    H15   8839 0.25637600   1.008000   ; qtot 0.155056
 8840         h1    305    bbb    H16   8840 0.25637600   1.008000   ; qtot 0.411432
 8841         c3    305    bbb     C9   8841 -0.72423400  12.010000   ; qtot -0.312802
 8842         h1    305    bbb    H17   8842 0.25637600   1.008000   ; qtot -0.056426
 8843         h1    305    bbb    H18   8843 0.25637600   1.008000   ; qtot 0.199950
 8844         os    305    bbb     O1   8844 -0.20025300  16.000000   ; qtot -0.000303
; residue  306 bbb rtp bbb q -0.0
 8845         n3    306    bbb     N1   8845 -0.59685800  14.010000   ; qtot -0.597161
 8846         c3    306    bbb     C1   8846 0.10137000  12.010000   ; qtot -0.495791
 8847         h1    306    bbb     H1   8847 0.04411300   1.008000   ; qtot -0.451678
 8848         h1    306    bbb     H2   8848 0.04411300   1.008000   ; qtot -0.407565
 8849         c3    306    bbb     C2   8849 0.10137000  12.010000   ; qtot -0.306195
 8850         h1    306    bbb     H3   8850 0.04411300   1.008000   ; qtot -0.262082
 8851         h1    306    bbb     H4   8851 0.04411300   1.008000   ; qtot -0.217969
 8852         c3    306    bbb     C3   8852 -0.00195300  12.010000   ; qtot -0.219922
 8853         h1    306    bbb     H5   8853 0.05064400   1.008000   ; qtot -0.169278
 8854         h1    306    bbb     H6   8854 0.05064400   1.008000   ; qtot -0.118634
 8855         c3    306    bbb     C4   8855 -0.01612100  12.010000   ; qtot -0.134755
 8856         hc    306    bbb     H7   8856 0.04936100   1.008000   ; qtot -0.085394
 8857         hc    306    bbb     H8   8857 0.04936100   1.008000   ; qtot -0.036033
 8858         c3    306    bbb     C5   8858 0.11363000  12.010000   ; qtot 0.077597
 8859         hc    306    bbb     H9   8859 0.06265900   1.008000   ; qtot 0.140256
 8860         hc    306    bbb    H10   8860 0.06265900   1.008000   ; qtot 0.202915
 8861         c3    306    bbb     C6   8861 0.11363000  12.010000   ; qtot 0.316545
 8862         hc    306    bbb    H11   8862 0.06265900   1.008000   ; qtot 0.379204
 8863         hc    306    bbb    H12   8863 0.06265900   1.008000   ; qtot 0.441863
 8864         c3    306    bbb     C7   8864 0.05858200  12.010000   ; qtot 0.500445
 8865         h1    306    bbb    H13   8865 0.06123400   1.008000   ; qtot 0.561679
 8866         h1    306    bbb    H14   8866 0.06123400   1.008000   ; qtot 0.622913
 8867         c3    306    bbb     C8   8867 -0.72423400  12.010000   ; qtot -0.101321
 8868         h1    306    bbb    H15   8868 0.25637600   1.008000   ; qtot 0.155055
 8869         h1    306    bbb    H16   8869 0.25637600   1.008000   ; qtot 0.411431
 8870         c3    306    bbb     C9   8870 -0.72423400  12.010000   ; qtot -0.312803
 8871         h1    306    bbb    H17   8871 0.25637600   1.008000   ; qtot -0.056427
 8872         h1    306    bbb    H18   8872 0.25637600   1.008000   ; qtot 0.199949
 8873         os    306    bbb     O1   8873 -0.20025300  16.000000   ; qtot -0.000304
; residue  307 bbb rtp bbb q -0.0
 8874         n3    307    bbb     N1   8874 -0.59685800  14.010000   ; qtot -0.597162
 8875         c3    307    bbb     C1   8875 0.10137000  12.010000   ; qtot -0.495792
 8876         h1    307    bbb     H1   8876 0.04411300   1.008000   ; qtot -0.451679
 8877         h1    307    bbb     H2   8877 0.04411300   1.008000   ; qtot -0.407566
 8878         c3    307    bbb     C2   8878 0.10137000  12.010000   ; qtot -0.306196
 8879         h1    307    bbb     H3   8879 0.04411300   1.008000   ; qtot -0.262083
 8880         h1    307    bbb     H4   8880 0.04411300   1.008000   ; qtot -0.217970
 8881         c3    307    bbb     C3   8881 -0.00195300  12.010000   ; qtot -0.219923
 8882         h1    307    bbb     H5   8882 0.05064400   1.008000   ; qtot -0.169279
 8883         h1    307    bbb     H6   8883 0.05064400   1.008000   ; qtot -0.118635
 8884         c3    307    bbb     C4   8884 -0.01612100  12.010000   ; qtot -0.134756
 8885         hc    307    bbb     H7   8885 0.04936100   1.008000   ; qtot -0.085395
 8886         hc    307    bbb     H8   8886 0.04936100   1.008000   ; qtot -0.036034
 8887         c3    307    bbb     C5   8887 0.11363000  12.010000   ; qtot 0.077596
 8888         hc    307    bbb     H9   8888 0.06265900   1.008000   ; qtot 0.140255
 8889         hc    307    bbb    H10   8889 0.06265900   1.008000   ; qtot 0.202914
 8890         c3    307    bbb     C6   8890 0.11363000  12.010000   ; qtot 0.316544
 8891         hc    307    bbb    H11   8891 0.06265900   1.008000   ; qtot 0.379203
 8892         hc    307    bbb    H12   8892 0.06265900   1.008000   ; qtot 0.441862
 8893         c3    307    bbb     C7   8893 0.05858200  12.010000   ; qtot 0.500444
 8894         h1    307    bbb    H13   8894 0.06123400   1.008000   ; qtot 0.561678
 8895         h1    307    bbb    H14   8895 0.06123400   1.008000   ; qtot 0.622912
 8896         c3    307    bbb     C8   8896 -0.72423400  12.010000   ; qtot -0.101322
 8897         h1    307    bbb    H15   8897 0.25637600   1.008000   ; qtot 0.155054
 8898         h1    307    bbb    H16   8898 0.25637600   1.008000   ; qtot 0.411430
 8899         c3    307    bbb     C9   8899 -0.72423400  12.010000   ; qtot -0.312804
 8900         h1    307    bbb    H17   8900 0.25637600   1.008000   ; qtot -0.056428
 8901         h1    307    bbb    H18   8901 0.25637600   1.008000   ; qtot 0.199948
 8902         os    307    bbb     O1   8902 -0.20025300  16.000000   ; qtot -0.000305
; residue  308 bbb rtp bbb q -0.0
 8903         n3    308    bbb     N1   8903 -0.59685800  14.010000   ; qtot -0.597163
 8904         c3    308    bbb     C1   8904 0.10137000  12.010000   ; qtot -0.495793
 8905         h1    308    bbb     H1   8905 0.04411300   1.008000   ; qtot -0.451680
 8906         h1    308    bbb     H2   8906 0.04411300   1.008000   ; qtot -0.407567
 8907         c3    308    bbb     C2   8907 0.10137000  12.010000   ; qtot -0.306197
 8908         h1    308    bbb     H3   8908 0.04411300   1.008000   ; qtot -0.262084
 8909         h1    308    bbb     H4   8909 0.04411300   1.008000   ; qtot -0.217971
 8910         c3    308    bbb     C3   8910 -0.00195300  12.010000   ; qtot -0.219924
 8911         h1    308    bbb     H5   8911 0.05064400   1.008000   ; qtot -0.169280
 8912         h1    308    bbb     H6   8912 0.05064400   1.008000   ; qtot -0.118636
 8913         c3    308    bbb     C4   8913 -0.01612100  12.010000   ; qtot -0.134757
 8914         hc    308    bbb     H7   8914 0.04936100   1.008000   ; qtot -0.085396
 8915         hc    308    bbb     H8   8915 0.04936100   1.008000   ; qtot -0.036035
 8916         c3    308    bbb     C5   8916 0.11363000  12.010000   ; qtot 0.077595
 8917         hc    308    bbb     H9   8917 0.06265900   1.008000   ; qtot 0.140254
 8918         hc    308    bbb    H10   8918 0.06265900   1.008000   ; qtot 0.202913
 8919         c3    308    bbb     C6   8919 0.11363000  12.010000   ; qtot 0.316543
 8920         hc    308    bbb    H11   8920 0.06265900   1.008000   ; qtot 0.379202
 8921         hc    308    bbb    H12   8921 0.06265900   1.008000   ; qtot 0.441861
 8922         c3    308    bbb     C7   8922 0.05858200  12.010000   ; qtot 0.500443
 8923         h1    308    bbb    H13   8923 0.06123400   1.008000   ; qtot 0.561677
 8924         h1    308    bbb    H14   8924 0.06123400   1.008000   ; qtot 0.622911
 8925         c3    308    bbb     C8   8925 -0.72423400  12.010000   ; qtot -0.101323
 8926         h1    308    bbb    H15   8926 0.25637600   1.008000   ; qtot 0.155053
 8927         h1    308    bbb    H16   8927 0.25637600   1.008000   ; qtot 0.411429
 8928         c3    308    bbb     C9   8928 -0.72423400  12.010000   ; qtot -0.312805
 8929         h1    308    bbb    H17   8929 0.25637600   1.008000   ; qtot -0.056429
 8930         h1    308    bbb    H18   8930 0.25637600   1.008000   ; qtot 0.199947
 8931         os    308    bbb     O1   8931 -0.20025300  16.000000   ; qtot -0.000306
; residue  309 bbb rtp bbb q -0.0
 8932         n3    309    bbb     N1   8932 -0.59685800  14.010000   ; qtot -0.597164
 8933         c3    309    bbb     C1   8933 0.10137000  12.010000   ; qtot -0.495794
 8934         h1    309    bbb     H1   8934 0.04411300   1.008000   ; qtot -0.451681
 8935         h1    309    bbb     H2   8935 0.04411300   1.008000   ; qtot -0.407568
 8936         c3    309    bbb     C2   8936 0.10137000  12.010000   ; qtot -0.306198
 8937         h1    309    bbb     H3   8937 0.04411300   1.008000   ; qtot -0.262085
 8938         h1    309    bbb     H4   8938 0.04411300   1.008000   ; qtot -0.217972
 8939         c3    309    bbb     C3   8939 -0.00195300  12.010000   ; qtot -0.219925
 8940         h1    309    bbb     H5   8940 0.05064400   1.008000   ; qtot -0.169281
 8941         h1    309    bbb     H6   8941 0.05064400   1.008000   ; qtot -0.118637
 8942         c3    309    bbb     C4   8942 -0.01612100  12.010000   ; qtot -0.134758
 8943         hc    309    bbb     H7   8943 0.04936100   1.008000   ; qtot -0.085397
 8944         hc    309    bbb     H8   8944 0.04936100   1.008000   ; qtot -0.036036
 8945         c3    309    bbb     C5   8945 0.11363000  12.010000   ; qtot 0.077594
 8946         hc    309    bbb     H9   8946 0.06265900   1.008000   ; qtot 0.140253
 8947         hc    309    bbb    H10   8947 0.06265900   1.008000   ; qtot 0.202912
 8948         c3    309    bbb     C6   8948 0.11363000  12.010000   ; qtot 0.316542
 8949         hc    309    bbb    H11   8949 0.06265900   1.008000   ; qtot 0.379201
 8950         hc    309    bbb    H12   8950 0.06265900   1.008000   ; qtot 0.441860
 8951         c3    309    bbb     C7   8951 0.05858200  12.010000   ; qtot 0.500442
 8952         h1    309    bbb    H13   8952 0.06123400   1.008000   ; qtot 0.561676
 8953         h1    309    bbb    H14   8953 0.06123400   1.008000   ; qtot 0.622910
 8954         c3    309    bbb     C8   8954 -0.72423400  12.010000   ; qtot -0.101324
 8955         h1    309    bbb    H15   8955 0.25637600   1.008000   ; qtot 0.155052
 8956         h1    309    bbb    H16   8956 0.25637600   1.008000   ; qtot 0.411428
 8957         c3    309    bbb     C9   8957 -0.72423400  12.010000   ; qtot -0.312806
 8958         h1    309    bbb    H17   8958 0.25637600   1.008000   ; qtot -0.056430
 8959         h1    309    bbb    H18   8959 0.25637600   1.008000   ; qtot 0.199946
 8960         os    309    bbb     O1   8960 -0.20025300  16.000000   ; qtot -0.000307
; residue  310 bbb rtp bbb q -0.0
 8961         n3    310    bbb     N1   8961 -0.59685800  14.010000   ; qtot -0.597165
 8962         c3    310    bbb     C1   8962 0.10137000  12.010000   ; qtot -0.495795
 8963         h1    310    bbb     H1   8963 0.04411300   1.008000   ; qtot -0.451682
 8964         h1    310    bbb     H2   8964 0.04411300   1.008000   ; qtot -0.407569
 8965         c3    310    bbb     C2   8965 0.10137000  12.010000   ; qtot -0.306199
 8966         h1    310    bbb     H3   8966 0.04411300   1.008000   ; qtot -0.262086
 8967         h1    310    bbb     H4   8967 0.04411300   1.008000   ; qtot -0.217973
 8968         c3    310    bbb     C3   8968 -0.00195300  12.010000   ; qtot -0.219926
 8969         h1    310    bbb     H5   8969 0.05064400   1.008000   ; qtot -0.169282
 8970         h1    310    bbb     H6   8970 0.05064400   1.008000   ; qtot -0.118638
 8971         c3    310    bbb     C4   8971 -0.01612100  12.010000   ; qtot -0.134759
 8972         hc    310    bbb     H7   8972 0.04936100   1.008000   ; qtot -0.085398
 8973         hc    310    bbb     H8   8973 0.04936100   1.008000   ; qtot -0.036037
 8974         c3    310    bbb     C5   8974 0.11363000  12.010000   ; qtot 0.077593
 8975         hc    310    bbb     H9   8975 0.06265900   1.008000   ; qtot 0.140252
 8976         hc    310    bbb    H10   8976 0.06265900   1.008000   ; qtot 0.202911
 8977         c3    310    bbb     C6   8977 0.11363000  12.010000   ; qtot 0.316541
 8978         hc    310    bbb    H11   8978 0.06265900   1.008000   ; qtot 0.379200
 8979         hc    310    bbb    H12   8979 0.06265900   1.008000   ; qtot 0.441859
 8980         c3    310    bbb     C7   8980 0.05858200  12.010000   ; qtot 0.500441
 8981         h1    310    bbb    H13   8981 0.06123400   1.008000   ; qtot 0.561675
 8982         h1    310    bbb    H14   8982 0.06123400   1.008000   ; qtot 0.622909
 8983         c3    310    bbb     C8   8983 -0.72423400  12.010000   ; qtot -0.101325
 8984         h1    310    bbb    H15   8984 0.25637600   1.008000   ; qtot 0.155051
 8985         h1    310    bbb    H16   8985 0.25637600   1.008000   ; qtot 0.411427
 8986         c3    310    bbb     C9   8986 -0.72423400  12.010000   ; qtot -0.312807
 8987         h1    310    bbb    H17   8987 0.25637600   1.008000   ; qtot -0.056431
 8988         h1    310    bbb    H18   8988 0.25637600   1.008000   ; qtot 0.199945
 8989         os    310    bbb     O1   8989 -0.20025300  16.000000   ; qtot -0.000308
; residue  311 bbb rtp bbb q -0.0
 8990         n3    311    bbb     N1   8990 -0.59685800  14.010000   ; qtot -0.597166
 8991         c3    311    bbb     C1   8991 0.10137000  12.010000   ; qtot -0.495796
 8992         h1    311    bbb     H1   8992 0.04411300   1.008000   ; qtot -0.451683
 8993         h1    311    bbb     H2   8993 0.04411300   1.008000   ; qtot -0.407570
 8994         c3    311    bbb     C2   8994 0.10137000  12.010000   ; qtot -0.306200
 8995         h1    311    bbb     H3   8995 0.04411300   1.008000   ; qtot -0.262087
 8996         h1    311    bbb     H4   8996 0.04411300   1.008000   ; qtot -0.217974
 8997         c3    311    bbb     C3   8997 -0.00195300  12.010000   ; qtot -0.219927
 8998         h1    311    bbb     H5   8998 0.05064400   1.008000   ; qtot -0.169283
 8999         h1    311    bbb     H6   8999 0.05064400   1.008000   ; qtot -0.118639
 9000         c3    311    bbb     C4   9000 -0.01612100  12.010000   ; qtot -0.134760
 9001         hc    311    bbb     H7   9001 0.04936100   1.008000   ; qtot -0.085399
 9002         hc    311    bbb     H8   9002 0.04936100   1.008000   ; qtot -0.036038
 9003         c3    311    bbb     C5   9003 0.11363000  12.010000   ; qtot 0.077592
 9004         hc    311    bbb     H9   9004 0.06265900   1.008000   ; qtot 0.140251
 9005         hc    311    bbb    H10   9005 0.06265900   1.008000   ; qtot 0.202910
 9006         c3    311    bbb     C6   9006 0.11363000  12.010000   ; qtot 0.316540
 9007         hc    311    bbb    H11   9007 0.06265900   1.008000   ; qtot 0.379199
 9008         hc    311    bbb    H12   9008 0.06265900   1.008000   ; qtot 0.441858
 9009         c3    311    bbb     C7   9009 0.05858200  12.010000   ; qtot 0.500440
 9010         h1    311    bbb    H13   9010 0.06123400   1.008000   ; qtot 0.561674
 9011         h1    311    bbb    H14   9011 0.06123400   1.008000   ; qtot 0.622908
 9012         c3    311    bbb     C8   9012 -0.72423400  12.010000   ; qtot -0.101326
 9013         h1    311    bbb    H15   9013 0.25637600   1.008000   ; qtot 0.155050
 9014         h1    311    bbb    H16   9014 0.25637600   1.008000   ; qtot 0.411426
 9015         c3    311    bbb     C9   9015 -0.72423400  12.010000   ; qtot -0.312808
 9016         h1    311    bbb    H17   9016 0.25637600   1.008000   ; qtot -0.056432
 9017         h1    311    bbb    H18   9017 0.25637600   1.008000   ; qtot 0.199944
 9018         os    311    bbb     O1   9018 -0.20025300  16.000000   ; qtot -0.000309
; residue  312 bbb rtp bbb q -0.0
 9019         n3    312    bbb     N1   9019 -0.59685800  14.010000   ; qtot -0.597167
 9020         c3    312    bbb     C1   9020 0.10137000  12.010000   ; qtot -0.495797
 9021         h1    312    bbb     H1   9021 0.04411300   1.008000   ; qtot -0.451684
 9022         h1    312    bbb     H2   9022 0.04411300   1.008000   ; qtot -0.407571
 9023         c3    312    bbb     C2   9023 0.10137000  12.010000   ; qtot -0.306201
 9024         h1    312    bbb     H3   9024 0.04411300   1.008000   ; qtot -0.262088
 9025         h1    312    bbb     H4   9025 0.04411300   1.008000   ; qtot -0.217975
 9026         c3    312    bbb     C3   9026 -0.00195300  12.010000   ; qtot -0.219928
 9027         h1    312    bbb     H5   9027 0.05064400   1.008000   ; qtot -0.169284
 9028         h1    312    bbb     H6   9028 0.05064400   1.008000   ; qtot -0.118640
 9029         c3    312    bbb     C4   9029 -0.01612100  12.010000   ; qtot -0.134761
 9030         hc    312    bbb     H7   9030 0.04936100   1.008000   ; qtot -0.085400
 9031         hc    312    bbb     H8   9031 0.04936100   1.008000   ; qtot -0.036039
 9032         c3    312    bbb     C5   9032 0.11363000  12.010000   ; qtot 0.077591
 9033         hc    312    bbb     H9   9033 0.06265900   1.008000   ; qtot 0.140250
 9034         hc    312    bbb    H10   9034 0.06265900   1.008000   ; qtot 0.202909
 9035         c3    312    bbb     C6   9035 0.11363000  12.010000   ; qtot 0.316539
 9036         hc    312    bbb    H11   9036 0.06265900   1.008000   ; qtot 0.379198
 9037         hc    312    bbb    H12   9037 0.06265900   1.008000   ; qtot 0.441857
 9038         c3    312    bbb     C7   9038 0.05858200  12.010000   ; qtot 0.500439
 9039         h1    312    bbb    H13   9039 0.06123400   1.008000   ; qtot 0.561673
 9040         h1    312    bbb    H14   9040 0.06123400   1.008000   ; qtot 0.622907
 9041         c3    312    bbb     C8   9041 -0.72423400  12.010000   ; qtot -0.101327
 9042         h1    312    bbb    H15   9042 0.25637600   1.008000   ; qtot 0.155049
 9043         h1    312    bbb    H16   9043 0.25637600   1.008000   ; qtot 0.411425
 9044         c3    312    bbb     C9   9044 -0.72423400  12.010000   ; qtot -0.312809
 9045         h1    312    bbb    H17   9045 0.25637600   1.008000   ; qtot -0.056433
 9046         h1    312    bbb    H18   9046 0.25637600   1.008000   ; qtot 0.199943
 9047         os    312    bbb     O1   9047 -0.20025300  16.000000   ; qtot -0.000310
; residue  313 bbb rtp bbb q -0.0
 9048         n3    313    bbb     N1   9048 -0.59685800  14.010000   ; qtot -0.597168
 9049         c3    313    bbb     C1   9049 0.10137000  12.010000   ; qtot -0.495798
 9050         h1    313    bbb     H1   9050 0.04411300   1.008000   ; qtot -0.451685
 9051         h1    313    bbb     H2   9051 0.04411300   1.008000   ; qtot -0.407572
 9052         c3    313    bbb     C2   9052 0.10137000  12.010000   ; qtot -0.306202
 9053         h1    313    bbb     H3   9053 0.04411300   1.008000   ; qtot -0.262089
 9054         h1    313    bbb     H4   9054 0.04411300   1.008000   ; qtot -0.217976
 9055         c3    313    bbb     C3   9055 -0.00195300  12.010000   ; qtot -0.219929
 9056         h1    313    bbb     H5   9056 0.05064400   1.008000   ; qtot -0.169285
 9057         h1    313    bbb     H6   9057 0.05064400   1.008000   ; qtot -0.118641
 9058         c3    313    bbb     C4   9058 -0.01612100  12.010000   ; qtot -0.134762
 9059         hc    313    bbb     H7   9059 0.04936100   1.008000   ; qtot -0.085401
 9060         hc    313    bbb     H8   9060 0.04936100   1.008000   ; qtot -0.036040
 9061         c3    313    bbb     C5   9061 0.11363000  12.010000   ; qtot 0.077590
 9062         hc    313    bbb     H9   9062 0.06265900   1.008000   ; qtot 0.140249
 9063         hc    313    bbb    H10   9063 0.06265900   1.008000   ; qtot 0.202908
 9064         c3    313    bbb     C6   9064 0.11363000  12.010000   ; qtot 0.316538
 9065         hc    313    bbb    H11   9065 0.06265900   1.008000   ; qtot 0.379197
 9066         hc    313    bbb    H12   9066 0.06265900   1.008000   ; qtot 0.441856
 9067         c3    313    bbb     C7   9067 0.05858200  12.010000   ; qtot 0.500438
 9068         h1    313    bbb    H13   9068 0.06123400   1.008000   ; qtot 0.561672
 9069         h1    313    bbb    H14   9069 0.06123400   1.008000   ; qtot 0.622906
 9070         c3    313    bbb     C8   9070 -0.72423400  12.010000   ; qtot -0.101328
 9071         h1    313    bbb    H15   9071 0.25637600   1.008000   ; qtot 0.155048
 9072         h1    313    bbb    H16   9072 0.25637600   1.008000   ; qtot 0.411424
 9073         c3    313    bbb     C9   9073 -0.72423400  12.010000   ; qtot -0.312810
 9074         h1    313    bbb    H17   9074 0.25637600   1.008000   ; qtot -0.056434
 9075         h1    313    bbb    H18   9075 0.25637600   1.008000   ; qtot 0.199942
 9076         os    313    bbb     O1   9076 -0.20025300  16.000000   ; qtot -0.000311
; residue  314 bbb rtp bbb q -0.0
 9077         n3    314    bbb     N1   9077 -0.59685800  14.010000   ; qtot -0.597169
 9078         c3    314    bbb     C1   9078 0.10137000  12.010000   ; qtot -0.495799
 9079         h1    314    bbb     H1   9079 0.04411300   1.008000   ; qtot -0.451686
 9080         h1    314    bbb     H2   9080 0.04411300   1.008000   ; qtot -0.407573
 9081         c3    314    bbb     C2   9081 0.10137000  12.010000   ; qtot -0.306203
 9082         h1    314    bbb     H3   9082 0.04411300   1.008000   ; qtot -0.262090
 9083         h1    314    bbb     H4   9083 0.04411300   1.008000   ; qtot -0.217977
 9084         c3    314    bbb     C3   9084 -0.00195300  12.010000   ; qtot -0.219930
 9085         h1    314    bbb     H5   9085 0.05064400   1.008000   ; qtot -0.169286
 9086         h1    314    bbb     H6   9086 0.05064400   1.008000   ; qtot -0.118642
 9087         c3    314    bbb     C4   9087 -0.01612100  12.010000   ; qtot -0.134763
 9088         hc    314    bbb     H7   9088 0.04936100   1.008000   ; qtot -0.085402
 9089         hc    314    bbb     H8   9089 0.04936100   1.008000   ; qtot -0.036041
 9090         c3    314    bbb     C5   9090 0.11363000  12.010000   ; qtot 0.077589
 9091         hc    314    bbb     H9   9091 0.06265900   1.008000   ; qtot 0.140248
 9092         hc    314    bbb    H10   9092 0.06265900   1.008000   ; qtot 0.202907
 9093         c3    314    bbb     C6   9093 0.11363000  12.010000   ; qtot 0.316537
 9094         hc    314    bbb    H11   9094 0.06265900   1.008000   ; qtot 0.379196
 9095         hc    314    bbb    H12   9095 0.06265900   1.008000   ; qtot 0.441855
 9096         c3    314    bbb     C7   9096 0.05858200  12.010000   ; qtot 0.500437
 9097         h1    314    bbb    H13   9097 0.06123400   1.008000   ; qtot 0.561671
 9098         h1    314    bbb    H14   9098 0.06123400   1.008000   ; qtot 0.622905
 9099         c3    314    bbb     C8   9099 -0.72423400  12.010000   ; qtot -0.101329
 9100         h1    314    bbb    H15   9100 0.25637600   1.008000   ; qtot 0.155047
 9101         h1    314    bbb    H16   9101 0.25637600   1.008000   ; qtot 0.411423
 9102         c3    314    bbb     C9   9102 -0.72423400  12.010000   ; qtot -0.312811
 9103         h1    314    bbb    H17   9103 0.25637600   1.008000   ; qtot -0.056435
 9104         h1    314    bbb    H18   9104 0.25637600   1.008000   ; qtot 0.199941
 9105         os    314    bbb     O1   9105 -0.20025300  16.000000   ; qtot -0.000312
; residue  315 bbb rtp bbb q -0.0
 9106         n3    315    bbb     N1   9106 -0.59685800  14.010000   ; qtot -0.597170
 9107         c3    315    bbb     C1   9107 0.10137000  12.010000   ; qtot -0.495800
 9108         h1    315    bbb     H1   9108 0.04411300   1.008000   ; qtot -0.451687
 9109         h1    315    bbb     H2   9109 0.04411300   1.008000   ; qtot -0.407574
 9110         c3    315    bbb     C2   9110 0.10137000  12.010000   ; qtot -0.306204
 9111         h1    315    bbb     H3   9111 0.04411300   1.008000   ; qtot -0.262091
 9112         h1    315    bbb     H4   9112 0.04411300   1.008000   ; qtot -0.217978
 9113         c3    315    bbb     C3   9113 -0.00195300  12.010000   ; qtot -0.219931
 9114         h1    315    bbb     H5   9114 0.05064400   1.008000   ; qtot -0.169287
 9115         h1    315    bbb     H6   9115 0.05064400   1.008000   ; qtot -0.118643
 9116         c3    315    bbb     C4   9116 -0.01612100  12.010000   ; qtot -0.134764
 9117         hc    315    bbb     H7   9117 0.04936100   1.008000   ; qtot -0.085403
 9118         hc    315    bbb     H8   9118 0.04936100   1.008000   ; qtot -0.036042
 9119         c3    315    bbb     C5   9119 0.11363000  12.010000   ; qtot 0.077588
 9120         hc    315    bbb     H9   9120 0.06265900   1.008000   ; qtot 0.140247
 9121         hc    315    bbb    H10   9121 0.06265900   1.008000   ; qtot 0.202906
 9122         c3    315    bbb     C6   9122 0.11363000  12.010000   ; qtot 0.316536
 9123         hc    315    bbb    H11   9123 0.06265900   1.008000   ; qtot 0.379195
 9124         hc    315    bbb    H12   9124 0.06265900   1.008000   ; qtot 0.441854
 9125         c3    315    bbb     C7   9125 0.05858200  12.010000   ; qtot 0.500436
 9126         h1    315    bbb    H13   9126 0.06123400   1.008000   ; qtot 0.561670
 9127         h1    315    bbb    H14   9127 0.06123400   1.008000   ; qtot 0.622904
 9128         c3    315    bbb     C8   9128 -0.72423400  12.010000   ; qtot -0.101330
 9129         h1    315    bbb    H15   9129 0.25637600   1.008000   ; qtot 0.155046
 9130         h1    315    bbb    H16   9130 0.25637600   1.008000   ; qtot 0.411422
 9131         c3    315    bbb     C9   9131 -0.72423400  12.010000   ; qtot -0.312812
 9132         h1    315    bbb    H17   9132 0.25637600   1.008000   ; qtot -0.056436
 9133         h1    315    bbb    H18   9133 0.25637600   1.008000   ; qtot 0.199940
 9134         os    315    bbb     O1   9134 -0.20025300  16.000000   ; qtot -0.000313
; residue  316 bbb rtp bbb q -0.0
 9135         n3    316    bbb     N1   9135 -0.59685800  14.010000   ; qtot -0.597171
 9136         c3    316    bbb     C1   9136 0.10137000  12.010000   ; qtot -0.495801
 9137         h1    316    bbb     H1   9137 0.04411300   1.008000   ; qtot -0.451688
 9138         h1    316    bbb     H2   9138 0.04411300   1.008000   ; qtot -0.407575
 9139         c3    316    bbb     C2   9139 0.10137000  12.010000   ; qtot -0.306205
 9140         h1    316    bbb     H3   9140 0.04411300   1.008000   ; qtot -0.262092
 9141         h1    316    bbb     H4   9141 0.04411300   1.008000   ; qtot -0.217979
 9142         c3    316    bbb     C3   9142 -0.00195300  12.010000   ; qtot -0.219932
 9143         h1    316    bbb     H5   9143 0.05064400   1.008000   ; qtot -0.169288
 9144         h1    316    bbb     H6   9144 0.05064400   1.008000   ; qtot -0.118644
 9145         c3    316    bbb     C4   9145 -0.01612100  12.010000   ; qtot -0.134765
 9146         hc    316    bbb     H7   9146 0.04936100   1.008000   ; qtot -0.085404
 9147         hc    316    bbb     H8   9147 0.04936100   1.008000   ; qtot -0.036043
 9148         c3    316    bbb     C5   9148 0.11363000  12.010000   ; qtot 0.077587
 9149         hc    316    bbb     H9   9149 0.06265900   1.008000   ; qtot 0.140246
 9150         hc    316    bbb    H10   9150 0.06265900   1.008000   ; qtot 0.202905
 9151         c3    316    bbb     C6   9151 0.11363000  12.010000   ; qtot 0.316535
 9152         hc    316    bbb    H11   9152 0.06265900   1.008000   ; qtot 0.379194
 9153         hc    316    bbb    H12   9153 0.06265900   1.008000   ; qtot 0.441853
 9154         c3    316    bbb     C7   9154 0.05858200  12.010000   ; qtot 0.500435
 9155         h1    316    bbb    H13   9155 0.06123400   1.008000   ; qtot 0.561669
 9156         h1    316    bbb    H14   9156 0.06123400   1.008000   ; qtot 0.622903
 9157         c3    316    bbb     C8   9157 -0.72423400  12.010000   ; qtot -0.101331
 9158         h1    316    bbb    H15   9158 0.25637600   1.008000   ; qtot 0.155045
 9159         h1    316    bbb    H16   9159 0.25637600   1.008000   ; qtot 0.411421
 9160         c3    316    bbb     C9   9160 -0.72423400  12.010000   ; qtot -0.312813
 9161         h1    316    bbb    H17   9161 0.25637600   1.008000   ; qtot -0.056437
 9162         h1    316    bbb    H18   9162 0.25637600   1.008000   ; qtot 0.199939
 9163         os    316    bbb     O1   9163 -0.20025300  16.000000   ; qtot -0.000314
; residue  317 bbb rtp bbb q -0.0
 9164         n3    317    bbb     N1   9164 -0.59685800  14.010000   ; qtot -0.597172
 9165         c3    317    bbb     C1   9165 0.10137000  12.010000   ; qtot -0.495802
 9166         h1    317    bbb     H1   9166 0.04411300   1.008000   ; qtot -0.451689
 9167         h1    317    bbb     H2   9167 0.04411300   1.008000   ; qtot -0.407576
 9168         c3    317    bbb     C2   9168 0.10137000  12.010000   ; qtot -0.306206
 9169         h1    317    bbb     H3   9169 0.04411300   1.008000   ; qtot -0.262093
 9170         h1    317    bbb     H4   9170 0.04411300   1.008000   ; qtot -0.217980
 9171         c3    317    bbb     C3   9171 -0.00195300  12.010000   ; qtot -0.219933
 9172         h1    317    bbb     H5   9172 0.05064400   1.008000   ; qtot -0.169289
 9173         h1    317    bbb     H6   9173 0.05064400   1.008000   ; qtot -0.118645
 9174         c3    317    bbb     C4   9174 -0.01612100  12.010000   ; qtot -0.134766
 9175         hc    317    bbb     H7   9175 0.04936100   1.008000   ; qtot -0.085405
 9176         hc    317    bbb     H8   9176 0.04936100   1.008000   ; qtot -0.036044
 9177         c3    317    bbb     C5   9177 0.11363000  12.010000   ; qtot 0.077586
 9178         hc    317    bbb     H9   9178 0.06265900   1.008000   ; qtot 0.140245
 9179         hc    317    bbb    H10   9179 0.06265900   1.008000   ; qtot 0.202904
 9180         c3    317    bbb     C6   9180 0.11363000  12.010000   ; qtot 0.316534
 9181         hc    317    bbb    H11   9181 0.06265900   1.008000   ; qtot 0.379193
 9182         hc    317    bbb    H12   9182 0.06265900   1.008000   ; qtot 0.441852
 9183         c3    317    bbb     C7   9183 0.05858200  12.010000   ; qtot 0.500434
 9184         h1    317    bbb    H13   9184 0.06123400   1.008000   ; qtot 0.561668
 9185         h1    317    bbb    H14   9185 0.06123400   1.008000   ; qtot 0.622902
 9186         c3    317    bbb     C8   9186 -0.72423400  12.010000   ; qtot -0.101332
 9187         h1    317    bbb    H15   9187 0.25637600   1.008000   ; qtot 0.155044
 9188         h1    317    bbb    H16   9188 0.25637600   1.008000   ; qtot 0.411420
 9189         c3    317    bbb     C9   9189 -0.72423400  12.010000   ; qtot -0.312814
 9190         h1    317    bbb    H17   9190 0.25637600   1.008000   ; qtot -0.056438
 9191         h1    317    bbb    H18   9191 0.25637600   1.008000   ; qtot 0.199938
 9192         os    317    bbb     O1   9192 -0.20025300  16.000000   ; qtot -0.000315
; residue  318 bbb rtp bbb q -0.0
 9193         n3    318    bbb     N1   9193 -0.59685800  14.010000   ; qtot -0.597173
 9194         c3    318    bbb     C1   9194 0.10137000  12.010000   ; qtot -0.495803
 9195         h1    318    bbb     H1   9195 0.04411300   1.008000   ; qtot -0.451690
 9196         h1    318    bbb     H2   9196 0.04411300   1.008000   ; qtot -0.407577
 9197         c3    318    bbb     C2   9197 0.10137000  12.010000   ; qtot -0.306207
 9198         h1    318    bbb     H3   9198 0.04411300   1.008000   ; qtot -0.262094
 9199         h1    318    bbb     H4   9199 0.04411300   1.008000   ; qtot -0.217981
 9200         c3    318    bbb     C3   9200 -0.00195300  12.010000   ; qtot -0.219934
 9201         h1    318    bbb     H5   9201 0.05064400   1.008000   ; qtot -0.169290
 9202         h1    318    bbb     H6   9202 0.05064400   1.008000   ; qtot -0.118646
 9203         c3    318    bbb     C4   9203 -0.01612100  12.010000   ; qtot -0.134767
 9204         hc    318    bbb     H7   9204 0.04936100   1.008000   ; qtot -0.085406
 9205         hc    318    bbb     H8   9205 0.04936100   1.008000   ; qtot -0.036045
 9206         c3    318    bbb     C5   9206 0.11363000  12.010000   ; qtot 0.077585
 9207         hc    318    bbb     H9   9207 0.06265900   1.008000   ; qtot 0.140244
 9208         hc    318    bbb    H10   9208 0.06265900   1.008000   ; qtot 0.202903
 9209         c3    318    bbb     C6   9209 0.11363000  12.010000   ; qtot 0.316533
 9210         hc    318    bbb    H11   9210 0.06265900   1.008000   ; qtot 0.379192
 9211         hc    318    bbb    H12   9211 0.06265900   1.008000   ; qtot 0.441851
 9212         c3    318    bbb     C7   9212 0.05858200  12.010000   ; qtot 0.500433
 9213         h1    318    bbb    H13   9213 0.06123400   1.008000   ; qtot 0.561667
 9214         h1    318    bbb    H14   9214 0.06123400   1.008000   ; qtot 0.622901
 9215         c3    318    bbb     C8   9215 -0.72423400  12.010000   ; qtot -0.101333
 9216         h1    318    bbb    H15   9216 0.25637600   1.008000   ; qtot 0.155043
 9217         h1    318    bbb    H16   9217 0.25637600   1.008000   ; qtot 0.411419
 9218         c3    318    bbb     C9   9218 -0.72423400  12.010000   ; qtot -0.312815
 9219         h1    318    bbb    H17   9219 0.25637600   1.008000   ; qtot -0.056439
 9220         h1    318    bbb    H18   9220 0.25637600   1.008000   ; qtot 0.199937
 9221         os    318    bbb     O1   9221 -0.20025300  16.000000   ; qtot -0.000316
; residue  319 bbb rtp bbb q -0.0
 9222         n3    319    bbb     N1   9222 -0.59685800  14.010000   ; qtot -0.597174
 9223         c3    319    bbb     C1   9223 0.10137000  12.010000   ; qtot -0.495804
 9224         h1    319    bbb     H1   9224 0.04411300   1.008000   ; qtot -0.451691
 9225         h1    319    bbb     H2   9225 0.04411300   1.008000   ; qtot -0.407578
 9226         c3    319    bbb     C2   9226 0.10137000  12.010000   ; qtot -0.306208
 9227         h1    319    bbb     H3   9227 0.04411300   1.008000   ; qtot -0.262095
 9228         h1    319    bbb     H4   9228 0.04411300   1.008000   ; qtot -0.217982
 9229         c3    319    bbb     C3   9229 -0.00195300  12.010000   ; qtot -0.219935
 9230         h1    319    bbb     H5   9230 0.05064400   1.008000   ; qtot -0.169291
 9231         h1    319    bbb     H6   9231 0.05064400   1.008000   ; qtot -0.118647
 9232         c3    319    bbb     C4   9232 -0.01612100  12.010000   ; qtot -0.134768
 9233         hc    319    bbb     H7   9233 0.04936100   1.008000   ; qtot -0.085407
 9234         hc    319    bbb     H8   9234 0.04936100   1.008000   ; qtot -0.036046
 9235         c3    319    bbb     C5   9235 0.11363000  12.010000   ; qtot 0.077584
 9236         hc    319    bbb     H9   9236 0.06265900   1.008000   ; qtot 0.140243
 9237         hc    319    bbb    H10   9237 0.06265900   1.008000   ; qtot 0.202902
 9238         c3    319    bbb     C6   9238 0.11363000  12.010000   ; qtot 0.316532
 9239         hc    319    bbb    H11   9239 0.06265900   1.008000   ; qtot 0.379191
 9240         hc    319    bbb    H12   9240 0.06265900   1.008000   ; qtot 0.441850
 9241         c3    319    bbb     C7   9241 0.05858200  12.010000   ; qtot 0.500432
 9242         h1    319    bbb    H13   9242 0.06123400   1.008000   ; qtot 0.561666
 9243         h1    319    bbb    H14   9243 0.06123400   1.008000   ; qtot 0.622900
 9244         c3    319    bbb     C8   9244 -0.72423400  12.010000   ; qtot -0.101334
 9245         h1    319    bbb    H15   9245 0.25637600   1.008000   ; qtot 0.155042
 9246         h1    319    bbb    H16   9246 0.25637600   1.008000   ; qtot 0.411418
 9247         c3    319    bbb     C9   9247 -0.72423400  12.010000   ; qtot -0.312816
 9248         h1    319    bbb    H17   9248 0.25637600   1.008000   ; qtot -0.056440
 9249         h1    319    bbb    H18   9249 0.25637600   1.008000   ; qtot 0.199936
 9250         os    319    bbb     O1   9250 -0.20025300  16.000000   ; qtot -0.000317
; residue  320 bbb rtp bbb q -0.0
 9251         n3    320    bbb     N1   9251 -0.59685800  14.010000   ; qtot -0.597175
 9252         c3    320    bbb     C1   9252 0.10137000  12.010000   ; qtot -0.495805
 9253         h1    320    bbb     H1   9253 0.04411300   1.008000   ; qtot -0.451692
 9254         h1    320    bbb     H2   9254 0.04411300   1.008000   ; qtot -0.407579
 9255         c3    320    bbb     C2   9255 0.10137000  12.010000   ; qtot -0.306209
 9256         h1    320    bbb     H3   9256 0.04411300   1.008000   ; qtot -0.262096
 9257         h1    320    bbb     H4   9257 0.04411300   1.008000   ; qtot -0.217983
 9258         c3    320    bbb     C3   9258 -0.00195300  12.010000   ; qtot -0.219936
 9259         h1    320    bbb     H5   9259 0.05064400   1.008000   ; qtot -0.169292
 9260         h1    320    bbb     H6   9260 0.05064400   1.008000   ; qtot -0.118648
 9261         c3    320    bbb     C4   9261 -0.01612100  12.010000   ; qtot -0.134769
 9262         hc    320    bbb     H7   9262 0.04936100   1.008000   ; qtot -0.085408
 9263         hc    320    bbb     H8   9263 0.04936100   1.008000   ; qtot -0.036047
 9264         c3    320    bbb     C5   9264 0.11363000  12.010000   ; qtot 0.077583
 9265         hc    320    bbb     H9   9265 0.06265900   1.008000   ; qtot 0.140242
 9266         hc    320    bbb    H10   9266 0.06265900   1.008000   ; qtot 0.202901
 9267         c3    320    bbb     C6   9267 0.11363000  12.010000   ; qtot 0.316531
 9268         hc    320    bbb    H11   9268 0.06265900   1.008000   ; qtot 0.379190
 9269         hc    320    bbb    H12   9269 0.06265900   1.008000   ; qtot 0.441849
 9270         c3    320    bbb     C7   9270 0.05858200  12.010000   ; qtot 0.500431
 9271         h1    320    bbb    H13   9271 0.06123400   1.008000   ; qtot 0.561665
 9272         h1    320    bbb    H14   9272 0.06123400   1.008000   ; qtot 0.622899
 9273         c3    320    bbb     C8   9273 -0.72423400  12.010000   ; qtot -0.101335
 9274         h1    320    bbb    H15   9274 0.25637600   1.008000   ; qtot 0.155041
 9275         h1    320    bbb    H16   9275 0.25637600   1.008000   ; qtot 0.411417
 9276         c3    320    bbb     C9   9276 -0.72423400  12.010000   ; qtot -0.312817
 9277         h1    320    bbb    H17   9277 0.25637600   1.008000   ; qtot -0.056441
 9278         h1    320    bbb    H18   9278 0.25637600   1.008000   ; qtot 0.199935
 9279         os    320    bbb     O1   9279 -0.20025300  16.000000   ; qtot -0.000318
; residue  321 bbb rtp bbb q -0.0
 9280         n3    321    bbb     N1   9280 -0.59685800  14.010000   ; qtot -0.597176
 9281         c3    321    bbb     C1   9281 0.10137000  12.010000   ; qtot -0.495806
 9282         h1    321    bbb     H1   9282 0.04411300   1.008000   ; qtot -0.451693
 9283         h1    321    bbb     H2   9283 0.04411300   1.008000   ; qtot -0.407580
 9284         c3    321    bbb     C2   9284 0.10137000  12.010000   ; qtot -0.306210
 9285         h1    321    bbb     H3   9285 0.04411300   1.008000   ; qtot -0.262097
 9286         h1    321    bbb     H4   9286 0.04411300   1.008000   ; qtot -0.217984
 9287         c3    321    bbb     C3   9287 -0.00195300  12.010000   ; qtot -0.219937
 9288         h1    321    bbb     H5   9288 0.05064400   1.008000   ; qtot -0.169293
 9289         h1    321    bbb     H6   9289 0.05064400   1.008000   ; qtot -0.118649
 9290         c3    321    bbb     C4   9290 -0.01612100  12.010000   ; qtot -0.134770
 9291         hc    321    bbb     H7   9291 0.04936100   1.008000   ; qtot -0.085409
 9292         hc    321    bbb     H8   9292 0.04936100   1.008000   ; qtot -0.036048
 9293         c3    321    bbb     C5   9293 0.11363000  12.010000   ; qtot 0.077582
 9294         hc    321    bbb     H9   9294 0.06265900   1.008000   ; qtot 0.140241
 9295         hc    321    bbb    H10   9295 0.06265900   1.008000   ; qtot 0.202900
 9296         c3    321    bbb     C6   9296 0.11363000  12.010000   ; qtot 0.316530
 9297         hc    321    bbb    H11   9297 0.06265900   1.008000   ; qtot 0.379189
 9298         hc    321    bbb    H12   9298 0.06265900   1.008000   ; qtot 0.441848
 9299         c3    321    bbb     C7   9299 0.05858200  12.010000   ; qtot 0.500430
 9300         h1    321    bbb    H13   9300 0.06123400   1.008000   ; qtot 0.561664
 9301         h1    321    bbb    H14   9301 0.06123400   1.008000   ; qtot 0.622898
 9302         c3    321    bbb     C8   9302 -0.72423400  12.010000   ; qtot -0.101336
 9303         h1    321    bbb    H15   9303 0.25637600   1.008000   ; qtot 0.155040
 9304         h1    321    bbb    H16   9304 0.25637600   1.008000   ; qtot 0.411416
 9305         c3    321    bbb     C9   9305 -0.72423400  12.010000   ; qtot -0.312818
 9306         h1    321    bbb    H17   9306 0.25637600   1.008000   ; qtot -0.056442
 9307         h1    321    bbb    H18   9307 0.25637600   1.008000   ; qtot 0.199934
 9308         os    321    bbb     O1   9308 -0.20025300  16.000000   ; qtot -0.000319
; residue  322 bbb rtp bbb q -0.0
 9309         n3    322    bbb     N1   9309 -0.59685800  14.010000   ; qtot -0.597177
 9310         c3    322    bbb     C1   9310 0.10137000  12.010000   ; qtot -0.495807
 9311         h1    322    bbb     H1   9311 0.04411300   1.008000   ; qtot -0.451694
 9312         h1    322    bbb     H2   9312 0.04411300   1.008000   ; qtot -0.407581
 9313         c3    322    bbb     C2   9313 0.10137000  12.010000   ; qtot -0.306211
 9314         h1    322    bbb     H3   9314 0.04411300   1.008000   ; qtot -0.262098
 9315         h1    322    bbb     H4   9315 0.04411300   1.008000   ; qtot -0.217985
 9316         c3    322    bbb     C3   9316 -0.00195300  12.010000   ; qtot -0.219938
 9317         h1    322    bbb     H5   9317 0.05064400   1.008000   ; qtot -0.169294
 9318         h1    322    bbb     H6   9318 0.05064400   1.008000   ; qtot -0.118650
 9319         c3    322    bbb     C4   9319 -0.01612100  12.010000   ; qtot -0.134771
 9320         hc    322    bbb     H7   9320 0.04936100   1.008000   ; qtot -0.085410
 9321         hc    322    bbb     H8   9321 0.04936100   1.008000   ; qtot -0.036049
 9322         c3    322    bbb     C5   9322 0.11363000  12.010000   ; qtot 0.077581
 9323         hc    322    bbb     H9   9323 0.06265900   1.008000   ; qtot 0.140240
 9324         hc    322    bbb    H10   9324 0.06265900   1.008000   ; qtot 0.202899
 9325         c3    322    bbb     C6   9325 0.11363000  12.010000   ; qtot 0.316529
 9326         hc    322    bbb    H11   9326 0.06265900   1.008000   ; qtot 0.379188
 9327         hc    322    bbb    H12   9327 0.06265900   1.008000   ; qtot 0.441847
 9328         c3    322    bbb     C7   9328 0.05858200  12.010000   ; qtot 0.500429
 9329         h1    322    bbb    H13   9329 0.06123400   1.008000   ; qtot 0.561663
 9330         h1    322    bbb    H14   9330 0.06123400   1.008000   ; qtot 0.622897
 9331         c3    322    bbb     C8   9331 -0.72423400  12.010000   ; qtot -0.101337
 9332         h1    322    bbb    H15   9332 0.25637600   1.008000   ; qtot 0.155039
 9333         h1    322    bbb    H16   9333 0.25637600   1.008000   ; qtot 0.411415
 9334         c3    322    bbb     C9   9334 -0.72423400  12.010000   ; qtot -0.312819
 9335         h1    322    bbb    H17   9335 0.25637600   1.008000   ; qtot -0.056443
 9336         h1    322    bbb    H18   9336 0.25637600   1.008000   ; qtot 0.199933
 9337         os    322    bbb     O1   9337 -0.20025300  16.000000   ; qtot -0.000320
; residue  323 bbb rtp bbb q -0.0
 9338         n3    323    bbb     N1   9338 -0.59685800  14.010000   ; qtot -0.597178
 9339         c3    323    bbb     C1   9339 0.10137000  12.010000   ; qtot -0.495808
 9340         h1    323    bbb     H1   9340 0.04411300   1.008000   ; qtot -0.451695
 9341         h1    323    bbb     H2   9341 0.04411300   1.008000   ; qtot -0.407582
 9342         c3    323    bbb     C2   9342 0.10137000  12.010000   ; qtot -0.306212
 9343         h1    323    bbb     H3   9343 0.04411300   1.008000   ; qtot -0.262099
 9344         h1    323    bbb     H4   9344 0.04411300   1.008000   ; qtot -0.217986
 9345         c3    323    bbb     C3   9345 -0.00195300  12.010000   ; qtot -0.219939
 9346         h1    323    bbb     H5   9346 0.05064400   1.008000   ; qtot -0.169295
 9347         h1    323    bbb     H6   9347 0.05064400   1.008000   ; qtot -0.118651
 9348         c3    323    bbb     C4   9348 -0.01612100  12.010000   ; qtot -0.134772
 9349         hc    323    bbb     H7   9349 0.04936100   1.008000   ; qtot -0.085411
 9350         hc    323    bbb     H8   9350 0.04936100   1.008000   ; qtot -0.036050
 9351         c3    323    bbb     C5   9351 0.11363000  12.010000   ; qtot 0.077580
 9352         hc    323    bbb     H9   9352 0.06265900   1.008000   ; qtot 0.140239
 9353         hc    323    bbb    H10   9353 0.06265900   1.008000   ; qtot 0.202898
 9354         c3    323    bbb     C6   9354 0.11363000  12.010000   ; qtot 0.316528
 9355         hc    323    bbb    H11   9355 0.06265900   1.008000   ; qtot 0.379187
 9356         hc    323    bbb    H12   9356 0.06265900   1.008000   ; qtot 0.441846
 9357         c3    323    bbb     C7   9357 0.05858200  12.010000   ; qtot 0.500428
 9358         h1    323    bbb    H13   9358 0.06123400   1.008000   ; qtot 0.561662
 9359         h1    323    bbb    H14   9359 0.06123400   1.008000   ; qtot 0.622896
 9360         c3    323    bbb     C8   9360 -0.72423400  12.010000   ; qtot -0.101338
 9361         h1    323    bbb    H15   9361 0.25637600   1.008000   ; qtot 0.155038
 9362         h1    323    bbb    H16   9362 0.25637600   1.008000   ; qtot 0.411414
 9363         c3    323    bbb     C9   9363 -0.72423400  12.010000   ; qtot -0.312820
 9364         h1    323    bbb    H17   9364 0.25637600   1.008000   ; qtot -0.056444
 9365         h1    323    bbb    H18   9365 0.25637600   1.008000   ; qtot 0.199932
 9366         os    323    bbb     O1   9366 -0.20025300  16.000000   ; qtot -0.000321
; residue  324 bbb rtp bbb q -0.0
 9367         n3    324    bbb     N1   9367 -0.59685800  14.010000   ; qtot -0.597179
 9368         c3    324    bbb     C1   9368 0.10137000  12.010000   ; qtot -0.495809
 9369         h1    324    bbb     H1   9369 0.04411300   1.008000   ; qtot -0.451696
 9370         h1    324    bbb     H2   9370 0.04411300   1.008000   ; qtot -0.407583
 9371         c3    324    bbb     C2   9371 0.10137000  12.010000   ; qtot -0.306213
 9372         h1    324    bbb     H3   9372 0.04411300   1.008000   ; qtot -0.262100
 9373         h1    324    bbb     H4   9373 0.04411300   1.008000   ; qtot -0.217987
 9374         c3    324    bbb     C3   9374 -0.00195300  12.010000   ; qtot -0.219940
 9375         h1    324    bbb     H5   9375 0.05064400   1.008000   ; qtot -0.169296
 9376         h1    324    bbb     H6   9376 0.05064400   1.008000   ; qtot -0.118652
 9377         c3    324    bbb     C4   9377 -0.01612100  12.010000   ; qtot -0.134773
 9378         hc    324    bbb     H7   9378 0.04936100   1.008000   ; qtot -0.085412
 9379         hc    324    bbb     H8   9379 0.04936100   1.008000   ; qtot -0.036051
 9380         c3    324    bbb     C5   9380 0.11363000  12.010000   ; qtot 0.077579
 9381         hc    324    bbb     H9   9381 0.06265900   1.008000   ; qtot 0.140238
 9382         hc    324    bbb    H10   9382 0.06265900   1.008000   ; qtot 0.202897
 9383         c3    324    bbb     C6   9383 0.11363000  12.010000   ; qtot 0.316527
 9384         hc    324    bbb    H11   9384 0.06265900   1.008000   ; qtot 0.379186
 9385         hc    324    bbb    H12   9385 0.06265900   1.008000   ; qtot 0.441845
 9386         c3    324    bbb     C7   9386 0.05858200  12.010000   ; qtot 0.500427
 9387         h1    324    bbb    H13   9387 0.06123400   1.008000   ; qtot 0.561661
 9388         h1    324    bbb    H14   9388 0.06123400   1.008000   ; qtot 0.622895
 9389         c3    324    bbb     C8   9389 -0.72423400  12.010000   ; qtot -0.101339
 9390         h1    324    bbb    H15   9390 0.25637600   1.008000   ; qtot 0.155037
 9391         h1    324    bbb    H16   9391 0.25637600   1.008000   ; qtot 0.411413
 9392         c3    324    bbb     C9   9392 -0.72423400  12.010000   ; qtot -0.312821
 9393         h1    324    bbb    H17   9393 0.25637600   1.008000   ; qtot -0.056445
 9394         h1    324    bbb    H18   9394 0.25637600   1.008000   ; qtot 0.199931
 9395         os    324    bbb     O1   9395 -0.20025300  16.000000   ; qtot -0.000322
; residue  325 bbb rtp bbb q -0.0
 9396         n3    325    bbb     N1   9396 -0.59685800  14.010000   ; qtot -0.597180
 9397         c3    325    bbb     C1   9397 0.10137000  12.010000   ; qtot -0.495810
 9398         h1    325    bbb     H1   9398 0.04411300   1.008000   ; qtot -0.451697
 9399         h1    325    bbb     H2   9399 0.04411300   1.008000   ; qtot -0.407584
 9400         c3    325    bbb     C2   9400 0.10137000  12.010000   ; qtot -0.306214
 9401         h1    325    bbb     H3   9401 0.04411300   1.008000   ; qtot -0.262101
 9402         h1    325    bbb     H4   9402 0.04411300   1.008000   ; qtot -0.217988
 9403         c3    325    bbb     C3   9403 -0.00195300  12.010000   ; qtot -0.219941
 9404         h1    325    bbb     H5   9404 0.05064400   1.008000   ; qtot -0.169297
 9405         h1    325    bbb     H6   9405 0.05064400   1.008000   ; qtot -0.118653
 9406         c3    325    bbb     C4   9406 -0.01612100  12.010000   ; qtot -0.134774
 9407         hc    325    bbb     H7   9407 0.04936100   1.008000   ; qtot -0.085413
 9408         hc    325    bbb     H8   9408 0.04936100   1.008000   ; qtot -0.036052
 9409         c3    325    bbb     C5   9409 0.11363000  12.010000   ; qtot 0.077578
 9410         hc    325    bbb     H9   9410 0.06265900   1.008000   ; qtot 0.140237
 9411         hc    325    bbb    H10   9411 0.06265900   1.008000   ; qtot 0.202896
 9412         c3    325    bbb     C6   9412 0.11363000  12.010000   ; qtot 0.316526
 9413         hc    325    bbb    H11   9413 0.06265900   1.008000   ; qtot 0.379185
 9414         hc    325    bbb    H12   9414 0.06265900   1.008000   ; qtot 0.441844
 9415         c3    325    bbb     C7   9415 0.05858200  12.010000   ; qtot 0.500426
 9416         h1    325    bbb    H13   9416 0.06123400   1.008000   ; qtot 0.561660
 9417         h1    325    bbb    H14   9417 0.06123400   1.008000   ; qtot 0.622894
 9418         c3    325    bbb     C8   9418 -0.72423400  12.010000   ; qtot -0.101340
 9419         h1    325    bbb    H15   9419 0.25637600   1.008000   ; qtot 0.155036
 9420         h1    325    bbb    H16   9420 0.25637600   1.008000   ; qtot 0.411412
 9421         c3    325    bbb     C9   9421 -0.72423400  12.010000   ; qtot -0.312822
 9422         h1    325    bbb    H17   9422 0.25637600   1.008000   ; qtot -0.056446
 9423         h1    325    bbb    H18   9423 0.25637600   1.008000   ; qtot 0.199930
 9424         os    325    bbb     O1   9424 -0.20025300  16.000000   ; qtot -0.000323
; residue  326 bbb rtp bbb q -0.0
 9425         n3    326    bbb     N1   9425 -0.59685800  14.010000   ; qtot -0.597181
 9426         c3    326    bbb     C1   9426 0.10137000  12.010000   ; qtot -0.495811
 9427         h1    326    bbb     H1   9427 0.04411300   1.008000   ; qtot -0.451698
 9428         h1    326    bbb     H2   9428 0.04411300   1.008000   ; qtot -0.407585
 9429         c3    326    bbb     C2   9429 0.10137000  12.010000   ; qtot -0.306215
 9430         h1    326    bbb     H3   9430 0.04411300   1.008000   ; qtot -0.262102
 9431         h1    326    bbb     H4   9431 0.04411300   1.008000   ; qtot -0.217989
 9432         c3    326    bbb     C3   9432 -0.00195300  12.010000   ; qtot -0.219942
 9433         h1    326    bbb     H5   9433 0.05064400   1.008000   ; qtot -0.169298
 9434         h1    326    bbb     H6   9434 0.05064400   1.008000   ; qtot -0.118654
 9435         c3    326    bbb     C4   9435 -0.01612100  12.010000   ; qtot -0.134775
 9436         hc    326    bbb     H7   9436 0.04936100   1.008000   ; qtot -0.085414
 9437         hc    326    bbb     H8   9437 0.04936100   1.008000   ; qtot -0.036053
 9438         c3    326    bbb     C5   9438 0.11363000  12.010000   ; qtot 0.077577
 9439         hc    326    bbb     H9   9439 0.06265900   1.008000   ; qtot 0.140236
 9440         hc    326    bbb    H10   9440 0.06265900   1.008000   ; qtot 0.202895
 9441         c3    326    bbb     C6   9441 0.11363000  12.010000   ; qtot 0.316525
 9442         hc    326    bbb    H11   9442 0.06265900   1.008000   ; qtot 0.379184
 9443         hc    326    bbb    H12   9443 0.06265900   1.008000   ; qtot 0.441843
 9444         c3    326    bbb     C7   9444 0.05858200  12.010000   ; qtot 0.500425
 9445         h1    326    bbb    H13   9445 0.06123400   1.008000   ; qtot 0.561659
 9446         h1    326    bbb    H14   9446 0.06123400   1.008000   ; qtot 0.622893
 9447         c3    326    bbb     C8   9447 -0.72423400  12.010000   ; qtot -0.101341
 9448         h1    326    bbb    H15   9448 0.25637600   1.008000   ; qtot 0.155035
 9449         h1    326    bbb    H16   9449 0.25637600   1.008000   ; qtot 0.411411
 9450         c3    326    bbb     C9   9450 -0.72423400  12.010000   ; qtot -0.312823
 9451         h1    326    bbb    H17   9451 0.25637600   1.008000   ; qtot -0.056447
 9452         h1    326    bbb    H18   9452 0.25637600   1.008000   ; qtot 0.199929
 9453         os    326    bbb     O1   9453 -0.20025300  16.000000   ; qtot -0.000324
; residue  327 bbb rtp bbb q -0.0
 9454         n3    327    bbb     N1   9454 -0.59685800  14.010000   ; qtot -0.597182
 9455         c3    327    bbb     C1   9455 0.10137000  12.010000   ; qtot -0.495812
 9456         h1    327    bbb     H1   9456 0.04411300   1.008000   ; qtot -0.451699
 9457         h1    327    bbb     H2   9457 0.04411300   1.008000   ; qtot -0.407586
 9458         c3    327    bbb     C2   9458 0.10137000  12.010000   ; qtot -0.306216
 9459         h1    327    bbb     H3   9459 0.04411300   1.008000   ; qtot -0.262103
 9460         h1    327    bbb     H4   9460 0.04411300   1.008000   ; qtot -0.217990
 9461         c3    327    bbb     C3   9461 -0.00195300  12.010000   ; qtot -0.219943
 9462         h1    327    bbb     H5   9462 0.05064400   1.008000   ; qtot -0.169299
 9463         h1    327    bbb     H6   9463 0.05064400   1.008000   ; qtot -0.118655
 9464         c3    327    bbb     C4   9464 -0.01612100  12.010000   ; qtot -0.134776
 9465         hc    327    bbb     H7   9465 0.04936100   1.008000   ; qtot -0.085415
 9466         hc    327    bbb     H8   9466 0.04936100   1.008000   ; qtot -0.036054
 9467         c3    327    bbb     C5   9467 0.11363000  12.010000   ; qtot 0.077576
 9468         hc    327    bbb     H9   9468 0.06265900   1.008000   ; qtot 0.140235
 9469         hc    327    bbb    H10   9469 0.06265900   1.008000   ; qtot 0.202894
 9470         c3    327    bbb     C6   9470 0.11363000  12.010000   ; qtot 0.316524
 9471         hc    327    bbb    H11   9471 0.06265900   1.008000   ; qtot 0.379183
 9472         hc    327    bbb    H12   9472 0.06265900   1.008000   ; qtot 0.441842
 9473         c3    327    bbb     C7   9473 0.05858200  12.010000   ; qtot 0.500424
 9474         h1    327    bbb    H13   9474 0.06123400   1.008000   ; qtot 0.561658
 9475         h1    327    bbb    H14   9475 0.06123400   1.008000   ; qtot 0.622892
 9476         c3    327    bbb     C8   9476 -0.72423400  12.010000   ; qtot -0.101342
 9477         h1    327    bbb    H15   9477 0.25637600   1.008000   ; qtot 0.155034
 9478         h1    327    bbb    H16   9478 0.25637600   1.008000   ; qtot 0.411410
 9479         c3    327    bbb     C9   9479 -0.72423400  12.010000   ; qtot -0.312824
 9480         h1    327    bbb    H17   9480 0.25637600   1.008000   ; qtot -0.056448
 9481         h1    327    bbb    H18   9481 0.25637600   1.008000   ; qtot 0.199928
 9482         os    327    bbb     O1   9482 -0.20025300  16.000000   ; qtot -0.000325
; residue  328 bbb rtp bbb q -0.0
 9483         n3    328    bbb     N1   9483 -0.59685800  14.010000   ; qtot -0.597183
 9484         c3    328    bbb     C1   9484 0.10137000  12.010000   ; qtot -0.495813
 9485         h1    328    bbb     H1   9485 0.04411300   1.008000   ; qtot -0.451700
 9486         h1    328    bbb     H2   9486 0.04411300   1.008000   ; qtot -0.407587
 9487         c3    328    bbb     C2   9487 0.10137000  12.010000   ; qtot -0.306217
 9488         h1    328    bbb     H3   9488 0.04411300   1.008000   ; qtot -0.262104
 9489         h1    328    bbb     H4   9489 0.04411300   1.008000   ; qtot -0.217991
 9490         c3    328    bbb     C3   9490 -0.00195300  12.010000   ; qtot -0.219944
 9491         h1    328    bbb     H5   9491 0.05064400   1.008000   ; qtot -0.169300
 9492         h1    328    bbb     H6   9492 0.05064400   1.008000   ; qtot -0.118656
 9493         c3    328    bbb     C4   9493 -0.01612100  12.010000   ; qtot -0.134777
 9494         hc    328    bbb     H7   9494 0.04936100   1.008000   ; qtot -0.085416
 9495         hc    328    bbb     H8   9495 0.04936100   1.008000   ; qtot -0.036055
 9496         c3    328    bbb     C5   9496 0.11363000  12.010000   ; qtot 0.077575
 9497         hc    328    bbb     H9   9497 0.06265900   1.008000   ; qtot 0.140234
 9498         hc    328    bbb    H10   9498 0.06265900   1.008000   ; qtot 0.202893
 9499         c3    328    bbb     C6   9499 0.11363000  12.010000   ; qtot 0.316523
 9500         hc    328    bbb    H11   9500 0.06265900   1.008000   ; qtot 0.379182
 9501         hc    328    bbb    H12   9501 0.06265900   1.008000   ; qtot 0.441841
 9502         c3    328    bbb     C7   9502 0.05858200  12.010000   ; qtot 0.500423
 9503         h1    328    bbb    H13   9503 0.06123400   1.008000   ; qtot 0.561657
 9504         h1    328    bbb    H14   9504 0.06123400   1.008000   ; qtot 0.622891
 9505         c3    328    bbb     C8   9505 -0.72423400  12.010000   ; qtot -0.101343
 9506         h1    328    bbb    H15   9506 0.25637600   1.008000   ; qtot 0.155033
 9507         h1    328    bbb    H16   9507 0.25637600   1.008000   ; qtot 0.411409
 9508         c3    328    bbb     C9   9508 -0.72423400  12.010000   ; qtot -0.312825
 9509         h1    328    bbb    H17   9509 0.25637600   1.008000   ; qtot -0.056449
 9510         h1    328    bbb    H18   9510 0.25637600   1.008000   ; qtot 0.199927
 9511         os    328    bbb     O1   9511 -0.20025300  16.000000   ; qtot -0.000326
; residue  329 bbb rtp bbb q -0.0
 9512         n3    329    bbb     N1   9512 -0.59685800  14.010000   ; qtot -0.597184
 9513         c3    329    bbb     C1   9513 0.10137000  12.010000   ; qtot -0.495814
 9514         h1    329    bbb     H1   9514 0.04411300   1.008000   ; qtot -0.451701
 9515         h1    329    bbb     H2   9515 0.04411300   1.008000   ; qtot -0.407588
 9516         c3    329    bbb     C2   9516 0.10137000  12.010000   ; qtot -0.306218
 9517         h1    329    bbb     H3   9517 0.04411300   1.008000   ; qtot -0.262105
 9518         h1    329    bbb     H4   9518 0.04411300   1.008000   ; qtot -0.217992
 9519         c3    329    bbb     C3   9519 -0.00195300  12.010000   ; qtot -0.219945
 9520         h1    329    bbb     H5   9520 0.05064400   1.008000   ; qtot -0.169301
 9521         h1    329    bbb     H6   9521 0.05064400   1.008000   ; qtot -0.118657
 9522         c3    329    bbb     C4   9522 -0.01612100  12.010000   ; qtot -0.134778
 9523         hc    329    bbb     H7   9523 0.04936100   1.008000   ; qtot -0.085417
 9524         hc    329    bbb     H8   9524 0.04936100   1.008000   ; qtot -0.036056
 9525         c3    329    bbb     C5   9525 0.11363000  12.010000   ; qtot 0.077574
 9526         hc    329    bbb     H9   9526 0.06265900   1.008000   ; qtot 0.140233
 9527         hc    329    bbb    H10   9527 0.06265900   1.008000   ; qtot 0.202892
 9528         c3    329    bbb     C6   9528 0.11363000  12.010000   ; qtot 0.316522
 9529         hc    329    bbb    H11   9529 0.06265900   1.008000   ; qtot 0.379181
 9530         hc    329    bbb    H12   9530 0.06265900   1.008000   ; qtot 0.441840
 9531         c3    329    bbb     C7   9531 0.05858200  12.010000   ; qtot 0.500422
 9532         h1    329    bbb    H13   9532 0.06123400   1.008000   ; qtot 0.561656
 9533         h1    329    bbb    H14   9533 0.06123400   1.008000   ; qtot 0.622890
 9534         c3    329    bbb     C8   9534 -0.72423400  12.010000   ; qtot -0.101344
 9535         h1    329    bbb    H15   9535 0.25637600   1.008000   ; qtot 0.155032
 9536         h1    329    bbb    H16   9536 0.25637600   1.008000   ; qtot 0.411408
 9537         c3    329    bbb     C9   9537 -0.72423400  12.010000   ; qtot -0.312826
 9538         h1    329    bbb    H17   9538 0.25637600   1.008000   ; qtot -0.056450
 9539         h1    329    bbb    H18   9539 0.25637600   1.008000   ; qtot 0.199926
 9540         os    329    bbb     O1   9540 -0.20025300  16.000000   ; qtot -0.000327
; residue  330 bbb rtp bbb q -0.0
 9541         n3    330    bbb     N1   9541 -0.59685800  14.010000   ; qtot -0.597185
 9542         c3    330    bbb     C1   9542 0.10137000  12.010000   ; qtot -0.495815
 9543         h1    330    bbb     H1   9543 0.04411300   1.008000   ; qtot -0.451702
 9544         h1    330    bbb     H2   9544 0.04411300   1.008000   ; qtot -0.407589
 9545         c3    330    bbb     C2   9545 0.10137000  12.010000   ; qtot -0.306219
 9546         h1    330    bbb     H3   9546 0.04411300   1.008000   ; qtot -0.262106
 9547         h1    330    bbb     H4   9547 0.04411300   1.008000   ; qtot -0.217993
 9548         c3    330    bbb     C3   9548 -0.00195300  12.010000   ; qtot -0.219946
 9549         h1    330    bbb     H5   9549 0.05064400   1.008000   ; qtot -0.169302
 9550         h1    330    bbb     H6   9550 0.05064400   1.008000   ; qtot -0.118658
 9551         c3    330    bbb     C4   9551 -0.01612100  12.010000   ; qtot -0.134779
 9552         hc    330    bbb     H7   9552 0.04936100   1.008000   ; qtot -0.085418
 9553         hc    330    bbb     H8   9553 0.04936100   1.008000   ; qtot -0.036057
 9554         c3    330    bbb     C5   9554 0.11363000  12.010000   ; qtot 0.077573
 9555         hc    330    bbb     H9   9555 0.06265900   1.008000   ; qtot 0.140232
 9556         hc    330    bbb    H10   9556 0.06265900   1.008000   ; qtot 0.202891
 9557         c3    330    bbb     C6   9557 0.11363000  12.010000   ; qtot 0.316521
 9558         hc    330    bbb    H11   9558 0.06265900   1.008000   ; qtot 0.379180
 9559         hc    330    bbb    H12   9559 0.06265900   1.008000   ; qtot 0.441839
 9560         c3    330    bbb     C7   9560 0.05858200  12.010000   ; qtot 0.500421
 9561         h1    330    bbb    H13   9561 0.06123400   1.008000   ; qtot 0.561655
 9562         h1    330    bbb    H14   9562 0.06123400   1.008000   ; qtot 0.622889
 9563         c3    330    bbb     C8   9563 -0.72423400  12.010000   ; qtot -0.101345
 9564         h1    330    bbb    H15   9564 0.25637600   1.008000   ; qtot 0.155031
 9565         h1    330    bbb    H16   9565 0.25637600   1.008000   ; qtot 0.411407
 9566         c3    330    bbb     C9   9566 -0.72423400  12.010000   ; qtot -0.312827
 9567         h1    330    bbb    H17   9567 0.25637600   1.008000   ; qtot -0.056451
 9568         h1    330    bbb    H18   9568 0.25637600   1.008000   ; qtot 0.199925
 9569         os    330    bbb     O1   9569 -0.20025300  16.000000   ; qtot -0.000328
; residue  331 bbb rtp bbb q -0.0
 9570         n3    331    bbb     N1   9570 -0.59685800  14.010000   ; qtot -0.597186
 9571         c3    331    bbb     C1   9571 0.10137000  12.010000   ; qtot -0.495816
 9572         h1    331    bbb     H1   9572 0.04411300   1.008000   ; qtot -0.451703
 9573         h1    331    bbb     H2   9573 0.04411300   1.008000   ; qtot -0.407590
 9574         c3    331    bbb     C2   9574 0.10137000  12.010000   ; qtot -0.306220
 9575         h1    331    bbb     H3   9575 0.04411300   1.008000   ; qtot -0.262107
 9576         h1    331    bbb     H4   9576 0.04411300   1.008000   ; qtot -0.217994
 9577         c3    331    bbb     C3   9577 -0.00195300  12.010000   ; qtot -0.219947
 9578         h1    331    bbb     H5   9578 0.05064400   1.008000   ; qtot -0.169303
 9579         h1    331    bbb     H6   9579 0.05064400   1.008000   ; qtot -0.118659
 9580         c3    331    bbb     C4   9580 -0.01612100  12.010000   ; qtot -0.134780
 9581         hc    331    bbb     H7   9581 0.04936100   1.008000   ; qtot -0.085419
 9582         hc    331    bbb     H8   9582 0.04936100   1.008000   ; qtot -0.036058
 9583         c3    331    bbb     C5   9583 0.11363000  12.010000   ; qtot 0.077572
 9584         hc    331    bbb     H9   9584 0.06265900   1.008000   ; qtot 0.140231
 9585         hc    331    bbb    H10   9585 0.06265900   1.008000   ; qtot 0.202890
 9586         c3    331    bbb     C6   9586 0.11363000  12.010000   ; qtot 0.316520
 9587         hc    331    bbb    H11   9587 0.06265900   1.008000   ; qtot 0.379179
 9588         hc    331    bbb    H12   9588 0.06265900   1.008000   ; qtot 0.441838
 9589         c3    331    bbb     C7   9589 0.05858200  12.010000   ; qtot 0.500420
 9590         h1    331    bbb    H13   9590 0.06123400   1.008000   ; qtot 0.561654
 9591         h1    331    bbb    H14   9591 0.06123400   1.008000   ; qtot 0.622888
 9592         c3    331    bbb     C8   9592 -0.72423400  12.010000   ; qtot -0.101346
 9593         h1    331    bbb    H15   9593 0.25637600   1.008000   ; qtot 0.155030
 9594         h1    331    bbb    H16   9594 0.25637600   1.008000   ; qtot 0.411406
 9595         c3    331    bbb     C9   9595 -0.72423400  12.010000   ; qtot -0.312828
 9596         h1    331    bbb    H17   9596 0.25637600   1.008000   ; qtot -0.056452
 9597         h1    331    bbb    H18   9597 0.25637600   1.008000   ; qtot 0.199924
 9598         os    331    bbb     O1   9598 -0.20025300  16.000000   ; qtot -0.000329
; residue  332 bbb rtp bbb q -0.0
 9599         n3    332    bbb     N1   9599 -0.59685800  14.010000   ; qtot -0.597187
 9600         c3    332    bbb     C1   9600 0.10137000  12.010000   ; qtot -0.495817
 9601         h1    332    bbb     H1   9601 0.04411300   1.008000   ; qtot -0.451704
 9602         h1    332    bbb     H2   9602 0.04411300   1.008000   ; qtot -0.407591
 9603         c3    332    bbb     C2   9603 0.10137000  12.010000   ; qtot -0.306221
 9604         h1    332    bbb     H3   9604 0.04411300   1.008000   ; qtot -0.262108
 9605         h1    332    bbb     H4   9605 0.04411300   1.008000   ; qtot -0.217995
 9606         c3    332    bbb     C3   9606 -0.00195300  12.010000   ; qtot -0.219948
 9607         h1    332    bbb     H5   9607 0.05064400   1.008000   ; qtot -0.169304
 9608         h1    332    bbb     H6   9608 0.05064400   1.008000   ; qtot -0.118660
 9609         c3    332    bbb     C4   9609 -0.01612100  12.010000   ; qtot -0.134781
 9610         hc    332    bbb     H7   9610 0.04936100   1.008000   ; qtot -0.085420
 9611         hc    332    bbb     H8   9611 0.04936100   1.008000   ; qtot -0.036059
 9612         c3    332    bbb     C5   9612 0.11363000  12.010000   ; qtot 0.077571
 9613         hc    332    bbb     H9   9613 0.06265900   1.008000   ; qtot 0.140230
 9614         hc    332    bbb    H10   9614 0.06265900   1.008000   ; qtot 0.202889
 9615         c3    332    bbb     C6   9615 0.11363000  12.010000   ; qtot 0.316519
 9616         hc    332    bbb    H11   9616 0.06265900   1.008000   ; qtot 0.379178
 9617         hc    332    bbb    H12   9617 0.06265900   1.008000   ; qtot 0.441837
 9618         c3    332    bbb     C7   9618 0.05858200  12.010000   ; qtot 0.500419
 9619         h1    332    bbb    H13   9619 0.06123400   1.008000   ; qtot 0.561653
 9620         h1    332    bbb    H14   9620 0.06123400   1.008000   ; qtot 0.622887
 9621         c3    332    bbb     C8   9621 -0.72423400  12.010000   ; qtot -0.101347
 9622         h1    332    bbb    H15   9622 0.25637600   1.008000   ; qtot 0.155029
 9623         h1    332    bbb    H16   9623 0.25637600   1.008000   ; qtot 0.411405
 9624         c3    332    bbb     C9   9624 -0.72423400  12.010000   ; qtot -0.312829
 9625         h1    332    bbb    H17   9625 0.25637600   1.008000   ; qtot -0.056453
 9626         h1    332    bbb    H18   9626 0.25637600   1.008000   ; qtot 0.199923
 9627         os    332    bbb     O1   9627 -0.20025300  16.000000   ; qtot -0.000330
; residue  333 bbb rtp bbb q -0.0
 9628         n3    333    bbb     N1   9628 -0.59685800  14.010000   ; qtot -0.597188
 9629         c3    333    bbb     C1   9629 0.10137000  12.010000   ; qtot -0.495818
 9630         h1    333    bbb     H1   9630 0.04411300   1.008000   ; qtot -0.451705
 9631         h1    333    bbb     H2   9631 0.04411300   1.008000   ; qtot -0.407592
 9632         c3    333    bbb     C2   9632 0.10137000  12.010000   ; qtot -0.306222
 9633         h1    333    bbb     H3   9633 0.04411300   1.008000   ; qtot -0.262109
 9634         h1    333    bbb     H4   9634 0.04411300   1.008000   ; qtot -0.217996
 9635         c3    333    bbb     C3   9635 -0.00195300  12.010000   ; qtot -0.219949
 9636         h1    333    bbb     H5   9636 0.05064400   1.008000   ; qtot -0.169305
 9637         h1    333    bbb     H6   9637 0.05064400   1.008000   ; qtot -0.118661
 9638         c3    333    bbb     C4   9638 -0.01612100  12.010000   ; qtot -0.134782
 9639         hc    333    bbb     H7   9639 0.04936100   1.008000   ; qtot -0.085421
 9640         hc    333    bbb     H8   9640 0.04936100   1.008000   ; qtot -0.036060
 9641         c3    333    bbb     C5   9641 0.11363000  12.010000   ; qtot 0.077570
 9642         hc    333    bbb     H9   9642 0.06265900   1.008000   ; qtot 0.140229
 9643         hc    333    bbb    H10   9643 0.06265900   1.008000   ; qtot 0.202888
 9644         c3    333    bbb     C6   9644 0.11363000  12.010000   ; qtot 0.316518
 9645         hc    333    bbb    H11   9645 0.06265900   1.008000   ; qtot 0.379177
 9646         hc    333    bbb    H12   9646 0.06265900   1.008000   ; qtot 0.441836
 9647         c3    333    bbb     C7   9647 0.05858200  12.010000   ; qtot 0.500418
 9648         h1    333    bbb    H13   9648 0.06123400   1.008000   ; qtot 0.561652
 9649         h1    333    bbb    H14   9649 0.06123400   1.008000   ; qtot 0.622886
 9650         c3    333    bbb     C8   9650 -0.72423400  12.010000   ; qtot -0.101348
 9651         h1    333    bbb    H15   9651 0.25637600   1.008000   ; qtot 0.155028
 9652         h1    333    bbb    H16   9652 0.25637600   1.008000   ; qtot 0.411404
 9653         c3    333    bbb     C9   9653 -0.72423400  12.010000   ; qtot -0.312830
 9654         h1    333    bbb    H17   9654 0.25637600   1.008000   ; qtot -0.056454
 9655         h1    333    bbb    H18   9655 0.25637600   1.008000   ; qtot 0.199922
 9656         os    333    bbb     O1   9656 -0.20025300  16.000000   ; qtot -0.000331
; residue  334 bbb rtp bbb q -0.0
 9657         n3    334    bbb     N1   9657 -0.59685800  14.010000   ; qtot -0.597189
 9658         c3    334    bbb     C1   9658 0.10137000  12.010000   ; qtot -0.495819
 9659         h1    334    bbb     H1   9659 0.04411300   1.008000   ; qtot -0.451706
 9660         h1    334    bbb     H2   9660 0.04411300   1.008000   ; qtot -0.407593
 9661         c3    334    bbb     C2   9661 0.10137000  12.010000   ; qtot -0.306223
 9662         h1    334    bbb     H3   9662 0.04411300   1.008000   ; qtot -0.262110
 9663         h1    334    bbb     H4   9663 0.04411300   1.008000   ; qtot -0.217997
 9664         c3    334    bbb     C3   9664 -0.00195300  12.010000   ; qtot -0.219950
 9665         h1    334    bbb     H5   9665 0.05064400   1.008000   ; qtot -0.169306
 9666         h1    334    bbb     H6   9666 0.05064400   1.008000   ; qtot -0.118662
 9667         c3    334    bbb     C4   9667 -0.01612100  12.010000   ; qtot -0.134783
 9668         hc    334    bbb     H7   9668 0.04936100   1.008000   ; qtot -0.085422
 9669         hc    334    bbb     H8   9669 0.04936100   1.008000   ; qtot -0.036061
 9670         c3    334    bbb     C5   9670 0.11363000  12.010000   ; qtot 0.077569
 9671         hc    334    bbb     H9   9671 0.06265900   1.008000   ; qtot 0.140228
 9672         hc    334    bbb    H10   9672 0.06265900   1.008000   ; qtot 0.202887
 9673         c3    334    bbb     C6   9673 0.11363000  12.010000   ; qtot 0.316517
 9674         hc    334    bbb    H11   9674 0.06265900   1.008000   ; qtot 0.379176
 9675         hc    334    bbb    H12   9675 0.06265900   1.008000   ; qtot 0.441835
 9676         c3    334    bbb     C7   9676 0.05858200  12.010000   ; qtot 0.500417
 9677         h1    334    bbb    H13   9677 0.06123400   1.008000   ; qtot 0.561651
 9678         h1    334    bbb    H14   9678 0.06123400   1.008000   ; qtot 0.622885
 9679         c3    334    bbb     C8   9679 -0.72423400  12.010000   ; qtot -0.101349
 9680         h1    334    bbb    H15   9680 0.25637600   1.008000   ; qtot 0.155027
 9681         h1    334    bbb    H16   9681 0.25637600   1.008000   ; qtot 0.411403
 9682         c3    334    bbb     C9   9682 -0.72423400  12.010000   ; qtot -0.312831
 9683         h1    334    bbb    H17   9683 0.25637600   1.008000   ; qtot -0.056455
 9684         h1    334    bbb    H18   9684 0.25637600   1.008000   ; qtot 0.199921
 9685         os    334    bbb     O1   9685 -0.20025300  16.000000   ; qtot -0.000332
; residue  335 bbb rtp bbb q -0.0
 9686         n3    335    bbb     N1   9686 -0.59685800  14.010000   ; qtot -0.597190
 9687         c3    335    bbb     C1   9687 0.10137000  12.010000   ; qtot -0.495820
 9688         h1    335    bbb     H1   9688 0.04411300   1.008000   ; qtot -0.451707
 9689         h1    335    bbb     H2   9689 0.04411300   1.008000   ; qtot -0.407594
 9690         c3    335    bbb     C2   9690 0.10137000  12.010000   ; qtot -0.306224
 9691         h1    335    bbb     H3   9691 0.04411300   1.008000   ; qtot -0.262111
 9692         h1    335    bbb     H4   9692 0.04411300   1.008000   ; qtot -0.217998
 9693         c3    335    bbb     C3   9693 -0.00195300  12.010000   ; qtot -0.219951
 9694         h1    335    bbb     H5   9694 0.05064400   1.008000   ; qtot -0.169307
 9695         h1    335    bbb     H6   9695 0.05064400   1.008000   ; qtot -0.118663
 9696         c3    335    bbb     C4   9696 -0.01612100  12.010000   ; qtot -0.134784
 9697         hc    335    bbb     H7   9697 0.04936100   1.008000   ; qtot -0.085423
 9698         hc    335    bbb     H8   9698 0.04936100   1.008000   ; qtot -0.036062
 9699         c3    335    bbb     C5   9699 0.11363000  12.010000   ; qtot 0.077568
 9700         hc    335    bbb     H9   9700 0.06265900   1.008000   ; qtot 0.140227
 9701         hc    335    bbb    H10   9701 0.06265900   1.008000   ; qtot 0.202886
 9702         c3    335    bbb     C6   9702 0.11363000  12.010000   ; qtot 0.316516
 9703         hc    335    bbb    H11   9703 0.06265900   1.008000   ; qtot 0.379175
 9704         hc    335    bbb    H12   9704 0.06265900   1.008000   ; qtot 0.441834
 9705         c3    335    bbb     C7   9705 0.05858200  12.010000   ; qtot 0.500416
 9706         h1    335    bbb    H13   9706 0.06123400   1.008000   ; qtot 0.561650
 9707         h1    335    bbb    H14   9707 0.06123400   1.008000   ; qtot 0.622884
 9708         c3    335    bbb     C8   9708 -0.72423400  12.010000   ; qtot -0.101350
 9709         h1    335    bbb    H15   9709 0.25637600   1.008000   ; qtot 0.155026
 9710         h1    335    bbb    H16   9710 0.25637600   1.008000   ; qtot 0.411402
 9711         c3    335    bbb     C9   9711 -0.72423400  12.010000   ; qtot -0.312832
 9712         h1    335    bbb    H17   9712 0.25637600   1.008000   ; qtot -0.056456
 9713         h1    335    bbb    H18   9713 0.25637600   1.008000   ; qtot 0.199920
 9714         os    335    bbb     O1   9714 -0.20025300  16.000000   ; qtot -0.000333
; residue  336 bbb rtp bbb q -0.0
 9715         n3    336    bbb     N1   9715 -0.59685800  14.010000   ; qtot -0.597191
 9716         c3    336    bbb     C1   9716 0.10137000  12.010000   ; qtot -0.495821
 9717         h1    336    bbb     H1   9717 0.04411300   1.008000   ; qtot -0.451708
 9718         h1    336    bbb     H2   9718 0.04411300   1.008000   ; qtot -0.407595
 9719         c3    336    bbb     C2   9719 0.10137000  12.010000   ; qtot -0.306225
 9720         h1    336    bbb     H3   9720 0.04411300   1.008000   ; qtot -0.262112
 9721         h1    336    bbb     H4   9721 0.04411300   1.008000   ; qtot -0.217999
 9722         c3    336    bbb     C3   9722 -0.00195300  12.010000   ; qtot -0.219952
 9723         h1    336    bbb     H5   9723 0.05064400   1.008000   ; qtot -0.169308
 9724         h1    336    bbb     H6   9724 0.05064400   1.008000   ; qtot -0.118664
 9725         c3    336    bbb     C4   9725 -0.01612100  12.010000   ; qtot -0.134785
 9726         hc    336    bbb     H7   9726 0.04936100   1.008000   ; qtot -0.085424
 9727         hc    336    bbb     H8   9727 0.04936100   1.008000   ; qtot -0.036063
 9728         c3    336    bbb     C5   9728 0.11363000  12.010000   ; qtot 0.077567
 9729         hc    336    bbb     H9   9729 0.06265900   1.008000   ; qtot 0.140226
 9730         hc    336    bbb    H10   9730 0.06265900   1.008000   ; qtot 0.202885
 9731         c3    336    bbb     C6   9731 0.11363000  12.010000   ; qtot 0.316515
 9732         hc    336    bbb    H11   9732 0.06265900   1.008000   ; qtot 0.379174
 9733         hc    336    bbb    H12   9733 0.06265900   1.008000   ; qtot 0.441833
 9734         c3    336    bbb     C7   9734 0.05858200  12.010000   ; qtot 0.500415
 9735         h1    336    bbb    H13   9735 0.06123400   1.008000   ; qtot 0.561649
 9736         h1    336    bbb    H14   9736 0.06123400   1.008000   ; qtot 0.622883
 9737         c3    336    bbb     C8   9737 -0.72423400  12.010000   ; qtot -0.101351
 9738         h1    336    bbb    H15   9738 0.25637600   1.008000   ; qtot 0.155025
 9739         h1    336    bbb    H16   9739 0.25637600   1.008000   ; qtot 0.411401
 9740         c3    336    bbb     C9   9740 -0.72423400  12.010000   ; qtot -0.312833
 9741         h1    336    bbb    H17   9741 0.25637600   1.008000   ; qtot -0.056457
 9742         h1    336    bbb    H18   9742 0.25637600   1.008000   ; qtot 0.199919
 9743         os    336    bbb     O1   9743 -0.20025300  16.000000   ; qtot -0.000334
; residue  337 bbb rtp bbb q -0.0
 9744         n3    337    bbb     N1   9744 -0.59685800  14.010000   ; qtot -0.597192
 9745         c3    337    bbb     C1   9745 0.10137000  12.010000   ; qtot -0.495822
 9746         h1    337    bbb     H1   9746 0.04411300   1.008000   ; qtot -0.451709
 9747         h1    337    bbb     H2   9747 0.04411300   1.008000   ; qtot -0.407596
 9748         c3    337    bbb     C2   9748 0.10137000  12.010000   ; qtot -0.306226
 9749         h1    337    bbb     H3   9749 0.04411300   1.008000   ; qtot -0.262113
 9750         h1    337    bbb     H4   9750 0.04411300   1.008000   ; qtot -0.218000
 9751         c3    337    bbb     C3   9751 -0.00195300  12.010000   ; qtot -0.219953
 9752         h1    337    bbb     H5   9752 0.05064400   1.008000   ; qtot -0.169309
 9753         h1    337    bbb     H6   9753 0.05064400   1.008000   ; qtot -0.118665
 9754         c3    337    bbb     C4   9754 -0.01612100  12.010000   ; qtot -0.134786
 9755         hc    337    bbb     H7   9755 0.04936100   1.008000   ; qtot -0.085425
 9756         hc    337    bbb     H8   9756 0.04936100   1.008000   ; qtot -0.036064
 9757         c3    337    bbb     C5   9757 0.11363000  12.010000   ; qtot 0.077566
 9758         hc    337    bbb     H9   9758 0.06265900   1.008000   ; qtot 0.140225
 9759         hc    337    bbb    H10   9759 0.06265900   1.008000   ; qtot 0.202884
 9760         c3    337    bbb     C6   9760 0.11363000  12.010000   ; qtot 0.316514
 9761         hc    337    bbb    H11   9761 0.06265900   1.008000   ; qtot 0.379173
 9762         hc    337    bbb    H12   9762 0.06265900   1.008000   ; qtot 0.441832
 9763         c3    337    bbb     C7   9763 0.05858200  12.010000   ; qtot 0.500414
 9764         h1    337    bbb    H13   9764 0.06123400   1.008000   ; qtot 0.561648
 9765         h1    337    bbb    H14   9765 0.06123400   1.008000   ; qtot 0.622882
 9766         c3    337    bbb     C8   9766 -0.72423400  12.010000   ; qtot -0.101352
 9767         h1    337    bbb    H15   9767 0.25637600   1.008000   ; qtot 0.155024
 9768         h1    337    bbb    H16   9768 0.25637600   1.008000   ; qtot 0.411400
 9769         c3    337    bbb     C9   9769 -0.72423400  12.010000   ; qtot -0.312834
 9770         h1    337    bbb    H17   9770 0.25637600   1.008000   ; qtot -0.056458
 9771         h1    337    bbb    H18   9771 0.25637600   1.008000   ; qtot 0.199918
 9772         os    337    bbb     O1   9772 -0.20025300  16.000000   ; qtot -0.000335
; residue  338 bbb rtp bbb q -0.0
 9773         n3    338    bbb     N1   9773 -0.59685800  14.010000   ; qtot -0.597193
 9774         c3    338    bbb     C1   9774 0.10137000  12.010000   ; qtot -0.495823
 9775         h1    338    bbb     H1   9775 0.04411300   1.008000   ; qtot -0.451710
 9776         h1    338    bbb     H2   9776 0.04411300   1.008000   ; qtot -0.407597
 9777         c3    338    bbb     C2   9777 0.10137000  12.010000   ; qtot -0.306227
 9778         h1    338    bbb     H3   9778 0.04411300   1.008000   ; qtot -0.262114
 9779         h1    338    bbb     H4   9779 0.04411300   1.008000   ; qtot -0.218001
 9780         c3    338    bbb     C3   9780 -0.00195300  12.010000   ; qtot -0.219954
 9781         h1    338    bbb     H5   9781 0.05064400   1.008000   ; qtot -0.169310
 9782         h1    338    bbb     H6   9782 0.05064400   1.008000   ; qtot -0.118666
 9783         c3    338    bbb     C4   9783 -0.01612100  12.010000   ; qtot -0.134787
 9784         hc    338    bbb     H7   9784 0.04936100   1.008000   ; qtot -0.085426
 9785         hc    338    bbb     H8   9785 0.04936100   1.008000   ; qtot -0.036065
 9786         c3    338    bbb     C5   9786 0.11363000  12.010000   ; qtot 0.077565
 9787         hc    338    bbb     H9   9787 0.06265900   1.008000   ; qtot 0.140224
 9788         hc    338    bbb    H10   9788 0.06265900   1.008000   ; qtot 0.202883
 9789         c3    338    bbb     C6   9789 0.11363000  12.010000   ; qtot 0.316513
 9790         hc    338    bbb    H11   9790 0.06265900   1.008000   ; qtot 0.379172
 9791         hc    338    bbb    H12   9791 0.06265900   1.008000   ; qtot 0.441831
 9792         c3    338    bbb     C7   9792 0.05858200  12.010000   ; qtot 0.500413
 9793         h1    338    bbb    H13   9793 0.06123400   1.008000   ; qtot 0.561647
 9794         h1    338    bbb    H14   9794 0.06123400   1.008000   ; qtot 0.622881
 9795         c3    338    bbb     C8   9795 -0.72423400  12.010000   ; qtot -0.101353
 9796         h1    338    bbb    H15   9796 0.25637600   1.008000   ; qtot 0.155023
 9797         h1    338    bbb    H16   9797 0.25637600   1.008000   ; qtot 0.411399
 9798         c3    338    bbb     C9   9798 -0.72423400  12.010000   ; qtot -0.312835
 9799         h1    338    bbb    H17   9799 0.25637600   1.008000   ; qtot -0.056459
 9800         h1    338    bbb    H18   9800 0.25637600   1.008000   ; qtot 0.199917
 9801         os    338    bbb     O1   9801 -0.20025300  16.000000   ; qtot -0.000336
; residue  339 bbb rtp bbb q -0.0
 9802         n3    339    bbb     N1   9802 -0.59685800  14.010000   ; qtot -0.597194
 9803         c3    339    bbb     C1   9803 0.10137000  12.010000   ; qtot -0.495824
 9804         h1    339    bbb     H1   9804 0.04411300   1.008000   ; qtot -0.451711
 9805         h1    339    bbb     H2   9805 0.04411300   1.008000   ; qtot -0.407598
 9806         c3    339    bbb     C2   9806 0.10137000  12.010000   ; qtot -0.306228
 9807         h1    339    bbb     H3   9807 0.04411300   1.008000   ; qtot -0.262115
 9808         h1    339    bbb     H4   9808 0.04411300   1.008000   ; qtot -0.218002
 9809         c3    339    bbb     C3   9809 -0.00195300  12.010000   ; qtot -0.219955
 9810         h1    339    bbb     H5   9810 0.05064400   1.008000   ; qtot -0.169311
 9811         h1    339    bbb     H6   9811 0.05064400   1.008000   ; qtot -0.118667
 9812         c3    339    bbb     C4   9812 -0.01612100  12.010000   ; qtot -0.134788
 9813         hc    339    bbb     H7   9813 0.04936100   1.008000   ; qtot -0.085427
 9814         hc    339    bbb     H8   9814 0.04936100   1.008000   ; qtot -0.036066
 9815         c3    339    bbb     C5   9815 0.11363000  12.010000   ; qtot 0.077564
 9816         hc    339    bbb     H9   9816 0.06265900   1.008000   ; qtot 0.140223
 9817         hc    339    bbb    H10   9817 0.06265900   1.008000   ; qtot 0.202882
 9818         c3    339    bbb     C6   9818 0.11363000  12.010000   ; qtot 0.316512
 9819         hc    339    bbb    H11   9819 0.06265900   1.008000   ; qtot 0.379171
 9820         hc    339    bbb    H12   9820 0.06265900   1.008000   ; qtot 0.441830
 9821         c3    339    bbb     C7   9821 0.05858200  12.010000   ; qtot 0.500412
 9822         h1    339    bbb    H13   9822 0.06123400   1.008000   ; qtot 0.561646
 9823         h1    339    bbb    H14   9823 0.06123400   1.008000   ; qtot 0.622880
 9824         c3    339    bbb     C8   9824 -0.72423400  12.010000   ; qtot -0.101354
 9825         h1    339    bbb    H15   9825 0.25637600   1.008000   ; qtot 0.155022
 9826         h1    339    bbb    H16   9826 0.25637600   1.008000   ; qtot 0.411398
 9827         c3    339    bbb     C9   9827 -0.72423400  12.010000   ; qtot -0.312836
 9828         h1    339    bbb    H17   9828 0.25637600   1.008000   ; qtot -0.056460
 9829         h1    339    bbb    H18   9829 0.25637600   1.008000   ; qtot 0.199916
 9830         os    339    bbb     O1   9830 -0.20025300  16.000000   ; qtot -0.000337
; residue  340 bbb rtp bbb q -0.0
 9831         n3    340    bbb     N1   9831 -0.59685800  14.010000   ; qtot -0.597195
 9832         c3    340    bbb     C1   9832 0.10137000  12.010000   ; qtot -0.495825
 9833         h1    340    bbb     H1   9833 0.04411300   1.008000   ; qtot -0.451712
 9834         h1    340    bbb     H2   9834 0.04411300   1.008000   ; qtot -0.407599
 9835         c3    340    bbb     C2   9835 0.10137000  12.010000   ; qtot -0.306229
 9836         h1    340    bbb     H3   9836 0.04411300   1.008000   ; qtot -0.262116
 9837         h1    340    bbb     H4   9837 0.04411300   1.008000   ; qtot -0.218003
 9838         c3    340    bbb     C3   9838 -0.00195300  12.010000   ; qtot -0.219956
 9839         h1    340    bbb     H5   9839 0.05064400   1.008000   ; qtot -0.169312
 9840         h1    340    bbb     H6   9840 0.05064400   1.008000   ; qtot -0.118668
 9841         c3    340    bbb     C4   9841 -0.01612100  12.010000   ; qtot -0.134789
 9842         hc    340    bbb     H7   9842 0.04936100   1.008000   ; qtot -0.085428
 9843         hc    340    bbb     H8   9843 0.04936100   1.008000   ; qtot -0.036067
 9844         c3    340    bbb     C5   9844 0.11363000  12.010000   ; qtot 0.077563
 9845         hc    340    bbb     H9   9845 0.06265900   1.008000   ; qtot 0.140222
 9846         hc    340    bbb    H10   9846 0.06265900   1.008000   ; qtot 0.202881
 9847         c3    340    bbb     C6   9847 0.11363000  12.010000   ; qtot 0.316511
 9848         hc    340    bbb    H11   9848 0.06265900   1.008000   ; qtot 0.379170
 9849         hc    340    bbb    H12   9849 0.06265900   1.008000   ; qtot 0.441829
 9850         c3    340    bbb     C7   9850 0.05858200  12.010000   ; qtot 0.500411
 9851         h1    340    bbb    H13   9851 0.06123400   1.008000   ; qtot 0.561645
 9852         h1    340    bbb    H14   9852 0.06123400   1.008000   ; qtot 0.622879
 9853         c3    340    bbb     C8   9853 -0.72423400  12.010000   ; qtot -0.101355
 9854         h1    340    bbb    H15   9854 0.25637600   1.008000   ; qtot 0.155021
 9855         h1    340    bbb    H16   9855 0.25637600   1.008000   ; qtot 0.411397
 9856         c3    340    bbb     C9   9856 -0.72423400  12.010000   ; qtot -0.312837
 9857         h1    340    bbb    H17   9857 0.25637600   1.008000   ; qtot -0.056461
 9858         h1    340    bbb    H18   9858 0.25637600   1.008000   ; qtot 0.199915
 9859         os    340    bbb     O1   9859 -0.20025300  16.000000   ; qtot -0.000338
; residue  341 bbb rtp bbb q -0.0
 9860         n3    341    bbb     N1   9860 -0.59685800  14.010000   ; qtot -0.597196
 9861         c3    341    bbb     C1   9861 0.10137000  12.010000   ; qtot -0.495826
 9862         h1    341    bbb     H1   9862 0.04411300   1.008000   ; qtot -0.451713
 9863         h1    341    bbb     H2   9863 0.04411300   1.008000   ; qtot -0.407600
 9864         c3    341    bbb     C2   9864 0.10137000  12.010000   ; qtot -0.306230
 9865         h1    341    bbb     H3   9865 0.04411300   1.008000   ; qtot -0.262117
 9866         h1    341    bbb     H4   9866 0.04411300   1.008000   ; qtot -0.218004
 9867         c3    341    bbb     C3   9867 -0.00195300  12.010000   ; qtot -0.219957
 9868         h1    341    bbb     H5   9868 0.05064400   1.008000   ; qtot -0.169313
 9869         h1    341    bbb     H6   9869 0.05064400   1.008000   ; qtot -0.118669
 9870         c3    341    bbb     C4   9870 -0.01612100  12.010000   ; qtot -0.134790
 9871         hc    341    bbb     H7   9871 0.04936100   1.008000   ; qtot -0.085429
 9872         hc    341    bbb     H8   9872 0.04936100   1.008000   ; qtot -0.036068
 9873         c3    341    bbb     C5   9873 0.11363000  12.010000   ; qtot 0.077562
 9874         hc    341    bbb     H9   9874 0.06265900   1.008000   ; qtot 0.140221
 9875         hc    341    bbb    H10   9875 0.06265900   1.008000   ; qtot 0.202880
 9876         c3    341    bbb     C6   9876 0.11363000  12.010000   ; qtot 0.316510
 9877         hc    341    bbb    H11   9877 0.06265900   1.008000   ; qtot 0.379169
 9878         hc    341    bbb    H12   9878 0.06265900   1.008000   ; qtot 0.441828
 9879         c3    341    bbb     C7   9879 0.05858200  12.010000   ; qtot 0.500410
 9880         h1    341    bbb    H13   9880 0.06123400   1.008000   ; qtot 0.561644
 9881         h1    341    bbb    H14   9881 0.06123400   1.008000   ; qtot 0.622878
 9882         c3    341    bbb     C8   9882 -0.72423400  12.010000   ; qtot -0.101356
 9883         h1    341    bbb    H15   9883 0.25637600   1.008000   ; qtot 0.155020
 9884         h1    341    bbb    H16   9884 0.25637600   1.008000   ; qtot 0.411396
 9885         c3    341    bbb     C9   9885 -0.72423400  12.010000   ; qtot -0.312838
 9886         h1    341    bbb    H17   9886 0.25637600   1.008000   ; qtot -0.056462
 9887         h1    341    bbb    H18   9887 0.25637600   1.008000   ; qtot 0.199914
 9888         os    341    bbb     O1   9888 -0.20025300  16.000000   ; qtot -0.000339
; residue  342 bbb rtp bbb q -0.0
 9889         n3    342    bbb     N1   9889 -0.59685800  14.010000   ; qtot -0.597197
 9890         c3    342    bbb     C1   9890 0.10137000  12.010000   ; qtot -0.495827
 9891         h1    342    bbb     H1   9891 0.04411300   1.008000   ; qtot -0.451714
 9892         h1    342    bbb     H2   9892 0.04411300   1.008000   ; qtot -0.407601
 9893         c3    342    bbb     C2   9893 0.10137000  12.010000   ; qtot -0.306231
 9894         h1    342    bbb     H3   9894 0.04411300   1.008000   ; qtot -0.262118
 9895         h1    342    bbb     H4   9895 0.04411300   1.008000   ; qtot -0.218005
 9896         c3    342    bbb     C3   9896 -0.00195300  12.010000   ; qtot -0.219958
 9897         h1    342    bbb     H5   9897 0.05064400   1.008000   ; qtot -0.169314
 9898         h1    342    bbb     H6   9898 0.05064400   1.008000   ; qtot -0.118670
 9899         c3    342    bbb     C4   9899 -0.01612100  12.010000   ; qtot -0.134791
 9900         hc    342    bbb     H7   9900 0.04936100   1.008000   ; qtot -0.085430
 9901         hc    342    bbb     H8   9901 0.04936100   1.008000   ; qtot -0.036069
 9902         c3    342    bbb     C5   9902 0.11363000  12.010000   ; qtot 0.077561
 9903         hc    342    bbb     H9   9903 0.06265900   1.008000   ; qtot 0.140220
 9904         hc    342    bbb    H10   9904 0.06265900   1.008000   ; qtot 0.202879
 9905         c3    342    bbb     C6   9905 0.11363000  12.010000   ; qtot 0.316509
 9906         hc    342    bbb    H11   9906 0.06265900   1.008000   ; qtot 0.379168
 9907         hc    342    bbb    H12   9907 0.06265900   1.008000   ; qtot 0.441827
 9908         c3    342    bbb     C7   9908 0.05858200  12.010000   ; qtot 0.500409
 9909         h1    342    bbb    H13   9909 0.06123400   1.008000   ; qtot 0.561643
 9910         h1    342    bbb    H14   9910 0.06123400   1.008000   ; qtot 0.622877
 9911         c3    342    bbb     C8   9911 -0.72423400  12.010000   ; qtot -0.101357
 9912         h1    342    bbb    H15   9912 0.25637600   1.008000   ; qtot 0.155019
 9913         h1    342    bbb    H16   9913 0.25637600   1.008000   ; qtot 0.411395
 9914         c3    342    bbb     C9   9914 -0.72423400  12.010000   ; qtot -0.312839
 9915         h1    342    bbb    H17   9915 0.25637600   1.008000   ; qtot -0.056463
 9916         h1    342    bbb    H18   9916 0.25637600   1.008000   ; qtot 0.199913
 9917         os    342    bbb     O1   9917 -0.20025300  16.000000   ; qtot -0.000340
; residue  343 bbb rtp bbb q -0.0
 9918         n3    343    bbb     N1   9918 -0.59685800  14.010000   ; qtot -0.597198
 9919         c3    343    bbb     C1   9919 0.10137000  12.010000   ; qtot -0.495828
 9920         h1    343    bbb     H1   9920 0.04411300   1.008000   ; qtot -0.451715
 9921         h1    343    bbb     H2   9921 0.04411300   1.008000   ; qtot -0.407602
 9922         c3    343    bbb     C2   9922 0.10137000  12.010000   ; qtot -0.306232
 9923         h1    343    bbb     H3   9923 0.04411300   1.008000   ; qtot -0.262119
 9924         h1    343    bbb     H4   9924 0.04411300   1.008000   ; qtot -0.218006
 9925         c3    343    bbb     C3   9925 -0.00195300  12.010000   ; qtot -0.219959
 9926         h1    343    bbb     H5   9926 0.05064400   1.008000   ; qtot -0.169315
 9927         h1    343    bbb     H6   9927 0.05064400   1.008000   ; qtot -0.118671
 9928         c3    343    bbb     C4   9928 -0.01612100  12.010000   ; qtot -0.134792
 9929         hc    343    bbb     H7   9929 0.04936100   1.008000   ; qtot -0.085431
 9930         hc    343    bbb     H8   9930 0.04936100   1.008000   ; qtot -0.036070
 9931         c3    343    bbb     C5   9931 0.11363000  12.010000   ; qtot 0.077560
 9932         hc    343    bbb     H9   9932 0.06265900   1.008000   ; qtot 0.140219
 9933         hc    343    bbb    H10   9933 0.06265900   1.008000   ; qtot 0.202878
 9934         c3    343    bbb     C6   9934 0.11363000  12.010000   ; qtot 0.316508
 9935         hc    343    bbb    H11   9935 0.06265900   1.008000   ; qtot 0.379167
 9936         hc    343    bbb    H12   9936 0.06265900   1.008000   ; qtot 0.441826
 9937         c3    343    bbb     C7   9937 0.05858200  12.010000   ; qtot 0.500408
 9938         h1    343    bbb    H13   9938 0.06123400   1.008000   ; qtot 0.561642
 9939         h1    343    bbb    H14   9939 0.06123400   1.008000   ; qtot 0.622876
 9940         c3    343    bbb     C8   9940 -0.72423400  12.010000   ; qtot -0.101358
 9941         h1    343    bbb    H15   9941 0.25637600   1.008000   ; qtot 0.155018
 9942         h1    343    bbb    H16   9942 0.25637600   1.008000   ; qtot 0.411394
 9943         c3    343    bbb     C9   9943 -0.72423400  12.010000   ; qtot -0.312840
 9944         h1    343    bbb    H17   9944 0.25637600   1.008000   ; qtot -0.056464
 9945         h1    343    bbb    H18   9945 0.25637600   1.008000   ; qtot 0.199912
 9946         os    343    bbb     O1   9946 -0.20025300  16.000000   ; qtot -0.000341
; residue  344 bbb rtp bbb q -0.0
 9947         n3    344    bbb     N1   9947 -0.59685800  14.010000   ; qtot -0.597199
 9948         c3    344    bbb     C1   9948 0.10137000  12.010000   ; qtot -0.495829
 9949         h1    344    bbb     H1   9949 0.04411300   1.008000   ; qtot -0.451716
 9950         h1    344    bbb     H2   9950 0.04411300   1.008000   ; qtot -0.407603
 9951         c3    344    bbb     C2   9951 0.10137000  12.010000   ; qtot -0.306233
 9952         h1    344    bbb     H3   9952 0.04411300   1.008000   ; qtot -0.262120
 9953         h1    344    bbb     H4   9953 0.04411300   1.008000   ; qtot -0.218007
 9954         c3    344    bbb     C3   9954 -0.00195300  12.010000   ; qtot -0.219960
 9955         h1    344    bbb     H5   9955 0.05064400   1.008000   ; qtot -0.169316
 9956         h1    344    bbb     H6   9956 0.05064400   1.008000   ; qtot -0.118672
 9957         c3    344    bbb     C4   9957 -0.01612100  12.010000   ; qtot -0.134793
 9958         hc    344    bbb     H7   9958 0.04936100   1.008000   ; qtot -0.085432
 9959         hc    344    bbb     H8   9959 0.04936100   1.008000   ; qtot -0.036071
 9960         c3    344    bbb     C5   9960 0.11363000  12.010000   ; qtot 0.077559
 9961         hc    344    bbb     H9   9961 0.06265900   1.008000   ; qtot 0.140218
 9962         hc    344    bbb    H10   9962 0.06265900   1.008000   ; qtot 0.202877
 9963         c3    344    bbb     C6   9963 0.11363000  12.010000   ; qtot 0.316507
 9964         hc    344    bbb    H11   9964 0.06265900   1.008000   ; qtot 0.379166
 9965         hc    344    bbb    H12   9965 0.06265900   1.008000   ; qtot 0.441825
 9966         c3    344    bbb     C7   9966 0.05858200  12.010000   ; qtot 0.500407
 9967         h1    344    bbb    H13   9967 0.06123400   1.008000   ; qtot 0.561641
 9968         h1    344    bbb    H14   9968 0.06123400   1.008000   ; qtot 0.622875
 9969         c3    344    bbb     C8   9969 -0.72423400  12.010000   ; qtot -0.101359
 9970         h1    344    bbb    H15   9970 0.25637600   1.008000   ; qtot 0.155017
 9971         h1    344    bbb    H16   9971 0.25637600   1.008000   ; qtot 0.411393
 9972         c3    344    bbb     C9   9972 -0.72423400  12.010000   ; qtot -0.312841
 9973         h1    344    bbb    H17   9973 0.25637600   1.008000   ; qtot -0.056465
 9974         h1    344    bbb    H18   9974 0.25637600   1.008000   ; qtot 0.199911
 9975         os    344    bbb     O1   9975 -0.20025300  16.000000   ; qtot -0.000342
; residue  345 bbb rtp bbb q -0.0
 9976         n3    345    bbb     N1   9976 -0.59685800  14.010000   ; qtot -0.597200
 9977         c3    345    bbb     C1   9977 0.10137000  12.010000   ; qtot -0.495830
 9978         h1    345    bbb     H1   9978 0.04411300   1.008000   ; qtot -0.451717
 9979         h1    345    bbb     H2   9979 0.04411300   1.008000   ; qtot -0.407604
 9980         c3    345    bbb     C2   9980 0.10137000  12.010000   ; qtot -0.306234
 9981         h1    345    bbb     H3   9981 0.04411300   1.008000   ; qtot -0.262121
 9982         h1    345    bbb     H4   9982 0.04411300   1.008000   ; qtot -0.218008
 9983         c3    345    bbb     C3   9983 -0.00195300  12.010000   ; qtot -0.219961
 9984         h1    345    bbb     H5   9984 0.05064400   1.008000   ; qtot -0.169317
 9985         h1    345    bbb     H6   9985 0.05064400   1.008000   ; qtot -0.118673
 9986         c3    345    bbb     C4   9986 -0.01612100  12.010000   ; qtot -0.134794
 9987         hc    345    bbb     H7   9987 0.04936100   1.008000   ; qtot -0.085433
 9988         hc    345    bbb     H8   9988 0.04936100   1.008000   ; qtot -0.036072
 9989         c3    345    bbb     C5   9989 0.11363000  12.010000   ; qtot 0.077558
 9990         hc    345    bbb     H9   9990 0.06265900   1.008000   ; qtot 0.140217
 9991         hc    345    bbb    H10   9991 0.06265900   1.008000   ; qtot 0.202876
 9992         c3    345    bbb     C6   9992 0.11363000  12.010000   ; qtot 0.316506
 9993         hc    345    bbb    H11   9993 0.06265900   1.008000   ; qtot 0.379165
 9994         hc    345    bbb    H12   9994 0.06265900   1.008000   ; qtot 0.441824
 9995         c3    345    bbb     C7   9995 0.05858200  12.010000   ; qtot 0.500406
 9996         h1    345    bbb    H13   9996 0.06123400   1.008000   ; qtot 0.561640
 9997         h1    345    bbb    H14   9997 0.06123400   1.008000   ; qtot 0.622874
 9998         c3    345    bbb     C8   9998 -0.72423400  12.010000   ; qtot -0.101360
 9999         h1    345    bbb    H15   9999 0.25637600   1.008000   ; qtot 0.155016
10000         h1    345    bbb    H16  10000 0.25637600   1.008000   ; qtot 0.411392
10001         c3    345    bbb     C9  10001 -0.72423400  12.010000   ; qtot -0.312842
10002         h1    345    bbb    H17  10002 0.25637600   1.008000   ; qtot -0.056466
10003         h1    345    bbb    H18  10003 0.25637600   1.008000   ; qtot 0.199910
10004         os    345    bbb     O1  10004 -0.20025300  16.000000   ; qtot -0.000343
; residue  346 bbb rtp bbb q -0.0
10005         n3    346    bbb     N1  10005 -0.59685800  14.010000   ; qtot -0.597201
10006         c3    346    bbb     C1  10006 0.10137000  12.010000   ; qtot -0.495831
10007         h1    346    bbb     H1  10007 0.04411300   1.008000   ; qtot -0.451718
10008         h1    346    bbb     H2  10008 0.04411300   1.008000   ; qtot -0.407605
10009         c3    346    bbb     C2  10009 0.10137000  12.010000   ; qtot -0.306235
10010         h1    346    bbb     H3  10010 0.04411300   1.008000   ; qtot -0.262122
10011         h1    346    bbb     H4  10011 0.04411300   1.008000   ; qtot -0.218009
10012         c3    346    bbb     C3  10012 -0.00195300  12.010000   ; qtot -0.219962
10013         h1    346    bbb     H5  10013 0.05064400   1.008000   ; qtot -0.169318
10014         h1    346    bbb     H6  10014 0.05064400   1.008000   ; qtot -0.118674
10015         c3    346    bbb     C4  10015 -0.01612100  12.010000   ; qtot -0.134795
10016         hc    346    bbb     H7  10016 0.04936100   1.008000   ; qtot -0.085434
10017         hc    346    bbb     H8  10017 0.04936100   1.008000   ; qtot -0.036073
10018         c3    346    bbb     C5  10018 0.11363000  12.010000   ; qtot 0.077557
10019         hc    346    bbb     H9  10019 0.06265900   1.008000   ; qtot 0.140216
10020         hc    346    bbb    H10  10020 0.06265900   1.008000   ; qtot 0.202875
10021         c3    346    bbb     C6  10021 0.11363000  12.010000   ; qtot 0.316505
10022         hc    346    bbb    H11  10022 0.06265900   1.008000   ; qtot 0.379164
10023         hc    346    bbb    H12  10023 0.06265900   1.008000   ; qtot 0.441823
10024         c3    346    bbb     C7  10024 0.05858200  12.010000   ; qtot 0.500405
10025         h1    346    bbb    H13  10025 0.06123400   1.008000   ; qtot 0.561639
10026         h1    346    bbb    H14  10026 0.06123400   1.008000   ; qtot 0.622873
10027         c3    346    bbb     C8  10027 -0.72423400  12.010000   ; qtot -0.101361
10028         h1    346    bbb    H15  10028 0.25637600   1.008000   ; qtot 0.155015
10029         h1    346    bbb    H16  10029 0.25637600   1.008000   ; qtot 0.411391
10030         c3    346    bbb     C9  10030 -0.72423400  12.010000   ; qtot -0.312843
10031         h1    346    bbb    H17  10031 0.25637600   1.008000   ; qtot -0.056467
10032         h1    346    bbb    H18  10032 0.25637600   1.008000   ; qtot 0.199909
10033         os    346    bbb     O1  10033 -0.20025300  16.000000   ; qtot -0.000344
; residue  347 bbb rtp bbb q -0.0
10034         n3    347    bbb     N1  10034 -0.59685800  14.010000   ; qtot -0.597202
10035         c3    347    bbb     C1  10035 0.10137000  12.010000   ; qtot -0.495832
10036         h1    347    bbb     H1  10036 0.04411300   1.008000   ; qtot -0.451719
10037         h1    347    bbb     H2  10037 0.04411300   1.008000   ; qtot -0.407606
10038         c3    347    bbb     C2  10038 0.10137000  12.010000   ; qtot -0.306236
10039         h1    347    bbb     H3  10039 0.04411300   1.008000   ; qtot -0.262123
10040         h1    347    bbb     H4  10040 0.04411300   1.008000   ; qtot -0.218010
10041         c3    347    bbb     C3  10041 -0.00195300  12.010000   ; qtot -0.219963
10042         h1    347    bbb     H5  10042 0.05064400   1.008000   ; qtot -0.169319
10043         h1    347    bbb     H6  10043 0.05064400   1.008000   ; qtot -0.118675
10044         c3    347    bbb     C4  10044 -0.01612100  12.010000   ; qtot -0.134796
10045         hc    347    bbb     H7  10045 0.04936100   1.008000   ; qtot -0.085435
10046         hc    347    bbb     H8  10046 0.04936100   1.008000   ; qtot -0.036074
10047         c3    347    bbb     C5  10047 0.11363000  12.010000   ; qtot 0.077556
10048         hc    347    bbb     H9  10048 0.06265900   1.008000   ; qtot 0.140215
10049         hc    347    bbb    H10  10049 0.06265900   1.008000   ; qtot 0.202874
10050         c3    347    bbb     C6  10050 0.11363000  12.010000   ; qtot 0.316504
10051         hc    347    bbb    H11  10051 0.06265900   1.008000   ; qtot 0.379163
10052         hc    347    bbb    H12  10052 0.06265900   1.008000   ; qtot 0.441822
10053         c3    347    bbb     C7  10053 0.05858200  12.010000   ; qtot 0.500404
10054         h1    347    bbb    H13  10054 0.06123400   1.008000   ; qtot 0.561638
10055         h1    347    bbb    H14  10055 0.06123400   1.008000   ; qtot 0.622872
10056         c3    347    bbb     C8  10056 -0.72423400  12.010000   ; qtot -0.101362
10057         h1    347    bbb    H15  10057 0.25637600   1.008000   ; qtot 0.155014
10058         h1    347    bbb    H16  10058 0.25637600   1.008000   ; qtot 0.411390
10059         c3    347    bbb     C9  10059 -0.72423400  12.010000   ; qtot -0.312844
10060         h1    347    bbb    H17  10060 0.25637600   1.008000   ; qtot -0.056468
10061         h1    347    bbb    H18  10061 0.25637600   1.008000   ; qtot 0.199908
10062         os    347    bbb     O1  10062 -0.20025300  16.000000   ; qtot -0.000345
; residue  348 bbb rtp bbb q -0.0
10063         n3    348    bbb     N1  10063 -0.59685800  14.010000   ; qtot -0.597203
10064         c3    348    bbb     C1  10064 0.10137000  12.010000   ; qtot -0.495833
10065         h1    348    bbb     H1  10065 0.04411300   1.008000   ; qtot -0.451720
10066         h1    348    bbb     H2  10066 0.04411300   1.008000   ; qtot -0.407607
10067         c3    348    bbb     C2  10067 0.10137000  12.010000   ; qtot -0.306237
10068         h1    348    bbb     H3  10068 0.04411300   1.008000   ; qtot -0.262124
10069         h1    348    bbb     H4  10069 0.04411300   1.008000   ; qtot -0.218011
10070         c3    348    bbb     C3  10070 -0.00195300  12.010000   ; qtot -0.219964
10071         h1    348    bbb     H5  10071 0.05064400   1.008000   ; qtot -0.169320
10072         h1    348    bbb     H6  10072 0.05064400   1.008000   ; qtot -0.118676
10073         c3    348    bbb     C4  10073 -0.01612100  12.010000   ; qtot -0.134797
10074         hc    348    bbb     H7  10074 0.04936100   1.008000   ; qtot -0.085436
10075         hc    348    bbb     H8  10075 0.04936100   1.008000   ; qtot -0.036075
10076         c3    348    bbb     C5  10076 0.11363000  12.010000   ; qtot 0.077555
10077         hc    348    bbb     H9  10077 0.06265900   1.008000   ; qtot 0.140214
10078         hc    348    bbb    H10  10078 0.06265900   1.008000   ; qtot 0.202873
10079         c3    348    bbb     C6  10079 0.11363000  12.010000   ; qtot 0.316503
10080         hc    348    bbb    H11  10080 0.06265900   1.008000   ; qtot 0.379162
10081         hc    348    bbb    H12  10081 0.06265900   1.008000   ; qtot 0.441821
10082         c3    348    bbb     C7  10082 0.05858200  12.010000   ; qtot 0.500403
10083         h1    348    bbb    H13  10083 0.06123400   1.008000   ; qtot 0.561637
10084         h1    348    bbb    H14  10084 0.06123400   1.008000   ; qtot 0.622871
10085         c3    348    bbb     C8  10085 -0.72423400  12.010000   ; qtot -0.101363
10086         h1    348    bbb    H15  10086 0.25637600   1.008000   ; qtot 0.155013
10087         h1    348    bbb    H16  10087 0.25637600   1.008000   ; qtot 0.411389
10088         c3    348    bbb     C9  10088 -0.72423400  12.010000   ; qtot -0.312845
10089         h1    348    bbb    H17  10089 0.25637600   1.008000   ; qtot -0.056469
10090         h1    348    bbb    H18  10090 0.25637600   1.008000   ; qtot 0.199907
10091         os    348    bbb     O1  10091 -0.20025300  16.000000   ; qtot -0.000346
; residue  349 bbb rtp bbb q -0.0
10092         n3    349    bbb     N1  10092 -0.59685800  14.010000   ; qtot -0.597204
10093         c3    349    bbb     C1  10093 0.10137000  12.010000   ; qtot -0.495834
10094         h1    349    bbb     H1  10094 0.04411300   1.008000   ; qtot -0.451721
10095         h1    349    bbb     H2  10095 0.04411300   1.008000   ; qtot -0.407608
10096         c3    349    bbb     C2  10096 0.10137000  12.010000   ; qtot -0.306238
10097         h1    349    bbb     H3  10097 0.04411300   1.008000   ; qtot -0.262125
10098         h1    349    bbb     H4  10098 0.04411300   1.008000   ; qtot -0.218012
10099         c3    349    bbb     C3  10099 -0.00195300  12.010000   ; qtot -0.219965
10100         h1    349    bbb     H5  10100 0.05064400   1.008000   ; qtot -0.169321
10101         h1    349    bbb     H6  10101 0.05064400   1.008000   ; qtot -0.118677
10102         c3    349    bbb     C4  10102 -0.01612100  12.010000   ; qtot -0.134798
10103         hc    349    bbb     H7  10103 0.04936100   1.008000   ; qtot -0.085437
10104         hc    349    bbb     H8  10104 0.04936100   1.008000   ; qtot -0.036076
10105         c3    349    bbb     C5  10105 0.11363000  12.010000   ; qtot 0.077554
10106         hc    349    bbb     H9  10106 0.06265900   1.008000   ; qtot 0.140213
10107         hc    349    bbb    H10  10107 0.06265900   1.008000   ; qtot 0.202872
10108         c3    349    bbb     C6  10108 0.11363000  12.010000   ; qtot 0.316502
10109         hc    349    bbb    H11  10109 0.06265900   1.008000   ; qtot 0.379161
10110         hc    349    bbb    H12  10110 0.06265900   1.008000   ; qtot 0.441820
10111         c3    349    bbb     C7  10111 0.05858200  12.010000   ; qtot 0.500402
10112         h1    349    bbb    H13  10112 0.06123400   1.008000   ; qtot 0.561636
10113         h1    349    bbb    H14  10113 0.06123400   1.008000   ; qtot 0.622870
10114         c3    349    bbb     C8  10114 -0.72423400  12.010000   ; qtot -0.101364
10115         h1    349    bbb    H15  10115 0.25637600   1.008000   ; qtot 0.155012
10116         h1    349    bbb    H16  10116 0.25637600   1.008000   ; qtot 0.411388
10117         c3    349    bbb     C9  10117 -0.72423400  12.010000   ; qtot -0.312846
10118         h1    349    bbb    H17  10118 0.25637600   1.008000   ; qtot -0.056470
10119         h1    349    bbb    H18  10119 0.25637600   1.008000   ; qtot 0.199906
10120         os    349    bbb     O1  10120 -0.20025300  16.000000   ; qtot -0.000347
; residue  350 bbb rtp bbb q -0.0
10121         n3    350    bbb     N1  10121 -0.59685800  14.010000   ; qtot -0.597205
10122         c3    350    bbb     C1  10122 0.10137000  12.010000   ; qtot -0.495835
10123         h1    350    bbb     H1  10123 0.04411300   1.008000   ; qtot -0.451722
10124         h1    350    bbb     H2  10124 0.04411300   1.008000   ; qtot -0.407609
10125         c3    350    bbb     C2  10125 0.10137000  12.010000   ; qtot -0.306239
10126         h1    350    bbb     H3  10126 0.04411300   1.008000   ; qtot -0.262126
10127         h1    350    bbb     H4  10127 0.04411300   1.008000   ; qtot -0.218013
10128         c3    350    bbb     C3  10128 -0.00195300  12.010000   ; qtot -0.219966
10129         h1    350    bbb     H5  10129 0.05064400   1.008000   ; qtot -0.169322
10130         h1    350    bbb     H6  10130 0.05064400   1.008000   ; qtot -0.118678
10131         c3    350    bbb     C4  10131 -0.01612100  12.010000   ; qtot -0.134799
10132         hc    350    bbb     H7  10132 0.04936100   1.008000   ; qtot -0.085438
10133         hc    350    bbb     H8  10133 0.04936100   1.008000   ; qtot -0.036077
10134         c3    350    bbb     C5  10134 0.11363000  12.010000   ; qtot 0.077553
10135         hc    350    bbb     H9  10135 0.06265900   1.008000   ; qtot 0.140212
10136         hc    350    bbb    H10  10136 0.06265900   1.008000   ; qtot 0.202871
10137         c3    350    bbb     C6  10137 0.11363000  12.010000   ; qtot 0.316501
10138         hc    350    bbb    H11  10138 0.06265900   1.008000   ; qtot 0.379160
10139         hc    350    bbb    H12  10139 0.06265900   1.008000   ; qtot 0.441819
10140         c3    350    bbb     C7  10140 0.05858200  12.010000   ; qtot 0.500401
10141         h1    350    bbb    H13  10141 0.06123400   1.008000   ; qtot 0.561635
10142         h1    350    bbb    H14  10142 0.06123400   1.008000   ; qtot 0.622869
10143         c3    350    bbb     C8  10143 -0.72423400  12.010000   ; qtot -0.101365
10144         h1    350    bbb    H15  10144 0.25637600   1.008000   ; qtot 0.155011
10145         h1    350    bbb    H16  10145 0.25637600   1.008000   ; qtot 0.411387
10146         c3    350    bbb     C9  10146 -0.72423400  12.010000   ; qtot -0.312847
10147         h1    350    bbb    H17  10147 0.25637600   1.008000   ; qtot -0.056471
10148         h1    350    bbb    H18  10148 0.25637600   1.008000   ; qtot 0.199905
10149         os    350    bbb     O1  10149 -0.20025300  16.000000   ; qtot -0.000348
; residue  351 bbb rtp bbb q -0.0
10150         n3    351    bbb     N1  10150 -0.59685800  14.010000   ; qtot -0.597206
10151         c3    351    bbb     C1  10151 0.10137000  12.010000   ; qtot -0.495836
10152         h1    351    bbb     H1  10152 0.04411300   1.008000   ; qtot -0.451723
10153         h1    351    bbb     H2  10153 0.04411300   1.008000   ; qtot -0.407610
10154         c3    351    bbb     C2  10154 0.10137000  12.010000   ; qtot -0.306240
10155         h1    351    bbb     H3  10155 0.04411300   1.008000   ; qtot -0.262127
10156         h1    351    bbb     H4  10156 0.04411300   1.008000   ; qtot -0.218014
10157         c3    351    bbb     C3  10157 -0.00195300  12.010000   ; qtot -0.219967
10158         h1    351    bbb     H5  10158 0.05064400   1.008000   ; qtot -0.169323
10159         h1    351    bbb     H6  10159 0.05064400   1.008000   ; qtot -0.118679
10160         c3    351    bbb     C4  10160 -0.01612100  12.010000   ; qtot -0.134800
10161         hc    351    bbb     H7  10161 0.04936100   1.008000   ; qtot -0.085439
10162         hc    351    bbb     H8  10162 0.04936100   1.008000   ; qtot -0.036078
10163         c3    351    bbb     C5  10163 0.11363000  12.010000   ; qtot 0.077552
10164         hc    351    bbb     H9  10164 0.06265900   1.008000   ; qtot 0.140211
10165         hc    351    bbb    H10  10165 0.06265900   1.008000   ; qtot 0.202870
10166         c3    351    bbb     C6  10166 0.11363000  12.010000   ; qtot 0.316500
10167         hc    351    bbb    H11  10167 0.06265900   1.008000   ; qtot 0.379159
10168         hc    351    bbb    H12  10168 0.06265900   1.008000   ; qtot 0.441818
10169         c3    351    bbb     C7  10169 0.05858200  12.010000   ; qtot 0.500400
10170         h1    351    bbb    H13  10170 0.06123400   1.008000   ; qtot 0.561634
10171         h1    351    bbb    H14  10171 0.06123400   1.008000   ; qtot 0.622868
10172         c3    351    bbb     C8  10172 -0.72423400  12.010000   ; qtot -0.101366
10173         h1    351    bbb    H15  10173 0.25637600   1.008000   ; qtot 0.155010
10174         h1    351    bbb    H16  10174 0.25637600   1.008000   ; qtot 0.411386
10175         c3    351    bbb     C9  10175 -0.72423400  12.010000   ; qtot -0.312848
10176         h1    351    bbb    H17  10176 0.25637600   1.008000   ; qtot -0.056472
10177         h1    351    bbb    H18  10177 0.25637600   1.008000   ; qtot 0.199904
10178         os    351    bbb     O1  10178 -0.20025300  16.000000   ; qtot -0.000349
; residue  352 bbb rtp bbb q -0.0
10179         n3    352    bbb     N1  10179 -0.59685800  14.010000   ; qtot -0.597207
10180         c3    352    bbb     C1  10180 0.10137000  12.010000   ; qtot -0.495837
10181         h1    352    bbb     H1  10181 0.04411300   1.008000   ; qtot -0.451724
10182         h1    352    bbb     H2  10182 0.04411300   1.008000   ; qtot -0.407611
10183         c3    352    bbb     C2  10183 0.10137000  12.010000   ; qtot -0.306241
10184         h1    352    bbb     H3  10184 0.04411300   1.008000   ; qtot -0.262128
10185         h1    352    bbb     H4  10185 0.04411300   1.008000   ; qtot -0.218015
10186         c3    352    bbb     C3  10186 -0.00195300  12.010000   ; qtot -0.219968
10187         h1    352    bbb     H5  10187 0.05064400   1.008000   ; qtot -0.169324
10188         h1    352    bbb     H6  10188 0.05064400   1.008000   ; qtot -0.118680
10189         c3    352    bbb     C4  10189 -0.01612100  12.010000   ; qtot -0.134801
10190         hc    352    bbb     H7  10190 0.04936100   1.008000   ; qtot -0.085440
10191         hc    352    bbb     H8  10191 0.04936100   1.008000   ; qtot -0.036079
10192         c3    352    bbb     C5  10192 0.11363000  12.010000   ; qtot 0.077551
10193         hc    352    bbb     H9  10193 0.06265900   1.008000   ; qtot 0.140210
10194         hc    352    bbb    H10  10194 0.06265900   1.008000   ; qtot 0.202869
10195         c3    352    bbb     C6  10195 0.11363000  12.010000   ; qtot 0.316499
10196         hc    352    bbb    H11  10196 0.06265900   1.008000   ; qtot 0.379158
10197         hc    352    bbb    H12  10197 0.06265900   1.008000   ; qtot 0.441817
10198         c3    352    bbb     C7  10198 0.05858200  12.010000   ; qtot 0.500399
10199         h1    352    bbb    H13  10199 0.06123400   1.008000   ; qtot 0.561633
10200         h1    352    bbb    H14  10200 0.06123400   1.008000   ; qtot 0.622867
10201         c3    352    bbb     C8  10201 -0.72423400  12.010000   ; qtot -0.101367
10202         h1    352    bbb    H15  10202 0.25637600   1.008000   ; qtot 0.155009
10203         h1    352    bbb    H16  10203 0.25637600   1.008000   ; qtot 0.411385
10204         c3    352    bbb     C9  10204 -0.72423400  12.010000   ; qtot -0.312849
10205         h1    352    bbb    H17  10205 0.25637600   1.008000   ; qtot -0.056473
10206         h1    352    bbb    H18  10206 0.25637600   1.008000   ; qtot 0.199903
10207         os    352    bbb     O1  10207 -0.20025300  16.000000   ; qtot -0.000350
; residue  353 bbb rtp bbb q -0.0
10208         n3    353    bbb     N1  10208 -0.59685800  14.010000   ; qtot -0.597208
10209         c3    353    bbb     C1  10209 0.10137000  12.010000   ; qtot -0.495838
10210         h1    353    bbb     H1  10210 0.04411300   1.008000   ; qtot -0.451725
10211         h1    353    bbb     H2  10211 0.04411300   1.008000   ; qtot -0.407612
10212         c3    353    bbb     C2  10212 0.10137000  12.010000   ; qtot -0.306242
10213         h1    353    bbb     H3  10213 0.04411300   1.008000   ; qtot -0.262129
10214         h1    353    bbb     H4  10214 0.04411300   1.008000   ; qtot -0.218016
10215         c3    353    bbb     C3  10215 -0.00195300  12.010000   ; qtot -0.219969
10216         h1    353    bbb     H5  10216 0.05064400   1.008000   ; qtot -0.169325
10217         h1    353    bbb     H6  10217 0.05064400   1.008000   ; qtot -0.118681
10218         c3    353    bbb     C4  10218 -0.01612100  12.010000   ; qtot -0.134802
10219         hc    353    bbb     H7  10219 0.04936100   1.008000   ; qtot -0.085441
10220         hc    353    bbb     H8  10220 0.04936100   1.008000   ; qtot -0.036080
10221         c3    353    bbb     C5  10221 0.11363000  12.010000   ; qtot 0.077550
10222         hc    353    bbb     H9  10222 0.06265900   1.008000   ; qtot 0.140209
10223         hc    353    bbb    H10  10223 0.06265900   1.008000   ; qtot 0.202868
10224         c3    353    bbb     C6  10224 0.11363000  12.010000   ; qtot 0.316498
10225         hc    353    bbb    H11  10225 0.06265900   1.008000   ; qtot 0.379157
10226         hc    353    bbb    H12  10226 0.06265900   1.008000   ; qtot 0.441816
10227         c3    353    bbb     C7  10227 0.05858200  12.010000   ; qtot 0.500398
10228         h1    353    bbb    H13  10228 0.06123400   1.008000   ; qtot 0.561632
10229         h1    353    bbb    H14  10229 0.06123400   1.008000   ; qtot 0.622866
10230         c3    353    bbb     C8  10230 -0.72423400  12.010000   ; qtot -0.101368
10231         h1    353    bbb    H15  10231 0.25637600   1.008000   ; qtot 0.155008
10232         h1    353    bbb    H16  10232 0.25637600   1.008000   ; qtot 0.411384
10233         c3    353    bbb     C9  10233 -0.72423400  12.010000   ; qtot -0.312850
10234         h1    353    bbb    H17  10234 0.25637600   1.008000   ; qtot -0.056474
10235         h1    353    bbb    H18  10235 0.25637600   1.008000   ; qtot 0.199902
10236         os    353    bbb     O1  10236 -0.20025300  16.000000   ; qtot -0.000351
; residue  354 bbb rtp bbb q -0.0
10237         n3    354    bbb     N1  10237 -0.59685800  14.010000   ; qtot -0.597209
10238         c3    354    bbb     C1  10238 0.10137000  12.010000   ; qtot -0.495839
10239         h1    354    bbb     H1  10239 0.04411300   1.008000   ; qtot -0.451726
10240         h1    354    bbb     H2  10240 0.04411300   1.008000   ; qtot -0.407613
10241         c3    354    bbb     C2  10241 0.10137000  12.010000   ; qtot -0.306243
10242         h1    354    bbb     H3  10242 0.04411300   1.008000   ; qtot -0.262130
10243         h1    354    bbb     H4  10243 0.04411300   1.008000   ; qtot -0.218017
10244         c3    354    bbb     C3  10244 -0.00195300  12.010000   ; qtot -0.219970
10245         h1    354    bbb     H5  10245 0.05064400   1.008000   ; qtot -0.169326
10246         h1    354    bbb     H6  10246 0.05064400   1.008000   ; qtot -0.118682
10247         c3    354    bbb     C4  10247 -0.01612100  12.010000   ; qtot -0.134803
10248         hc    354    bbb     H7  10248 0.04936100   1.008000   ; qtot -0.085442
10249         hc    354    bbb     H8  10249 0.04936100   1.008000   ; qtot -0.036081
10250         c3    354    bbb     C5  10250 0.11363000  12.010000   ; qtot 0.077549
10251         hc    354    bbb     H9  10251 0.06265900   1.008000   ; qtot 0.140208
10252         hc    354    bbb    H10  10252 0.06265900   1.008000   ; qtot 0.202867
10253         c3    354    bbb     C6  10253 0.11363000  12.010000   ; qtot 0.316497
10254         hc    354    bbb    H11  10254 0.06265900   1.008000   ; qtot 0.379156
10255         hc    354    bbb    H12  10255 0.06265900   1.008000   ; qtot 0.441815
10256         c3    354    bbb     C7  10256 0.05858200  12.010000   ; qtot 0.500397
10257         h1    354    bbb    H13  10257 0.06123400   1.008000   ; qtot 0.561631
10258         h1    354    bbb    H14  10258 0.06123400   1.008000   ; qtot 0.622865
10259         c3    354    bbb     C8  10259 -0.72423400  12.010000   ; qtot -0.101369
10260         h1    354    bbb    H15  10260 0.25637600   1.008000   ; qtot 0.155007
10261         h1    354    bbb    H16  10261 0.25637600   1.008000   ; qtot 0.411383
10262         c3    354    bbb     C9  10262 -0.72423400  12.010000   ; qtot -0.312851
10263         h1    354    bbb    H17  10263 0.25637600   1.008000   ; qtot -0.056475
10264         h1    354    bbb    H18  10264 0.25637600   1.008000   ; qtot 0.199901
10265         os    354    bbb     O1  10265 -0.20025300  16.000000   ; qtot -0.000352
; residue  355 bbb rtp bbb q -0.0
10266         n3    355    bbb     N1  10266 -0.59685800  14.010000   ; qtot -0.597210
10267         c3    355    bbb     C1  10267 0.10137000  12.010000   ; qtot -0.495840
10268         h1    355    bbb     H1  10268 0.04411300   1.008000   ; qtot -0.451727
10269         h1    355    bbb     H2  10269 0.04411300   1.008000   ; qtot -0.407614
10270         c3    355    bbb     C2  10270 0.10137000  12.010000   ; qtot -0.306244
10271         h1    355    bbb     H3  10271 0.04411300   1.008000   ; qtot -0.262131
10272         h1    355    bbb     H4  10272 0.04411300   1.008000   ; qtot -0.218018
10273         c3    355    bbb     C3  10273 -0.00195300  12.010000   ; qtot -0.219971
10274         h1    355    bbb     H5  10274 0.05064400   1.008000   ; qtot -0.169327
10275         h1    355    bbb     H6  10275 0.05064400   1.008000   ; qtot -0.118683
10276         c3    355    bbb     C4  10276 -0.01612100  12.010000   ; qtot -0.134804
10277         hc    355    bbb     H7  10277 0.04936100   1.008000   ; qtot -0.085443
10278         hc    355    bbb     H8  10278 0.04936100   1.008000   ; qtot -0.036082
10279         c3    355    bbb     C5  10279 0.11363000  12.010000   ; qtot 0.077548
10280         hc    355    bbb     H9  10280 0.06265900   1.008000   ; qtot 0.140207
10281         hc    355    bbb    H10  10281 0.06265900   1.008000   ; qtot 0.202866
10282         c3    355    bbb     C6  10282 0.11363000  12.010000   ; qtot 0.316496
10283         hc    355    bbb    H11  10283 0.06265900   1.008000   ; qtot 0.379155
10284         hc    355    bbb    H12  10284 0.06265900   1.008000   ; qtot 0.441814
10285         c3    355    bbb     C7  10285 0.05858200  12.010000   ; qtot 0.500396
10286         h1    355    bbb    H13  10286 0.06123400   1.008000   ; qtot 0.561630
10287         h1    355    bbb    H14  10287 0.06123400   1.008000   ; qtot 0.622864
10288         c3    355    bbb     C8  10288 -0.72423400  12.010000   ; qtot -0.101370
10289         h1    355    bbb    H15  10289 0.25637600   1.008000   ; qtot 0.155006
10290         h1    355    bbb    H16  10290 0.25637600   1.008000   ; qtot 0.411382
10291         c3    355    bbb     C9  10291 -0.72423400  12.010000   ; qtot -0.312852
10292         h1    355    bbb    H17  10292 0.25637600   1.008000   ; qtot -0.056476
10293         h1    355    bbb    H18  10293 0.25637600   1.008000   ; qtot 0.199900
10294         os    355    bbb     O1  10294 -0.20025300  16.000000   ; qtot -0.000353
; residue  356 bbb rtp bbb q -0.0
10295         n3    356    bbb     N1  10295 -0.59685800  14.010000   ; qtot -0.597211
10296         c3    356    bbb     C1  10296 0.10137000  12.010000   ; qtot -0.495841
10297         h1    356    bbb     H1  10297 0.04411300   1.008000   ; qtot -0.451728
10298         h1    356    bbb     H2  10298 0.04411300   1.008000   ; qtot -0.407615
10299         c3    356    bbb     C2  10299 0.10137000  12.010000   ; qtot -0.306245
10300         h1    356    bbb     H3  10300 0.04411300   1.008000   ; qtot -0.262132
10301         h1    356    bbb     H4  10301 0.04411300   1.008000   ; qtot -0.218019
10302         c3    356    bbb     C3  10302 -0.00195300  12.010000   ; qtot -0.219972
10303         h1    356    bbb     H5  10303 0.05064400   1.008000   ; qtot -0.169328
10304         h1    356    bbb     H6  10304 0.05064400   1.008000   ; qtot -0.118684
10305         c3    356    bbb     C4  10305 -0.01612100  12.010000   ; qtot -0.134805
10306         hc    356    bbb     H7  10306 0.04936100   1.008000   ; qtot -0.085444
10307         hc    356    bbb     H8  10307 0.04936100   1.008000   ; qtot -0.036083
10308         c3    356    bbb     C5  10308 0.11363000  12.010000   ; qtot 0.077547
10309         hc    356    bbb     H9  10309 0.06265900   1.008000   ; qtot 0.140206
10310         hc    356    bbb    H10  10310 0.06265900   1.008000   ; qtot 0.202865
10311         c3    356    bbb     C6  10311 0.11363000  12.010000   ; qtot 0.316495
10312         hc    356    bbb    H11  10312 0.06265900   1.008000   ; qtot 0.379154
10313         hc    356    bbb    H12  10313 0.06265900   1.008000   ; qtot 0.441813
10314         c3    356    bbb     C7  10314 0.05858200  12.010000   ; qtot 0.500395
10315         h1    356    bbb    H13  10315 0.06123400   1.008000   ; qtot 0.561629
10316         h1    356    bbb    H14  10316 0.06123400   1.008000   ; qtot 0.622863
10317         c3    356    bbb     C8  10317 -0.72423400  12.010000   ; qtot -0.101371
10318         h1    356    bbb    H15  10318 0.25637600   1.008000   ; qtot 0.155005
10319         h1    356    bbb    H16  10319 0.25637600   1.008000   ; qtot 0.411381
10320         c3    356    bbb     C9  10320 -0.72423400  12.010000   ; qtot -0.312853
10321         h1    356    bbb    H17  10321 0.25637600   1.008000   ; qtot -0.056477
10322         h1    356    bbb    H18  10322 0.25637600   1.008000   ; qtot 0.199899
10323         os    356    bbb     O1  10323 -0.20025300  16.000000   ; qtot -0.000354
; residue  357 bbb rtp bbb q -0.0
10324         n3    357    bbb     N1  10324 -0.59685800  14.010000   ; qtot -0.597212
10325         c3    357    bbb     C1  10325 0.10137000  12.010000   ; qtot -0.495842
10326         h1    357    bbb     H1  10326 0.04411300   1.008000   ; qtot -0.451729
10327         h1    357    bbb     H2  10327 0.04411300   1.008000   ; qtot -0.407616
10328         c3    357    bbb     C2  10328 0.10137000  12.010000   ; qtot -0.306246
10329         h1    357    bbb     H3  10329 0.04411300   1.008000   ; qtot -0.262133
10330         h1    357    bbb     H4  10330 0.04411300   1.008000   ; qtot -0.218020
10331         c3    357    bbb     C3  10331 -0.00195300  12.010000   ; qtot -0.219973
10332         h1    357    bbb     H5  10332 0.05064400   1.008000   ; qtot -0.169329
10333         h1    357    bbb     H6  10333 0.05064400   1.008000   ; qtot -0.118685
10334         c3    357    bbb     C4  10334 -0.01612100  12.010000   ; qtot -0.134806
10335         hc    357    bbb     H7  10335 0.04936100   1.008000   ; qtot -0.085445
10336         hc    357    bbb     H8  10336 0.04936100   1.008000   ; qtot -0.036084
10337         c3    357    bbb     C5  10337 0.11363000  12.010000   ; qtot 0.077546
10338         hc    357    bbb     H9  10338 0.06265900   1.008000   ; qtot 0.140205
10339         hc    357    bbb    H10  10339 0.06265900   1.008000   ; qtot 0.202864
10340         c3    357    bbb     C6  10340 0.11363000  12.010000   ; qtot 0.316494
10341         hc    357    bbb    H11  10341 0.06265900   1.008000   ; qtot 0.379153
10342         hc    357    bbb    H12  10342 0.06265900   1.008000   ; qtot 0.441812
10343         c3    357    bbb     C7  10343 0.05858200  12.010000   ; qtot 0.500394
10344         h1    357    bbb    H13  10344 0.06123400   1.008000   ; qtot 0.561628
10345         h1    357    bbb    H14  10345 0.06123400   1.008000   ; qtot 0.622862
10346         c3    357    bbb     C8  10346 -0.72423400  12.010000   ; qtot -0.101372
10347         h1    357    bbb    H15  10347 0.25637600   1.008000   ; qtot 0.155004
10348         h1    357    bbb    H16  10348 0.25637600   1.008000   ; qtot 0.411380
10349         c3    357    bbb     C9  10349 -0.72423400  12.010000   ; qtot -0.312854
10350         h1    357    bbb    H17  10350 0.25637600   1.008000   ; qtot -0.056478
10351         h1    357    bbb    H18  10351 0.25637600   1.008000   ; qtot 0.199898
10352         os    357    bbb     O1  10352 -0.20025300  16.000000   ; qtot -0.000355
; residue  358 bbb rtp bbb q -0.0
10353         n3    358    bbb     N1  10353 -0.59685800  14.010000   ; qtot -0.597213
10354         c3    358    bbb     C1  10354 0.10137000  12.010000   ; qtot -0.495843
10355         h1    358    bbb     H1  10355 0.04411300   1.008000   ; qtot -0.451730
10356         h1    358    bbb     H2  10356 0.04411300   1.008000   ; qtot -0.407617
10357         c3    358    bbb     C2  10357 0.10137000  12.010000   ; qtot -0.306247
10358         h1    358    bbb     H3  10358 0.04411300   1.008000   ; qtot -0.262134
10359         h1    358    bbb     H4  10359 0.04411300   1.008000   ; qtot -0.218021
10360         c3    358    bbb     C3  10360 -0.00195300  12.010000   ; qtot -0.219974
10361         h1    358    bbb     H5  10361 0.05064400   1.008000   ; qtot -0.169330
10362         h1    358    bbb     H6  10362 0.05064400   1.008000   ; qtot -0.118686
10363         c3    358    bbb     C4  10363 -0.01612100  12.010000   ; qtot -0.134807
10364         hc    358    bbb     H7  10364 0.04936100   1.008000   ; qtot -0.085446
10365         hc    358    bbb     H8  10365 0.04936100   1.008000   ; qtot -0.036085
10366         c3    358    bbb     C5  10366 0.11363000  12.010000   ; qtot 0.077545
10367         hc    358    bbb     H9  10367 0.06265900   1.008000   ; qtot 0.140204
10368         hc    358    bbb    H10  10368 0.06265900   1.008000   ; qtot 0.202863
10369         c3    358    bbb     C6  10369 0.11363000  12.010000   ; qtot 0.316493
10370         hc    358    bbb    H11  10370 0.06265900   1.008000   ; qtot 0.379152
10371         hc    358    bbb    H12  10371 0.06265900   1.008000   ; qtot 0.441811
10372         c3    358    bbb     C7  10372 0.05858200  12.010000   ; qtot 0.500393
10373         h1    358    bbb    H13  10373 0.06123400   1.008000   ; qtot 0.561627
10374         h1    358    bbb    H14  10374 0.06123400   1.008000   ; qtot 0.622861
10375         c3    358    bbb     C8  10375 -0.72423400  12.010000   ; qtot -0.101373
10376         h1    358    bbb    H15  10376 0.25637600   1.008000   ; qtot 0.155003
10377         h1    358    bbb    H16  10377 0.25637600   1.008000   ; qtot 0.411379
10378         c3    358    bbb     C9  10378 -0.72423400  12.010000   ; qtot -0.312855
10379         h1    358    bbb    H17  10379 0.25637600   1.008000   ; qtot -0.056479
10380         h1    358    bbb    H18  10380 0.25637600   1.008000   ; qtot 0.199897
10381         os    358    bbb     O1  10381 -0.20025300  16.000000   ; qtot -0.000356
; residue  359 bbb rtp bbb q -0.0
10382         n3    359    bbb     N1  10382 -0.59685800  14.010000   ; qtot -0.597214
10383         c3    359    bbb     C1  10383 0.10137000  12.010000   ; qtot -0.495844
10384         h1    359    bbb     H1  10384 0.04411300   1.008000   ; qtot -0.451731
10385         h1    359    bbb     H2  10385 0.04411300   1.008000   ; qtot -0.407618
10386         c3    359    bbb     C2  10386 0.10137000  12.010000   ; qtot -0.306248
10387         h1    359    bbb     H3  10387 0.04411300   1.008000   ; qtot -0.262135
10388         h1    359    bbb     H4  10388 0.04411300   1.008000   ; qtot -0.218022
10389         c3    359    bbb     C3  10389 -0.00195300  12.010000   ; qtot -0.219975
10390         h1    359    bbb     H5  10390 0.05064400   1.008000   ; qtot -0.169331
10391         h1    359    bbb     H6  10391 0.05064400   1.008000   ; qtot -0.118687
10392         c3    359    bbb     C4  10392 -0.01612100  12.010000   ; qtot -0.134808
10393         hc    359    bbb     H7  10393 0.04936100   1.008000   ; qtot -0.085447
10394         hc    359    bbb     H8  10394 0.04936100   1.008000   ; qtot -0.036086
10395         c3    359    bbb     C5  10395 0.11363000  12.010000   ; qtot 0.077544
10396         hc    359    bbb     H9  10396 0.06265900   1.008000   ; qtot 0.140203
10397         hc    359    bbb    H10  10397 0.06265900   1.008000   ; qtot 0.202862
10398         c3    359    bbb     C6  10398 0.11363000  12.010000   ; qtot 0.316492
10399         hc    359    bbb    H11  10399 0.06265900   1.008000   ; qtot 0.379151
10400         hc    359    bbb    H12  10400 0.06265900   1.008000   ; qtot 0.441810
10401         c3    359    bbb     C7  10401 0.05858200  12.010000   ; qtot 0.500392
10402         h1    359    bbb    H13  10402 0.06123400   1.008000   ; qtot 0.561626
10403         h1    359    bbb    H14  10403 0.06123400   1.008000   ; qtot 0.622860
10404         c3    359    bbb     C8  10404 -0.72423400  12.010000   ; qtot -0.101374
10405         h1    359    bbb    H15  10405 0.25637600   1.008000   ; qtot 0.155002
10406         h1    359    bbb    H16  10406 0.25637600   1.008000   ; qtot 0.411378
10407         c3    359    bbb     C9  10407 -0.72423400  12.010000   ; qtot -0.312856
10408         h1    359    bbb    H17  10408 0.25637600   1.008000   ; qtot -0.056480
10409         h1    359    bbb    H18  10409 0.25637600   1.008000   ; qtot 0.199896
10410         os    359    bbb     O1  10410 -0.20025300  16.000000   ; qtot -0.000357
; residue  360 bbb rtp bbb q -0.0
10411         n3    360    bbb     N1  10411 -0.59685800  14.010000   ; qtot -0.597215
10412         c3    360    bbb     C1  10412 0.10137000  12.010000   ; qtot -0.495845
10413         h1    360    bbb     H1  10413 0.04411300   1.008000   ; qtot -0.451732
10414         h1    360    bbb     H2  10414 0.04411300   1.008000   ; qtot -0.407619
10415         c3    360    bbb     C2  10415 0.10137000  12.010000   ; qtot -0.306249
10416         h1    360    bbb     H3  10416 0.04411300   1.008000   ; qtot -0.262136
10417         h1    360    bbb     H4  10417 0.04411300   1.008000   ; qtot -0.218023
10418         c3    360    bbb     C3  10418 -0.00195300  12.010000   ; qtot -0.219976
10419         h1    360    bbb     H5  10419 0.05064400   1.008000   ; qtot -0.169332
10420         h1    360    bbb     H6  10420 0.05064400   1.008000   ; qtot -0.118688
10421         c3    360    bbb     C4  10421 -0.01612100  12.010000   ; qtot -0.134809
10422         hc    360    bbb     H7  10422 0.04936100   1.008000   ; qtot -0.085448
10423         hc    360    bbb     H8  10423 0.04936100   1.008000   ; qtot -0.036087
10424         c3    360    bbb     C5  10424 0.11363000  12.010000   ; qtot 0.077543
10425         hc    360    bbb     H9  10425 0.06265900   1.008000   ; qtot 0.140202
10426         hc    360    bbb    H10  10426 0.06265900   1.008000   ; qtot 0.202861
10427         c3    360    bbb     C6  10427 0.11363000  12.010000   ; qtot 0.316491
10428         hc    360    bbb    H11  10428 0.06265900   1.008000   ; qtot 0.379150
10429         hc    360    bbb    H12  10429 0.06265900   1.008000   ; qtot 0.441809
10430         c3    360    bbb     C7  10430 0.05858200  12.010000   ; qtot 0.500391
10431         h1    360    bbb    H13  10431 0.06123400   1.008000   ; qtot 0.561625
10432         h1    360    bbb    H14  10432 0.06123400   1.008000   ; qtot 0.622859
10433         c3    360    bbb     C8  10433 -0.72423400  12.010000   ; qtot -0.101375
10434         h1    360    bbb    H15  10434 0.25637600   1.008000   ; qtot 0.155001
10435         h1    360    bbb    H16  10435 0.25637600   1.008000   ; qtot 0.411377
10436         c3    360    bbb     C9  10436 -0.72423400  12.010000   ; qtot -0.312857
10437         h1    360    bbb    H17  10437 0.25637600   1.008000   ; qtot -0.056481
10438         h1    360    bbb    H18  10438 0.25637600   1.008000   ; qtot 0.199895
10439         os    360    bbb     O1  10439 -0.20025300  16.000000   ; qtot -0.000358
; residue  361 bbb rtp bbb q -0.0
10440         n3    361    bbb     N1  10440 -0.59685800  14.010000   ; qtot -0.597216
10441         c3    361    bbb     C1  10441 0.10137000  12.010000   ; qtot -0.495846
10442         h1    361    bbb     H1  10442 0.04411300   1.008000   ; qtot -0.451733
10443         h1    361    bbb     H2  10443 0.04411300   1.008000   ; qtot -0.407620
10444         c3    361    bbb     C2  10444 0.10137000  12.010000   ; qtot -0.306250
10445         h1    361    bbb     H3  10445 0.04411300   1.008000   ; qtot -0.262137
10446         h1    361    bbb     H4  10446 0.04411300   1.008000   ; qtot -0.218024
10447         c3    361    bbb     C3  10447 -0.00195300  12.010000   ; qtot -0.219977
10448         h1    361    bbb     H5  10448 0.05064400   1.008000   ; qtot -0.169333
10449         h1    361    bbb     H6  10449 0.05064400   1.008000   ; qtot -0.118689
10450         c3    361    bbb     C4  10450 -0.01612100  12.010000   ; qtot -0.134810
10451         hc    361    bbb     H7  10451 0.04936100   1.008000   ; qtot -0.085449
10452         hc    361    bbb     H8  10452 0.04936100   1.008000   ; qtot -0.036088
10453         c3    361    bbb     C5  10453 0.11363000  12.010000   ; qtot 0.077542
10454         hc    361    bbb     H9  10454 0.06265900   1.008000   ; qtot 0.140201
10455         hc    361    bbb    H10  10455 0.06265900   1.008000   ; qtot 0.202860
10456         c3    361    bbb     C6  10456 0.11363000  12.010000   ; qtot 0.316490
10457         hc    361    bbb    H11  10457 0.06265900   1.008000   ; qtot 0.379149
10458         hc    361    bbb    H12  10458 0.06265900   1.008000   ; qtot 0.441808
10459         c3    361    bbb     C7  10459 0.05858200  12.010000   ; qtot 0.500390
10460         h1    361    bbb    H13  10460 0.06123400   1.008000   ; qtot 0.561624
10461         h1    361    bbb    H14  10461 0.06123400   1.008000   ; qtot 0.622858
10462         c3    361    bbb     C8  10462 -0.72423400  12.010000   ; qtot -0.101376
10463         h1    361    bbb    H15  10463 0.25637600   1.008000   ; qtot 0.155000
10464         h1    361    bbb    H16  10464 0.25637600   1.008000   ; qtot 0.411376
10465         c3    361    bbb     C9  10465 -0.72423400  12.010000   ; qtot -0.312858
10466         h1    361    bbb    H17  10466 0.25637600   1.008000   ; qtot -0.056482
10467         h1    361    bbb    H18  10467 0.25637600   1.008000   ; qtot 0.199894
10468         os    361    bbb     O1  10468 -0.20025300  16.000000   ; qtot -0.000359
; residue  362 bbb rtp bbb q -0.0
10469         n3    362    bbb     N1  10469 -0.59685800  14.010000   ; qtot -0.597217
10470         c3    362    bbb     C1  10470 0.10137000  12.010000   ; qtot -0.495847
10471         h1    362    bbb     H1  10471 0.04411300   1.008000   ; qtot -0.451734
10472         h1    362    bbb     H2  10472 0.04411300   1.008000   ; qtot -0.407621
10473         c3    362    bbb     C2  10473 0.10137000  12.010000   ; qtot -0.306251
10474         h1    362    bbb     H3  10474 0.04411300   1.008000   ; qtot -0.262138
10475         h1    362    bbb     H4  10475 0.04411300   1.008000   ; qtot -0.218025
10476         c3    362    bbb     C3  10476 -0.00195300  12.010000   ; qtot -0.219978
10477         h1    362    bbb     H5  10477 0.05064400   1.008000   ; qtot -0.169334
10478         h1    362    bbb     H6  10478 0.05064400   1.008000   ; qtot -0.118690
10479         c3    362    bbb     C4  10479 -0.01612100  12.010000   ; qtot -0.134811
10480         hc    362    bbb     H7  10480 0.04936100   1.008000   ; qtot -0.085450
10481         hc    362    bbb     H8  10481 0.04936100   1.008000   ; qtot -0.036089
10482         c3    362    bbb     C5  10482 0.11363000  12.010000   ; qtot 0.077541
10483         hc    362    bbb     H9  10483 0.06265900   1.008000   ; qtot 0.140200
10484         hc    362    bbb    H10  10484 0.06265900   1.008000   ; qtot 0.202859
10485         c3    362    bbb     C6  10485 0.11363000  12.010000   ; qtot 0.316489
10486         hc    362    bbb    H11  10486 0.06265900   1.008000   ; qtot 0.379148
10487         hc    362    bbb    H12  10487 0.06265900   1.008000   ; qtot 0.441807
10488         c3    362    bbb     C7  10488 0.05858200  12.010000   ; qtot 0.500389
10489         h1    362    bbb    H13  10489 0.06123400   1.008000   ; qtot 0.561623
10490         h1    362    bbb    H14  10490 0.06123400   1.008000   ; qtot 0.622857
10491         c3    362    bbb     C8  10491 -0.72423400  12.010000   ; qtot -0.101377
10492         h1    362    bbb    H15  10492 0.25637600   1.008000   ; qtot 0.154999
10493         h1    362    bbb    H16  10493 0.25637600   1.008000   ; qtot 0.411375
10494         c3    362    bbb     C9  10494 -0.72423400  12.010000   ; qtot -0.312859
10495         h1    362    bbb    H17  10495 0.25637600   1.008000   ; qtot -0.056483
10496         h1    362    bbb    H18  10496 0.25637600   1.008000   ; qtot 0.199893
10497         os    362    bbb     O1  10497 -0.20025300  16.000000   ; qtot -0.000360
; residue  363 bbb rtp bbb q -0.0
10498         n3    363    bbb     N1  10498 -0.59685800  14.010000   ; qtot -0.597218
10499         c3    363    bbb     C1  10499 0.10137000  12.010000   ; qtot -0.495848
10500         h1    363    bbb     H1  10500 0.04411300   1.008000   ; qtot -0.451735
10501         h1    363    bbb     H2  10501 0.04411300   1.008000   ; qtot -0.407622
10502         c3    363    bbb     C2  10502 0.10137000  12.010000   ; qtot -0.306252
10503         h1    363    bbb     H3  10503 0.04411300   1.008000   ; qtot -0.262139
10504         h1    363    bbb     H4  10504 0.04411300   1.008000   ; qtot -0.218026
10505         c3    363    bbb     C3  10505 -0.00195300  12.010000   ; qtot -0.219979
10506         h1    363    bbb     H5  10506 0.05064400   1.008000   ; qtot -0.169335
10507         h1    363    bbb     H6  10507 0.05064400   1.008000   ; qtot -0.118691
10508         c3    363    bbb     C4  10508 -0.01612100  12.010000   ; qtot -0.134812
10509         hc    363    bbb     H7  10509 0.04936100   1.008000   ; qtot -0.085451
10510         hc    363    bbb     H8  10510 0.04936100   1.008000   ; qtot -0.036090
10511         c3    363    bbb     C5  10511 0.11363000  12.010000   ; qtot 0.077540
10512         hc    363    bbb     H9  10512 0.06265900   1.008000   ; qtot 0.140199
10513         hc    363    bbb    H10  10513 0.06265900   1.008000   ; qtot 0.202858
10514         c3    363    bbb     C6  10514 0.11363000  12.010000   ; qtot 0.316488
10515         hc    363    bbb    H11  10515 0.06265900   1.008000   ; qtot 0.379147
10516         hc    363    bbb    H12  10516 0.06265900   1.008000   ; qtot 0.441806
10517         c3    363    bbb     C7  10517 0.05858200  12.010000   ; qtot 0.500388
10518         h1    363    bbb    H13  10518 0.06123400   1.008000   ; qtot 0.561622
10519         h1    363    bbb    H14  10519 0.06123400   1.008000   ; qtot 0.622856
10520         c3    363    bbb     C8  10520 -0.72423400  12.010000   ; qtot -0.101378
10521         h1    363    bbb    H15  10521 0.25637600   1.008000   ; qtot 0.154998
10522         h1    363    bbb    H16  10522 0.25637600   1.008000   ; qtot 0.411374
10523         c3    363    bbb     C9  10523 -0.72423400  12.010000   ; qtot -0.312860
10524         h1    363    bbb    H17  10524 0.25637600   1.008000   ; qtot -0.056484
10525         h1    363    bbb    H18  10525 0.25637600   1.008000   ; qtot 0.199892
10526         os    363    bbb     O1  10526 -0.20025300  16.000000   ; qtot -0.000361
; residue  364 bbb rtp bbb q -0.0
10527         n3    364    bbb     N1  10527 -0.59685800  14.010000   ; qtot -0.597219
10528         c3    364    bbb     C1  10528 0.10137000  12.010000   ; qtot -0.495849
10529         h1    364    bbb     H1  10529 0.04411300   1.008000   ; qtot -0.451736
10530         h1    364    bbb     H2  10530 0.04411300   1.008000   ; qtot -0.407623
10531         c3    364    bbb     C2  10531 0.10137000  12.010000   ; qtot -0.306253
10532         h1    364    bbb     H3  10532 0.04411300   1.008000   ; qtot -0.262140
10533         h1    364    bbb     H4  10533 0.04411300   1.008000   ; qtot -0.218027
10534         c3    364    bbb     C3  10534 -0.00195300  12.010000   ; qtot -0.219980
10535         h1    364    bbb     H5  10535 0.05064400   1.008000   ; qtot -0.169336
10536         h1    364    bbb     H6  10536 0.05064400   1.008000   ; qtot -0.118692
10537         c3    364    bbb     C4  10537 -0.01612100  12.010000   ; qtot -0.134813
10538         hc    364    bbb     H7  10538 0.04936100   1.008000   ; qtot -0.085452
10539         hc    364    bbb     H8  10539 0.04936100   1.008000   ; qtot -0.036091
10540         c3    364    bbb     C5  10540 0.11363000  12.010000   ; qtot 0.077539
10541         hc    364    bbb     H9  10541 0.06265900   1.008000   ; qtot 0.140198
10542         hc    364    bbb    H10  10542 0.06265900   1.008000   ; qtot 0.202857
10543         c3    364    bbb     C6  10543 0.11363000  12.010000   ; qtot 0.316487
10544         hc    364    bbb    H11  10544 0.06265900   1.008000   ; qtot 0.379146
10545         hc    364    bbb    H12  10545 0.06265900   1.008000   ; qtot 0.441805
10546         c3    364    bbb     C7  10546 0.05858200  12.010000   ; qtot 0.500387
10547         h1    364    bbb    H13  10547 0.06123400   1.008000   ; qtot 0.561621
10548         h1    364    bbb    H14  10548 0.06123400   1.008000   ; qtot 0.622855
10549         c3    364    bbb     C8  10549 -0.72423400  12.010000   ; qtot -0.101379
10550         h1    364    bbb    H15  10550 0.25637600   1.008000   ; qtot 0.154997
10551         h1    364    bbb    H16  10551 0.25637600   1.008000   ; qtot 0.411373
10552         c3    364    bbb     C9  10552 -0.72423400  12.010000   ; qtot -0.312861
10553         h1    364    bbb    H17  10553 0.25637600   1.008000   ; qtot -0.056485
10554         h1    364    bbb    H18  10554 0.25637600   1.008000   ; qtot 0.199891
10555         os    364    bbb     O1  10555 -0.20025300  16.000000   ; qtot -0.000362
; residue  365 bbb rtp bbb q -0.0
10556         n3    365    bbb     N1  10556 -0.59685800  14.010000   ; qtot -0.597220
10557         c3    365    bbb     C1  10557 0.10137000  12.010000   ; qtot -0.495850
10558         h1    365    bbb     H1  10558 0.04411300   1.008000   ; qtot -0.451737
10559         h1    365    bbb     H2  10559 0.04411300   1.008000   ; qtot -0.407624
10560         c3    365    bbb     C2  10560 0.10137000  12.010000   ; qtot -0.306254
10561         h1    365    bbb     H3  10561 0.04411300   1.008000   ; qtot -0.262141
10562         h1    365    bbb     H4  10562 0.04411300   1.008000   ; qtot -0.218028
10563         c3    365    bbb     C3  10563 -0.00195300  12.010000   ; qtot -0.219981
10564         h1    365    bbb     H5  10564 0.05064400   1.008000   ; qtot -0.169337
10565         h1    365    bbb     H6  10565 0.05064400   1.008000   ; qtot -0.118693
10566         c3    365    bbb     C4  10566 -0.01612100  12.010000   ; qtot -0.134814
10567         hc    365    bbb     H7  10567 0.04936100   1.008000   ; qtot -0.085453
10568         hc    365    bbb     H8  10568 0.04936100   1.008000   ; qtot -0.036092
10569         c3    365    bbb     C5  10569 0.11363000  12.010000   ; qtot 0.077538
10570         hc    365    bbb     H9  10570 0.06265900   1.008000   ; qtot 0.140197
10571         hc    365    bbb    H10  10571 0.06265900   1.008000   ; qtot 0.202856
10572         c3    365    bbb     C6  10572 0.11363000  12.010000   ; qtot 0.316486
10573         hc    365    bbb    H11  10573 0.06265900   1.008000   ; qtot 0.379145
10574         hc    365    bbb    H12  10574 0.06265900   1.008000   ; qtot 0.441804
10575         c3    365    bbb     C7  10575 0.05858200  12.010000   ; qtot 0.500386
10576         h1    365    bbb    H13  10576 0.06123400   1.008000   ; qtot 0.561620
10577         h1    365    bbb    H14  10577 0.06123400   1.008000   ; qtot 0.622854
10578         c3    365    bbb     C8  10578 -0.72423400  12.010000   ; qtot -0.101380
10579         h1    365    bbb    H15  10579 0.25637600   1.008000   ; qtot 0.154996
10580         h1    365    bbb    H16  10580 0.25637600   1.008000   ; qtot 0.411372
10581         c3    365    bbb     C9  10581 -0.72423400  12.010000   ; qtot -0.312862
10582         h1    365    bbb    H17  10582 0.25637600   1.008000   ; qtot -0.056486
10583         h1    365    bbb    H18  10583 0.25637600   1.008000   ; qtot 0.199890
10584         os    365    bbb     O1  10584 -0.20025300  16.000000   ; qtot -0.000363
; residue  366 bbb rtp bbb q -0.0
10585         n3    366    bbb     N1  10585 -0.59685800  14.010000   ; qtot -0.597221
10586         c3    366    bbb     C1  10586 0.10137000  12.010000   ; qtot -0.495851
10587         h1    366    bbb     H1  10587 0.04411300   1.008000   ; qtot -0.451738
10588         h1    366    bbb     H2  10588 0.04411300   1.008000   ; qtot -0.407625
10589         c3    366    bbb     C2  10589 0.10137000  12.010000   ; qtot -0.306255
10590         h1    366    bbb     H3  10590 0.04411300   1.008000   ; qtot -0.262142
10591         h1    366    bbb     H4  10591 0.04411300   1.008000   ; qtot -0.218029
10592         c3    366    bbb     C3  10592 -0.00195300  12.010000   ; qtot -0.219982
10593         h1    366    bbb     H5  10593 0.05064400   1.008000   ; qtot -0.169338
10594         h1    366    bbb     H6  10594 0.05064400   1.008000   ; qtot -0.118694
10595         c3    366    bbb     C4  10595 -0.01612100  12.010000   ; qtot -0.134815
10596         hc    366    bbb     H7  10596 0.04936100   1.008000   ; qtot -0.085454
10597         hc    366    bbb     H8  10597 0.04936100   1.008000   ; qtot -0.036093
10598         c3    366    bbb     C5  10598 0.11363000  12.010000   ; qtot 0.077537
10599         hc    366    bbb     H9  10599 0.06265900   1.008000   ; qtot 0.140196
10600         hc    366    bbb    H10  10600 0.06265900   1.008000   ; qtot 0.202855
10601         c3    366    bbb     C6  10601 0.11363000  12.010000   ; qtot 0.316485
10602         hc    366    bbb    H11  10602 0.06265900   1.008000   ; qtot 0.379144
10603         hc    366    bbb    H12  10603 0.06265900   1.008000   ; qtot 0.441803
10604         c3    366    bbb     C7  10604 0.05858200  12.010000   ; qtot 0.500385
10605         h1    366    bbb    H13  10605 0.06123400   1.008000   ; qtot 0.561619
10606         h1    366    bbb    H14  10606 0.06123400   1.008000   ; qtot 0.622853
10607         c3    366    bbb     C8  10607 -0.72423400  12.010000   ; qtot -0.101381
10608         h1    366    bbb    H15  10608 0.25637600   1.008000   ; qtot 0.154995
10609         h1    366    bbb    H16  10609 0.25637600   1.008000   ; qtot 0.411371
10610         c3    366    bbb     C9  10610 -0.72423400  12.010000   ; qtot -0.312863
10611         h1    366    bbb    H17  10611 0.25637600   1.008000   ; qtot -0.056487
10612         h1    366    bbb    H18  10612 0.25637600   1.008000   ; qtot 0.199889
10613         os    366    bbb     O1  10613 -0.20025300  16.000000   ; qtot -0.000364
; residue  367 bbb rtp bbb q -0.0
10614         n3    367    bbb     N1  10614 -0.59685800  14.010000   ; qtot -0.597222
10615         c3    367    bbb     C1  10615 0.10137000  12.010000   ; qtot -0.495852
10616         h1    367    bbb     H1  10616 0.04411300   1.008000   ; qtot -0.451739
10617         h1    367    bbb     H2  10617 0.04411300   1.008000   ; qtot -0.407626
10618         c3    367    bbb     C2  10618 0.10137000  12.010000   ; qtot -0.306256
10619         h1    367    bbb     H3  10619 0.04411300   1.008000   ; qtot -0.262143
10620         h1    367    bbb     H4  10620 0.04411300   1.008000   ; qtot -0.218030
10621         c3    367    bbb     C3  10621 -0.00195300  12.010000   ; qtot -0.219983
10622         h1    367    bbb     H5  10622 0.05064400   1.008000   ; qtot -0.169339
10623         h1    367    bbb     H6  10623 0.05064400   1.008000   ; qtot -0.118695
10624         c3    367    bbb     C4  10624 -0.01612100  12.010000   ; qtot -0.134816
10625         hc    367    bbb     H7  10625 0.04936100   1.008000   ; qtot -0.085455
10626         hc    367    bbb     H8  10626 0.04936100   1.008000   ; qtot -0.036094
10627         c3    367    bbb     C5  10627 0.11363000  12.010000   ; qtot 0.077536
10628         hc    367    bbb     H9  10628 0.06265900   1.008000   ; qtot 0.140195
10629         hc    367    bbb    H10  10629 0.06265900   1.008000   ; qtot 0.202854
10630         c3    367    bbb     C6  10630 0.11363000  12.010000   ; qtot 0.316484
10631         hc    367    bbb    H11  10631 0.06265900   1.008000   ; qtot 0.379143
10632         hc    367    bbb    H12  10632 0.06265900   1.008000   ; qtot 0.441802
10633         c3    367    bbb     C7  10633 0.05858200  12.010000   ; qtot 0.500384
10634         h1    367    bbb    H13  10634 0.06123400   1.008000   ; qtot 0.561618
10635         h1    367    bbb    H14  10635 0.06123400   1.008000   ; qtot 0.622852
10636         c3    367    bbb     C8  10636 -0.72423400  12.010000   ; qtot -0.101382
10637         h1    367    bbb    H15  10637 0.25637600   1.008000   ; qtot 0.154994
10638         h1    367    bbb    H16  10638 0.25637600   1.008000   ; qtot 0.411370
10639         c3    367    bbb     C9  10639 -0.72423400  12.010000   ; qtot -0.312864
10640         h1    367    bbb    H17  10640 0.25637600   1.008000   ; qtot -0.056488
10641         h1    367    bbb    H18  10641 0.25637600   1.008000   ; qtot 0.199888
10642         os    367    bbb     O1  10642 -0.20025300  16.000000   ; qtot -0.000365
; residue  368 bbb rtp bbb q -0.0
10643         n3    368    bbb     N1  10643 -0.59685800  14.010000   ; qtot -0.597223
10644         c3    368    bbb     C1  10644 0.10137000  12.010000   ; qtot -0.495853
10645         h1    368    bbb     H1  10645 0.04411300   1.008000   ; qtot -0.451740
10646         h1    368    bbb     H2  10646 0.04411300   1.008000   ; qtot -0.407627
10647         c3    368    bbb     C2  10647 0.10137000  12.010000   ; qtot -0.306257
10648         h1    368    bbb     H3  10648 0.04411300   1.008000   ; qtot -0.262144
10649         h1    368    bbb     H4  10649 0.04411300   1.008000   ; qtot -0.218031
10650         c3    368    bbb     C3  10650 -0.00195300  12.010000   ; qtot -0.219984
10651         h1    368    bbb     H5  10651 0.05064400   1.008000   ; qtot -0.169340
10652         h1    368    bbb     H6  10652 0.05064400   1.008000   ; qtot -0.118696
10653         c3    368    bbb     C4  10653 -0.01612100  12.010000   ; qtot -0.134817
10654         hc    368    bbb     H7  10654 0.04936100   1.008000   ; qtot -0.085456
10655         hc    368    bbb     H8  10655 0.04936100   1.008000   ; qtot -0.036095
10656         c3    368    bbb     C5  10656 0.11363000  12.010000   ; qtot 0.077535
10657         hc    368    bbb     H9  10657 0.06265900   1.008000   ; qtot 0.140194
10658         hc    368    bbb    H10  10658 0.06265900   1.008000   ; qtot 0.202853
10659         c3    368    bbb     C6  10659 0.11363000  12.010000   ; qtot 0.316483
10660         hc    368    bbb    H11  10660 0.06265900   1.008000   ; qtot 0.379142
10661         hc    368    bbb    H12  10661 0.06265900   1.008000   ; qtot 0.441801
10662         c3    368    bbb     C7  10662 0.05858200  12.010000   ; qtot 0.500383
10663         h1    368    bbb    H13  10663 0.06123400   1.008000   ; qtot 0.561617
10664         h1    368    bbb    H14  10664 0.06123400   1.008000   ; qtot 0.622851
10665         c3    368    bbb     C8  10665 -0.72423400  12.010000   ; qtot -0.101383
10666         h1    368    bbb    H15  10666 0.25637600   1.008000   ; qtot 0.154993
10667         h1    368    bbb    H16  10667 0.25637600   1.008000   ; qtot 0.411369
10668         c3    368    bbb     C9  10668 -0.72423400  12.010000   ; qtot -0.312864
10669         h1    368    bbb    H17  10669 0.25637600   1.008000   ; qtot -0.056488
10670         h1    368    bbb    H18  10670 0.25637600   1.008000   ; qtot 0.199887
10671         os    368    bbb     O1  10671 -0.20025300  16.000000   ; qtot -0.000365
; residue  369 bbb rtp bbb q -0.0
10672         n3    369    bbb     N1  10672 -0.59685800  14.010000   ; qtot -0.597223
10673         c3    369    bbb     C1  10673 0.10137000  12.010000   ; qtot -0.495853
10674         h1    369    bbb     H1  10674 0.04411300   1.008000   ; qtot -0.451740
10675         h1    369    bbb     H2  10675 0.04411300   1.008000   ; qtot -0.407627
10676         c3    369    bbb     C2  10676 0.10137000  12.010000   ; qtot -0.306257
10677         h1    369    bbb     H3  10677 0.04411300   1.008000   ; qtot -0.262144
10678         h1    369    bbb     H4  10678 0.04411300   1.008000   ; qtot -0.218031
10679         c3    369    bbb     C3  10679 -0.00195300  12.010000   ; qtot -0.219984
10680         h1    369    bbb     H5  10680 0.05064400   1.008000   ; qtot -0.169340
10681         h1    369    bbb     H6  10681 0.05064400   1.008000   ; qtot -0.118696
10682         c3    369    bbb     C4  10682 -0.01612100  12.010000   ; qtot -0.134817
10683         hc    369    bbb     H7  10683 0.04936100   1.008000   ; qtot -0.085456
10684         hc    369    bbb     H8  10684 0.04936100   1.008000   ; qtot -0.036095
10685         c3    369    bbb     C5  10685 0.11363000  12.010000   ; qtot 0.077535
10686         hc    369    bbb     H9  10686 0.06265900   1.008000   ; qtot 0.140194
10687         hc    369    bbb    H10  10687 0.06265900   1.008000   ; qtot 0.202853
10688         c3    369    bbb     C6  10688 0.11363000  12.010000   ; qtot 0.316483
10689         hc    369    bbb    H11  10689 0.06265900   1.008000   ; qtot 0.379142
10690         hc    369    bbb    H12  10690 0.06265900   1.008000   ; qtot 0.441801
10691         c3    369    bbb     C7  10691 0.05858200  12.010000   ; qtot 0.500383
10692         h1    369    bbb    H13  10692 0.06123400   1.008000   ; qtot 0.561617
10693         h1    369    bbb    H14  10693 0.06123400   1.008000   ; qtot 0.622851
10694         c3    369    bbb     C8  10694 -0.72423400  12.010000   ; qtot -0.101383
10695         h1    369    bbb    H15  10695 0.25637600   1.008000   ; qtot 0.154993
10696         h1    369    bbb    H16  10696 0.25637600   1.008000   ; qtot 0.411369
10697         c3    369    bbb     C9  10697 -0.72423400  12.010000   ; qtot -0.312865
10698         h1    369    bbb    H17  10698 0.25637600   1.008000   ; qtot -0.056489
10699         h1    369    bbb    H18  10699 0.25637600   1.008000   ; qtot 0.199887
10700         os    369    bbb     O1  10700 -0.20025300  16.000000   ; qtot -0.000366
; residue  370 bbb rtp bbb q -0.0
10701         n3    370    bbb     N1  10701 -0.59685800  14.010000   ; qtot -0.597224
10702         c3    370    bbb     C1  10702 0.10137000  12.010000   ; qtot -0.495854
10703         h1    370    bbb     H1  10703 0.04411300   1.008000   ; qtot -0.451741
10704         h1    370    bbb     H2  10704 0.04411300   1.008000   ; qtot -0.407628
10705         c3    370    bbb     C2  10705 0.10137000  12.010000   ; qtot -0.306258
10706         h1    370    bbb     H3  10706 0.04411300   1.008000   ; qtot -0.262145
10707         h1    370    bbb     H4  10707 0.04411300   1.008000   ; qtot -0.218032
10708         c3    370    bbb     C3  10708 -0.00195300  12.010000   ; qtot -0.219985
10709         h1    370    bbb     H5  10709 0.05064400   1.008000   ; qtot -0.169341
10710         h1    370    bbb     H6  10710 0.05064400   1.008000   ; qtot -0.118697
10711         c3    370    bbb     C4  10711 -0.01612100  12.010000   ; qtot -0.134818
10712         hc    370    bbb     H7  10712 0.04936100   1.008000   ; qtot -0.085457
10713         hc    370    bbb     H8  10713 0.04936100   1.008000   ; qtot -0.036096
10714         c3    370    bbb     C5  10714 0.11363000  12.010000   ; qtot 0.077534
10715         hc    370    bbb     H9  10715 0.06265900   1.008000   ; qtot 0.140193
10716         hc    370    bbb    H10  10716 0.06265900   1.008000   ; qtot 0.202852
10717         c3    370    bbb     C6  10717 0.11363000  12.010000   ; qtot 0.316482
10718         hc    370    bbb    H11  10718 0.06265900   1.008000   ; qtot 0.379141
10719         hc    370    bbb    H12  10719 0.06265900   1.008000   ; qtot 0.441800
10720         c3    370    bbb     C7  10720 0.05858200  12.010000   ; qtot 0.500382
10721         h1    370    bbb    H13  10721 0.06123400   1.008000   ; qtot 0.561616
10722         h1    370    bbb    H14  10722 0.06123400   1.008000   ; qtot 0.622850
10723         c3    370    bbb     C8  10723 -0.72423400  12.010000   ; qtot -0.101384
10724         h1    370    bbb    H15  10724 0.25637600   1.008000   ; qtot 0.154992
10725         h1    370    bbb    H16  10725 0.25637600   1.008000   ; qtot 0.411368
10726         c3    370    bbb     C9  10726 -0.72423400  12.010000   ; qtot -0.312866
10727         h1    370    bbb    H17  10727 0.25637600   1.008000   ; qtot -0.056490
10728         h1    370    bbb    H18  10728 0.25637600   1.008000   ; qtot 0.199886
10729         os    370    bbb     O1  10729 -0.20025300  16.000000   ; qtot -0.000367
; residue  371 bbb rtp bbb q -0.0
10730         n3    371    bbb     N1  10730 -0.59685800  14.010000   ; qtot -0.597225
10731         c3    371    bbb     C1  10731 0.10137000  12.010000   ; qtot -0.495855
10732         h1    371    bbb     H1  10732 0.04411300   1.008000   ; qtot -0.451742
10733         h1    371    bbb     H2  10733 0.04411300   1.008000   ; qtot -0.407629
10734         c3    371    bbb     C2  10734 0.10137000  12.010000   ; qtot -0.306259
10735         h1    371    bbb     H3  10735 0.04411300   1.008000   ; qtot -0.262146
10736         h1    371    bbb     H4  10736 0.04411300   1.008000   ; qtot -0.218033
10737         c3    371    bbb     C3  10737 -0.00195300  12.010000   ; qtot -0.219986
10738         h1    371    bbb     H5  10738 0.05064400   1.008000   ; qtot -0.169342
10739         h1    371    bbb     H6  10739 0.05064400   1.008000   ; qtot -0.118698
10740         c3    371    bbb     C4  10740 -0.01612100  12.010000   ; qtot -0.134819
10741         hc    371    bbb     H7  10741 0.04936100   1.008000   ; qtot -0.085458
10742         hc    371    bbb     H8  10742 0.04936100   1.008000   ; qtot -0.036097
10743         c3    371    bbb     C5  10743 0.11363000  12.010000   ; qtot 0.077533
10744         hc    371    bbb     H9  10744 0.06265900   1.008000   ; qtot 0.140192
10745         hc    371    bbb    H10  10745 0.06265900   1.008000   ; qtot 0.202851
10746         c3    371    bbb     C6  10746 0.11363000  12.010000   ; qtot 0.316481
10747         hc    371    bbb    H11  10747 0.06265900   1.008000   ; qtot 0.379140
10748         hc    371    bbb    H12  10748 0.06265900   1.008000   ; qtot 0.441799
10749         c3    371    bbb     C7  10749 0.05858200  12.010000   ; qtot 0.500381
10750         h1    371    bbb    H13  10750 0.06123400   1.008000   ; qtot 0.561615
10751         h1    371    bbb    H14  10751 0.06123400   1.008000   ; qtot 0.622849
10752         c3    371    bbb     C8  10752 -0.72423400  12.010000   ; qtot -0.101385
10753         h1    371    bbb    H15  10753 0.25637600   1.008000   ; qtot 0.154991
10754         h1    371    bbb    H16  10754 0.25637600   1.008000   ; qtot 0.411367
10755         c3    371    bbb     C9  10755 -0.72423400  12.010000   ; qtot -0.312867
10756         h1    371    bbb    H17  10756 0.25637600   1.008000   ; qtot -0.056491
10757         h1    371    bbb    H18  10757 0.25637600   1.008000   ; qtot 0.199885
10758         os    371    bbb     O1  10758 -0.20025300  16.000000   ; qtot -0.000368
; residue  372 bbb rtp bbb q -0.0
10759         n3    372    bbb     N1  10759 -0.59685800  14.010000   ; qtot -0.597226
10760         c3    372    bbb     C1  10760 0.10137000  12.010000   ; qtot -0.495856
10761         h1    372    bbb     H1  10761 0.04411300   1.008000   ; qtot -0.451743
10762         h1    372    bbb     H2  10762 0.04411300   1.008000   ; qtot -0.407630
10763         c3    372    bbb     C2  10763 0.10137000  12.010000   ; qtot -0.306260
10764         h1    372    bbb     H3  10764 0.04411300   1.008000   ; qtot -0.262147
10765         h1    372    bbb     H4  10765 0.04411300   1.008000   ; qtot -0.218034
10766         c3    372    bbb     C3  10766 -0.00195300  12.010000   ; qtot -0.219987
10767         h1    372    bbb     H5  10767 0.05064400   1.008000   ; qtot -0.169343
10768         h1    372    bbb     H6  10768 0.05064400   1.008000   ; qtot -0.118699
10769         c3    372    bbb     C4  10769 -0.01612100  12.010000   ; qtot -0.134820
10770         hc    372    bbb     H7  10770 0.04936100   1.008000   ; qtot -0.085459
10771         hc    372    bbb     H8  10771 0.04936100   1.008000   ; qtot -0.036098
10772         c3    372    bbb     C5  10772 0.11363000  12.010000   ; qtot 0.077532
10773         hc    372    bbb     H9  10773 0.06265900   1.008000   ; qtot 0.140191
10774         hc    372    bbb    H10  10774 0.06265900   1.008000   ; qtot 0.202850
10775         c3    372    bbb     C6  10775 0.11363000  12.010000   ; qtot 0.316480
10776         hc    372    bbb    H11  10776 0.06265900   1.008000   ; qtot 0.379139
10777         hc    372    bbb    H12  10777 0.06265900   1.008000   ; qtot 0.441798
10778         c3    372    bbb     C7  10778 0.05858200  12.010000   ; qtot 0.500380
10779         h1    372    bbb    H13  10779 0.06123400   1.008000   ; qtot 0.561614
10780         h1    372    bbb    H14  10780 0.06123400   1.008000   ; qtot 0.622848
10781         c3    372    bbb     C8  10781 -0.72423400  12.010000   ; qtot -0.101386
10782         h1    372    bbb    H15  10782 0.25637600   1.008000   ; qtot 0.154990
10783         h1    372    bbb    H16  10783 0.25637600   1.008000   ; qtot 0.411366
10784         c3    372    bbb     C9  10784 -0.72423400  12.010000   ; qtot -0.312868
10785         h1    372    bbb    H17  10785 0.25637600   1.008000   ; qtot -0.056492
10786         h1    372    bbb    H18  10786 0.25637600   1.008000   ; qtot 0.199884
10787         os    372    bbb     O1  10787 -0.20025300  16.000000   ; qtot -0.000369
; residue  373 bbb rtp bbb q -0.0
10788         n3    373    bbb     N1  10788 -0.59685800  14.010000   ; qtot -0.597227
10789         c3    373    bbb     C1  10789 0.10137000  12.010000   ; qtot -0.495857
10790         h1    373    bbb     H1  10790 0.04411300   1.008000   ; qtot -0.451744
10791         h1    373    bbb     H2  10791 0.04411300   1.008000   ; qtot -0.407631
10792         c3    373    bbb     C2  10792 0.10137000  12.010000   ; qtot -0.306261
10793         h1    373    bbb     H3  10793 0.04411300   1.008000   ; qtot -0.262148
10794         h1    373    bbb     H4  10794 0.04411300   1.008000   ; qtot -0.218035
10795         c3    373    bbb     C3  10795 -0.00195300  12.010000   ; qtot -0.219988
10796         h1    373    bbb     H5  10796 0.05064400   1.008000   ; qtot -0.169344
10797         h1    373    bbb     H6  10797 0.05064400   1.008000   ; qtot -0.118700
10798         c3    373    bbb     C4  10798 -0.01612100  12.010000   ; qtot -0.134821
10799         hc    373    bbb     H7  10799 0.04936100   1.008000   ; qtot -0.085460
10800         hc    373    bbb     H8  10800 0.04936100   1.008000   ; qtot -0.036099
10801         c3    373    bbb     C5  10801 0.11363000  12.010000   ; qtot 0.077531
10802         hc    373    bbb     H9  10802 0.06265900   1.008000   ; qtot 0.140190
10803         hc    373    bbb    H10  10803 0.06265900   1.008000   ; qtot 0.202849
10804         c3    373    bbb     C6  10804 0.11363000  12.010000   ; qtot 0.316479
10805         hc    373    bbb    H11  10805 0.06265900   1.008000   ; qtot 0.379138
10806         hc    373    bbb    H12  10806 0.06265900   1.008000   ; qtot 0.441797
10807         c3    373    bbb     C7  10807 0.05858200  12.010000   ; qtot 0.500379
10808         h1    373    bbb    H13  10808 0.06123400   1.008000   ; qtot 0.561613
10809         h1    373    bbb    H14  10809 0.06123400   1.008000   ; qtot 0.622847
10810         c3    373    bbb     C8  10810 -0.72423400  12.010000   ; qtot -0.101387
10811         h1    373    bbb    H15  10811 0.25637600   1.008000   ; qtot 0.154989
10812         h1    373    bbb    H16  10812 0.25637600   1.008000   ; qtot 0.411365
10813         c3    373    bbb     C9  10813 -0.72423400  12.010000   ; qtot -0.312869
10814         h1    373    bbb    H17  10814 0.25637600   1.008000   ; qtot -0.056493
10815         h1    373    bbb    H18  10815 0.25637600   1.008000   ; qtot 0.199883
10816         os    373    bbb     O1  10816 -0.20025300  16.000000   ; qtot -0.000370
; residue  374 bbb rtp bbb q -0.0
10817         n3    374    bbb     N1  10817 -0.59685800  14.010000   ; qtot -0.597228
10818         c3    374    bbb     C1  10818 0.10137000  12.010000   ; qtot -0.495858
10819         h1    374    bbb     H1  10819 0.04411300   1.008000   ; qtot -0.451745
10820         h1    374    bbb     H2  10820 0.04411300   1.008000   ; qtot -0.407632
10821         c3    374    bbb     C2  10821 0.10137000  12.010000   ; qtot -0.306262
10822         h1    374    bbb     H3  10822 0.04411300   1.008000   ; qtot -0.262149
10823         h1    374    bbb     H4  10823 0.04411300   1.008000   ; qtot -0.218036
10824         c3    374    bbb     C3  10824 -0.00195300  12.010000   ; qtot -0.219989
10825         h1    374    bbb     H5  10825 0.05064400   1.008000   ; qtot -0.169345
10826         h1    374    bbb     H6  10826 0.05064400   1.008000   ; qtot -0.118701
10827         c3    374    bbb     C4  10827 -0.01612100  12.010000   ; qtot -0.134822
10828         hc    374    bbb     H7  10828 0.04936100   1.008000   ; qtot -0.085461
10829         hc    374    bbb     H8  10829 0.04936100   1.008000   ; qtot -0.036100
10830         c3    374    bbb     C5  10830 0.11363000  12.010000   ; qtot 0.077530
10831         hc    374    bbb     H9  10831 0.06265900   1.008000   ; qtot 0.140189
10832         hc    374    bbb    H10  10832 0.06265900   1.008000   ; qtot 0.202848
10833         c3    374    bbb     C6  10833 0.11363000  12.010000   ; qtot 0.316478
10834         hc    374    bbb    H11  10834 0.06265900   1.008000   ; qtot 0.379137
10835         hc    374    bbb    H12  10835 0.06265900   1.008000   ; qtot 0.441796
10836         c3    374    bbb     C7  10836 0.05858200  12.010000   ; qtot 0.500378
10837         h1    374    bbb    H13  10837 0.06123400   1.008000   ; qtot 0.561612
10838         h1    374    bbb    H14  10838 0.06123400   1.008000   ; qtot 0.622846
10839         c3    374    bbb     C8  10839 -0.72423400  12.010000   ; qtot -0.101388
10840         h1    374    bbb    H15  10840 0.25637600   1.008000   ; qtot 0.154988
10841         h1    374    bbb    H16  10841 0.25637600   1.008000   ; qtot 0.411364
10842         c3    374    bbb     C9  10842 -0.72423400  12.010000   ; qtot -0.312870
10843         h1    374    bbb    H17  10843 0.25637600   1.008000   ; qtot -0.056494
10844         h1    374    bbb    H18  10844 0.25637600   1.008000   ; qtot 0.199882
10845         os    374    bbb     O1  10845 -0.20025300  16.000000   ; qtot -0.000371
; residue  375 bbb rtp bbb q -0.0
10846         n3    375    bbb     N1  10846 -0.59685800  14.010000   ; qtot -0.597229
10847         c3    375    bbb     C1  10847 0.10137000  12.010000   ; qtot -0.495859
10848         h1    375    bbb     H1  10848 0.04411300   1.008000   ; qtot -0.451746
10849         h1    375    bbb     H2  10849 0.04411300   1.008000   ; qtot -0.407633
10850         c3    375    bbb     C2  10850 0.10137000  12.010000   ; qtot -0.306263
10851         h1    375    bbb     H3  10851 0.04411300   1.008000   ; qtot -0.262150
10852         h1    375    bbb     H4  10852 0.04411300   1.008000   ; qtot -0.218037
10853         c3    375    bbb     C3  10853 -0.00195300  12.010000   ; qtot -0.219990
10854         h1    375    bbb     H5  10854 0.05064400   1.008000   ; qtot -0.169346
10855         h1    375    bbb     H6  10855 0.05064400   1.008000   ; qtot -0.118702
10856         c3    375    bbb     C4  10856 -0.01612100  12.010000   ; qtot -0.134823
10857         hc    375    bbb     H7  10857 0.04936100   1.008000   ; qtot -0.085462
10858         hc    375    bbb     H8  10858 0.04936100   1.008000   ; qtot -0.036101
10859         c3    375    bbb     C5  10859 0.11363000  12.010000   ; qtot 0.077529
10860         hc    375    bbb     H9  10860 0.06265900   1.008000   ; qtot 0.140188
10861         hc    375    bbb    H10  10861 0.06265900   1.008000   ; qtot 0.202847
10862         c3    375    bbb     C6  10862 0.11363000  12.010000   ; qtot 0.316477
10863         hc    375    bbb    H11  10863 0.06265900   1.008000   ; qtot 0.379136
10864         hc    375    bbb    H12  10864 0.06265900   1.008000   ; qtot 0.441795
10865         c3    375    bbb     C7  10865 0.05858200  12.010000   ; qtot 0.500377
10866         h1    375    bbb    H13  10866 0.06123400   1.008000   ; qtot 0.561611
10867         h1    375    bbb    H14  10867 0.06123400   1.008000   ; qtot 0.622845
10868         c3    375    bbb     C8  10868 -0.72423400  12.010000   ; qtot -0.101389
10869         h1    375    bbb    H15  10869 0.25637600   1.008000   ; qtot 0.154987
10870         h1    375    bbb    H16  10870 0.25637600   1.008000   ; qtot 0.411363
10871         c3    375    bbb     C9  10871 -0.72423400  12.010000   ; qtot -0.312871
10872         h1    375    bbb    H17  10872 0.25637600   1.008000   ; qtot -0.056495
10873         h1    375    bbb    H18  10873 0.25637600   1.008000   ; qtot 0.199881
10874         os    375    bbb     O1  10874 -0.20025300  16.000000   ; qtot -0.000372
; residue  376 bbb rtp bbb q -0.0
10875         n3    376    bbb     N1  10875 -0.59685800  14.010000   ; qtot -0.597230
10876         c3    376    bbb     C1  10876 0.10137000  12.010000   ; qtot -0.495860
10877         h1    376    bbb     H1  10877 0.04411300   1.008000   ; qtot -0.451747
10878         h1    376    bbb     H2  10878 0.04411300   1.008000   ; qtot -0.407634
10879         c3    376    bbb     C2  10879 0.10137000  12.010000   ; qtot -0.306264
10880         h1    376    bbb     H3  10880 0.04411300   1.008000   ; qtot -0.262151
10881         h1    376    bbb     H4  10881 0.04411300   1.008000   ; qtot -0.218038
10882         c3    376    bbb     C3  10882 -0.00195300  12.010000   ; qtot -0.219991
10883         h1    376    bbb     H5  10883 0.05064400   1.008000   ; qtot -0.169347
10884         h1    376    bbb     H6  10884 0.05064400   1.008000   ; qtot -0.118703
10885         c3    376    bbb     C4  10885 -0.01612100  12.010000   ; qtot -0.134824
10886         hc    376    bbb     H7  10886 0.04936100   1.008000   ; qtot -0.085463
10887         hc    376    bbb     H8  10887 0.04936100   1.008000   ; qtot -0.036102
10888         c3    376    bbb     C5  10888 0.11363000  12.010000   ; qtot 0.077528
10889         hc    376    bbb     H9  10889 0.06265900   1.008000   ; qtot 0.140187
10890         hc    376    bbb    H10  10890 0.06265900   1.008000   ; qtot 0.202846
10891         c3    376    bbb     C6  10891 0.11363000  12.010000   ; qtot 0.316476
10892         hc    376    bbb    H11  10892 0.06265900   1.008000   ; qtot 0.379135
10893         hc    376    bbb    H12  10893 0.06265900   1.008000   ; qtot 0.441794
10894         c3    376    bbb     C7  10894 0.05858200  12.010000   ; qtot 0.500376
10895         h1    376    bbb    H13  10895 0.06123400   1.008000   ; qtot 0.561610
10896         h1    376    bbb    H14  10896 0.06123400   1.008000   ; qtot 0.622844
10897         c3    376    bbb     C8  10897 -0.72423400  12.010000   ; qtot -0.101390
10898         h1    376    bbb    H15  10898 0.25637600   1.008000   ; qtot 0.154986
10899         h1    376    bbb    H16  10899 0.25637600   1.008000   ; qtot 0.411362
10900         c3    376    bbb     C9  10900 -0.72423400  12.010000   ; qtot -0.312872
10901         h1    376    bbb    H17  10901 0.25637600   1.008000   ; qtot -0.056496
10902         h1    376    bbb    H18  10902 0.25637600   1.008000   ; qtot 0.199880
10903         os    376    bbb     O1  10903 -0.20025300  16.000000   ; qtot -0.000373
; residue  377 bbb rtp bbb q -0.0
10904         n3    377    bbb     N1  10904 -0.59685800  14.010000   ; qtot -0.597231
10905         c3    377    bbb     C1  10905 0.10137000  12.010000   ; qtot -0.495861
10906         h1    377    bbb     H1  10906 0.04411300   1.008000   ; qtot -0.451748
10907         h1    377    bbb     H2  10907 0.04411300   1.008000   ; qtot -0.407635
10908         c3    377    bbb     C2  10908 0.10137000  12.010000   ; qtot -0.306265
10909         h1    377    bbb     H3  10909 0.04411300   1.008000   ; qtot -0.262152
10910         h1    377    bbb     H4  10910 0.04411300   1.008000   ; qtot -0.218039
10911         c3    377    bbb     C3  10911 -0.00195300  12.010000   ; qtot -0.219992
10912         h1    377    bbb     H5  10912 0.05064400   1.008000   ; qtot -0.169348
10913         h1    377    bbb     H6  10913 0.05064400   1.008000   ; qtot -0.118704
10914         c3    377    bbb     C4  10914 -0.01612100  12.010000   ; qtot -0.134825
10915         hc    377    bbb     H7  10915 0.04936100   1.008000   ; qtot -0.085464
10916         hc    377    bbb     H8  10916 0.04936100   1.008000   ; qtot -0.036103
10917         c3    377    bbb     C5  10917 0.11363000  12.010000   ; qtot 0.077527
10918         hc    377    bbb     H9  10918 0.06265900   1.008000   ; qtot 0.140186
10919         hc    377    bbb    H10  10919 0.06265900   1.008000   ; qtot 0.202845
10920         c3    377    bbb     C6  10920 0.11363000  12.010000   ; qtot 0.316475
10921         hc    377    bbb    H11  10921 0.06265900   1.008000   ; qtot 0.379134
10922         hc    377    bbb    H12  10922 0.06265900   1.008000   ; qtot 0.441793
10923         c3    377    bbb     C7  10923 0.05858200  12.010000   ; qtot 0.500375
10924         h1    377    bbb    H13  10924 0.06123400   1.008000   ; qtot 0.561609
10925         h1    377    bbb    H14  10925 0.06123400   1.008000   ; qtot 0.622843
10926         c3    377    bbb     C8  10926 -0.72423400  12.010000   ; qtot -0.101391
10927         h1    377    bbb    H15  10927 0.25637600   1.008000   ; qtot 0.154985
10928         h1    377    bbb    H16  10928 0.25637600   1.008000   ; qtot 0.411361
10929         c3    377    bbb     C9  10929 -0.72423400  12.010000   ; qtot -0.312873
10930         h1    377    bbb    H17  10930 0.25637600   1.008000   ; qtot -0.056497
10931         h1    377    bbb    H18  10931 0.25637600   1.008000   ; qtot 0.199879
10932         os    377    bbb     O1  10932 -0.20025300  16.000000   ; qtot -0.000374
; residue  378 bbb rtp bbb q -0.0
10933         n3    378    bbb     N1  10933 -0.59685800  14.010000   ; qtot -0.597232
10934         c3    378    bbb     C1  10934 0.10137000  12.010000   ; qtot -0.495862
10935         h1    378    bbb     H1  10935 0.04411300   1.008000   ; qtot -0.451749
10936         h1    378    bbb     H2  10936 0.04411300   1.008000   ; qtot -0.407636
10937         c3    378    bbb     C2  10937 0.10137000  12.010000   ; qtot -0.306266
10938         h1    378    bbb     H3  10938 0.04411300   1.008000   ; qtot -0.262153
10939         h1    378    bbb     H4  10939 0.04411300   1.008000   ; qtot -0.218040
10940         c3    378    bbb     C3  10940 -0.00195300  12.010000   ; qtot -0.219993
10941         h1    378    bbb     H5  10941 0.05064400   1.008000   ; qtot -0.169349
10942         h1    378    bbb     H6  10942 0.05064400   1.008000   ; qtot -0.118705
10943         c3    378    bbb     C4  10943 -0.01612100  12.010000   ; qtot -0.134826
10944         hc    378    bbb     H7  10944 0.04936100   1.008000   ; qtot -0.085465
10945         hc    378    bbb     H8  10945 0.04936100   1.008000   ; qtot -0.036104
10946         c3    378    bbb     C5  10946 0.11363000  12.010000   ; qtot 0.077526
10947         hc    378    bbb     H9  10947 0.06265900   1.008000   ; qtot 0.140185
10948         hc    378    bbb    H10  10948 0.06265900   1.008000   ; qtot 0.202844
10949         c3    378    bbb     C6  10949 0.11363000  12.010000   ; qtot 0.316474
10950         hc    378    bbb    H11  10950 0.06265900   1.008000   ; qtot 0.379133
10951         hc    378    bbb    H12  10951 0.06265900   1.008000   ; qtot 0.441792
10952         c3    378    bbb     C7  10952 0.05858200  12.010000   ; qtot 0.500374
10953         h1    378    bbb    H13  10953 0.06123400   1.008000   ; qtot 0.561608
10954         h1    378    bbb    H14  10954 0.06123400   1.008000   ; qtot 0.622842
10955         c3    378    bbb     C8  10955 -0.72423400  12.010000   ; qtot -0.101392
10956         h1    378    bbb    H15  10956 0.25637600   1.008000   ; qtot 0.154984
10957         h1    378    bbb    H16  10957 0.25637600   1.008000   ; qtot 0.411360
10958         c3    378    bbb     C9  10958 -0.72423400  12.010000   ; qtot -0.312874
10959         h1    378    bbb    H17  10959 0.25637600   1.008000   ; qtot -0.056498
10960         h1    378    bbb    H18  10960 0.25637600   1.008000   ; qtot 0.199878
10961         os    378    bbb     O1  10961 -0.20025300  16.000000   ; qtot -0.000375
; residue  379 bbb rtp bbb q -0.0
10962         n3    379    bbb     N1  10962 -0.59685800  14.010000   ; qtot -0.597233
10963         c3    379    bbb     C1  10963 0.10137000  12.010000   ; qtot -0.495863
10964         h1    379    bbb     H1  10964 0.04411300   1.008000   ; qtot -0.451750
10965         h1    379    bbb     H2  10965 0.04411300   1.008000   ; qtot -0.407637
10966         c3    379    bbb     C2  10966 0.10137000  12.010000   ; qtot -0.306267
10967         h1    379    bbb     H3  10967 0.04411300   1.008000   ; qtot -0.262154
10968         h1    379    bbb     H4  10968 0.04411300   1.008000   ; qtot -0.218041
10969         c3    379    bbb     C3  10969 -0.00195300  12.010000   ; qtot -0.219994
10970         h1    379    bbb     H5  10970 0.05064400   1.008000   ; qtot -0.169350
10971         h1    379    bbb     H6  10971 0.05064400   1.008000   ; qtot -0.118706
10972         c3    379    bbb     C4  10972 -0.01612100  12.010000   ; qtot -0.134827
10973         hc    379    bbb     H7  10973 0.04936100   1.008000   ; qtot -0.085466
10974         hc    379    bbb     H8  10974 0.04936100   1.008000   ; qtot -0.036105
10975         c3    379    bbb     C5  10975 0.11363000  12.010000   ; qtot 0.077525
10976         hc    379    bbb     H9  10976 0.06265900   1.008000   ; qtot 0.140184
10977         hc    379    bbb    H10  10977 0.06265900   1.008000   ; qtot 0.202843
10978         c3    379    bbb     C6  10978 0.11363000  12.010000   ; qtot 0.316473
10979         hc    379    bbb    H11  10979 0.06265900   1.008000   ; qtot 0.379132
10980         hc    379    bbb    H12  10980 0.06265900   1.008000   ; qtot 0.441791
10981         c3    379    bbb     C7  10981 0.05858200  12.010000   ; qtot 0.500373
10982         h1    379    bbb    H13  10982 0.06123400   1.008000   ; qtot 0.561607
10983         h1    379    bbb    H14  10983 0.06123400   1.008000   ; qtot 0.622841
10984         c3    379    bbb     C8  10984 -0.72423400  12.010000   ; qtot -0.101393
10985         h1    379    bbb    H15  10985 0.25637600   1.008000   ; qtot 0.154983
10986         h1    379    bbb    H16  10986 0.25637600   1.008000   ; qtot 0.411359
10987         c3    379    bbb     C9  10987 -0.72423400  12.010000   ; qtot -0.312875
10988         h1    379    bbb    H17  10988 0.25637600   1.008000   ; qtot -0.056499
10989         h1    379    bbb    H18  10989 0.25637600   1.008000   ; qtot 0.199877
10990         os    379    bbb     O1  10990 -0.20025300  16.000000   ; qtot -0.000376
; residue  380 bbb rtp bbb q -0.0
10991         n3    380    bbb     N1  10991 -0.59685800  14.010000   ; qtot -0.597234
10992         c3    380    bbb     C1  10992 0.10137000  12.010000   ; qtot -0.495864
10993         h1    380    bbb     H1  10993 0.04411300   1.008000   ; qtot -0.451751
10994         h1    380    bbb     H2  10994 0.04411300   1.008000   ; qtot -0.407638
10995         c3    380    bbb     C2  10995 0.10137000  12.010000   ; qtot -0.306268
10996         h1    380    bbb     H3  10996 0.04411300   1.008000   ; qtot -0.262155
10997         h1    380    bbb     H4  10997 0.04411300   1.008000   ; qtot -0.218042
10998         c3    380    bbb     C3  10998 -0.00195300  12.010000   ; qtot -0.219995
10999         h1    380    bbb     H5  10999 0.05064400   1.008000   ; qtot -0.169351
11000         h1    380    bbb     H6  11000 0.05064400   1.008000   ; qtot -0.118707
11001         c3    380    bbb     C4  11001 -0.01612100  12.010000   ; qtot -0.134828
11002         hc    380    bbb     H7  11002 0.04936100   1.008000   ; qtot -0.085467
11003         hc    380    bbb     H8  11003 0.04936100   1.008000   ; qtot -0.036106
11004         c3    380    bbb     C5  11004 0.11363000  12.010000   ; qtot 0.077524
11005         hc    380    bbb     H9  11005 0.06265900   1.008000   ; qtot 0.140183
11006         hc    380    bbb    H10  11006 0.06265900   1.008000   ; qtot 0.202842
11007         c3    380    bbb     C6  11007 0.11363000  12.010000   ; qtot 0.316472
11008         hc    380    bbb    H11  11008 0.06265900   1.008000   ; qtot 0.379131
11009         hc    380    bbb    H12  11009 0.06265900   1.008000   ; qtot 0.441790
11010         c3    380    bbb     C7  11010 0.05858200  12.010000   ; qtot 0.500372
11011         h1    380    bbb    H13  11011 0.06123400   1.008000   ; qtot 0.561606
11012         h1    380    bbb    H14  11012 0.06123400   1.008000   ; qtot 0.622840
11013         c3    380    bbb     C8  11013 -0.72423400  12.010000   ; qtot -0.101394
11014         h1    380    bbb    H15  11014 0.25637600   1.008000   ; qtot 0.154982
11015         h1    380    bbb    H16  11015 0.25637600   1.008000   ; qtot 0.411358
11016         c3    380    bbb     C9  11016 -0.72423400  12.010000   ; qtot -0.312876
11017         h1    380    bbb    H17  11017 0.25637600   1.008000   ; qtot -0.056500
11018         h1    380    bbb    H18  11018 0.25637600   1.008000   ; qtot 0.199876
11019         os    380    bbb     O1  11019 -0.20025300  16.000000   ; qtot -0.000377
; residue  381 bbb rtp bbb q -0.0
11020         n3    381    bbb     N1  11020 -0.59685800  14.010000   ; qtot -0.597235
11021         c3    381    bbb     C1  11021 0.10137000  12.010000   ; qtot -0.495865
11022         h1    381    bbb     H1  11022 0.04411300   1.008000   ; qtot -0.451752
11023         h1    381    bbb     H2  11023 0.04411300   1.008000   ; qtot -0.407639
11024         c3    381    bbb     C2  11024 0.10137000  12.010000   ; qtot -0.306269
11025         h1    381    bbb     H3  11025 0.04411300   1.008000   ; qtot -0.262156
11026         h1    381    bbb     H4  11026 0.04411300   1.008000   ; qtot -0.218043
11027         c3    381    bbb     C3  11027 -0.00195300  12.010000   ; qtot -0.219996
11028         h1    381    bbb     H5  11028 0.05064400   1.008000   ; qtot -0.169352
11029         h1    381    bbb     H6  11029 0.05064400   1.008000   ; qtot -0.118708
11030         c3    381    bbb     C4  11030 -0.01612100  12.010000   ; qtot -0.134829
11031         hc    381    bbb     H7  11031 0.04936100   1.008000   ; qtot -0.085468
11032         hc    381    bbb     H8  11032 0.04936100   1.008000   ; qtot -0.036107
11033         c3    381    bbb     C5  11033 0.11363000  12.010000   ; qtot 0.077523
11034         hc    381    bbb     H9  11034 0.06265900   1.008000   ; qtot 0.140182
11035         hc    381    bbb    H10  11035 0.06265900   1.008000   ; qtot 0.202841
11036         c3    381    bbb     C6  11036 0.11363000  12.010000   ; qtot 0.316471
11037         hc    381    bbb    H11  11037 0.06265900   1.008000   ; qtot 0.379130
11038         hc    381    bbb    H12  11038 0.06265900   1.008000   ; qtot 0.441789
11039         c3    381    bbb     C7  11039 0.05858200  12.010000   ; qtot 0.500371
11040         h1    381    bbb    H13  11040 0.06123400   1.008000   ; qtot 0.561605
11041         h1    381    bbb    H14  11041 0.06123400   1.008000   ; qtot 0.622839
11042         c3    381    bbb     C8  11042 -0.72423400  12.010000   ; qtot -0.101395
11043         h1    381    bbb    H15  11043 0.25637600   1.008000   ; qtot 0.154981
11044         h1    381    bbb    H16  11044 0.25637600   1.008000   ; qtot 0.411357
11045         c3    381    bbb     C9  11045 -0.72423400  12.010000   ; qtot -0.312877
11046         h1    381    bbb    H17  11046 0.25637600   1.008000   ; qtot -0.056501
11047         h1    381    bbb    H18  11047 0.25637600   1.008000   ; qtot 0.199875
11048         os    381    bbb     O1  11048 -0.20025300  16.000000   ; qtot -0.000378
; residue  382 bbb rtp bbb q -0.0
11049         n3    382    bbb     N1  11049 -0.59685800  14.010000   ; qtot -0.597236
11050         c3    382    bbb     C1  11050 0.10137000  12.010000   ; qtot -0.495866
11051         h1    382    bbb     H1  11051 0.04411300   1.008000   ; qtot -0.451753
11052         h1    382    bbb     H2  11052 0.04411300   1.008000   ; qtot -0.407640
11053         c3    382    bbb     C2  11053 0.10137000  12.010000   ; qtot -0.306270
11054         h1    382    bbb     H3  11054 0.04411300   1.008000   ; qtot -0.262157
11055         h1    382    bbb     H4  11055 0.04411300   1.008000   ; qtot -0.218044
11056         c3    382    bbb     C3  11056 -0.00195300  12.010000   ; qtot -0.219997
11057         h1    382    bbb     H5  11057 0.05064400   1.008000   ; qtot -0.169353
11058         h1    382    bbb     H6  11058 0.05064400   1.008000   ; qtot -0.118709
11059         c3    382    bbb     C4  11059 -0.01612100  12.010000   ; qtot -0.134830
11060         hc    382    bbb     H7  11060 0.04936100   1.008000   ; qtot -0.085469
11061         hc    382    bbb     H8  11061 0.04936100   1.008000   ; qtot -0.036108
11062         c3    382    bbb     C5  11062 0.11363000  12.010000   ; qtot 0.077522
11063         hc    382    bbb     H9  11063 0.06265900   1.008000   ; qtot 0.140181
11064         hc    382    bbb    H10  11064 0.06265900   1.008000   ; qtot 0.202840
11065         c3    382    bbb     C6  11065 0.11363000  12.010000   ; qtot 0.316470
11066         hc    382    bbb    H11  11066 0.06265900   1.008000   ; qtot 0.379129
11067         hc    382    bbb    H12  11067 0.06265900   1.008000   ; qtot 0.441788
11068         c3    382    bbb     C7  11068 0.05858200  12.010000   ; qtot 0.500370
11069         h1    382    bbb    H13  11069 0.06123400   1.008000   ; qtot 0.561604
11070         h1    382    bbb    H14  11070 0.06123400   1.008000   ; qtot 0.622838
11071         c3    382    bbb     C8  11071 -0.72423400  12.010000   ; qtot -0.101396
11072         h1    382    bbb    H15  11072 0.25637600   1.008000   ; qtot 0.154980
11073         h1    382    bbb    H16  11073 0.25637600   1.008000   ; qtot 0.411356
11074         c3    382    bbb     C9  11074 -0.72423400  12.010000   ; qtot -0.312878
11075         h1    382    bbb    H17  11075 0.25637600   1.008000   ; qtot -0.056502
11076         h1    382    bbb    H18  11076 0.25637600   1.008000   ; qtot 0.199874
11077         os    382    bbb     O1  11077 -0.20025300  16.000000   ; qtot -0.000379
; residue  383 ccc rtp ccc q 0.0
11078         c3    383    ccc     C1  11078 -0.33178800  12.010000   ; qtot -0.332167
11079         c3    383    ccc     C2  11079 0.30606500  12.010000   ; qtot -0.026102
11080         h1    383    ccc     H1  11080 0.11662300   1.008000   ; qtot 0.090521
11081         h1    383    ccc     H2  11081 0.11526800   1.008000   ; qtot 0.205789
11082         c3    383    ccc     C3  11082 0.15592700  12.010000   ; qtot 0.361716
11083         c3    383    ccc     C4  11083 0.28383300  12.010000   ; qtot 0.645549
11084         c3    383    ccc     C5  11084 0.32403300  12.010000   ; qtot 0.969582
11085         h1    383    ccc     H3  11085 0.13386900   1.008000   ; qtot 1.103451
11086         h1    383    ccc     H4  11086 0.10146700   1.008000   ; qtot 1.204918
11087         h2    383    ccc     H5  11087 0.10960400   1.008000   ; qtot 1.314522
11088         os    383    ccc     O1  11088 -0.28650000  16.000000   ; qtot 1.028022
11089         oh    383    ccc     O2  11089 -0.86012500  16.000000   ; qtot 0.167897
11090         oh    383    ccc     O3  11090 -0.83772800  16.000000   ; qtot -0.669831
11091         oh    383    ccc     O4  11091 -0.77449700  16.000000   ; qtot -1.444328
11092         c3    383    ccc     C6  11092 0.37576500  12.010000   ; qtot -1.068563
11093         ho    383    ccc     H6  11093 0.53656000   1.008000   ; qtot -0.532003
11094         ho    383    ccc     H7  11094 0.49492100   1.008000   ; qtot -0.037082
11095         ho    383    ccc     H8  11095 0.51297200   1.008000   ; qtot 0.475890
11096         h1    383    ccc     H9  11096 0.05653400   1.008000   ; qtot 0.532424
11097         h1    383    ccc    H10  11097 0.05653400   1.008000   ; qtot 0.588958
11098         oh    383    ccc     O5  11098 -0.84113600  16.000000   ; qtot -0.252178
11099         ho    383    ccc    H11  11099 0.51201600   1.008000   ; qtot 0.259838
11100         os    383    ccc     O6  11100 -0.26013600  16.000000   ; qtot -0.000298
; residue  384 ccc rtp ccc q 0.0
11101         c3    384    ccc     C1  11101 -0.33178800  12.010000   ; qtot -0.332086
11102         c3    384    ccc     C2  11102 0.30606500  12.010000   ; qtot -0.026021
11103         h1    384    ccc     H1  11103 0.11662300   1.008000   ; qtot 0.090602
11104         h1    384    ccc     H2  11104 0.11526800   1.008000   ; qtot 0.205870
11105         c3    384    ccc     C3  11105 0.15592700  12.010000   ; qtot 0.361797
11106         c3    384    ccc     C4  11106 0.28383300  12.010000   ; qtot 0.645630
11107         c3    384    ccc     C5  11107 0.32403300  12.010000   ; qtot 0.969663
11108         h1    384    ccc     H3  11108 0.13386900   1.008000   ; qtot 1.103532
11109         h1    384    ccc     H4  11109 0.10146700   1.008000   ; qtot 1.204999
11110         h2    384    ccc     H5  11110 0.10960400   1.008000   ; qtot 1.314603
11111         os    384    ccc     O1  11111 -0.28650000  16.000000   ; qtot 1.028103
11112         oh    384    ccc     O2  11112 -0.86012500  16.000000   ; qtot 0.167978
11113         oh    384    ccc     O3  11113 -0.83772800  16.000000   ; qtot -0.669750
11114         oh    384    ccc     O4  11114 -0.77449700  16.000000   ; qtot -1.444247
11115         c3    384    ccc     C6  11115 0.37576500  12.010000   ; qtot -1.068482
11116         ho    384    ccc     H6  11116 0.53656000   1.008000   ; qtot -0.531922
11117         ho    384    ccc     H7  11117 0.49492100   1.008000   ; qtot -0.037001
11118         ho    384    ccc     H8  11118 0.51297200   1.008000   ; qtot 0.475971
11119         h1    384    ccc     H9  11119 0.05653400   1.008000   ; qtot 0.532505
11120         h1    384    ccc    H10  11120 0.05653400   1.008000   ; qtot 0.589039
11121         oh    384    ccc     O5  11121 -0.84113600  16.000000   ; qtot -0.252097
11122         ho    384    ccc    H11  11122 0.51201600   1.008000   ; qtot 0.259919
11123         os    384    ccc     O6  11123 -0.26013600  16.000000   ; qtot -0.000217
; residue  385 ccc rtp ccc q 0.0
11124         c3    385    ccc     C1  11124 -0.33178800  12.010000   ; qtot -0.332005
11125         c3    385    ccc     C2  11125 0.30606500  12.010000   ; qtot -0.025940
11126         h1    385    ccc     H1  11126 0.11662300   1.008000   ; qtot 0.090683
11127         h1    385    ccc     H2  11127 0.11526800   1.008000   ; qtot 0.205951
11128         c3    385    ccc     C3  11128 0.15592700  12.010000   ; qtot 0.361878
11129         c3    385    ccc     C4  11129 0.28383300  12.010000   ; qtot 0.645711
11130         c3    385    ccc     C5  11130 0.32403300  12.010000   ; qtot 0.969744
11131         h1    385    ccc     H3  11131 0.13386900   1.008000   ; qtot 1.103613
11132         h1    385    ccc     H4  11132 0.10146700   1.008000   ; qtot 1.205080
11133         h2    385    ccc     H5  11133 0.10960400   1.008000   ; qtot 1.314684
11134         os    385    ccc     O1  11134 -0.28650000  16.000000   ; qtot 1.028184
11135         oh    385    ccc     O2  11135 -0.86012500  16.000000   ; qtot 0.168059
11136         oh    385    ccc     O3  11136 -0.83772800  16.000000   ; qtot -0.669669
11137         oh    385    ccc     O4  11137 -0.77449700  16.000000   ; qtot -1.444166
11138         c3    385    ccc     C6  11138 0.37576500  12.010000   ; qtot -1.068401
11139         ho    385    ccc     H6  11139 0.53656000   1.008000   ; qtot -0.531841
11140         ho    385    ccc     H7  11140 0.49492100   1.008000   ; qtot -0.036920
11141         ho    385    ccc     H8  11141 0.51297200   1.008000   ; qtot 0.476052
11142         h1    385    ccc     H9  11142 0.05653400   1.008000   ; qtot 0.532586
11143         h1    385    ccc    H10  11143 0.05653400   1.008000   ; qtot 0.589120
11144         oh    385    ccc     O5  11144 -0.84113600  16.000000   ; qtot -0.252016
11145         ho    385    ccc    H11  11145 0.51201600   1.008000   ; qtot 0.260000
11146         os    385    ccc     O6  11146 -0.26013600  16.000000   ; qtot -0.000136
; residue  386 ccc rtp ccc q 0.0
11147         c3    386    ccc     C1  11147 -0.33178800  12.010000   ; qtot -0.331924
11148         c3    386    ccc     C2  11148 0.30606500  12.010000   ; qtot -0.025859
11149         h1    386    ccc     H1  11149 0.11662300   1.008000   ; qtot 0.090764
11150         h1    386    ccc     H2  11150 0.11526800   1.008000   ; qtot 0.206032
11151         c3    386    ccc     C3  11151 0.15592700  12.010000   ; qtot 0.361959
11152         c3    386    ccc     C4  11152 0.28383300  12.010000   ; qtot 0.645792
11153         c3    386    ccc     C5  11153 0.32403300  12.010000   ; qtot 0.969825
11154         h1    386    ccc     H3  11154 0.13386900   1.008000   ; qtot 1.103694
11155         h1    386    ccc     H4  11155 0.10146700   1.008000   ; qtot 1.205161
11156         h2    386    ccc     H5  11156 0.10960400   1.008000   ; qtot 1.314765
11157         os    386    ccc     O1  11157 -0.28650000  16.000000   ; qtot 1.028265
11158         oh    386    ccc     O2  11158 -0.86012500  16.000000   ; qtot 0.168140
11159         oh    386    ccc     O3  11159 -0.83772800  16.000000   ; qtot -0.669588
11160         oh    386    ccc     O4  11160 -0.77449700  16.000000   ; qtot -1.444085
11161         c3    386    ccc     C6  11161 0.37576500  12.010000   ; qtot -1.068320
11162         ho    386    ccc     H6  11162 0.53656000   1.008000   ; qtot -0.531760
11163         ho    386    ccc     H7  11163 0.49492100   1.008000   ; qtot -0.036839
11164         ho    386    ccc     H8  11164 0.51297200   1.008000   ; qtot 0.476133
11165         h1    386    ccc     H9  11165 0.05653400   1.008000   ; qtot 0.532667
11166         h1    386    ccc    H10  11166 0.05653400   1.008000   ; qtot 0.589201
11167         oh    386    ccc     O5  11167 -0.84113600  16.000000   ; qtot -0.251935
11168         ho    386    ccc    H11  11168 0.51201600   1.008000   ; qtot 0.260081
11169         os    386    ccc     O6  11169 -0.26013600  16.000000   ; qtot -0.000055
; residue  387 ccc rtp ccc q 0.0
11170         c3    387    ccc     C1  11170 -0.33178800  12.010000   ; qtot -0.331843
11171         c3    387    ccc     C2  11171 0.30606500  12.010000   ; qtot -0.025778
11172         h1    387    ccc     H1  11172 0.11662300   1.008000   ; qtot 0.090845
11173         h1    387    ccc     H2  11173 0.11526800   1.008000   ; qtot 0.206113
11174         c3    387    ccc     C3  11174 0.15592700  12.010000   ; qtot 0.362040
11175         c3    387    ccc     C4  11175 0.28383300  12.010000   ; qtot 0.645873
11176         c3    387    ccc     C5  11176 0.32403300  12.010000   ; qtot 0.969906
11177         h1    387    ccc     H3  11177 0.13386900   1.008000   ; qtot 1.103775
11178         h1    387    ccc     H4  11178 0.10146700   1.008000   ; qtot 1.205242
11179         h2    387    ccc     H5  11179 0.10960400   1.008000   ; qtot 1.314846
11180         os    387    ccc     O1  11180 -0.28650000  16.000000   ; qtot 1.028346
11181         oh    387    ccc     O2  11181 -0.86012500  16.000000   ; qtot 0.168221
11182         oh    387    ccc     O3  11182 -0.83772800  16.000000   ; qtot -0.669507
11183         oh    387    ccc     O4  11183 -0.77449700  16.000000   ; qtot -1.444004
11184         c3    387    ccc     C6  11184 0.37576500  12.010000   ; qtot -1.068239
11185         ho    387    ccc     H6  11185 0.53656000   1.008000   ; qtot -0.531679
11186         ho    387    ccc     H7  11186 0.49492100   1.008000   ; qtot -0.036758
11187         ho    387    ccc     H8  11187 0.51297200   1.008000   ; qtot 0.476214
11188         h1    387    ccc     H9  11188 0.05653400   1.008000   ; qtot 0.532748
11189         h1    387    ccc    H10  11189 0.05653400   1.008000   ; qtot 0.589282
11190         oh    387    ccc     O5  11190 -0.84113600  16.000000   ; qtot -0.251854
11191         ho    387    ccc    H11  11191 0.51201600   1.008000   ; qtot 0.260162
11192         os    387    ccc     O6  11192 -0.26013600  16.000000   ; qtot 0.000026
; residue  388 ccc rtp ccc q 0.0
11193         c3    388    ccc     C1  11193 -0.33178800  12.010000   ; qtot -0.331762
11194         c3    388    ccc     C2  11194 0.30606500  12.010000   ; qtot -0.025697
11195         h1    388    ccc     H1  11195 0.11662300   1.008000   ; qtot 0.090926
11196         h1    388    ccc     H2  11196 0.11526800   1.008000   ; qtot 0.206194
11197         c3    388    ccc     C3  11197 0.15592700  12.010000   ; qtot 0.362121
11198         c3    388    ccc     C4  11198 0.28383300  12.010000   ; qtot 0.645954
11199         c3    388    ccc     C5  11199 0.32403300  12.010000   ; qtot 0.969987
11200         h1    388    ccc     H3  11200 0.13386900   1.008000   ; qtot 1.103856
11201         h1    388    ccc     H4  11201 0.10146700   1.008000   ; qtot 1.205323
11202         h2    388    ccc     H5  11202 0.10960400   1.008000   ; qtot 1.314927
11203         os    388    ccc     O1  11203 -0.28650000  16.000000   ; qtot 1.028427
11204         oh    388    ccc     O2  11204 -0.86012500  16.000000   ; qtot 0.168302
11205         oh    388    ccc     O3  11205 -0.83772800  16.000000   ; qtot -0.669426
11206         oh    388    ccc     O4  11206 -0.77449700  16.000000   ; qtot -1.443923
11207         c3    388    ccc     C6  11207 0.37576500  12.010000   ; qtot -1.068158
11208         ho    388    ccc     H6  11208 0.53656000   1.008000   ; qtot -0.531598
11209         ho    388    ccc     H7  11209 0.49492100   1.008000   ; qtot -0.036677
11210         ho    388    ccc     H8  11210 0.51297200   1.008000   ; qtot 0.476295
11211         h1    388    ccc     H9  11211 0.05653400   1.008000   ; qtot 0.532829
11212         h1    388    ccc    H10  11212 0.05653400   1.008000   ; qtot 0.589363
11213         oh    388    ccc     O5  11213 -0.84113600  16.000000   ; qtot -0.251773
11214         ho    388    ccc    H11  11214 0.51201600   1.008000   ; qtot 0.260243
11215         os    388    ccc     O6  11215 -0.26013600  16.000000   ; qtot 0.000107
; residue  389 ccc rtp ccc q 0.0
11216         c3    389    ccc     C1  11216 -0.33178800  12.010000   ; qtot -0.331681
11217         c3    389    ccc     C2  11217 0.30606500  12.010000   ; qtot -0.025616
11218         h1    389    ccc     H1  11218 0.11662300   1.008000   ; qtot 0.091007
11219         h1    389    ccc     H2  11219 0.11526800   1.008000   ; qtot 0.206275
11220         c3    389    ccc     C3  11220 0.15592700  12.010000   ; qtot 0.362202
11221         c3    389    ccc     C4  11221 0.28383300  12.010000   ; qtot 0.646035
11222         c3    389    ccc     C5  11222 0.32403300  12.010000   ; qtot 0.970068
11223         h1    389    ccc     H3  11223 0.13386900   1.008000   ; qtot 1.103937
11224         h1    389    ccc     H4  11224 0.10146700   1.008000   ; qtot 1.205404
11225         h2    389    ccc     H5  11225 0.10960400   1.008000   ; qtot 1.315008
11226         os    389    ccc     O1  11226 -0.28650000  16.000000   ; qtot 1.028508
11227         oh    389    ccc     O2  11227 -0.86012500  16.000000   ; qtot 0.168383
11228         oh    389    ccc     O3  11228 -0.83772800  16.000000   ; qtot -0.669345
11229         oh    389    ccc     O4  11229 -0.77449700  16.000000   ; qtot -1.443842
11230         c3    389    ccc     C6  11230 0.37576500  12.010000   ; qtot -1.068077
11231         ho    389    ccc     H6  11231 0.53656000   1.008000   ; qtot -0.531517
11232         ho    389    ccc     H7  11232 0.49492100   1.008000   ; qtot -0.036596
11233         ho    389    ccc     H8  11233 0.51297200   1.008000   ; qtot 0.476376
11234         h1    389    ccc     H9  11234 0.05653400   1.008000   ; qtot 0.532910
11235         h1    389    ccc    H10  11235 0.05653400   1.008000   ; qtot 0.589444
11236         oh    389    ccc     O5  11236 -0.84113600  16.000000   ; qtot -0.251692
11237         ho    389    ccc    H11  11237 0.51201600   1.008000   ; qtot 0.260324
11238         os    389    ccc     O6  11238 -0.26013600  16.000000   ; qtot 0.000188
; residue  390 ccc rtp ccc q 0.0
11239         c3    390    ccc     C1  11239 -0.33178800  12.010000   ; qtot -0.331600
11240         c3    390    ccc     C2  11240 0.30606500  12.010000   ; qtot -0.025535
11241         h1    390    ccc     H1  11241 0.11662300   1.008000   ; qtot 0.091088
11242         h1    390    ccc     H2  11242 0.11526800   1.008000   ; qtot 0.206356
11243         c3    390    ccc     C3  11243 0.15592700  12.010000   ; qtot 0.362283
11244         c3    390    ccc     C4  11244 0.28383300  12.010000   ; qtot 0.646116
11245         c3    390    ccc     C5  11245 0.32403300  12.010000   ; qtot 0.970149
11246         h1    390    ccc     H3  11246 0.13386900   1.008000   ; qtot 1.104018
11247         h1    390    ccc     H4  11247 0.10146700   1.008000   ; qtot 1.205485
11248         h2    390    ccc     H5  11248 0.10960400   1.008000   ; qtot 1.315089
11249         os    390    ccc     O1  11249 -0.28650000  16.000000   ; qtot 1.028589
11250         oh    390    ccc     O2  11250 -0.86012500  16.000000   ; qtot 0.168464
11251         oh    390    ccc     O3  11251 -0.83772800  16.000000   ; qtot -0.669264
11252         oh    390    ccc     O4  11252 -0.77449700  16.000000   ; qtot -1.443761
11253         c3    390    ccc     C6  11253 0.37576500  12.010000   ; qtot -1.067996
11254         ho    390    ccc     H6  11254 0.53656000   1.008000   ; qtot -0.531436
11255         ho    390    ccc     H7  11255 0.49492100   1.008000   ; qtot -0.036515
11256         ho    390    ccc     H8  11256 0.51297200   1.008000   ; qtot 0.476457
11257         h1    390    ccc     H9  11257 0.05653400   1.008000   ; qtot 0.532991
11258         h1    390    ccc    H10  11258 0.05653400   1.008000   ; qtot 0.589525
11259         oh    390    ccc     O5  11259 -0.84113600  16.000000   ; qtot -0.251611
11260         ho    390    ccc    H11  11260 0.51201600   1.008000   ; qtot 0.260405
11261         os    390    ccc     O6  11261 -0.26013600  16.000000   ; qtot 0.000269
; residue  391 ccc rtp ccc q 0.0
11262         c3    391    ccc     C1  11262 -0.33178800  12.010000   ; qtot -0.331519
11263         c3    391    ccc     C2  11263 0.30606500  12.010000   ; qtot -0.025454
11264         h1    391    ccc     H1  11264 0.11662300   1.008000   ; qtot 0.091169
11265         h1    391    ccc     H2  11265 0.11526800   1.008000   ; qtot 0.206437
11266         c3    391    ccc     C3  11266 0.15592700  12.010000   ; qtot 0.362364
11267         c3    391    ccc     C4  11267 0.28383300  12.010000   ; qtot 0.646197
11268         c3    391    ccc     C5  11268 0.32403300  12.010000   ; qtot 0.970230
11269         h1    391    ccc     H3  11269 0.13386900   1.008000   ; qtot 1.104099
11270         h1    391    ccc     H4  11270 0.10146700   1.008000   ; qtot 1.205566
11271         h2    391    ccc     H5  11271 0.10960400   1.008000   ; qtot 1.315170
11272         os    391    ccc     O1  11272 -0.28650000  16.000000   ; qtot 1.028670
11273         oh    391    ccc     O2  11273 -0.86012500  16.000000   ; qtot 0.168545
11274         oh    391    ccc     O3  11274 -0.83772800  16.000000   ; qtot -0.669183
11275         oh    391    ccc     O4  11275 -0.77449700  16.000000   ; qtot -1.443680
11276         c3    391    ccc     C6  11276 0.37576500  12.010000   ; qtot -1.067915
11277         ho    391    ccc     H6  11277 0.53656000   1.008000   ; qtot -0.531355
11278         ho    391    ccc     H7  11278 0.49492100   1.008000   ; qtot -0.036434
11279         ho    391    ccc     H8  11279 0.51297200   1.008000   ; qtot 0.476538
11280         h1    391    ccc     H9  11280 0.05653400   1.008000   ; qtot 0.533072
11281         h1    391    ccc    H10  11281 0.05653400   1.008000   ; qtot 0.589606
11282         oh    391    ccc     O5  11282 -0.84113600  16.000000   ; qtot -0.251530
11283         ho    391    ccc    H11  11283 0.51201600   1.008000   ; qtot 0.260486
11284         os    391    ccc     O6  11284 -0.26013600  16.000000   ; qtot 0.000350
; residue  392 ccc rtp ccc q 0.0
11285         c3    392    ccc     C1  11285 -0.33178800  12.010000   ; qtot -0.331438
11286         c3    392    ccc     C2  11286 0.30606500  12.010000   ; qtot -0.025373
11287         h1    392    ccc     H1  11287 0.11662300   1.008000   ; qtot 0.091250
11288         h1    392    ccc     H2  11288 0.11526800   1.008000   ; qtot 0.206518
11289         c3    392    ccc     C3  11289 0.15592700  12.010000   ; qtot 0.362445
11290         c3    392    ccc     C4  11290 0.28383300  12.010000   ; qtot 0.646278
11291         c3    392    ccc     C5  11291 0.32403300  12.010000   ; qtot 0.970311
11292         h1    392    ccc     H3  11292 0.13386900   1.008000   ; qtot 1.104180
11293         h1    392    ccc     H4  11293 0.10146700   1.008000   ; qtot 1.205647
11294         h2    392    ccc     H5  11294 0.10960400   1.008000   ; qtot 1.315251
11295         os    392    ccc     O1  11295 -0.28650000  16.000000   ; qtot 1.028751
11296         oh    392    ccc     O2  11296 -0.86012500  16.000000   ; qtot 0.168626
11297         oh    392    ccc     O3  11297 -0.83772800  16.000000   ; qtot -0.669102
11298         oh    392    ccc     O4  11298 -0.77449700  16.000000   ; qtot -1.443599
11299         c3    392    ccc     C6  11299 0.37576500  12.010000   ; qtot -1.067834
11300         ho    392    ccc     H6  11300 0.53656000   1.008000   ; qtot -0.531274
11301         ho    392    ccc     H7  11301 0.49492100   1.008000   ; qtot -0.036353
11302         ho    392    ccc     H8  11302 0.51297200   1.008000   ; qtot 0.476619
11303         h1    392    ccc     H9  11303 0.05653400   1.008000   ; qtot 0.533153
11304         h1    392    ccc    H10  11304 0.05653400   1.008000   ; qtot 0.589687
11305         oh    392    ccc     O5  11305 -0.84113600  16.000000   ; qtot -0.251449
11306         ho    392    ccc    H11  11306 0.51201600   1.008000   ; qtot 0.260567
11307         os    392    ccc     O6  11307 -0.26013600  16.000000   ; qtot 0.000431
; residue  393 ccc rtp ccc q 0.0
11308         c3    393    ccc     C1  11308 -0.33178800  12.010000   ; qtot -0.331357
11309         c3    393    ccc     C2  11309 0.30606500  12.010000   ; qtot -0.025292
11310         h1    393    ccc     H1  11310 0.11662300   1.008000   ; qtot 0.091331
11311         h1    393    ccc     H2  11311 0.11526800   1.008000   ; qtot 0.206599
11312         c3    393    ccc     C3  11312 0.15592700  12.010000   ; qtot 0.362526
11313         c3    393    ccc     C4  11313 0.28383300  12.010000   ; qtot 0.646359
11314         c3    393    ccc     C5  11314 0.32403300  12.010000   ; qtot 0.970392
11315         h1    393    ccc     H3  11315 0.13386900   1.008000   ; qtot 1.104261
11316         h1    393    ccc     H4  11316 0.10146700   1.008000   ; qtot 1.205728
11317         h2    393    ccc     H5  11317 0.10960400   1.008000   ; qtot 1.315332
11318         os    393    ccc     O1  11318 -0.28650000  16.000000   ; qtot 1.028832
11319         oh    393    ccc     O2  11319 -0.86012500  16.000000   ; qtot 0.168707
11320         oh    393    ccc     O3  11320 -0.83772800  16.000000   ; qtot -0.669021
11321         oh    393    ccc     O4  11321 -0.77449700  16.000000   ; qtot -1.443518
11322         c3    393    ccc     C6  11322 0.37576500  12.010000   ; qtot -1.067753
11323         ho    393    ccc     H6  11323 0.53656000   1.008000   ; qtot -0.531193
11324         ho    393    ccc     H7  11324 0.49492100   1.008000   ; qtot -0.036272
11325         ho    393    ccc     H8  11325 0.51297200   1.008000   ; qtot 0.476700
11326         h1    393    ccc     H9  11326 0.05653400   1.008000   ; qtot 0.533234
11327         h1    393    ccc    H10  11327 0.05653400   1.008000   ; qtot 0.589768
11328         oh    393    ccc     O5  11328 -0.84113600  16.000000   ; qtot -0.251368
11329         ho    393    ccc    H11  11329 0.51201600   1.008000   ; qtot 0.260648
11330         os    393    ccc     O6  11330 -0.26013600  16.000000   ; qtot 0.000512
; residue  394 ccc rtp ccc q 0.0
11331         c3    394    ccc     C1  11331 -0.33178800  12.010000   ; qtot -0.331276
11332         c3    394    ccc     C2  11332 0.30606500  12.010000   ; qtot -0.025211
11333         h1    394    ccc     H1  11333 0.11662300   1.008000   ; qtot 0.091412
11334         h1    394    ccc     H2  11334 0.11526800   1.008000   ; qtot 0.206680
11335         c3    394    ccc     C3  11335 0.15592700  12.010000   ; qtot 0.362607
11336         c3    394    ccc     C4  11336 0.28383300  12.010000   ; qtot 0.646440
11337         c3    394    ccc     C5  11337 0.32403300  12.010000   ; qtot 0.970473
11338         h1    394    ccc     H3  11338 0.13386900   1.008000   ; qtot 1.104342
11339         h1    394    ccc     H4  11339 0.10146700   1.008000   ; qtot 1.205809
11340         h2    394    ccc     H5  11340 0.10960400   1.008000   ; qtot 1.315413
11341         os    394    ccc     O1  11341 -0.28650000  16.000000   ; qtot 1.028913
11342         oh    394    ccc     O2  11342 -0.86012500  16.000000   ; qtot 0.168788
11343         oh    394    ccc     O3  11343 -0.83772800  16.000000   ; qtot -0.668940
11344         oh    394    ccc     O4  11344 -0.77449700  16.000000   ; qtot -1.443437
11345         c3    394    ccc     C6  11345 0.37576500  12.010000   ; qtot -1.067672
11346         ho    394    ccc     H6  11346 0.53656000   1.008000   ; qtot -0.531112
11347         ho    394    ccc     H7  11347 0.49492100   1.008000   ; qtot -0.036191
11348         ho    394    ccc     H8  11348 0.51297200   1.008000   ; qtot 0.476781
11349         h1    394    ccc     H9  11349 0.05653400   1.008000   ; qtot 0.533315
11350         h1    394    ccc    H10  11350 0.05653400   1.008000   ; qtot 0.589849
11351         oh    394    ccc     O5  11351 -0.84113600  16.000000   ; qtot -0.251287
11352         ho    394    ccc    H11  11352 0.51201600   1.008000   ; qtot 0.260729
11353         os    394    ccc     O6  11353 -0.26013600  16.000000   ; qtot 0.000593
; residue  395 ccc rtp ccc q 0.0
11354         c3    395    ccc     C1  11354 -0.33178800  12.010000   ; qtot -0.331195
11355         c3    395    ccc     C2  11355 0.30606500  12.010000   ; qtot -0.025130
11356         h1    395    ccc     H1  11356 0.11662300   1.008000   ; qtot 0.091493
11357         h1    395    ccc     H2  11357 0.11526800   1.008000   ; qtot 0.206761
11358         c3    395    ccc     C3  11358 0.15592700  12.010000   ; qtot 0.362688
11359         c3    395    ccc     C4  11359 0.28383300  12.010000   ; qtot 0.646521
11360         c3    395    ccc     C5  11360 0.32403300  12.010000   ; qtot 0.970554
11361         h1    395    ccc     H3  11361 0.13386900   1.008000   ; qtot 1.104423
11362         h1    395    ccc     H4  11362 0.10146700   1.008000   ; qtot 1.205890
11363         h2    395    ccc     H5  11363 0.10960400   1.008000   ; qtot 1.315494
11364         os    395    ccc     O1  11364 -0.28650000  16.000000   ; qtot 1.028994
11365         oh    395    ccc     O2  11365 -0.86012500  16.000000   ; qtot 0.168869
11366         oh    395    ccc     O3  11366 -0.83772800  16.000000   ; qtot -0.668859
11367         oh    395    ccc     O4  11367 -0.77449700  16.000000   ; qtot -1.443356
11368         c3    395    ccc     C6  11368 0.37576500  12.010000   ; qtot -1.067591
11369         ho    395    ccc     H6  11369 0.53656000   1.008000   ; qtot -0.531031
11370         ho    395    ccc     H7  11370 0.49492100   1.008000   ; qtot -0.036110
11371         ho    395    ccc     H8  11371 0.51297200   1.008000   ; qtot 0.476862
11372         h1    395    ccc     H9  11372 0.05653400   1.008000   ; qtot 0.533396
11373         h1    395    ccc    H10  11373 0.05653400   1.008000   ; qtot 0.589930
11374         oh    395    ccc     O5  11374 -0.84113600  16.000000   ; qtot -0.251206
11375         ho    395    ccc    H11  11375 0.51201600   1.008000   ; qtot 0.260810
11376         os    395    ccc     O6  11376 -0.26013600  16.000000   ; qtot 0.000674
; residue  396 ccc rtp ccc q 0.0
11377         c3    396    ccc     C1  11377 -0.33178800  12.010000   ; qtot -0.331114
11378         c3    396    ccc     C2  11378 0.30606500  12.010000   ; qtot -0.025049
11379         h1    396    ccc     H1  11379 0.11662300   1.008000   ; qtot 0.091574
11380         h1    396    ccc     H2  11380 0.11526800   1.008000   ; qtot 0.206842
11381         c3    396    ccc     C3  11381 0.15592700  12.010000   ; qtot 0.362769
11382         c3    396    ccc     C4  11382 0.28383300  12.010000   ; qtot 0.646602
11383         c3    396    ccc     C5  11383 0.32403300  12.010000   ; qtot 0.970635
11384         h1    396    ccc     H3  11384 0.13386900   1.008000   ; qtot 1.104504
11385         h1    396    ccc     H4  11385 0.10146700   1.008000   ; qtot 1.205971
11386         h2    396    ccc     H5  11386 0.10960400   1.008000   ; qtot 1.315575
11387         os    396    ccc     O1  11387 -0.28650000  16.000000   ; qtot 1.029075
11388         oh    396    ccc     O2  11388 -0.86012500  16.000000   ; qtot 0.168950
11389         oh    396    ccc     O3  11389 -0.83772800  16.000000   ; qtot -0.668778
11390         oh    396    ccc     O4  11390 -0.77449700  16.000000   ; qtot -1.443275
11391         c3    396    ccc     C6  11391 0.37576500  12.010000   ; qtot -1.067510
11392         ho    396    ccc     H6  11392 0.53656000   1.008000   ; qtot -0.530950
11393         ho    396    ccc     H7  11393 0.49492100   1.008000   ; qtot -0.036029
11394         ho    396    ccc     H8  11394 0.51297200   1.008000   ; qtot 0.476943
11395         h1    396    ccc     H9  11395 0.05653400   1.008000   ; qtot 0.533477
11396         h1    396    ccc    H10  11396 0.05653400   1.008000   ; qtot 0.590011
11397         oh    396    ccc     O5  11397 -0.84113600  16.000000   ; qtot -0.251125
11398         ho    396    ccc    H11  11398 0.51201600   1.008000   ; qtot 0.260891
11399         os    396    ccc     O6  11399 -0.26013600  16.000000   ; qtot 0.000755
; residue  397 ccc rtp ccc q 0.0
11400         c3    397    ccc     C1  11400 -0.33178800  12.010000   ; qtot -0.331033
11401         c3    397    ccc     C2  11401 0.30606500  12.010000   ; qtot -0.024968
11402         h1    397    ccc     H1  11402 0.11662300   1.008000   ; qtot 0.091655
11403         h1    397    ccc     H2  11403 0.11526800   1.008000   ; qtot 0.206923
11404         c3    397    ccc     C3  11404 0.15592700  12.010000   ; qtot 0.362850
11405         c3    397    ccc     C4  11405 0.28383300  12.010000   ; qtot 0.646683
11406         c3    397    ccc     C5  11406 0.32403300  12.010000   ; qtot 0.970716
11407         h1    397    ccc     H3  11407 0.13386900   1.008000   ; qtot 1.104585
11408         h1    397    ccc     H4  11408 0.10146700   1.008000   ; qtot 1.206052
11409         h2    397    ccc     H5  11409 0.10960400   1.008000   ; qtot 1.315656
11410         os    397    ccc     O1  11410 -0.28650000  16.000000   ; qtot 1.029156
11411         oh    397    ccc     O2  11411 -0.86012500  16.000000   ; qtot 0.169031
11412         oh    397    ccc     O3  11412 -0.83772800  16.000000   ; qtot -0.668697
11413         oh    397    ccc     O4  11413 -0.77449700  16.000000   ; qtot -1.443194
11414         c3    397    ccc     C6  11414 0.37576500  12.010000   ; qtot -1.067429
11415         ho    397    ccc     H6  11415 0.53656000   1.008000   ; qtot -0.530869
11416         ho    397    ccc     H7  11416 0.49492100   1.008000   ; qtot -0.035948
11417         ho    397    ccc     H8  11417 0.51297200   1.008000   ; qtot 0.477024
11418         h1    397    ccc     H9  11418 0.05653400   1.008000   ; qtot 0.533558
11419         h1    397    ccc    H10  11419 0.05653400   1.008000   ; qtot 0.590092
11420         oh    397    ccc     O5  11420 -0.84113600  16.000000   ; qtot -0.251044
11421         ho    397    ccc    H11  11421 0.51201600   1.008000   ; qtot 0.260972
11422         os    397    ccc     O6  11422 -0.26013600  16.000000   ; qtot 0.000836
; residue  398 ccc rtp ccc q 0.0
11423         c3    398    ccc     C1  11423 -0.33178800  12.010000   ; qtot -0.330952
11424         c3    398    ccc     C2  11424 0.30606500  12.010000   ; qtot -0.024887
11425         h1    398    ccc     H1  11425 0.11662300   1.008000   ; qtot 0.091736
11426         h1    398    ccc     H2  11426 0.11526800   1.008000   ; qtot 0.207004
11427         c3    398    ccc     C3  11427 0.15592700  12.010000   ; qtot 0.362931
11428         c3    398    ccc     C4  11428 0.28383300  12.010000   ; qtot 0.646764
11429         c3    398    ccc     C5  11429 0.32403300  12.010000   ; qtot 0.970797
11430         h1    398    ccc     H3  11430 0.13386900   1.008000   ; qtot 1.104666
11431         h1    398    ccc     H4  11431 0.10146700   1.008000   ; qtot 1.206133
11432         h2    398    ccc     H5  11432 0.10960400   1.008000   ; qtot 1.315737
11433         os    398    ccc     O1  11433 -0.28650000  16.000000   ; qtot 1.029237
11434         oh    398    ccc     O2  11434 -0.86012500  16.000000   ; qtot 0.169112
11435         oh    398    ccc     O3  11435 -0.83772800  16.000000   ; qtot -0.668616
11436         oh    398    ccc     O4  11436 -0.77449700  16.000000   ; qtot -1.443113
11437         c3    398    ccc     C6  11437 0.37576500  12.010000   ; qtot -1.067348
11438         ho    398    ccc     H6  11438 0.53656000   1.008000   ; qtot -0.530788
11439         ho    398    ccc     H7  11439 0.49492100   1.008000   ; qtot -0.035867
11440         ho    398    ccc     H8  11440 0.51297200   1.008000   ; qtot 0.477105
11441         h1    398    ccc     H9  11441 0.05653400   1.008000   ; qtot 0.533639
11442         h1    398    ccc    H10  11442 0.05653400   1.008000   ; qtot 0.590173
11443         oh    398    ccc     O5  11443 -0.84113600  16.000000   ; qtot -0.250963
11444         ho    398    ccc    H11  11444 0.51201600   1.008000   ; qtot 0.261053
11445         os    398    ccc     O6  11445 -0.26013600  16.000000   ; qtot 0.000917
; residue  399 ccc rtp ccc q 0.0
11446         c3    399    ccc     C1  11446 -0.33178800  12.010000   ; qtot -0.330871
11447         c3    399    ccc     C2  11447 0.30606500  12.010000   ; qtot -0.024806
11448         h1    399    ccc     H1  11448 0.11662300   1.008000   ; qtot 0.091817
11449         h1    399    ccc     H2  11449 0.11526800   1.008000   ; qtot 0.207085
11450         c3    399    ccc     C3  11450 0.15592700  12.010000   ; qtot 0.363012
11451         c3    399    ccc     C4  11451 0.28383300  12.010000   ; qtot 0.646845
11452         c3    399    ccc     C5  11452 0.32403300  12.010000   ; qtot 0.970878
11453         h1    399    ccc     H3  11453 0.13386900   1.008000   ; qtot 1.104747
11454         h1    399    ccc     H4  11454 0.10146700   1.008000   ; qtot 1.206214
11455         h2    399    ccc     H5  11455 0.10960400   1.008000   ; qtot 1.315818
11456         os    399    ccc     O1  11456 -0.28650000  16.000000   ; qtot 1.029318
11457         oh    399    ccc     O2  11457 -0.86012500  16.000000   ; qtot 0.169193
11458         oh    399    ccc     O3  11458 -0.83772800  16.000000   ; qtot -0.668535
11459         oh    399    ccc     O4  11459 -0.77449700  16.000000   ; qtot -1.443032
11460         c3    399    ccc     C6  11460 0.37576500  12.010000   ; qtot -1.067267
11461         ho    399    ccc     H6  11461 0.53656000   1.008000   ; qtot -0.530707
11462         ho    399    ccc     H7  11462 0.49492100   1.008000   ; qtot -0.035786
11463         ho    399    ccc     H8  11463 0.51297200   1.008000   ; qtot 0.477186
11464         h1    399    ccc     H9  11464 0.05653400   1.008000   ; qtot 0.533720
11465         h1    399    ccc    H10  11465 0.05653400   1.008000   ; qtot 0.590254
11466         oh    399    ccc     O5  11466 -0.84113600  16.000000   ; qtot -0.250882
11467         ho    399    ccc    H11  11467 0.51201600   1.008000   ; qtot 0.261134
11468         os    399    ccc     O6  11468 -0.26013600  16.000000   ; qtot 0.000998
; residue  400 ccc rtp ccc q 0.0
11469         c3    400    ccc     C1  11469 -0.33178800  12.010000   ; qtot -0.330790
11470         c3    400    ccc     C2  11470 0.30606500  12.010000   ; qtot -0.024725
11471         h1    400    ccc     H1  11471 0.11662300   1.008000   ; qtot 0.091898
11472         h1    400    ccc     H2  11472 0.11526800   1.008000   ; qtot 0.207166
11473         c3    400    ccc     C3  11473 0.15592700  12.010000   ; qtot 0.363093
11474         c3    400    ccc     C4  11474 0.28383300  12.010000   ; qtot 0.646926
11475         c3    400    ccc     C5  11475 0.32403300  12.010000   ; qtot 0.970959
11476         h1    400    ccc     H3  11476 0.13386900   1.008000   ; qtot 1.104828
11477         h1    400    ccc     H4  11477 0.10146700   1.008000   ; qtot 1.206295
11478         h2    400    ccc     H5  11478 0.10960400   1.008000   ; qtot 1.315899
11479         os    400    ccc     O1  11479 -0.28650000  16.000000   ; qtot 1.029399
11480         oh    400    ccc     O2  11480 -0.86012500  16.000000   ; qtot 0.169274
11481         oh    400    ccc     O3  11481 -0.83772800  16.000000   ; qtot -0.668454
11482         oh    400    ccc     O4  11482 -0.77449700  16.000000   ; qtot -1.442951
11483         c3    400    ccc     C6  11483 0.37576500  12.010000   ; qtot -1.067186
11484         ho    400    ccc     H6  11484 0.53656000   1.008000   ; qtot -0.530626
11485         ho    400    ccc     H7  11485 0.49492100   1.008000   ; qtot -0.035705
11486         ho    400    ccc     H8  11486 0.51297200   1.008000   ; qtot 0.477267
11487         h1    400    ccc     H9  11487 0.05653400   1.008000   ; qtot 0.533801
11488         h1    400    ccc    H10  11488 0.05653400   1.008000   ; qtot 0.590335
11489         oh    400    ccc     O5  11489 -0.84113600  16.000000   ; qtot -0.250801
11490         ho    400    ccc    H11  11490 0.51201600   1.008000   ; qtot 0.261215
11491         os    400    ccc     O6  11491 -0.26013600  16.000000   ; qtot 0.001079
; residue  401 ccc rtp ccc q 0.0
11492         c3    401    ccc     C1  11492 -0.33178800  12.010000   ; qtot -0.330709
11493         c3    401    ccc     C2  11493 0.30606500  12.010000   ; qtot -0.024644
11494         h1    401    ccc     H1  11494 0.11662300   1.008000   ; qtot 0.091979
11495         h1    401    ccc     H2  11495 0.11526800   1.008000   ; qtot 0.207247
11496         c3    401    ccc     C3  11496 0.15592700  12.010000   ; qtot 0.363174
11497         c3    401    ccc     C4  11497 0.28383300  12.010000   ; qtot 0.647007
11498         c3    401    ccc     C5  11498 0.32403300  12.010000   ; qtot 0.971040
11499         h1    401    ccc     H3  11499 0.13386900   1.008000   ; qtot 1.104909
11500         h1    401    ccc     H4  11500 0.10146700   1.008000   ; qtot 1.206376
11501         h2    401    ccc     H5  11501 0.10960400   1.008000   ; qtot 1.315980
11502         os    401    ccc     O1  11502 -0.28650000  16.000000   ; qtot 1.029480
11503         oh    401    ccc     O2  11503 -0.86012500  16.000000   ; qtot 0.169355
11504         oh    401    ccc     O3  11504 -0.83772800  16.000000   ; qtot -0.668373
11505         oh    401    ccc     O4  11505 -0.77449700  16.000000   ; qtot -1.442870
11506         c3    401    ccc     C6  11506 0.37576500  12.010000   ; qtot -1.067105
11507         ho    401    ccc     H6  11507 0.53656000   1.008000   ; qtot -0.530545
11508         ho    401    ccc     H7  11508 0.49492100   1.008000   ; qtot -0.035624
11509         ho    401    ccc     H8  11509 0.51297200   1.008000   ; qtot 0.477348
11510         h1    401    ccc     H9  11510 0.05653400   1.008000   ; qtot 0.533882
11511         h1    401    ccc    H10  11511 0.05653400   1.008000   ; qtot 0.590416
11512         oh    401    ccc     O5  11512 -0.84113600  16.000000   ; qtot -0.250720
11513         ho    401    ccc    H11  11513 0.51201600   1.008000   ; qtot 0.261296
11514         os    401    ccc     O6  11514 -0.26013600  16.000000   ; qtot 0.001160
; residue  402 ccc rtp ccc q 0.0
11515         c3    402    ccc     C1  11515 -0.33178800  12.010000   ; qtot -0.330628
11516         c3    402    ccc     C2  11516 0.30606500  12.010000   ; qtot -0.024563
11517         h1    402    ccc     H1  11517 0.11662300   1.008000   ; qtot 0.092060
11518         h1    402    ccc     H2  11518 0.11526800   1.008000   ; qtot 0.207328
11519         c3    402    ccc     C3  11519 0.15592700  12.010000   ; qtot 0.363255
11520         c3    402    ccc     C4  11520 0.28383300  12.010000   ; qtot 0.647088
11521         c3    402    ccc     C5  11521 0.32403300  12.010000   ; qtot 0.971121
11522         h1    402    ccc     H3  11522 0.13386900   1.008000   ; qtot 1.104990
11523         h1    402    ccc     H4  11523 0.10146700   1.008000   ; qtot 1.206457
11524         h2    402    ccc     H5  11524 0.10960400   1.008000   ; qtot 1.316061
11525         os    402    ccc     O1  11525 -0.28650000  16.000000   ; qtot 1.029561
11526         oh    402    ccc     O2  11526 -0.86012500  16.000000   ; qtot 0.169436
11527         oh    402    ccc     O3  11527 -0.83772800  16.000000   ; qtot -0.668292
11528         oh    402    ccc     O4  11528 -0.77449700  16.000000   ; qtot -1.442789
11529         c3    402    ccc     C6  11529 0.37576500  12.010000   ; qtot -1.067024
11530         ho    402    ccc     H6  11530 0.53656000   1.008000   ; qtot -0.530464
11531         ho    402    ccc     H7  11531 0.49492100   1.008000   ; qtot -0.035543
11532         ho    402    ccc     H8  11532 0.51297200   1.008000   ; qtot 0.477429
11533         h1    402    ccc     H9  11533 0.05653400   1.008000   ; qtot 0.533963
11534         h1    402    ccc    H10  11534 0.05653400   1.008000   ; qtot 0.590497
11535         oh    402    ccc     O5  11535 -0.84113600  16.000000   ; qtot -0.250639
11536         ho    402    ccc    H11  11536 0.51201600   1.008000   ; qtot 0.261377
11537         os    402    ccc     O6  11537 -0.26013600  16.000000   ; qtot 0.001241
; residue  403 ccc rtp ccc q 0.0
11538         c3    403    ccc     C1  11538 -0.33178800  12.010000   ; qtot -0.330547
11539         c3    403    ccc     C2  11539 0.30606500  12.010000   ; qtot -0.024482
11540         h1    403    ccc     H1  11540 0.11662300   1.008000   ; qtot 0.092141
11541         h1    403    ccc     H2  11541 0.11526800   1.008000   ; qtot 0.207409
11542         c3    403    ccc     C3  11542 0.15592700  12.010000   ; qtot 0.363336
11543         c3    403    ccc     C4  11543 0.28383300  12.010000   ; qtot 0.647169
11544         c3    403    ccc     C5  11544 0.32403300  12.010000   ; qtot 0.971202
11545         h1    403    ccc     H3  11545 0.13386900   1.008000   ; qtot 1.105071
11546         h1    403    ccc     H4  11546 0.10146700   1.008000   ; qtot 1.206538
11547         h2    403    ccc     H5  11547 0.10960400   1.008000   ; qtot 1.316142
11548         os    403    ccc     O1  11548 -0.28650000  16.000000   ; qtot 1.029642
11549         oh    403    ccc     O2  11549 -0.86012500  16.000000   ; qtot 0.169517
11550         oh    403    ccc     O3  11550 -0.83772800  16.000000   ; qtot -0.668211
11551         oh    403    ccc     O4  11551 -0.77449700  16.000000   ; qtot -1.442708
11552         c3    403    ccc     C6  11552 0.37576500  12.010000   ; qtot -1.066943
11553         ho    403    ccc     H6  11553 0.53656000   1.008000   ; qtot -0.530383
11554         ho    403    ccc     H7  11554 0.49492100   1.008000   ; qtot -0.035462
11555         ho    403    ccc     H8  11555 0.51297200   1.008000   ; qtot 0.477510
11556         h1    403    ccc     H9  11556 0.05653400   1.008000   ; qtot 0.534044
11557         h1    403    ccc    H10  11557 0.05653400   1.008000   ; qtot 0.590578
11558         oh    403    ccc     O5  11558 -0.84113600  16.000000   ; qtot -0.250558
11559         ho    403    ccc    H11  11559 0.51201600   1.008000   ; qtot 0.261458
11560         os    403    ccc     O6  11560 -0.26013600  16.000000   ; qtot 0.001322
; residue  404 ccc rtp ccc q 0.0
11561         c3    404    ccc     C1  11561 -0.33178800  12.010000   ; qtot -0.330466
11562         c3    404    ccc     C2  11562 0.30606500  12.010000   ; qtot -0.024401
11563         h1    404    ccc     H1  11563 0.11662300   1.008000   ; qtot 0.092222
11564         h1    404    ccc     H2  11564 0.11526800   1.008000   ; qtot 0.207490
11565         c3    404    ccc     C3  11565 0.15592700  12.010000   ; qtot 0.363417
11566         c3    404    ccc     C4  11566 0.28383300  12.010000   ; qtot 0.647250
11567         c3    404    ccc     C5  11567 0.32403300  12.010000   ; qtot 0.971283
11568         h1    404    ccc     H3  11568 0.13386900   1.008000   ; qtot 1.105152
11569         h1    404    ccc     H4  11569 0.10146700   1.008000   ; qtot 1.206619
11570         h2    404    ccc     H5  11570 0.10960400   1.008000   ; qtot 1.316223
11571         os    404    ccc     O1  11571 -0.28650000  16.000000   ; qtot 1.029723
11572         oh    404    ccc     O2  11572 -0.86012500  16.000000   ; qtot 0.169598
11573         oh    404    ccc     O3  11573 -0.83772800  16.000000   ; qtot -0.668130
11574         oh    404    ccc     O4  11574 -0.77449700  16.000000   ; qtot -1.442627
11575         c3    404    ccc     C6  11575 0.37576500  12.010000   ; qtot -1.066862
11576         ho    404    ccc     H6  11576 0.53656000   1.008000   ; qtot -0.530302
11577         ho    404    ccc     H7  11577 0.49492100   1.008000   ; qtot -0.035381
11578         ho    404    ccc     H8  11578 0.51297200   1.008000   ; qtot 0.477591
11579         h1    404    ccc     H9  11579 0.05653400   1.008000   ; qtot 0.534125
11580         h1    404    ccc    H10  11580 0.05653400   1.008000   ; qtot 0.590659
11581         oh    404    ccc     O5  11581 -0.84113600  16.000000   ; qtot -0.250477
11582         ho    404    ccc    H11  11582 0.51201600   1.008000   ; qtot 0.261539
11583         os    404    ccc     O6  11583 -0.26013600  16.000000   ; qtot 0.001403
; residue  405 ccc rtp ccc q 0.0
11584         c3    405    ccc     C1  11584 -0.33178800  12.010000   ; qtot -0.330385
11585         c3    405    ccc     C2  11585 0.30606500  12.010000   ; qtot -0.024320
11586         h1    405    ccc     H1  11586 0.11662300   1.008000   ; qtot 0.092303
11587         h1    405    ccc     H2  11587 0.11526800   1.008000   ; qtot 0.207571
11588         c3    405    ccc     C3  11588 0.15592700  12.010000   ; qtot 0.363498
11589         c3    405    ccc     C4  11589 0.28383300  12.010000   ; qtot 0.647331
11590         c3    405    ccc     C5  11590 0.32403300  12.010000   ; qtot 0.971364
11591         h1    405    ccc     H3  11591 0.13386900   1.008000   ; qtot 1.105233
11592         h1    405    ccc     H4  11592 0.10146700   1.008000   ; qtot 1.206700
11593         h2    405    ccc     H5  11593 0.10960400   1.008000   ; qtot 1.316304
11594         os    405    ccc     O1  11594 -0.28650000  16.000000   ; qtot 1.029804
11595         oh    405    ccc     O2  11595 -0.86012500  16.000000   ; qtot 0.169679
11596         oh    405    ccc     O3  11596 -0.83772800  16.000000   ; qtot -0.668049
11597         oh    405    ccc     O4  11597 -0.77449700  16.000000   ; qtot -1.442546
11598         c3    405    ccc     C6  11598 0.37576500  12.010000   ; qtot -1.066781
11599         ho    405    ccc     H6  11599 0.53656000   1.008000   ; qtot -0.530221
11600         ho    405    ccc     H7  11600 0.49492100   1.008000   ; qtot -0.035300
11601         ho    405    ccc     H8  11601 0.51297200   1.008000   ; qtot 0.477672
11602         h1    405    ccc     H9  11602 0.05653400   1.008000   ; qtot 0.534206
11603         h1    405    ccc    H10  11603 0.05653400   1.008000   ; qtot 0.590740
11604         oh    405    ccc     O5  11604 -0.84113600  16.000000   ; qtot -0.250396
11605         ho    405    ccc    H11  11605 0.51201600   1.008000   ; qtot 0.261620
11606         os    405    ccc     O6  11606 -0.26013600  16.000000   ; qtot 0.001484
; residue  406 ccc rtp ccc q 0.0
11607         c3    406    ccc     C1  11607 -0.33178800  12.010000   ; qtot -0.330304
11608         c3    406    ccc     C2  11608 0.30606500  12.010000   ; qtot -0.024239
11609         h1    406    ccc     H1  11609 0.11662300   1.008000   ; qtot 0.092384
11610         h1    406    ccc     H2  11610 0.11526800   1.008000   ; qtot 0.207652
11611         c3    406    ccc     C3  11611 0.15592700  12.010000   ; qtot 0.363579
11612         c3    406    ccc     C4  11612 0.28383300  12.010000   ; qtot 0.647412
11613         c3    406    ccc     C5  11613 0.32403300  12.010000   ; qtot 0.971445
11614         h1    406    ccc     H3  11614 0.13386900   1.008000   ; qtot 1.105314
11615         h1    406    ccc     H4  11615 0.10146700   1.008000   ; qtot 1.206781
11616         h2    406    ccc     H5  11616 0.10960400   1.008000   ; qtot 1.316385
11617         os    406    ccc     O1  11617 -0.28650000  16.000000   ; qtot 1.029885
11618         oh    406    ccc     O2  11618 -0.86012500  16.000000   ; qtot 0.169760
11619         oh    406    ccc     O3  11619 -0.83772800  16.000000   ; qtot -0.667968
11620         oh    406    ccc     O4  11620 -0.77449700  16.000000   ; qtot -1.442465
11621         c3    406    ccc     C6  11621 0.37576500  12.010000   ; qtot -1.066700
11622         ho    406    ccc     H6  11622 0.53656000   1.008000   ; qtot -0.530140
11623         ho    406    ccc     H7  11623 0.49492100   1.008000   ; qtot -0.035219
11624         ho    406    ccc     H8  11624 0.51297200   1.008000   ; qtot 0.477753
11625         h1    406    ccc     H9  11625 0.05653400   1.008000   ; qtot 0.534287
11626         h1    406    ccc    H10  11626 0.05653400   1.008000   ; qtot 0.590821
11627         oh    406    ccc     O5  11627 -0.84113600  16.000000   ; qtot -0.250315
11628         ho    406    ccc    H11  11628 0.51201600   1.008000   ; qtot 0.261701
11629         os    406    ccc     O6  11629 -0.26013600  16.000000   ; qtot 0.001565
; residue  407 ccc rtp ccc q 0.0
11630         c3    407    ccc     C1  11630 -0.33178800  12.010000   ; qtot -0.330223
11631         c3    407    ccc     C2  11631 0.30606500  12.010000   ; qtot -0.024158
11632         h1    407    ccc     H1  11632 0.11662300   1.008000   ; qtot 0.092465
11633         h1    407    ccc     H2  11633 0.11526800   1.008000   ; qtot 0.207733
11634         c3    407    ccc     C3  11634 0.15592700  12.010000   ; qtot 0.363660
11635         c3    407    ccc     C4  11635 0.28383300  12.010000   ; qtot 0.647493
11636         c3    407    ccc     C5  11636 0.32403300  12.010000   ; qtot 0.971526
11637         h1    407    ccc     H3  11637 0.13386900   1.008000   ; qtot 1.105395
11638         h1    407    ccc     H4  11638 0.10146700   1.008000   ; qtot 1.206862
11639         h2    407    ccc     H5  11639 0.10960400   1.008000   ; qtot 1.316466
11640         os    407    ccc     O1  11640 -0.28650000  16.000000   ; qtot 1.029966
11641         oh    407    ccc     O2  11641 -0.86012500  16.000000   ; qtot 0.169841
11642         oh    407    ccc     O3  11642 -0.83772800  16.000000   ; qtot -0.667887
11643         oh    407    ccc     O4  11643 -0.77449700  16.000000   ; qtot -1.442384
11644         c3    407    ccc     C6  11644 0.37576500  12.010000   ; qtot -1.066619
11645         ho    407    ccc     H6  11645 0.53656000   1.008000   ; qtot -0.530059
11646         ho    407    ccc     H7  11646 0.49492100   1.008000   ; qtot -0.035138
11647         ho    407    ccc     H8  11647 0.51297200   1.008000   ; qtot 0.477834
11648         h1    407    ccc     H9  11648 0.05653400   1.008000   ; qtot 0.534368
11649         h1    407    ccc    H10  11649 0.05653400   1.008000   ; qtot 0.590902
11650         oh    407    ccc     O5  11650 -0.84113600  16.000000   ; qtot -0.250234
11651         ho    407    ccc    H11  11651 0.51201600   1.008000   ; qtot 0.261782
11652         os    407    ccc     O6  11652 -0.26013600  16.000000   ; qtot 0.001646
; residue  408 ccc rtp ccc q 0.0
11653         c3    408    ccc     C1  11653 -0.33178800  12.010000   ; qtot -0.330142
11654         c3    408    ccc     C2  11654 0.30606500  12.010000   ; qtot -0.024077
11655         h1    408    ccc     H1  11655 0.11662300   1.008000   ; qtot 0.092546
11656         h1    408    ccc     H2  11656 0.11526800   1.008000   ; qtot 0.207814
11657         c3    408    ccc     C3  11657 0.15592700  12.010000   ; qtot 0.363741
11658         c3    408    ccc     C4  11658 0.28383300  12.010000   ; qtot 0.647574
11659         c3    408    ccc     C5  11659 0.32403300  12.010000   ; qtot 0.971607
11660         h1    408    ccc     H3  11660 0.13386900   1.008000   ; qtot 1.105476
11661         h1    408    ccc     H4  11661 0.10146700   1.008000   ; qtot 1.206943
11662         h2    408    ccc     H5  11662 0.10960400   1.008000   ; qtot 1.316547
11663         os    408    ccc     O1  11663 -0.28650000  16.000000   ; qtot 1.030047
11664         oh    408    ccc     O2  11664 -0.86012500  16.000000   ; qtot 0.169922
11665         oh    408    ccc     O3  11665 -0.83772800  16.000000   ; qtot -0.667806
11666         oh    408    ccc     O4  11666 -0.77449700  16.000000   ; qtot -1.442303
11667         c3    408    ccc     C6  11667 0.37576500  12.010000   ; qtot -1.066538
11668         ho    408    ccc     H6  11668 0.53656000   1.008000   ; qtot -0.529978
11669         ho    408    ccc     H7  11669 0.49492100   1.008000   ; qtot -0.035057
11670         ho    408    ccc     H8  11670 0.51297200   1.008000   ; qtot 0.477915
11671         h1    408    ccc     H9  11671 0.05653400   1.008000   ; qtot 0.534449
11672         h1    408    ccc    H10  11672 0.05653400   1.008000   ; qtot 0.590983
11673         oh    408    ccc     O5  11673 -0.84113600  16.000000   ; qtot -0.250153
11674         ho    408    ccc    H11  11674 0.51201600   1.008000   ; qtot 0.261863
11675         os    408    ccc     O6  11675 -0.26013600  16.000000   ; qtot 0.001727
; residue  409 ccc rtp ccc q 0.0
11676         c3    409    ccc     C1  11676 -0.33178800  12.010000   ; qtot -0.330061
11677         c3    409    ccc     C2  11677 0.30606500  12.010000   ; qtot -0.023996
11678         h1    409    ccc     H1  11678 0.11662300   1.008000   ; qtot 0.092627
11679         h1    409    ccc     H2  11679 0.11526800   1.008000   ; qtot 0.207895
11680         c3    409    ccc     C3  11680 0.15592700  12.010000   ; qtot 0.363822
11681         c3    409    ccc     C4  11681 0.28383300  12.010000   ; qtot 0.647655
11682         c3    409    ccc     C5  11682 0.32403300  12.010000   ; qtot 0.971688
11683         h1    409    ccc     H3  11683 0.13386900   1.008000   ; qtot 1.105557
11684         h1    409    ccc     H4  11684 0.10146700   1.008000   ; qtot 1.207024
11685         h2    409    ccc     H5  11685 0.10960400   1.008000   ; qtot 1.316628
11686         os    409    ccc     O1  11686 -0.28650000  16.000000   ; qtot 1.030128
11687         oh    409    ccc     O2  11687 -0.86012500  16.000000   ; qtot 0.170003
11688         oh    409    ccc     O3  11688 -0.83772800  16.000000   ; qtot -0.667725
11689         oh    409    ccc     O4  11689 -0.77449700  16.000000   ; qtot -1.442222
11690         c3    409    ccc     C6  11690 0.37576500  12.010000   ; qtot -1.066457
11691         ho    409    ccc     H6  11691 0.53656000   1.008000   ; qtot -0.529897
11692         ho    409    ccc     H7  11692 0.49492100   1.008000   ; qtot -0.034976
11693         ho    409    ccc     H8  11693 0.51297200   1.008000   ; qtot 0.477996
11694         h1    409    ccc     H9  11694 0.05653400   1.008000   ; qtot 0.534530
11695         h1    409    ccc    H10  11695 0.05653400   1.008000   ; qtot 0.591064
11696         oh    409    ccc     O5  11696 -0.84113600  16.000000   ; qtot -0.250072
11697         ho    409    ccc    H11  11697 0.51201600   1.008000   ; qtot 0.261944
11698         os    409    ccc     O6  11698 -0.26013600  16.000000   ; qtot 0.001808
; residue  410 ccc rtp ccc q 0.0
11699         c3    410    ccc     C1  11699 -0.33178800  12.010000   ; qtot -0.329980
11700         c3    410    ccc     C2  11700 0.30606500  12.010000   ; qtot -0.023915
11701         h1    410    ccc     H1  11701 0.11662300   1.008000   ; qtot 0.092708
11702         h1    410    ccc     H2  11702 0.11526800   1.008000   ; qtot 0.207976
11703         c3    410    ccc     C3  11703 0.15592700  12.010000   ; qtot 0.363903
11704         c3    410    ccc     C4  11704 0.28383300  12.010000   ; qtot 0.647736
11705         c3    410    ccc     C5  11705 0.32403300  12.010000   ; qtot 0.971769
11706         h1    410    ccc     H3  11706 0.13386900   1.008000   ; qtot 1.105638
11707         h1    410    ccc     H4  11707 0.10146700   1.008000   ; qtot 1.207105
11708         h2    410    ccc     H5  11708 0.10960400   1.008000   ; qtot 1.316709
11709         os    410    ccc     O1  11709 -0.28650000  16.000000   ; qtot 1.030209
11710         oh    410    ccc     O2  11710 -0.86012500  16.000000   ; qtot 0.170084
11711         oh    410    ccc     O3  11711 -0.83772800  16.000000   ; qtot -0.667644
11712         oh    410    ccc     O4  11712 -0.77449700  16.000000   ; qtot -1.442141
11713         c3    410    ccc     C6  11713 0.37576500  12.010000   ; qtot -1.066376
11714         ho    410    ccc     H6  11714 0.53656000   1.008000   ; qtot -0.529816
11715         ho    410    ccc     H7  11715 0.49492100   1.008000   ; qtot -0.034895
11716         ho    410    ccc     H8  11716 0.51297200   1.008000   ; qtot 0.478077
11717         h1    410    ccc     H9  11717 0.05653400   1.008000   ; qtot 0.534611
11718         h1    410    ccc    H10  11718 0.05653400   1.008000   ; qtot 0.591145
11719         oh    410    ccc     O5  11719 -0.84113600  16.000000   ; qtot -0.249991
11720         ho    410    ccc    H11  11720 0.51201600   1.008000   ; qtot 0.262025
11721         os    410    ccc     O6  11721 -0.26013600  16.000000   ; qtot 0.001889
; residue  411 ccc rtp ccc q 0.0
11722         c3    411    ccc     C1  11722 -0.33178800  12.010000   ; qtot -0.329899
11723         c3    411    ccc     C2  11723 0.30606500  12.010000   ; qtot -0.023834
11724         h1    411    ccc     H1  11724 0.11662300   1.008000   ; qtot 0.092789
11725         h1    411    ccc     H2  11725 0.11526800   1.008000   ; qtot 0.208057
11726         c3    411    ccc     C3  11726 0.15592700  12.010000   ; qtot 0.363984
11727         c3    411    ccc     C4  11727 0.28383300  12.010000   ; qtot 0.647817
11728         c3    411    ccc     C5  11728 0.32403300  12.010000   ; qtot 0.971850
11729         h1    411    ccc     H3  11729 0.13386900   1.008000   ; qtot 1.105719
11730         h1    411    ccc     H4  11730 0.10146700   1.008000   ; qtot 1.207186
11731         h2    411    ccc     H5  11731 0.10960400   1.008000   ; qtot 1.316790
11732         os    411    ccc     O1  11732 -0.28650000  16.000000   ; qtot 1.030290
11733         oh    411    ccc     O2  11733 -0.86012500  16.000000   ; qtot 0.170165
11734         oh    411    ccc     O3  11734 -0.83772800  16.000000   ; qtot -0.667563
11735         oh    411    ccc     O4  11735 -0.77449700  16.000000   ; qtot -1.442060
11736         c3    411    ccc     C6  11736 0.37576500  12.010000   ; qtot -1.066295
11737         ho    411    ccc     H6  11737 0.53656000   1.008000   ; qtot -0.529735
11738         ho    411    ccc     H7  11738 0.49492100   1.008000   ; qtot -0.034814
11739         ho    411    ccc     H8  11739 0.51297200   1.008000   ; qtot 0.478158
11740         h1    411    ccc     H9  11740 0.05653400   1.008000   ; qtot 0.534692
11741         h1    411    ccc    H10  11741 0.05653400   1.008000   ; qtot 0.591226
11742         oh    411    ccc     O5  11742 -0.84113600  16.000000   ; qtot -0.249910
11743         ho    411    ccc    H11  11743 0.51201600   1.008000   ; qtot 0.262106
11744         os    411    ccc     O6  11744 -0.26013600  16.000000   ; qtot 0.001970
; residue  412 ccc rtp ccc q 0.0
11745         c3    412    ccc     C1  11745 -0.33178800  12.010000   ; qtot -0.329818
11746         c3    412    ccc     C2  11746 0.30606500  12.010000   ; qtot -0.023753
11747         h1    412    ccc     H1  11747 0.11662300   1.008000   ; qtot 0.092870
11748         h1    412    ccc     H2  11748 0.11526800   1.008000   ; qtot 0.208138
11749         c3    412    ccc     C3  11749 0.15592700  12.010000   ; qtot 0.364065
11750         c3    412    ccc     C4  11750 0.28383300  12.010000   ; qtot 0.647898
11751         c3    412    ccc     C5  11751 0.32403300  12.010000   ; qtot 0.971931
11752         h1    412    ccc     H3  11752 0.13386900   1.008000   ; qtot 1.105800
11753         h1    412    ccc     H4  11753 0.10146700   1.008000   ; qtot 1.207267
11754         h2    412    ccc     H5  11754 0.10960400   1.008000   ; qtot 1.316871
11755         os    412    ccc     O1  11755 -0.28650000  16.000000   ; qtot 1.030371
11756         oh    412    ccc     O2  11756 -0.86012500  16.000000   ; qtot 0.170246
11757         oh    412    ccc     O3  11757 -0.83772800  16.000000   ; qtot -0.667482
11758         oh    412    ccc     O4  11758 -0.77449700  16.000000   ; qtot -1.441979
11759         c3    412    ccc     C6  11759 0.37576500  12.010000   ; qtot -1.066214
11760         ho    412    ccc     H6  11760 0.53656000   1.008000   ; qtot -0.529654
11761         ho    412    ccc     H7  11761 0.49492100   1.008000   ; qtot -0.034733
11762         ho    412    ccc     H8  11762 0.51297200   1.008000   ; qtot 0.478239
11763         h1    412    ccc     H9  11763 0.05653400   1.008000   ; qtot 0.534773
11764         h1    412    ccc    H10  11764 0.05653400   1.008000   ; qtot 0.591307
11765         oh    412    ccc     O5  11765 -0.84113600  16.000000   ; qtot -0.249829
11766         ho    412    ccc    H11  11766 0.51201600   1.008000   ; qtot 0.262187
11767         os    412    ccc     O6  11767 -0.26013600  16.000000   ; qtot 0.002051
; residue  413 ccc rtp ccc q 0.0
11768         c3    413    ccc     C1  11768 -0.33178800  12.010000   ; qtot -0.329737
11769         c3    413    ccc     C2  11769 0.30606500  12.010000   ; qtot -0.023672
11770         h1    413    ccc     H1  11770 0.11662300   1.008000   ; qtot 0.092951
11771         h1    413    ccc     H2  11771 0.11526800   1.008000   ; qtot 0.208219
11772         c3    413    ccc     C3  11772 0.15592700  12.010000   ; qtot 0.364146
11773         c3    413    ccc     C4  11773 0.28383300  12.010000   ; qtot 0.647979
11774         c3    413    ccc     C5  11774 0.32403300  12.010000   ; qtot 0.972012
11775         h1    413    ccc     H3  11775 0.13386900   1.008000   ; qtot 1.105881
11776         h1    413    ccc     H4  11776 0.10146700   1.008000   ; qtot 1.207348
11777         h2    413    ccc     H5  11777 0.10960400   1.008000   ; qtot 1.316952
11778         os    413    ccc     O1  11778 -0.28650000  16.000000   ; qtot 1.030452
11779         oh    413    ccc     O2  11779 -0.86012500  16.000000   ; qtot 0.170327
11780         oh    413    ccc     O3  11780 -0.83772800  16.000000   ; qtot -0.667401
11781         oh    413    ccc     O4  11781 -0.77449700  16.000000   ; qtot -1.441898
11782         c3    413    ccc     C6  11782 0.37576500  12.010000   ; qtot -1.066133
11783         ho    413    ccc     H6  11783 0.53656000   1.008000   ; qtot -0.529573
11784         ho    413    ccc     H7  11784 0.49492100   1.008000   ; qtot -0.034652
11785         ho    413    ccc     H8  11785 0.51297200   1.008000   ; qtot 0.478320
11786         h1    413    ccc     H9  11786 0.05653400   1.008000   ; qtot 0.534854
11787         h1    413    ccc    H10  11787 0.05653400   1.008000   ; qtot 0.591388
11788         oh    413    ccc     O5  11788 -0.84113600  16.000000   ; qtot -0.249748
11789         ho    413    ccc    H11  11789 0.51201600   1.008000   ; qtot 0.262268
11790         os    413    ccc     O6  11790 -0.26013600  16.000000   ; qtot 0.002132
; residue  414 ccc rtp ccc q 0.0
11791         c3    414    ccc     C1  11791 -0.33178800  12.010000   ; qtot -0.329656
11792         c3    414    ccc     C2  11792 0.30606500  12.010000   ; qtot -0.023591
11793         h1    414    ccc     H1  11793 0.11662300   1.008000   ; qtot 0.093032
11794         h1    414    ccc     H2  11794 0.11526800   1.008000   ; qtot 0.208300
11795         c3    414    ccc     C3  11795 0.15592700  12.010000   ; qtot 0.364227
11796         c3    414    ccc     C4  11796 0.28383300  12.010000   ; qtot 0.648060
11797         c3    414    ccc     C5  11797 0.32403300  12.010000   ; qtot 0.972093
11798         h1    414    ccc     H3  11798 0.13386900   1.008000   ; qtot 1.105962
11799         h1    414    ccc     H4  11799 0.10146700   1.008000   ; qtot 1.207429
11800         h2    414    ccc     H5  11800 0.10960400   1.008000   ; qtot 1.317033
11801         os    414    ccc     O1  11801 -0.28650000  16.000000   ; qtot 1.030533
11802         oh    414    ccc     O2  11802 -0.86012500  16.000000   ; qtot 0.170408
11803         oh    414    ccc     O3  11803 -0.83772800  16.000000   ; qtot -0.667320
11804         oh    414    ccc     O4  11804 -0.77449700  16.000000   ; qtot -1.441817
11805         c3    414    ccc     C6  11805 0.37576500  12.010000   ; qtot -1.066052
11806         ho    414    ccc     H6  11806 0.53656000   1.008000   ; qtot -0.529492
11807         ho    414    ccc     H7  11807 0.49492100   1.008000   ; qtot -0.034571
11808         ho    414    ccc     H8  11808 0.51297200   1.008000   ; qtot 0.478401
11809         h1    414    ccc     H9  11809 0.05653400   1.008000   ; qtot 0.534935
11810         h1    414    ccc    H10  11810 0.05653400   1.008000   ; qtot 0.591469
11811         oh    414    ccc     O5  11811 -0.84113600  16.000000   ; qtot -0.249667
11812         ho    414    ccc    H11  11812 0.51201600   1.008000   ; qtot 0.262349
11813         os    414    ccc     O6  11813 -0.26013600  16.000000   ; qtot 0.002213
; residue  415 ccc rtp ccc q 0.0
11814         c3    415    ccc     C1  11814 -0.33178800  12.010000   ; qtot -0.329575
11815         c3    415    ccc     C2  11815 0.30606500  12.010000   ; qtot -0.023510
11816         h1    415    ccc     H1  11816 0.11662300   1.008000   ; qtot 0.093113
11817         h1    415    ccc     H2  11817 0.11526800   1.008000   ; qtot 0.208381
11818         c3    415    ccc     C3  11818 0.15592700  12.010000   ; qtot 0.364308
11819         c3    415    ccc     C4  11819 0.28383300  12.010000   ; qtot 0.648141
11820         c3    415    ccc     C5  11820 0.32403300  12.010000   ; qtot 0.972174
11821         h1    415    ccc     H3  11821 0.13386900   1.008000   ; qtot 1.106043
11822         h1    415    ccc     H4  11822 0.10146700   1.008000   ; qtot 1.207510
11823         h2    415    ccc     H5  11823 0.10960400   1.008000   ; qtot 1.317114
11824         os    415    ccc     O1  11824 -0.28650000  16.000000   ; qtot 1.030614
11825         oh    415    ccc     O2  11825 -0.86012500  16.000000   ; qtot 0.170489
11826         oh    415    ccc     O3  11826 -0.83772800  16.000000   ; qtot -0.667239
11827         oh    415    ccc     O4  11827 -0.77449700  16.000000   ; qtot -1.441736
11828         c3    415    ccc     C6  11828 0.37576500  12.010000   ; qtot -1.065971
11829         ho    415    ccc     H6  11829 0.53656000   1.008000   ; qtot -0.529411
11830         ho    415    ccc     H7  11830 0.49492100   1.008000   ; qtot -0.034490
11831         ho    415    ccc     H8  11831 0.51297200   1.008000   ; qtot 0.478482
11832         h1    415    ccc     H9  11832 0.05653400   1.008000   ; qtot 0.535016
11833         h1    415    ccc    H10  11833 0.05653400   1.008000   ; qtot 0.591550
11834         oh    415    ccc     O5  11834 -0.84113600  16.000000   ; qtot -0.249586
11835         ho    415    ccc    H11  11835 0.51201600   1.008000   ; qtot 0.262430
11836         os    415    ccc     O6  11836 -0.26013600  16.000000   ; qtot 0.002294
; residue  416 ccc rtp ccc q 0.0
11837         c3    416    ccc     C1  11837 -0.33178800  12.010000   ; qtot -0.329494
11838         c3    416    ccc     C2  11838 0.30606500  12.010000   ; qtot -0.023429
11839         h1    416    ccc     H1  11839 0.11662300   1.008000   ; qtot 0.093194
11840         h1    416    ccc     H2  11840 0.11526800   1.008000   ; qtot 0.208462
11841         c3    416    ccc     C3  11841 0.15592700  12.010000   ; qtot 0.364389
11842         c3    416    ccc     C4  11842 0.28383300  12.010000   ; qtot 0.648222
11843         c3    416    ccc     C5  11843 0.32403300  12.010000   ; qtot 0.972255
11844         h1    416    ccc     H3  11844 0.13386900   1.008000   ; qtot 1.106124
11845         h1    416    ccc     H4  11845 0.10146700   1.008000   ; qtot 1.207591
11846         h2    416    ccc     H5  11846 0.10960400   1.008000   ; qtot 1.317195
11847         os    416    ccc     O1  11847 -0.28650000  16.000000   ; qtot 1.030695
11848         oh    416    ccc     O2  11848 -0.86012500  16.000000   ; qtot 0.170570
11849         oh    416    ccc     O3  11849 -0.83772800  16.000000   ; qtot -0.667158
11850         oh    416    ccc     O4  11850 -0.77449700  16.000000   ; qtot -1.441655
11851         c3    416    ccc     C6  11851 0.37576500  12.010000   ; qtot -1.065890
11852         ho    416    ccc     H6  11852 0.53656000   1.008000   ; qtot -0.529330
11853         ho    416    ccc     H7  11853 0.49492100   1.008000   ; qtot -0.034409
11854         ho    416    ccc     H8  11854 0.51297200   1.008000   ; qtot 0.478563
11855         h1    416    ccc     H9  11855 0.05653400   1.008000   ; qtot 0.535097
11856         h1    416    ccc    H10  11856 0.05653400   1.008000   ; qtot 0.591631
11857         oh    416    ccc     O5  11857 -0.84113600  16.000000   ; qtot -0.249505
11858         ho    416    ccc    H11  11858 0.51201600   1.008000   ; qtot 0.262511
11859         os    416    ccc     O6  11859 -0.26013600  16.000000   ; qtot 0.002375
; residue  417 ccc rtp ccc q 0.0
11860         c3    417    ccc     C1  11860 -0.33178800  12.010000   ; qtot -0.329413
11861         c3    417    ccc     C2  11861 0.30606500  12.010000   ; qtot -0.023348
11862         h1    417    ccc     H1  11862 0.11662300   1.008000   ; qtot 0.093275
11863         h1    417    ccc     H2  11863 0.11526800   1.008000   ; qtot 0.208543
11864         c3    417    ccc     C3  11864 0.15592700  12.010000   ; qtot 0.364470
11865         c3    417    ccc     C4  11865 0.28383300  12.010000   ; qtot 0.648303
11866         c3    417    ccc     C5  11866 0.32403300  12.010000   ; qtot 0.972336
11867         h1    417    ccc     H3  11867 0.13386900   1.008000   ; qtot 1.106205
11868         h1    417    ccc     H4  11868 0.10146700   1.008000   ; qtot 1.207672
11869         h2    417    ccc     H5  11869 0.10960400   1.008000   ; qtot 1.317276
11870         os    417    ccc     O1  11870 -0.28650000  16.000000   ; qtot 1.030776
11871         oh    417    ccc     O2  11871 -0.86012500  16.000000   ; qtot 0.170651
11872         oh    417    ccc     O3  11872 -0.83772800  16.000000   ; qtot -0.667077
11873         oh    417    ccc     O4  11873 -0.77449700  16.000000   ; qtot -1.441574
11874         c3    417    ccc     C6  11874 0.37576500  12.010000   ; qtot -1.065809
11875         ho    417    ccc     H6  11875 0.53656000   1.008000   ; qtot -0.529249
11876         ho    417    ccc     H7  11876 0.49492100   1.008000   ; qtot -0.034328
11877         ho    417    ccc     H8  11877 0.51297200   1.008000   ; qtot 0.478644
11878         h1    417    ccc     H9  11878 0.05653400   1.008000   ; qtot 0.535178
11879         h1    417    ccc    H10  11879 0.05653400   1.008000   ; qtot 0.591712
11880         oh    417    ccc     O5  11880 -0.84113600  16.000000   ; qtot -0.249424
11881         ho    417    ccc    H11  11881 0.51201600   1.008000   ; qtot 0.262592
11882         os    417    ccc     O6  11882 -0.26013600  16.000000   ; qtot 0.002456
; residue  418 ccc rtp ccc q 0.0
11883         c3    418    ccc     C1  11883 -0.33178800  12.010000   ; qtot -0.329332
11884         c3    418    ccc     C2  11884 0.30606500  12.010000   ; qtot -0.023267
11885         h1    418    ccc     H1  11885 0.11662300   1.008000   ; qtot 0.093356
11886         h1    418    ccc     H2  11886 0.11526800   1.008000   ; qtot 0.208624
11887         c3    418    ccc     C3  11887 0.15592700  12.010000   ; qtot 0.364551
11888         c3    418    ccc     C4  11888 0.28383300  12.010000   ; qtot 0.648384
11889         c3    418    ccc     C5  11889 0.32403300  12.010000   ; qtot 0.972417
11890         h1    418    ccc     H3  11890 0.13386900   1.008000   ; qtot 1.106286
11891         h1    418    ccc     H4  11891 0.10146700   1.008000   ; qtot 1.207753
11892         h2    418    ccc     H5  11892 0.10960400   1.008000   ; qtot 1.317357
11893         os    418    ccc     O1  11893 -0.28650000  16.000000   ; qtot 1.030857
11894         oh    418    ccc     O2  11894 -0.86012500  16.000000   ; qtot 0.170732
11895         oh    418    ccc     O3  11895 -0.83772800  16.000000   ; qtot -0.666996
11896         oh    418    ccc     O4  11896 -0.77449700  16.000000   ; qtot -1.441493
11897         c3    418    ccc     C6  11897 0.37576500  12.010000   ; qtot -1.065728
11898         ho    418    ccc     H6  11898 0.53656000   1.008000   ; qtot -0.529168
11899         ho    418    ccc     H7  11899 0.49492100   1.008000   ; qtot -0.034247
11900         ho    418    ccc     H8  11900 0.51297200   1.008000   ; qtot 0.478725
11901         h1    418    ccc     H9  11901 0.05653400   1.008000   ; qtot 0.535259
11902         h1    418    ccc    H10  11902 0.05653400   1.008000   ; qtot 0.591793
11903         oh    418    ccc     O5  11903 -0.84113600  16.000000   ; qtot -0.249343
11904         ho    418    ccc    H11  11904 0.51201600   1.008000   ; qtot 0.262673
11905         os    418    ccc     O6  11905 -0.26013600  16.000000   ; qtot 0.002537
; residue  419 ccc rtp ccc q 0.0
11906         c3    419    ccc     C1  11906 -0.33178800  12.010000   ; qtot -0.329251
11907         c3    419    ccc     C2  11907 0.30606500  12.010000   ; qtot -0.023186
11908         h1    419    ccc     H1  11908 0.11662300   1.008000   ; qtot 0.093437
11909         h1    419    ccc     H2  11909 0.11526800   1.008000   ; qtot 0.208705
11910         c3    419    ccc     C3  11910 0.15592700  12.010000   ; qtot 0.364632
11911         c3    419    ccc     C4  11911 0.28383300  12.010000   ; qtot 0.648465
11912         c3    419    ccc     C5  11912 0.32403300  12.010000   ; qtot 0.972498
11913         h1    419    ccc     H3  11913 0.13386900   1.008000   ; qtot 1.106367
11914         h1    419    ccc     H4  11914 0.10146700   1.008000   ; qtot 1.207834
11915         h2    419    ccc     H5  11915 0.10960400   1.008000   ; qtot 1.317438
11916         os    419    ccc     O1  11916 -0.28650000  16.000000   ; qtot 1.030938
11917         oh    419    ccc     O2  11917 -0.86012500  16.000000   ; qtot 0.170813
11918         oh    419    ccc     O3  11918 -0.83772800  16.000000   ; qtot -0.666915
11919         oh    419    ccc     O4  11919 -0.77449700  16.000000   ; qtot -1.441412
11920         c3    419    ccc     C6  11920 0.37576500  12.010000   ; qtot -1.065647
11921         ho    419    ccc     H6  11921 0.53656000   1.008000   ; qtot -0.529087
11922         ho    419    ccc     H7  11922 0.49492100   1.008000   ; qtot -0.034166
11923         ho    419    ccc     H8  11923 0.51297200   1.008000   ; qtot 0.478806
11924         h1    419    ccc     H9  11924 0.05653400   1.008000   ; qtot 0.535340
11925         h1    419    ccc    H10  11925 0.05653400   1.008000   ; qtot 0.591874
11926         oh    419    ccc     O5  11926 -0.84113600  16.000000   ; qtot -0.249262
11927         ho    419    ccc    H11  11927 0.51201600   1.008000   ; qtot 0.262754
11928         os    419    ccc     O6  11928 -0.26013600  16.000000   ; qtot 0.002618
; residue  420 ccc rtp ccc q 0.0
11929         c3    420    ccc     C1  11929 -0.33178800  12.010000   ; qtot -0.329170
11930         c3    420    ccc     C2  11930 0.30606500  12.010000   ; qtot -0.023105
11931         h1    420    ccc     H1  11931 0.11662300   1.008000   ; qtot 0.093518
11932         h1    420    ccc     H2  11932 0.11526800   1.008000   ; qtot 0.208786
11933         c3    420    ccc     C3  11933 0.15592700  12.010000   ; qtot 0.364713
11934         c3    420    ccc     C4  11934 0.28383300  12.010000   ; qtot 0.648546
11935         c3    420    ccc     C5  11935 0.32403300  12.010000   ; qtot 0.972579
11936         h1    420    ccc     H3  11936 0.13386900   1.008000   ; qtot 1.106448
11937         h1    420    ccc     H4  11937 0.10146700   1.008000   ; qtot 1.207915
11938         h2    420    ccc     H5  11938 0.10960400   1.008000   ; qtot 1.317519
11939         os    420    ccc     O1  11939 -0.28650000  16.000000   ; qtot 1.031019
11940         oh    420    ccc     O2  11940 -0.86012500  16.000000   ; qtot 0.170894
11941         oh    420    ccc     O3  11941 -0.83772800  16.000000   ; qtot -0.666834
11942         oh    420    ccc     O4  11942 -0.77449700  16.000000   ; qtot -1.441331
11943         c3    420    ccc     C6  11943 0.37576500  12.010000   ; qtot -1.065566
11944         ho    420    ccc     H6  11944 0.53656000   1.008000   ; qtot -0.529006
11945         ho    420    ccc     H7  11945 0.49492100   1.008000   ; qtot -0.034085
11946         ho    420    ccc     H8  11946 0.51297200   1.008000   ; qtot 0.478887
11947         h1    420    ccc     H9  11947 0.05653400   1.008000   ; qtot 0.535421
11948         h1    420    ccc    H10  11948 0.05653400   1.008000   ; qtot 0.591955
11949         oh    420    ccc     O5  11949 -0.84113600  16.000000   ; qtot -0.249181
11950         ho    420    ccc    H11  11950 0.51201600   1.008000   ; qtot 0.262835
11951         os    420    ccc     O6  11951 -0.26013600  16.000000   ; qtot 0.002699
; residue  421 ccc rtp ccc q 0.0
11952         c3    421    ccc     C1  11952 -0.33178800  12.010000   ; qtot -0.329089
11953         c3    421    ccc     C2  11953 0.30606500  12.010000   ; qtot -0.023024
11954         h1    421    ccc     H1  11954 0.11662300   1.008000   ; qtot 0.093599
11955         h1    421    ccc     H2  11955 0.11526800   1.008000   ; qtot 0.208867
11956         c3    421    ccc     C3  11956 0.15592700  12.010000   ; qtot 0.364794
11957         c3    421    ccc     C4  11957 0.28383300  12.010000   ; qtot 0.648627
11958         c3    421    ccc     C5  11958 0.32403300  12.010000   ; qtot 0.972660
11959         h1    421    ccc     H3  11959 0.13386900   1.008000   ; qtot 1.106529
11960         h1    421    ccc     H4  11960 0.10146700   1.008000   ; qtot 1.207996
11961         h2    421    ccc     H5  11961 0.10960400   1.008000   ; qtot 1.317600
11962         os    421    ccc     O1  11962 -0.28650000  16.000000   ; qtot 1.031100
11963         oh    421    ccc     O2  11963 -0.86012500  16.000000   ; qtot 0.170975
11964         oh    421    ccc     O3  11964 -0.83772800  16.000000   ; qtot -0.666753
11965         oh    421    ccc     O4  11965 -0.77449700  16.000000   ; qtot -1.441250
11966         c3    421    ccc     C6  11966 0.37576500  12.010000   ; qtot -1.065485
11967         ho    421    ccc     H6  11967 0.53656000   1.008000   ; qtot -0.528925
11968         ho    421    ccc     H7  11968 0.49492100   1.008000   ; qtot -0.034004
11969         ho    421    ccc     H8  11969 0.51297200   1.008000   ; qtot 0.478968
11970         h1    421    ccc     H9  11970 0.05653400   1.008000   ; qtot 0.535502
11971         h1    421    ccc    H10  11971 0.05653400   1.008000   ; qtot 0.592036
11972         oh    421    ccc     O5  11972 -0.84113600  16.000000   ; qtot -0.249100
11973         ho    421    ccc    H11  11973 0.51201600   1.008000   ; qtot 0.262916
11974         os    421    ccc     O6  11974 -0.26013600  16.000000   ; qtot 0.002780
; residue  422 ccc rtp ccc q 0.0
11975         c3    422    ccc     C1  11975 -0.33178800  12.010000   ; qtot -0.329008
11976         c3    422    ccc     C2  11976 0.30606500  12.010000   ; qtot -0.022943
11977         h1    422    ccc     H1  11977 0.11662300   1.008000   ; qtot 0.093680
11978         h1    422    ccc     H2  11978 0.11526800   1.008000   ; qtot 0.208948
11979         c3    422    ccc     C3  11979 0.15592700  12.010000   ; qtot 0.364875
11980         c3    422    ccc     C4  11980 0.28383300  12.010000   ; qtot 0.648708
11981         c3    422    ccc     C5  11981 0.32403300  12.010000   ; qtot 0.972741
11982         h1    422    ccc     H3  11982 0.13386900   1.008000   ; qtot 1.106610
11983         h1    422    ccc     H4  11983 0.10146700   1.008000   ; qtot 1.208077
11984         h2    422    ccc     H5  11984 0.10960400   1.008000   ; qtot 1.317681
11985         os    422    ccc     O1  11985 -0.28650000  16.000000   ; qtot 1.031181
11986         oh    422    ccc     O2  11986 -0.86012500  16.000000   ; qtot 0.171056
11987         oh    422    ccc     O3  11987 -0.83772800  16.000000   ; qtot -0.666672
11988         oh    422    ccc     O4  11988 -0.77449700  16.000000   ; qtot -1.441169
11989         c3    422    ccc     C6  11989 0.37576500  12.010000   ; qtot -1.065404
11990         ho    422    ccc     H6  11990 0.53656000   1.008000   ; qtot -0.528844
11991         ho    422    ccc     H7  11991 0.49492100   1.008000   ; qtot -0.033923
11992         ho    422    ccc     H8  11992 0.51297200   1.008000   ; qtot 0.479049
11993         h1    422    ccc     H9  11993 0.05653400   1.008000   ; qtot 0.535583
11994         h1    422    ccc    H10  11994 0.05653400   1.008000   ; qtot 0.592117
11995         oh    422    ccc     O5  11995 -0.84113600  16.000000   ; qtot -0.249019
11996         ho    422    ccc    H11  11996 0.51201600   1.008000   ; qtot 0.262997
11997         os    422    ccc     O6  11997 -0.26013600  16.000000   ; qtot 0.002861
; residue  423 ccc rtp ccc q 0.0
11998         c3    423    ccc     C1  11998 -0.33178800  12.010000   ; qtot -0.328927
11999         c3    423    ccc     C2  11999 0.30606500  12.010000   ; qtot -0.022862
12000         h1    423    ccc     H1  12000 0.11662300   1.008000   ; qtot 0.093761
12001         h1    423    ccc     H2  12001 0.11526800   1.008000   ; qtot 0.209029
12002         c3    423    ccc     C3  12002 0.15592700  12.010000   ; qtot 0.364956
12003         c3    423    ccc     C4  12003 0.28383300  12.010000   ; qtot 0.648789
12004         c3    423    ccc     C5  12004 0.32403300  12.010000   ; qtot 0.972822
12005         h1    423    ccc     H3  12005 0.13386900   1.008000   ; qtot 1.106691
12006         h1    423    ccc     H4  12006 0.10146700   1.008000   ; qtot 1.208158
12007         h2    423    ccc     H5  12007 0.10960400   1.008000   ; qtot 1.317762
12008         os    423    ccc     O1  12008 -0.28650000  16.000000   ; qtot 1.031262
12009         oh    423    ccc     O2  12009 -0.86012500  16.000000   ; qtot 0.171137
12010         oh    423    ccc     O3  12010 -0.83772800  16.000000   ; qtot -0.666591
12011         oh    423    ccc     O4  12011 -0.77449700  16.000000   ; qtot -1.441088
12012         c3    423    ccc     C6  12012 0.37576500  12.010000   ; qtot -1.065323
12013         ho    423    ccc     H6  12013 0.53656000   1.008000   ; qtot -0.528763
12014         ho    423    ccc     H7  12014 0.49492100   1.008000   ; qtot -0.033842
12015         ho    423    ccc     H8  12015 0.51297200   1.008000   ; qtot 0.479130
12016         h1    423    ccc     H9  12016 0.05653400   1.008000   ; qtot 0.535664
12017         h1    423    ccc    H10  12017 0.05653400   1.008000   ; qtot 0.592198
12018         oh    423    ccc     O5  12018 -0.84113600  16.000000   ; qtot -0.248938
12019         ho    423    ccc    H11  12019 0.51201600   1.008000   ; qtot 0.263078
12020         os    423    ccc     O6  12020 -0.26013600  16.000000   ; qtot 0.002942
; residue  424 ccc rtp ccc q 0.0
12021         c3    424    ccc     C1  12021 -0.33178800  12.010000   ; qtot -0.328846
12022         c3    424    ccc     C2  12022 0.30606500  12.010000   ; qtot -0.022781
12023         h1    424    ccc     H1  12023 0.11662300   1.008000   ; qtot 0.093842
12024         h1    424    ccc     H2  12024 0.11526800   1.008000   ; qtot 0.209110
12025         c3    424    ccc     C3  12025 0.15592700  12.010000   ; qtot 0.365037
12026         c3    424    ccc     C4  12026 0.28383300  12.010000   ; qtot 0.648870
12027         c3    424    ccc     C5  12027 0.32403300  12.010000   ; qtot 0.972903
12028         h1    424    ccc     H3  12028 0.13386900   1.008000   ; qtot 1.106772
12029         h1    424    ccc     H4  12029 0.10146700   1.008000   ; qtot 1.208239
12030         h2    424    ccc     H5  12030 0.10960400   1.008000   ; qtot 1.317843
12031         os    424    ccc     O1  12031 -0.28650000  16.000000   ; qtot 1.031343
12032         oh    424    ccc     O2  12032 -0.86012500  16.000000   ; qtot 0.171218
12033         oh    424    ccc     O3  12033 -0.83772800  16.000000   ; qtot -0.666510
12034         oh    424    ccc     O4  12034 -0.77449700  16.000000   ; qtot -1.441007
12035         c3    424    ccc     C6  12035 0.37576500  12.010000   ; qtot -1.065242
12036         ho    424    ccc     H6  12036 0.53656000   1.008000   ; qtot -0.528682
12037         ho    424    ccc     H7  12037 0.49492100   1.008000   ; qtot -0.033761
12038         ho    424    ccc     H8  12038 0.51297200   1.008000   ; qtot 0.479211
12039         h1    424    ccc     H9  12039 0.05653400   1.008000   ; qtot 0.535745
12040         h1    424    ccc    H10  12040 0.05653400   1.008000   ; qtot 0.592279
12041         oh    424    ccc     O5  12041 -0.84113600  16.000000   ; qtot -0.248857
12042         ho    424    ccc    H11  12042 0.51201600   1.008000   ; qtot 0.263159
12043         os    424    ccc     O6  12043 -0.26013600  16.000000   ; qtot 0.003023
; residue  425 ccc rtp ccc q 0.0
12044         c3    425    ccc     C1  12044 -0.33178800  12.010000   ; qtot -0.328765
12045         c3    425    ccc     C2  12045 0.30606500  12.010000   ; qtot -0.022700
12046         h1    425    ccc     H1  12046 0.11662300   1.008000   ; qtot 0.093923
12047         h1    425    ccc     H2  12047 0.11526800   1.008000   ; qtot 0.209191
12048         c3    425    ccc     C3  12048 0.15592700  12.010000   ; qtot 0.365118
12049         c3    425    ccc     C4  12049 0.28383300  12.010000   ; qtot 0.648951
12050         c3    425    ccc     C5  12050 0.32403300  12.010000   ; qtot 0.972984
12051         h1    425    ccc     H3  12051 0.13386900   1.008000   ; qtot 1.106853
12052         h1    425    ccc     H4  12052 0.10146700   1.008000   ; qtot 1.208320
12053         h2    425    ccc     H5  12053 0.10960400   1.008000   ; qtot 1.317924
12054         os    425    ccc     O1  12054 -0.28650000  16.000000   ; qtot 1.031424
12055         oh    425    ccc     O2  12055 -0.86012500  16.000000   ; qtot 0.171299
12056         oh    425    ccc     O3  12056 -0.83772800  16.000000   ; qtot -0.666429
12057         oh    425    ccc     O4  12057 -0.77449700  16.000000   ; qtot -1.440926
12058         c3    425    ccc     C6  12058 0.37576500  12.010000   ; qtot -1.065161
12059         ho    425    ccc     H6  12059 0.53656000   1.008000   ; qtot -0.528601
12060         ho    425    ccc     H7  12060 0.49492100   1.008000   ; qtot -0.033680
12061         ho    425    ccc     H8  12061 0.51297200   1.008000   ; qtot 0.479292
12062         h1    425    ccc     H9  12062 0.05653400   1.008000   ; qtot 0.535826
12063         h1    425    ccc    H10  12063 0.05653400   1.008000   ; qtot 0.592360
12064         oh    425    ccc     O5  12064 -0.84113600  16.000000   ; qtot -0.248776
12065         ho    425    ccc    H11  12065 0.51201600   1.008000   ; qtot 0.263240
12066         os    425    ccc     O6  12066 -0.26013600  16.000000   ; qtot 0.003104
; residue  426 ccc rtp ccc q 0.0
12067         c3    426    ccc     C1  12067 -0.33178800  12.010000   ; qtot -0.328684
12068         c3    426    ccc     C2  12068 0.30606500  12.010000   ; qtot -0.022619
12069         h1    426    ccc     H1  12069 0.11662300   1.008000   ; qtot 0.094004
12070         h1    426    ccc     H2  12070 0.11526800   1.008000   ; qtot 0.209272
12071         c3    426    ccc     C3  12071 0.15592700  12.010000   ; qtot 0.365199
12072         c3    426    ccc     C4  12072 0.28383300  12.010000   ; qtot 0.649032
12073         c3    426    ccc     C5  12073 0.32403300  12.010000   ; qtot 0.973065
12074         h1    426    ccc     H3  12074 0.13386900   1.008000   ; qtot 1.106934
12075         h1    426    ccc     H4  12075 0.10146700   1.008000   ; qtot 1.208401
12076         h2    426    ccc     H5  12076 0.10960400   1.008000   ; qtot 1.318005
12077         os    426    ccc     O1  12077 -0.28650000  16.000000   ; qtot 1.031505
12078         oh    426    ccc     O2  12078 -0.86012500  16.000000   ; qtot 0.171380
12079         oh    426    ccc     O3  12079 -0.83772800  16.000000   ; qtot -0.666348
12080         oh    426    ccc     O4  12080 -0.77449700  16.000000   ; qtot -1.440845
12081         c3    426    ccc     C6  12081 0.37576500  12.010000   ; qtot -1.065080
12082         ho    426    ccc     H6  12082 0.53656000   1.008000   ; qtot -0.528520
12083         ho    426    ccc     H7  12083 0.49492100   1.008000   ; qtot -0.033599
12084         ho    426    ccc     H8  12084 0.51297200   1.008000   ; qtot 0.479373
12085         h1    426    ccc     H9  12085 0.05653400   1.008000   ; qtot 0.535907
12086         h1    426    ccc    H10  12086 0.05653400   1.008000   ; qtot 0.592441
12087         oh    426    ccc     O5  12087 -0.84113600  16.000000   ; qtot -0.248695
12088         ho    426    ccc    H11  12088 0.51201600   1.008000   ; qtot 0.263321
12089         os    426    ccc     O6  12089 -0.26013600  16.000000   ; qtot 0.003185
; residue  427 ccc rtp ccc q 0.0
12090         c3    427    ccc     C1  12090 -0.33178800  12.010000   ; qtot -0.328603
12091         c3    427    ccc     C2  12091 0.30606500  12.010000   ; qtot -0.022538
12092         h1    427    ccc     H1  12092 0.11662300   1.008000   ; qtot 0.094085
12093         h1    427    ccc     H2  12093 0.11526800   1.008000   ; qtot 0.209353
12094         c3    427    ccc     C3  12094 0.15592700  12.010000   ; qtot 0.365280
12095         c3    427    ccc     C4  12095 0.28383300  12.010000   ; qtot 0.649113
12096         c3    427    ccc     C5  12096 0.32403300  12.010000   ; qtot 0.973146
12097         h1    427    ccc     H3  12097 0.13386900   1.008000   ; qtot 1.107015
12098         h1    427    ccc     H4  12098 0.10146700   1.008000   ; qtot 1.208482
12099         h2    427    ccc     H5  12099 0.10960400   1.008000   ; qtot 1.318086
12100         os    427    ccc     O1  12100 -0.28650000  16.000000   ; qtot 1.031586
12101         oh    427    ccc     O2  12101 -0.86012500  16.000000   ; qtot 0.171461
12102         oh    427    ccc     O3  12102 -0.83772800  16.000000   ; qtot -0.666267
12103         oh    427    ccc     O4  12103 -0.77449700  16.000000   ; qtot -1.440764
12104         c3    427    ccc     C6  12104 0.37576500  12.010000   ; qtot -1.064999
12105         ho    427    ccc     H6  12105 0.53656000   1.008000   ; qtot -0.528439
12106         ho    427    ccc     H7  12106 0.49492100   1.008000   ; qtot -0.033518
12107         ho    427    ccc     H8  12107 0.51297200   1.008000   ; qtot 0.479454
12108         h1    427    ccc     H9  12108 0.05653400   1.008000   ; qtot 0.535988
12109         h1    427    ccc    H10  12109 0.05653400   1.008000   ; qtot 0.592522
12110         oh    427    ccc     O5  12110 -0.84113600  16.000000   ; qtot -0.248614
12111         ho    427    ccc    H11  12111 0.51201600   1.008000   ; qtot 0.263402
12112         os    427    ccc     O6  12112 -0.26013600  16.000000   ; qtot 0.003266
; residue  428 ccc rtp ccc q 0.0
12113         c3    428    ccc     C1  12113 -0.33178800  12.010000   ; qtot -0.328522
12114         c3    428    ccc     C2  12114 0.30606500  12.010000   ; qtot -0.022457
12115         h1    428    ccc     H1  12115 0.11662300   1.008000   ; qtot 0.094166
12116         h1    428    ccc     H2  12116 0.11526800   1.008000   ; qtot 0.209434
12117         c3    428    ccc     C3  12117 0.15592700  12.010000   ; qtot 0.365361
12118         c3    428    ccc     C4  12118 0.28383300  12.010000   ; qtot 0.649194
12119         c3    428    ccc     C5  12119 0.32403300  12.010000   ; qtot 0.973227
12120         h1    428    ccc     H3  12120 0.13386900   1.008000   ; qtot 1.107096
12121         h1    428    ccc     H4  12121 0.10146700   1.008000   ; qtot 1.208563
12122         h2    428    ccc     H5  12122 0.10960400   1.008000   ; qtot 1.318167
12123         os    428    ccc     O1  12123 -0.28650000  16.000000   ; qtot 1.031667
12124         oh    428    ccc     O2  12124 -0.86012500  16.000000   ; qtot 0.171542
12125         oh    428    ccc     O3  12125 -0.83772800  16.000000   ; qtot -0.666186
12126         oh    428    ccc     O4  12126 -0.77449700  16.000000   ; qtot -1.440683
12127         c3    428    ccc     C6  12127 0.37576500  12.010000   ; qtot -1.064918
12128         ho    428    ccc     H6  12128 0.53656000   1.008000   ; qtot -0.528358
12129         ho    428    ccc     H7  12129 0.49492100   1.008000   ; qtot -0.033437
12130         ho    428    ccc     H8  12130 0.51297200   1.008000   ; qtot 0.479535
12131         h1    428    ccc     H9  12131 0.05653400   1.008000   ; qtot 0.536069
12132         h1    428    ccc    H10  12132 0.05653400   1.008000   ; qtot 0.592603
12133         oh    428    ccc     O5  12133 -0.84113600  16.000000   ; qtot -0.248533
12134         ho    428    ccc    H11  12134 0.51201600   1.008000   ; qtot 0.263483
12135         os    428    ccc     O6  12135 -0.26013600  16.000000   ; qtot 0.003347
; residue  429 ccc rtp ccc q 0.0
12136         c3    429    ccc     C1  12136 -0.33178800  12.010000   ; qtot -0.328441
12137         c3    429    ccc     C2  12137 0.30606500  12.010000   ; qtot -0.022376
12138         h1    429    ccc     H1  12138 0.11662300   1.008000   ; qtot 0.094247
12139         h1    429    ccc     H2  12139 0.11526800   1.008000   ; qtot 0.209515
12140         c3    429    ccc     C3  12140 0.15592700  12.010000   ; qtot 0.365442
12141         c3    429    ccc     C4  12141 0.28383300  12.010000   ; qtot 0.649275
12142         c3    429    ccc     C5  12142 0.32403300  12.010000   ; qtot 0.973308
12143         h1    429    ccc     H3  12143 0.13386900   1.008000   ; qtot 1.107177
12144         h1    429    ccc     H4  12144 0.10146700   1.008000   ; qtot 1.208644
12145         h2    429    ccc     H5  12145 0.10960400   1.008000   ; qtot 1.318248
12146         os    429    ccc     O1  12146 -0.28650000  16.000000   ; qtot 1.031748
12147         oh    429    ccc     O2  12147 -0.86012500  16.000000   ; qtot 0.171623
12148         oh    429    ccc     O3  12148 -0.83772800  16.000000   ; qtot -0.666105
12149         oh    429    ccc     O4  12149 -0.77449700  16.000000   ; qtot -1.440602
12150         c3    429    ccc     C6  12150 0.37576500  12.010000   ; qtot -1.064837
12151         ho    429    ccc     H6  12151 0.53656000   1.008000   ; qtot -0.528277
12152         ho    429    ccc     H7  12152 0.49492100   1.008000   ; qtot -0.033356
12153         ho    429    ccc     H8  12153 0.51297200   1.008000   ; qtot 0.479616
12154         h1    429    ccc     H9  12154 0.05653400   1.008000   ; qtot 0.536150
12155         h1    429    ccc    H10  12155 0.05653400   1.008000   ; qtot 0.592684
12156         oh    429    ccc     O5  12156 -0.84113600  16.000000   ; qtot -0.248452
12157         ho    429    ccc    H11  12157 0.51201600   1.008000   ; qtot 0.263564
12158         os    429    ccc     O6  12158 -0.26013600  16.000000   ; qtot 0.003428
; residue  430 ccc rtp ccc q 0.0
12159         c3    430    ccc     C1  12159 -0.33178800  12.010000   ; qtot -0.328360
12160         c3    430    ccc     C2  12160 0.30606500  12.010000   ; qtot -0.022295
12161         h1    430    ccc     H1  12161 0.11662300   1.008000   ; qtot 0.094328
12162         h1    430    ccc     H2  12162 0.11526800   1.008000   ; qtot 0.209596
12163         c3    430    ccc     C3  12163 0.15592700  12.010000   ; qtot 0.365523
12164         c3    430    ccc     C4  12164 0.28383300  12.010000   ; qtot 0.649356
12165         c3    430    ccc     C5  12165 0.32403300  12.010000   ; qtot 0.973389
12166         h1    430    ccc     H3  12166 0.13386900   1.008000   ; qtot 1.107258
12167         h1    430    ccc     H4  12167 0.10146700   1.008000   ; qtot 1.208725
12168         h2    430    ccc     H5  12168 0.10960400   1.008000   ; qtot 1.318329
12169         os    430    ccc     O1  12169 -0.28650000  16.000000   ; qtot 1.031829
12170         oh    430    ccc     O2  12170 -0.86012500  16.000000   ; qtot 0.171704
12171         oh    430    ccc     O3  12171 -0.83772800  16.000000   ; qtot -0.666024
12172         oh    430    ccc     O4  12172 -0.77449700  16.000000   ; qtot -1.440521
12173         c3    430    ccc     C6  12173 0.37576500  12.010000   ; qtot -1.064756
12174         ho    430    ccc     H6  12174 0.53656000   1.008000   ; qtot -0.528196
12175         ho    430    ccc     H7  12175 0.49492100   1.008000   ; qtot -0.033275
12176         ho    430    ccc     H8  12176 0.51297200   1.008000   ; qtot 0.479697
12177         h1    430    ccc     H9  12177 0.05653400   1.008000   ; qtot 0.536231
12178         h1    430    ccc    H10  12178 0.05653400   1.008000   ; qtot 0.592765
12179         oh    430    ccc     O5  12179 -0.84113600  16.000000   ; qtot -0.248371
12180         ho    430    ccc    H11  12180 0.51201600   1.008000   ; qtot 0.263645
12181         os    430    ccc     O6  12181 -0.26013600  16.000000   ; qtot 0.003509
; residue  431 ccc rtp ccc q 0.0
12182         c3    431    ccc     C1  12182 -0.33178800  12.010000   ; qtot -0.328279
12183         c3    431    ccc     C2  12183 0.30606500  12.010000   ; qtot -0.022214
12184         h1    431    ccc     H1  12184 0.11662300   1.008000   ; qtot 0.094409
12185         h1    431    ccc     H2  12185 0.11526800   1.008000   ; qtot 0.209677
12186         c3    431    ccc     C3  12186 0.15592700  12.010000   ; qtot 0.365604
12187         c3    431    ccc     C4  12187 0.28383300  12.010000   ; qtot 0.649437
12188         c3    431    ccc     C5  12188 0.32403300  12.010000   ; qtot 0.973470
12189         h1    431    ccc     H3  12189 0.13386900   1.008000   ; qtot 1.107339
12190         h1    431    ccc     H4  12190 0.10146700   1.008000   ; qtot 1.208806
12191         h2    431    ccc     H5  12191 0.10960400   1.008000   ; qtot 1.318410
12192         os    431    ccc     O1  12192 -0.28650000  16.000000   ; qtot 1.031910
12193         oh    431    ccc     O2  12193 -0.86012500  16.000000   ; qtot 0.171785
12194         oh    431    ccc     O3  12194 -0.83772800  16.000000   ; qtot -0.665943
12195         oh    431    ccc     O4  12195 -0.77449700  16.000000   ; qtot -1.440440
12196         c3    431    ccc     C6  12196 0.37576500  12.010000   ; qtot -1.064675
12197         ho    431    ccc     H6  12197 0.53656000   1.008000   ; qtot -0.528115
12198         ho    431    ccc     H7  12198 0.49492100   1.008000   ; qtot -0.033194
12199         ho    431    ccc     H8  12199 0.51297200   1.008000   ; qtot 0.479778
12200         h1    431    ccc     H9  12200 0.05653400   1.008000   ; qtot 0.536312
12201         h1    431    ccc    H10  12201 0.05653400   1.008000   ; qtot 0.592846
12202         oh    431    ccc     O5  12202 -0.84113600  16.000000   ; qtot -0.248290
12203         ho    431    ccc    H11  12203 0.51201600   1.008000   ; qtot 0.263726
12204         os    431    ccc     O6  12204 -0.26013600  16.000000   ; qtot 0.003590
; residue  432 ccc rtp ccc q 0.0
12205         c3    432    ccc     C1  12205 -0.33178800  12.010000   ; qtot -0.328198
12206         c3    432    ccc     C2  12206 0.30606500  12.010000   ; qtot -0.022133
12207         h1    432    ccc     H1  12207 0.11662300   1.008000   ; qtot 0.094490
12208         h1    432    ccc     H2  12208 0.11526800   1.008000   ; qtot 0.209758
12209         c3    432    ccc     C3  12209 0.15592700  12.010000   ; qtot 0.365685
12210         c3    432    ccc     C4  12210 0.28383300  12.010000   ; qtot 0.649518
12211         c3    432    ccc     C5  12211 0.32403300  12.010000   ; qtot 0.973551
12212         h1    432    ccc     H3  12212 0.13386900   1.008000   ; qtot 1.107420
12213         h1    432    ccc     H4  12213 0.10146700   1.008000   ; qtot 1.208887
12214         h2    432    ccc     H5  12214 0.10960400   1.008000   ; qtot 1.318491
12215         os    432    ccc     O1  12215 -0.28650000  16.000000   ; qtot 1.031991
12216         oh    432    ccc     O2  12216 -0.86012500  16.000000   ; qtot 0.171866
12217         oh    432    ccc     O3  12217 -0.83772800  16.000000   ; qtot -0.665862
12218         oh    432    ccc     O4  12218 -0.77449700  16.000000   ; qtot -1.440359
12219         c3    432    ccc     C6  12219 0.37576500  12.010000   ; qtot -1.064594
12220         ho    432    ccc     H6  12220 0.53656000   1.008000   ; qtot -0.528034
12221         ho    432    ccc     H7  12221 0.49492100   1.008000   ; qtot -0.033113
12222         ho    432    ccc     H8  12222 0.51297200   1.008000   ; qtot 0.479859
12223         h1    432    ccc     H9  12223 0.05653400   1.008000   ; qtot 0.536393
12224         h1    432    ccc    H10  12224 0.05653400   1.008000   ; qtot 0.592927
12225         oh    432    ccc     O5  12225 -0.84113600  16.000000   ; qtot -0.248209
12226         ho    432    ccc    H11  12226 0.51201600   1.008000   ; qtot 0.263807
12227         os    432    ccc     O6  12227 -0.26013600  16.000000   ; qtot 0.003671
; residue  433 ccc rtp ccc q 0.0
12228         c3    433    ccc     C1  12228 -0.33178800  12.010000   ; qtot -0.328117
12229         c3    433    ccc     C2  12229 0.30606500  12.010000   ; qtot -0.022052
12230         h1    433    ccc     H1  12230 0.11662300   1.008000   ; qtot 0.094571
12231         h1    433    ccc     H2  12231 0.11526800   1.008000   ; qtot 0.209839
12232         c3    433    ccc     C3  12232 0.15592700  12.010000   ; qtot 0.365766
12233         c3    433    ccc     C4  12233 0.28383300  12.010000   ; qtot 0.649599
12234         c3    433    ccc     C5  12234 0.32403300  12.010000   ; qtot 0.973632
12235         h1    433    ccc     H3  12235 0.13386900   1.008000   ; qtot 1.107501
12236         h1    433    ccc     H4  12236 0.10146700   1.008000   ; qtot 1.208968
12237         h2    433    ccc     H5  12237 0.10960400   1.008000   ; qtot 1.318572
12238         os    433    ccc     O1  12238 -0.28650000  16.000000   ; qtot 1.032072
12239         oh    433    ccc     O2  12239 -0.86012500  16.000000   ; qtot 0.171947
12240         oh    433    ccc     O3  12240 -0.83772800  16.000000   ; qtot -0.665781
12241         oh    433    ccc     O4  12241 -0.77449700  16.000000   ; qtot -1.440278
12242         c3    433    ccc     C6  12242 0.37576500  12.010000   ; qtot -1.064513
12243         ho    433    ccc     H6  12243 0.53656000   1.008000   ; qtot -0.527953
12244         ho    433    ccc     H7  12244 0.49492100   1.008000   ; qtot -0.033032
12245         ho    433    ccc     H8  12245 0.51297200   1.008000   ; qtot 0.479940
12246         h1    433    ccc     H9  12246 0.05653400   1.008000   ; qtot 0.536474
12247         h1    433    ccc    H10  12247 0.05653400   1.008000   ; qtot 0.593008
12248         oh    433    ccc     O5  12248 -0.84113600  16.000000   ; qtot -0.248128
12249         ho    433    ccc    H11  12249 0.51201600   1.008000   ; qtot 0.263888
12250         os    433    ccc     O6  12250 -0.26013600  16.000000   ; qtot 0.003752
; residue  434 ccc rtp ccc q 0.0
12251         c3    434    ccc     C1  12251 -0.33178800  12.010000   ; qtot -0.328036
12252         c3    434    ccc     C2  12252 0.30606500  12.010000   ; qtot -0.021971
12253         h1    434    ccc     H1  12253 0.11662300   1.008000   ; qtot 0.094652
12254         h1    434    ccc     H2  12254 0.11526800   1.008000   ; qtot 0.209920
12255         c3    434    ccc     C3  12255 0.15592700  12.010000   ; qtot 0.365847
12256         c3    434    ccc     C4  12256 0.28383300  12.010000   ; qtot 0.649680
12257         c3    434    ccc     C5  12257 0.32403300  12.010000   ; qtot 0.973713
12258         h1    434    ccc     H3  12258 0.13386900   1.008000   ; qtot 1.107582
12259         h1    434    ccc     H4  12259 0.10146700   1.008000   ; qtot 1.209049
12260         h2    434    ccc     H5  12260 0.10960400   1.008000   ; qtot 1.318653
12261         os    434    ccc     O1  12261 -0.28650000  16.000000   ; qtot 1.032153
12262         oh    434    ccc     O2  12262 -0.86012500  16.000000   ; qtot 0.172028
12263         oh    434    ccc     O3  12263 -0.83772800  16.000000   ; qtot -0.665700
12264         oh    434    ccc     O4  12264 -0.77449700  16.000000   ; qtot -1.440197
12265         c3    434    ccc     C6  12265 0.37576500  12.010000   ; qtot -1.064432
12266         ho    434    ccc     H6  12266 0.53656000   1.008000   ; qtot -0.527872
12267         ho    434    ccc     H7  12267 0.49492100   1.008000   ; qtot -0.032951
12268         ho    434    ccc     H8  12268 0.51297200   1.008000   ; qtot 0.480021
12269         h1    434    ccc     H9  12269 0.05653400   1.008000   ; qtot 0.536555
12270         h1    434    ccc    H10  12270 0.05653400   1.008000   ; qtot 0.593089
12271         oh    434    ccc     O5  12271 -0.84113600  16.000000   ; qtot -0.248047
12272         ho    434    ccc    H11  12272 0.51201600   1.008000   ; qtot 0.263969
12273         os    434    ccc     O6  12273 -0.26013600  16.000000   ; qtot 0.003833
; residue  435 ccc rtp ccc q 0.0
12274         c3    435    ccc     C1  12274 -0.33178800  12.010000   ; qtot -0.327955
12275         c3    435    ccc     C2  12275 0.30606500  12.010000   ; qtot -0.021890
12276         h1    435    ccc     H1  12276 0.11662300   1.008000   ; qtot 0.094733
12277         h1    435    ccc     H2  12277 0.11526800   1.008000   ; qtot 0.210001
12278         c3    435    ccc     C3  12278 0.15592700  12.010000   ; qtot 0.365928
12279         c3    435    ccc     C4  12279 0.28383300  12.010000   ; qtot 0.649761
12280         c3    435    ccc     C5  12280 0.32403300  12.010000   ; qtot 0.973794
12281         h1    435    ccc     H3  12281 0.13386900   1.008000   ; qtot 1.107663
12282         h1    435    ccc     H4  12282 0.10146700   1.008000   ; qtot 1.209130
12283         h2    435    ccc     H5  12283 0.10960400   1.008000   ; qtot 1.318734
12284         os    435    ccc     O1  12284 -0.28650000  16.000000   ; qtot 1.032234
12285         oh    435    ccc     O2  12285 -0.86012500  16.000000   ; qtot 0.172109
12286         oh    435    ccc     O3  12286 -0.83772800  16.000000   ; qtot -0.665619
12287         oh    435    ccc     O4  12287 -0.77449700  16.000000   ; qtot -1.440116
12288         c3    435    ccc     C6  12288 0.37576500  12.010000   ; qtot -1.064351
12289         ho    435    ccc     H6  12289 0.53656000   1.008000   ; qtot -0.527791
12290         ho    435    ccc     H7  12290 0.49492100   1.008000   ; qtot -0.032870
12291         ho    435    ccc     H8  12291 0.51297200   1.008000   ; qtot 0.480102
12292         h1    435    ccc     H9  12292 0.05653400   1.008000   ; qtot 0.536636
12293         h1    435    ccc    H10  12293 0.05653400   1.008000   ; qtot 0.593170
12294         oh    435    ccc     O5  12294 -0.84113600  16.000000   ; qtot -0.247966
12295         ho    435    ccc    H11  12295 0.51201600   1.008000   ; qtot 0.264050
12296         os    435    ccc     O6  12296 -0.26013600  16.000000   ; qtot 0.003914
; residue  436 ccc rtp ccc q 0.0
12297         c3    436    ccc     C1  12297 -0.33178800  12.010000   ; qtot -0.327874
12298         c3    436    ccc     C2  12298 0.30606500  12.010000   ; qtot -0.021809
12299         h1    436    ccc     H1  12299 0.11662300   1.008000   ; qtot 0.094814
12300         h1    436    ccc     H2  12300 0.11526800   1.008000   ; qtot 0.210082
12301         c3    436    ccc     C3  12301 0.15592700  12.010000   ; qtot 0.366009
12302         c3    436    ccc     C4  12302 0.28383300  12.010000   ; qtot 0.649842
12303         c3    436    ccc     C5  12303 0.32403300  12.010000   ; qtot 0.973875
12304         h1    436    ccc     H3  12304 0.13386900   1.008000   ; qtot 1.107744
12305         h1    436    ccc     H4  12305 0.10146700   1.008000   ; qtot 1.209211
12306         h2    436    ccc     H5  12306 0.10960400   1.008000   ; qtot 1.318815
12307         os    436    ccc     O1  12307 -0.28650000  16.000000   ; qtot 1.032315
12308         oh    436    ccc     O2  12308 -0.86012500  16.000000   ; qtot 0.172190
12309         oh    436    ccc     O3  12309 -0.83772800  16.000000   ; qtot -0.665538
12310         oh    436    ccc     O4  12310 -0.77449700  16.000000   ; qtot -1.440035
12311         c3    436    ccc     C6  12311 0.37576500  12.010000   ; qtot -1.064270
12312         ho    436    ccc     H6  12312 0.53656000   1.008000   ; qtot -0.527710
12313         ho    436    ccc     H7  12313 0.49492100   1.008000   ; qtot -0.032789
12314         ho    436    ccc     H8  12314 0.51297200   1.008000   ; qtot 0.480183
12315         h1    436    ccc     H9  12315 0.05653400   1.008000   ; qtot 0.536717
12316         h1    436    ccc    H10  12316 0.05653400   1.008000   ; qtot 0.593251
12317         oh    436    ccc     O5  12317 -0.84113600  16.000000   ; qtot -0.247885
12318         ho    436    ccc    H11  12318 0.51201600   1.008000   ; qtot 0.264131
12319         os    436    ccc     O6  12319 -0.26013600  16.000000   ; qtot 0.003995
; residue  437 ccc rtp ccc q 0.0
12320         c3    437    ccc     C1  12320 -0.33178800  12.010000   ; qtot -0.327793
12321         c3    437    ccc     C2  12321 0.30606500  12.010000   ; qtot -0.021728
12322         h1    437    ccc     H1  12322 0.11662300   1.008000   ; qtot 0.094895
12323         h1    437    ccc     H2  12323 0.11526800   1.008000   ; qtot 0.210163
12324         c3    437    ccc     C3  12324 0.15592700  12.010000   ; qtot 0.366090
12325         c3    437    ccc     C4  12325 0.28383300  12.010000   ; qtot 0.649923
12326         c3    437    ccc     C5  12326 0.32403300  12.010000   ; qtot 0.973956
12327         h1    437    ccc     H3  12327 0.13386900   1.008000   ; qtot 1.107825
12328         h1    437    ccc     H4  12328 0.10146700   1.008000   ; qtot 1.209292
12329         h2    437    ccc     H5  12329 0.10960400   1.008000   ; qtot 1.318896
12330         os    437    ccc     O1  12330 -0.28650000  16.000000   ; qtot 1.032396
12331         oh    437    ccc     O2  12331 -0.86012500  16.000000   ; qtot 0.172271
12332         oh    437    ccc     O3  12332 -0.83772800  16.000000   ; qtot -0.665457
12333         oh    437    ccc     O4  12333 -0.77449700  16.000000   ; qtot -1.439954
12334         c3    437    ccc     C6  12334 0.37576500  12.010000   ; qtot -1.064189
12335         ho    437    ccc     H6  12335 0.53656000   1.008000   ; qtot -0.527629
12336         ho    437    ccc     H7  12336 0.49492100   1.008000   ; qtot -0.032708
12337         ho    437    ccc     H8  12337 0.51297200   1.008000   ; qtot 0.480264
12338         h1    437    ccc     H9  12338 0.05653400   1.008000   ; qtot 0.536798
12339         h1    437    ccc    H10  12339 0.05653400   1.008000   ; qtot 0.593332
12340         oh    437    ccc     O5  12340 -0.84113600  16.000000   ; qtot -0.247804
12341         ho    437    ccc    H11  12341 0.51201600   1.008000   ; qtot 0.264212
12342         os    437    ccc     O6  12342 -0.26013600  16.000000   ; qtot 0.004076
; residue  438 ccc rtp ccc q 0.0
12343         c3    438    ccc     C1  12343 -0.33178800  12.010000   ; qtot -0.327712
12344         c3    438    ccc     C2  12344 0.30606500  12.010000   ; qtot -0.021647
12345         h1    438    ccc     H1  12345 0.11662300   1.008000   ; qtot 0.094976
12346         h1    438    ccc     H2  12346 0.11526800   1.008000   ; qtot 0.210244
12347         c3    438    ccc     C3  12347 0.15592700  12.010000   ; qtot 0.366171
12348         c3    438    ccc     C4  12348 0.28383300  12.010000   ; qtot 0.650004
12349         c3    438    ccc     C5  12349 0.32403300  12.010000   ; qtot 0.974037
12350         h1    438    ccc     H3  12350 0.13386900   1.008000   ; qtot 1.107906
12351         h1    438    ccc     H4  12351 0.10146700   1.008000   ; qtot 1.209373
12352         h2    438    ccc     H5  12352 0.10960400   1.008000   ; qtot 1.318977
12353         os    438    ccc     O1  12353 -0.28650000  16.000000   ; qtot 1.032477
12354         oh    438    ccc     O2  12354 -0.86012500  16.000000   ; qtot 0.172352
12355         oh    438    ccc     O3  12355 -0.83772800  16.000000   ; qtot -0.665376
12356         oh    438    ccc     O4  12356 -0.77449700  16.000000   ; qtot -1.439873
12357         c3    438    ccc     C6  12357 0.37576500  12.010000   ; qtot -1.064108
12358         ho    438    ccc     H6  12358 0.53656000   1.008000   ; qtot -0.527548
12359         ho    438    ccc     H7  12359 0.49492100   1.008000   ; qtot -0.032627
12360         ho    438    ccc     H8  12360 0.51297200   1.008000   ; qtot 0.480345
12361         h1    438    ccc     H9  12361 0.05653400   1.008000   ; qtot 0.536879
12362         h1    438    ccc    H10  12362 0.05653400   1.008000   ; qtot 0.593413
12363         oh    438    ccc     O5  12363 -0.84113600  16.000000   ; qtot -0.247723
12364         ho    438    ccc    H11  12364 0.51201600   1.008000   ; qtot 0.264293
12365         os    438    ccc     O6  12365 -0.26013600  16.000000   ; qtot 0.004157
; residue  439 ccc rtp ccc q 0.0
12366         c3    439    ccc     C1  12366 -0.33178800  12.010000   ; qtot -0.327631
12367         c3    439    ccc     C2  12367 0.30606500  12.010000   ; qtot -0.021566
12368         h1    439    ccc     H1  12368 0.11662300   1.008000   ; qtot 0.095057
12369         h1    439    ccc     H2  12369 0.11526800   1.008000   ; qtot 0.210325
12370         c3    439    ccc     C3  12370 0.15592700  12.010000   ; qtot 0.366252
12371         c3    439    ccc     C4  12371 0.28383300  12.010000   ; qtot 0.650085
12372         c3    439    ccc     C5  12372 0.32403300  12.010000   ; qtot 0.974118
12373         h1    439    ccc     H3  12373 0.13386900   1.008000   ; qtot 1.107987
12374         h1    439    ccc     H4  12374 0.10146700   1.008000   ; qtot 1.209454
12375         h2    439    ccc     H5  12375 0.10960400   1.008000   ; qtot 1.319058
12376         os    439    ccc     O1  12376 -0.28650000  16.000000   ; qtot 1.032558
12377         oh    439    ccc     O2  12377 -0.86012500  16.000000   ; qtot 0.172433
12378         oh    439    ccc     O3  12378 -0.83772800  16.000000   ; qtot -0.665295
12379         oh    439    ccc     O4  12379 -0.77449700  16.000000   ; qtot -1.439792
12380         c3    439    ccc     C6  12380 0.37576500  12.010000   ; qtot -1.064027
12381         ho    439    ccc     H6  12381 0.53656000   1.008000   ; qtot -0.527467
12382         ho    439    ccc     H7  12382 0.49492100   1.008000   ; qtot -0.032546
12383         ho    439    ccc     H8  12383 0.51297200   1.008000   ; qtot 0.480426
12384         h1    439    ccc     H9  12384 0.05653400   1.008000   ; qtot 0.536960
12385         h1    439    ccc    H10  12385 0.05653400   1.008000   ; qtot 0.593494
12386         oh    439    ccc     O5  12386 -0.84113600  16.000000   ; qtot -0.247642
12387         ho    439    ccc    H11  12387 0.51201600   1.008000   ; qtot 0.264374
12388         os    439    ccc     O6  12388 -0.26013600  16.000000   ; qtot 0.004238
; residue  440 ccc rtp ccc q 0.0
12389         c3    440    ccc     C1  12389 -0.33178800  12.010000   ; qtot -0.327550
12390         c3    440    ccc     C2  12390 0.30606500  12.010000   ; qtot -0.021485
12391         h1    440    ccc     H1  12391 0.11662300   1.008000   ; qtot 0.095138
12392         h1    440    ccc     H2  12392 0.11526800   1.008000   ; qtot 0.210406
12393         c3    440    ccc     C3  12393 0.15592700  12.010000   ; qtot 0.366333
12394         c3    440    ccc     C4  12394 0.28383300  12.010000   ; qtot 0.650166
12395         c3    440    ccc     C5  12395 0.32403300  12.010000   ; qtot 0.974199
12396         h1    440    ccc     H3  12396 0.13386900   1.008000   ; qtot 1.108068
12397         h1    440    ccc     H4  12397 0.10146700   1.008000   ; qtot 1.209535
12398         h2    440    ccc     H5  12398 0.10960400   1.008000   ; qtot 1.319139
12399         os    440    ccc     O1  12399 -0.28650000  16.000000   ; qtot 1.032639
12400         oh    440    ccc     O2  12400 -0.86012500  16.000000   ; qtot 0.172514
12401         oh    440    ccc     O3  12401 -0.83772800  16.000000   ; qtot -0.665214
12402         oh    440    ccc     O4  12402 -0.77449700  16.000000   ; qtot -1.439711
12403         c3    440    ccc     C6  12403 0.37576500  12.010000   ; qtot -1.063946
12404         ho    440    ccc     H6  12404 0.53656000   1.008000   ; qtot -0.527386
12405         ho    440    ccc     H7  12405 0.49492100   1.008000   ; qtot -0.032465
12406         ho    440    ccc     H8  12406 0.51297200   1.008000   ; qtot 0.480507
12407         h1    440    ccc     H9  12407 0.05653400   1.008000   ; qtot 0.537041
12408         h1    440    ccc    H10  12408 0.05653400   1.008000   ; qtot 0.593575
12409         oh    440    ccc     O5  12409 -0.84113600  16.000000   ; qtot -0.247561
12410         ho    440    ccc    H11  12410 0.51201600   1.008000   ; qtot 0.264455
12411         os    440    ccc     O6  12411 -0.26013600  16.000000   ; qtot 0.004319
; residue  441 ccc rtp ccc q 0.0
12412         c3    441    ccc     C1  12412 -0.33178800  12.010000   ; qtot -0.327469
12413         c3    441    ccc     C2  12413 0.30606500  12.010000   ; qtot -0.021404
12414         h1    441    ccc     H1  12414 0.11662300   1.008000   ; qtot 0.095219
12415         h1    441    ccc     H2  12415 0.11526800   1.008000   ; qtot 0.210487
12416         c3    441    ccc     C3  12416 0.15592700  12.010000   ; qtot 0.366414
12417         c3    441    ccc     C4  12417 0.28383300  12.010000   ; qtot 0.650247
12418         c3    441    ccc     C5  12418 0.32403300  12.010000   ; qtot 0.974280
12419         h1    441    ccc     H3  12419 0.13386900   1.008000   ; qtot 1.108149
12420         h1    441    ccc     H4  12420 0.10146700   1.008000   ; qtot 1.209616
12421         h2    441    ccc     H5  12421 0.10960400   1.008000   ; qtot 1.319220
12422         os    441    ccc     O1  12422 -0.28650000  16.000000   ; qtot 1.032720
12423         oh    441    ccc     O2  12423 -0.86012500  16.000000   ; qtot 0.172595
12424         oh    441    ccc     O3  12424 -0.83772800  16.000000   ; qtot -0.665133
12425         oh    441    ccc     O4  12425 -0.77449700  16.000000   ; qtot -1.439630
12426         c3    441    ccc     C6  12426 0.37576500  12.010000   ; qtot -1.063865
12427         ho    441    ccc     H6  12427 0.53656000   1.008000   ; qtot -0.527305
12428         ho    441    ccc     H7  12428 0.49492100   1.008000   ; qtot -0.032384
12429         ho    441    ccc     H8  12429 0.51297200   1.008000   ; qtot 0.480588
12430         h1    441    ccc     H9  12430 0.05653400   1.008000   ; qtot 0.537122
12431         h1    441    ccc    H10  12431 0.05653400   1.008000   ; qtot 0.593656
12432         oh    441    ccc     O5  12432 -0.84113600  16.000000   ; qtot -0.247480
12433         ho    441    ccc    H11  12433 0.51201600   1.008000   ; qtot 0.264536
12434         os    441    ccc     O6  12434 -0.26013600  16.000000   ; qtot 0.004400
; residue  442 ccc rtp ccc q 0.0
12435         c3    442    ccc     C1  12435 -0.33178800  12.010000   ; qtot -0.327388
12436         c3    442    ccc     C2  12436 0.30606500  12.010000   ; qtot -0.021323
12437         h1    442    ccc     H1  12437 0.11662300   1.008000   ; qtot 0.095300
12438         h1    442    ccc     H2  12438 0.11526800   1.008000   ; qtot 0.210568
12439         c3    442    ccc     C3  12439 0.15592700  12.010000   ; qtot 0.366495
12440         c3    442    ccc     C4  12440 0.28383300  12.010000   ; qtot 0.650328
12441         c3    442    ccc     C5  12441 0.32403300  12.010000   ; qtot 0.974361
12442         h1    442    ccc     H3  12442 0.13386900   1.008000   ; qtot 1.108230
12443         h1    442    ccc     H4  12443 0.10146700   1.008000   ; qtot 1.209697
12444         h2    442    ccc     H5  12444 0.10960400   1.008000   ; qtot 1.319301
12445         os    442    ccc     O1  12445 -0.28650000  16.000000   ; qtot 1.032801
12446         oh    442    ccc     O2  12446 -0.86012500  16.000000   ; qtot 0.172676
12447         oh    442    ccc     O3  12447 -0.83772800  16.000000   ; qtot -0.665052
12448         oh    442    ccc     O4  12448 -0.77449700  16.000000   ; qtot -1.439549
12449         c3    442    ccc     C6  12449 0.37576500  12.010000   ; qtot -1.063784
12450         ho    442    ccc     H6  12450 0.53656000   1.008000   ; qtot -0.527224
12451         ho    442    ccc     H7  12451 0.49492100   1.008000   ; qtot -0.032303
12452         ho    442    ccc     H8  12452 0.51297200   1.008000   ; qtot 0.480669
12453         h1    442    ccc     H9  12453 0.05653400   1.008000   ; qtot 0.537203
12454         h1    442    ccc    H10  12454 0.05653400   1.008000   ; qtot 0.593737
12455         oh    442    ccc     O5  12455 -0.84113600  16.000000   ; qtot -0.247399
12456         ho    442    ccc    H11  12456 0.51201600   1.008000   ; qtot 0.264617
12457         os    442    ccc     O6  12457 -0.26013600  16.000000   ; qtot 0.004481
; residue  443 ccc rtp ccc q 0.0
12458         c3    443    ccc     C1  12458 -0.33178800  12.010000   ; qtot -0.327307
12459         c3    443    ccc     C2  12459 0.30606500  12.010000   ; qtot -0.021242
12460         h1    443    ccc     H1  12460 0.11662300   1.008000   ; qtot 0.095381
12461         h1    443    ccc     H2  12461 0.11526800   1.008000   ; qtot 0.210649
12462         c3    443    ccc     C3  12462 0.15592700  12.010000   ; qtot 0.366576
12463         c3    443    ccc     C4  12463 0.28383300  12.010000   ; qtot 0.650409
12464         c3    443    ccc     C5  12464 0.32403300  12.010000   ; qtot 0.974442
12465         h1    443    ccc     H3  12465 0.13386900   1.008000   ; qtot 1.108311
12466         h1    443    ccc     H4  12466 0.10146700   1.008000   ; qtot 1.209778
12467         h2    443    ccc     H5  12467 0.10960400   1.008000   ; qtot 1.319382
12468         os    443    ccc     O1  12468 -0.28650000  16.000000   ; qtot 1.032882
12469         oh    443    ccc     O2  12469 -0.86012500  16.000000   ; qtot 0.172757
12470         oh    443    ccc     O3  12470 -0.83772800  16.000000   ; qtot -0.664971
12471         oh    443    ccc     O4  12471 -0.77449700  16.000000   ; qtot -1.439468
12472         c3    443    ccc     C6  12472 0.37576500  12.010000   ; qtot -1.063703
12473         ho    443    ccc     H6  12473 0.53656000   1.008000   ; qtot -0.527143
12474         ho    443    ccc     H7  12474 0.49492100   1.008000   ; qtot -0.032222
12475         ho    443    ccc     H8  12475 0.51297200   1.008000   ; qtot 0.480750
12476         h1    443    ccc     H9  12476 0.05653400   1.008000   ; qtot 0.537284
12477         h1    443    ccc    H10  12477 0.05653400   1.008000   ; qtot 0.593818
12478         oh    443    ccc     O5  12478 -0.84113600  16.000000   ; qtot -0.247318
12479         ho    443    ccc    H11  12479 0.51201600   1.008000   ; qtot 0.264698
12480         os    443    ccc     O6  12480 -0.26013600  16.000000   ; qtot 0.004562
; residue  444 ccc rtp ccc q 0.0
12481         c3    444    ccc     C1  12481 -0.33178800  12.010000   ; qtot -0.327226
12482         c3    444    ccc     C2  12482 0.30606500  12.010000   ; qtot -0.021161
12483         h1    444    ccc     H1  12483 0.11662300   1.008000   ; qtot 0.095462
12484         h1    444    ccc     H2  12484 0.11526800   1.008000   ; qtot 0.210730
12485         c3    444    ccc     C3  12485 0.15592700  12.010000   ; qtot 0.366657
12486         c3    444    ccc     C4  12486 0.28383300  12.010000   ; qtot 0.650490
12487         c3    444    ccc     C5  12487 0.32403300  12.010000   ; qtot 0.974523
12488         h1    444    ccc     H3  12488 0.13386900   1.008000   ; qtot 1.108392
12489         h1    444    ccc     H4  12489 0.10146700   1.008000   ; qtot 1.209859
12490         h2    444    ccc     H5  12490 0.10960400   1.008000   ; qtot 1.319463
12491         os    444    ccc     O1  12491 -0.28650000  16.000000   ; qtot 1.032963
12492         oh    444    ccc     O2  12492 -0.86012500  16.000000   ; qtot 0.172838
12493         oh    444    ccc     O3  12493 -0.83772800  16.000000   ; qtot -0.664890
12494         oh    444    ccc     O4  12494 -0.77449700  16.000000   ; qtot -1.439387
12495         c3    444    ccc     C6  12495 0.37576500  12.010000   ; qtot -1.063622
12496         ho    444    ccc     H6  12496 0.53656000   1.008000   ; qtot -0.527062
12497         ho    444    ccc     H7  12497 0.49492100   1.008000   ; qtot -0.032141
12498         ho    444    ccc     H8  12498 0.51297200   1.008000   ; qtot 0.480831
12499         h1    444    ccc     H9  12499 0.05653400   1.008000   ; qtot 0.537365
12500         h1    444    ccc    H10  12500 0.05653400   1.008000   ; qtot 0.593899
12501         oh    444    ccc     O5  12501 -0.84113600  16.000000   ; qtot -0.247237
12502         ho    444    ccc    H11  12502 0.51201600   1.008000   ; qtot 0.264779
12503         os    444    ccc     O6  12503 -0.26013600  16.000000   ; qtot 0.004643
; residue  445 ccc rtp ccc q 0.0
12504         c3    445    ccc     C1  12504 -0.33178800  12.010000   ; qtot -0.327145
12505         c3    445    ccc     C2  12505 0.30606500  12.010000   ; qtot -0.021080
12506         h1    445    ccc     H1  12506 0.11662300   1.008000   ; qtot 0.095543
12507         h1    445    ccc     H2  12507 0.11526800   1.008000   ; qtot 0.210811
12508         c3    445    ccc     C3  12508 0.15592700  12.010000   ; qtot 0.366738
12509         c3    445    ccc     C4  12509 0.28383300  12.010000   ; qtot 0.650571
12510         c3    445    ccc     C5  12510 0.32403300  12.010000   ; qtot 0.974604
12511         h1    445    ccc     H3  12511 0.13386900   1.008000   ; qtot 1.108473
12512         h1    445    ccc     H4  12512 0.10146700   1.008000   ; qtot 1.209940
12513         h2    445    ccc     H5  12513 0.10960400   1.008000   ; qtot 1.319544
12514         os    445    ccc     O1  12514 -0.28650000  16.000000   ; qtot 1.033044
12515         oh    445    ccc     O2  12515 -0.86012500  16.000000   ; qtot 0.172919
12516         oh    445    ccc     O3  12516 -0.83772800  16.000000   ; qtot -0.664809
12517         oh    445    ccc     O4  12517 -0.77449700  16.000000   ; qtot -1.439306
12518         c3    445    ccc     C6  12518 0.37576500  12.010000   ; qtot -1.063541
12519         ho    445    ccc     H6  12519 0.53656000   1.008000   ; qtot -0.526981
12520         ho    445    ccc     H7  12520 0.49492100   1.008000   ; qtot -0.032060
12521         ho    445    ccc     H8  12521 0.51297200   1.008000   ; qtot 0.480912
12522         h1    445    ccc     H9  12522 0.05653400   1.008000   ; qtot 0.537446
12523         h1    445    ccc    H10  12523 0.05653400   1.008000   ; qtot 0.593980
12524         oh    445    ccc     O5  12524 -0.84113600  16.000000   ; qtot -0.247156
12525         ho    445    ccc    H11  12525 0.51201600   1.008000   ; qtot 0.264860
12526         os    445    ccc     O6  12526 -0.26013600  16.000000   ; qtot 0.004724
; residue  446 ccc rtp ccc q 0.0
12527         c3    446    ccc     C1  12527 -0.33178800  12.010000   ; qtot -0.327064
12528         c3    446    ccc     C2  12528 0.30606500  12.010000   ; qtot -0.020999
12529         h1    446    ccc     H1  12529 0.11662300   1.008000   ; qtot 0.095624
12530         h1    446    ccc     H2  12530 0.11526800   1.008000   ; qtot 0.210892
12531         c3    446    ccc     C3  12531 0.15592700  12.010000   ; qtot 0.366819
12532         c3    446    ccc     C4  12532 0.28383300  12.010000   ; qtot 0.650652
12533         c3    446    ccc     C5  12533 0.32403300  12.010000   ; qtot 0.974685
12534         h1    446    ccc     H3  12534 0.13386900   1.008000   ; qtot 1.108554
12535         h1    446    ccc     H4  12535 0.10146700   1.008000   ; qtot 1.210021
12536         h2    446    ccc     H5  12536 0.10960400   1.008000   ; qtot 1.319625
12537         os    446    ccc     O1  12537 -0.28650000  16.000000   ; qtot 1.033125
12538         oh    446    ccc     O2  12538 -0.86012500  16.000000   ; qtot 0.173000
12539         oh    446    ccc     O3  12539 -0.83772800  16.000000   ; qtot -0.664728
12540         oh    446    ccc     O4  12540 -0.77449700  16.000000   ; qtot -1.439225
12541         c3    446    ccc     C6  12541 0.37576500  12.010000   ; qtot -1.063460
12542         ho    446    ccc     H6  12542 0.53656000   1.008000   ; qtot -0.526900
12543         ho    446    ccc     H7  12543 0.49492100   1.008000   ; qtot -0.031979
12544         ho    446    ccc     H8  12544 0.51297200   1.008000   ; qtot 0.480993
12545         h1    446    ccc     H9  12545 0.05653400   1.008000   ; qtot 0.537527
12546         h1    446    ccc    H10  12546 0.05653400   1.008000   ; qtot 0.594061
12547         oh    446    ccc     O5  12547 -0.84113600  16.000000   ; qtot -0.247075
12548         ho    446    ccc    H11  12548 0.51201600   1.008000   ; qtot 0.264941
12549         os    446    ccc     O6  12549 -0.26013600  16.000000   ; qtot 0.004805
; residue  447 ccc rtp ccc q 0.0
12550         c3    447    ccc     C1  12550 -0.33178800  12.010000   ; qtot -0.326983
12551         c3    447    ccc     C2  12551 0.30606500  12.010000   ; qtot -0.020918
12552         h1    447    ccc     H1  12552 0.11662300   1.008000   ; qtot 0.095705
12553         h1    447    ccc     H2  12553 0.11526800   1.008000   ; qtot 0.210973
12554         c3    447    ccc     C3  12554 0.15592700  12.010000   ; qtot 0.366900
12555         c3    447    ccc     C4  12555 0.28383300  12.010000   ; qtot 0.650733
12556         c3    447    ccc     C5  12556 0.32403300  12.010000   ; qtot 0.974766
12557         h1    447    ccc     H3  12557 0.13386900   1.008000   ; qtot 1.108635
12558         h1    447    ccc     H4  12558 0.10146700   1.008000   ; qtot 1.210102
12559         h2    447    ccc     H5  12559 0.10960400   1.008000   ; qtot 1.319706
12560         os    447    ccc     O1  12560 -0.28650000  16.000000   ; qtot 1.033206
12561         oh    447    ccc     O2  12561 -0.86012500  16.000000   ; qtot 0.173081
12562         oh    447    ccc     O3  12562 -0.83772800  16.000000   ; qtot -0.664647
12563         oh    447    ccc     O4  12563 -0.77449700  16.000000   ; qtot -1.439144
12564         c3    447    ccc     C6  12564 0.37576500  12.010000   ; qtot -1.063379
12565         ho    447    ccc     H6  12565 0.53656000   1.008000   ; qtot -0.526819
12566         ho    447    ccc     H7  12566 0.49492100   1.008000   ; qtot -0.031898
12567         ho    447    ccc     H8  12567 0.51297200   1.008000   ; qtot 0.481074
12568         h1    447    ccc     H9  12568 0.05653400   1.008000   ; qtot 0.537608
12569         h1    447    ccc    H10  12569 0.05653400   1.008000   ; qtot 0.594142
12570         oh    447    ccc     O5  12570 -0.84113600  16.000000   ; qtot -0.246994
12571         ho    447    ccc    H11  12571 0.51201600   1.008000   ; qtot 0.265022
12572         os    447    ccc     O6  12572 -0.26013600  16.000000   ; qtot 0.004886
; residue  448 ccc rtp ccc q 0.0
12573         c3    448    ccc     C1  12573 -0.33178800  12.010000   ; qtot -0.326902
12574         c3    448    ccc     C2  12574 0.30606500  12.010000   ; qtot -0.020837
12575         h1    448    ccc     H1  12575 0.11662300   1.008000   ; qtot 0.095786
12576         h1    448    ccc     H2  12576 0.11526800   1.008000   ; qtot 0.211054
12577         c3    448    ccc     C3  12577 0.15592700  12.010000   ; qtot 0.366981
12578         c3    448    ccc     C4  12578 0.28383300  12.010000   ; qtot 0.650814
12579         c3    448    ccc     C5  12579 0.32403300  12.010000   ; qtot 0.974847
12580         h1    448    ccc     H3  12580 0.13386900   1.008000   ; qtot 1.108716
12581         h1    448    ccc     H4  12581 0.10146700   1.008000   ; qtot 1.210183
12582         h2    448    ccc     H5  12582 0.10960400   1.008000   ; qtot 1.319787
12583         os    448    ccc     O1  12583 -0.28650000  16.000000   ; qtot 1.033287
12584         oh    448    ccc     O2  12584 -0.86012500  16.000000   ; qtot 0.173162
12585         oh    448    ccc     O3  12585 -0.83772800  16.000000   ; qtot -0.664566
12586         oh    448    ccc     O4  12586 -0.77449700  16.000000   ; qtot -1.439063
12587         c3    448    ccc     C6  12587 0.37576500  12.010000   ; qtot -1.063298
12588         ho    448    ccc     H6  12588 0.53656000   1.008000   ; qtot -0.526738
12589         ho    448    ccc     H7  12589 0.49492100   1.008000   ; qtot -0.031817
12590         ho    448    ccc     H8  12590 0.51297200   1.008000   ; qtot 0.481155
12591         h1    448    ccc     H9  12591 0.05653400   1.008000   ; qtot 0.537689
12592         h1    448    ccc    H10  12592 0.05653400   1.008000   ; qtot 0.594223
12593         oh    448    ccc     O5  12593 -0.84113600  16.000000   ; qtot -0.246913
12594         ho    448    ccc    H11  12594 0.51201600   1.008000   ; qtot 0.265103
12595         os    448    ccc     O6  12595 -0.26013600  16.000000   ; qtot 0.004967
; residue  449 ccc rtp ccc q 0.0
12596         c3    449    ccc     C1  12596 -0.33178800  12.010000   ; qtot -0.326821
12597         c3    449    ccc     C2  12597 0.30606500  12.010000   ; qtot -0.020756
12598         h1    449    ccc     H1  12598 0.11662300   1.008000   ; qtot 0.095867
12599         h1    449    ccc     H2  12599 0.11526800   1.008000   ; qtot 0.211135
12600         c3    449    ccc     C3  12600 0.15592700  12.010000   ; qtot 0.367062
12601         c3    449    ccc     C4  12601 0.28383300  12.010000   ; qtot 0.650895
12602         c3    449    ccc     C5  12602 0.32403300  12.010000   ; qtot 0.974928
12603         h1    449    ccc     H3  12603 0.13386900   1.008000   ; qtot 1.108797
12604         h1    449    ccc     H4  12604 0.10146700   1.008000   ; qtot 1.210264
12605         h2    449    ccc     H5  12605 0.10960400   1.008000   ; qtot 1.319868
12606         os    449    ccc     O1  12606 -0.28650000  16.000000   ; qtot 1.033368
12607         oh    449    ccc     O2  12607 -0.86012500  16.000000   ; qtot 0.173243
12608         oh    449    ccc     O3  12608 -0.83772800  16.000000   ; qtot -0.664485
12609         oh    449    ccc     O4  12609 -0.77449700  16.000000   ; qtot -1.438982
12610         c3    449    ccc     C6  12610 0.37576500  12.010000   ; qtot -1.063217
12611         ho    449    ccc     H6  12611 0.53656000   1.008000   ; qtot -0.526657
12612         ho    449    ccc     H7  12612 0.49492100   1.008000   ; qtot -0.031736
12613         ho    449    ccc     H8  12613 0.51297200   1.008000   ; qtot 0.481236
12614         h1    449    ccc     H9  12614 0.05653400   1.008000   ; qtot 0.537770
12615         h1    449    ccc    H10  12615 0.05653400   1.008000   ; qtot 0.594304
12616         oh    449    ccc     O5  12616 -0.84113600  16.000000   ; qtot -0.246832
12617         ho    449    ccc    H11  12617 0.51201600   1.008000   ; qtot 0.265184
12618         os    449    ccc     O6  12618 -0.26013600  16.000000   ; qtot 0.005048
; residue  450 ccc rtp ccc q 0.0
12619         c3    450    ccc     C1  12619 -0.33178800  12.010000   ; qtot -0.326740
12620         c3    450    ccc     C2  12620 0.30606500  12.010000   ; qtot -0.020675
12621         h1    450    ccc     H1  12621 0.11662300   1.008000   ; qtot 0.095948
12622         h1    450    ccc     H2  12622 0.11526800   1.008000   ; qtot 0.211216
12623         c3    450    ccc     C3  12623 0.15592700  12.010000   ; qtot 0.367143
12624         c3    450    ccc     C4  12624 0.28383300  12.010000   ; qtot 0.650976
12625         c3    450    ccc     C5  12625 0.32403300  12.010000   ; qtot 0.975009
12626         h1    450    ccc     H3  12626 0.13386900   1.008000   ; qtot 1.108878
12627         h1    450    ccc     H4  12627 0.10146700   1.008000   ; qtot 1.210345
12628         h2    450    ccc     H5  12628 0.10960400   1.008000   ; qtot 1.319949
12629         os    450    ccc     O1  12629 -0.28650000  16.000000   ; qtot 1.033449
12630         oh    450    ccc     O2  12630 -0.86012500  16.000000   ; qtot 0.173324
12631         oh    450    ccc     O3  12631 -0.83772800  16.000000   ; qtot -0.664404
12632         oh    450    ccc     O4  12632 -0.77449700  16.000000   ; qtot -1.438901
12633         c3    450    ccc     C6  12633 0.37576500  12.010000   ; qtot -1.063136
12634         ho    450    ccc     H6  12634 0.53656000   1.008000   ; qtot -0.526576
12635         ho    450    ccc     H7  12635 0.49492100   1.008000   ; qtot -0.031655
12636         ho    450    ccc     H8  12636 0.51297200   1.008000   ; qtot 0.481317
12637         h1    450    ccc     H9  12637 0.05653400   1.008000   ; qtot 0.537851
12638         h1    450    ccc    H10  12638 0.05653400   1.008000   ; qtot 0.594385
12639         oh    450    ccc     O5  12639 -0.84113600  16.000000   ; qtot -0.246751
12640         ho    450    ccc    H11  12640 0.51201600   1.008000   ; qtot 0.265265
12641         os    450    ccc     O6  12641 -0.26013600  16.000000   ; qtot 0.005129
; residue  451 ccc rtp ccc q 0.0
12642         c3    451    ccc     C1  12642 -0.33178800  12.010000   ; qtot -0.326659
12643         c3    451    ccc     C2  12643 0.30606500  12.010000   ; qtot -0.020594
12644         h1    451    ccc     H1  12644 0.11662300   1.008000   ; qtot 0.096029
12645         h1    451    ccc     H2  12645 0.11526800   1.008000   ; qtot 0.211297
12646         c3    451    ccc     C3  12646 0.15592700  12.010000   ; qtot 0.367224
12647         c3    451    ccc     C4  12647 0.28383300  12.010000   ; qtot 0.651057
12648         c3    451    ccc     C5  12648 0.32403300  12.010000   ; qtot 0.975090
12649         h1    451    ccc     H3  12649 0.13386900   1.008000   ; qtot 1.108959
12650         h1    451    ccc     H4  12650 0.10146700   1.008000   ; qtot 1.210426
12651         h2    451    ccc     H5  12651 0.10960400   1.008000   ; qtot 1.320030
12652         os    451    ccc     O1  12652 -0.28650000  16.000000   ; qtot 1.033530
12653         oh    451    ccc     O2  12653 -0.86012500  16.000000   ; qtot 0.173405
12654         oh    451    ccc     O3  12654 -0.83772800  16.000000   ; qtot -0.664323
12655         oh    451    ccc     O4  12655 -0.77449700  16.000000   ; qtot -1.438820
12656         c3    451    ccc     C6  12656 0.37576500  12.010000   ; qtot -1.063055
12657         ho    451    ccc     H6  12657 0.53656000   1.008000   ; qtot -0.526495
12658         ho    451    ccc     H7  12658 0.49492100   1.008000   ; qtot -0.031574
12659         ho    451    ccc     H8  12659 0.51297200   1.008000   ; qtot 0.481398
12660         h1    451    ccc     H9  12660 0.05653400   1.008000   ; qtot 0.537932
12661         h1    451    ccc    H10  12661 0.05653400   1.008000   ; qtot 0.594466
12662         oh    451    ccc     O5  12662 -0.84113600  16.000000   ; qtot -0.246670
12663         ho    451    ccc    H11  12663 0.51201600   1.008000   ; qtot 0.265346
12664         os    451    ccc     O6  12664 -0.26013600  16.000000   ; qtot 0.005210
; residue  452 ccc rtp ccc q 0.0
12665         c3    452    ccc     C1  12665 -0.33178800  12.010000   ; qtot -0.326578
12666         c3    452    ccc     C2  12666 0.30606500  12.010000   ; qtot -0.020513
12667         h1    452    ccc     H1  12667 0.11662300   1.008000   ; qtot 0.096110
12668         h1    452    ccc     H2  12668 0.11526800   1.008000   ; qtot 0.211378
12669         c3    452    ccc     C3  12669 0.15592700  12.010000   ; qtot 0.367305
12670         c3    452    ccc     C4  12670 0.28383300  12.010000   ; qtot 0.651138
12671         c3    452    ccc     C5  12671 0.32403300  12.010000   ; qtot 0.975171
12672         h1    452    ccc     H3  12672 0.13386900   1.008000   ; qtot 1.109040
12673         h1    452    ccc     H4  12673 0.10146700   1.008000   ; qtot 1.210507
12674         h2    452    ccc     H5  12674 0.10960400   1.008000   ; qtot 1.320111
12675         os    452    ccc     O1  12675 -0.28650000  16.000000   ; qtot 1.033611
12676         oh    452    ccc     O2  12676 -0.86012500  16.000000   ; qtot 0.173486
12677         oh    452    ccc     O3  12677 -0.83772800  16.000000   ; qtot -0.664242
12678         oh    452    ccc     O4  12678 -0.77449700  16.000000   ; qtot -1.438739
12679         c3    452    ccc     C6  12679 0.37576500  12.010000   ; qtot -1.062974
12680         ho    452    ccc     H6  12680 0.53656000   1.008000   ; qtot -0.526414
12681         ho    452    ccc     H7  12681 0.49492100   1.008000   ; qtot -0.031493
12682         ho    452    ccc     H8  12682 0.51297200   1.008000   ; qtot 0.481479
12683         h1    452    ccc     H9  12683 0.05653400   1.008000   ; qtot 0.538013
12684         h1    452    ccc    H10  12684 0.05653400   1.008000   ; qtot 0.594547
12685         oh    452    ccc     O5  12685 -0.84113600  16.000000   ; qtot -0.246589
12686         ho    452    ccc    H11  12686 0.51201600   1.008000   ; qtot 0.265427
12687         os    452    ccc     O6  12687 -0.26013600  16.000000   ; qtot 0.005291
; residue  453 ccc rtp ccc q 0.0
12688         c3    453    ccc     C1  12688 -0.33178800  12.010000   ; qtot -0.326497
12689         c3    453    ccc     C2  12689 0.30606500  12.010000   ; qtot -0.020432
12690         h1    453    ccc     H1  12690 0.11662300   1.008000   ; qtot 0.096191
12691         h1    453    ccc     H2  12691 0.11526800   1.008000   ; qtot 0.211459
12692         c3    453    ccc     C3  12692 0.15592700  12.010000   ; qtot 0.367386
12693         c3    453    ccc     C4  12693 0.28383300  12.010000   ; qtot 0.651219
12694         c3    453    ccc     C5  12694 0.32403300  12.010000   ; qtot 0.975252
12695         h1    453    ccc     H3  12695 0.13386900   1.008000   ; qtot 1.109121
12696         h1    453    ccc     H4  12696 0.10146700   1.008000   ; qtot 1.210588
12697         h2    453    ccc     H5  12697 0.10960400   1.008000   ; qtot 1.320192
12698         os    453    ccc     O1  12698 -0.28650000  16.000000   ; qtot 1.033692
12699         oh    453    ccc     O2  12699 -0.86012500  16.000000   ; qtot 0.173567
12700         oh    453    ccc     O3  12700 -0.83772800  16.000000   ; qtot -0.664161
12701         oh    453    ccc     O4  12701 -0.77449700  16.000000   ; qtot -1.438658
12702         c3    453    ccc     C6  12702 0.37576500  12.010000   ; qtot -1.062893
12703         ho    453    ccc     H6  12703 0.53656000   1.008000   ; qtot -0.526333
12704         ho    453    ccc     H7  12704 0.49492100   1.008000   ; qtot -0.031412
12705         ho    453    ccc     H8  12705 0.51297200   1.008000   ; qtot 0.481560
12706         h1    453    ccc     H9  12706 0.05653400   1.008000   ; qtot 0.538094
12707         h1    453    ccc    H10  12707 0.05653400   1.008000   ; qtot 0.594628
12708         oh    453    ccc     O5  12708 -0.84113600  16.000000   ; qtot -0.246508
12709         ho    453    ccc    H11  12709 0.51201600   1.008000   ; qtot 0.265508
12710         os    453    ccc     O6  12710 -0.26013600  16.000000   ; qtot 0.005372
; residue  454 ccc rtp ccc q 0.0
12711         c3    454    ccc     C1  12711 -0.33178800  12.010000   ; qtot -0.326416
12712         c3    454    ccc     C2  12712 0.30606500  12.010000   ; qtot -0.020351
12713         h1    454    ccc     H1  12713 0.11662300   1.008000   ; qtot 0.096272
12714         h1    454    ccc     H2  12714 0.11526800   1.008000   ; qtot 0.211540
12715         c3    454    ccc     C3  12715 0.15592700  12.010000   ; qtot 0.367467
12716         c3    454    ccc     C4  12716 0.28383300  12.010000   ; qtot 0.651300
12717         c3    454    ccc     C5  12717 0.32403300  12.010000   ; qtot 0.975333
12718         h1    454    ccc     H3  12718 0.13386900   1.008000   ; qtot 1.109202
12719         h1    454    ccc     H4  12719 0.10146700   1.008000   ; qtot 1.210669
12720         h2    454    ccc     H5  12720 0.10960400   1.008000   ; qtot 1.320273
12721         os    454    ccc     O1  12721 -0.28650000  16.000000   ; qtot 1.033773
12722         oh    454    ccc     O2  12722 -0.86012500  16.000000   ; qtot 0.173648
12723         oh    454    ccc     O3  12723 -0.83772800  16.000000   ; qtot -0.664080
12724         oh    454    ccc     O4  12724 -0.77449700  16.000000   ; qtot -1.438577
12725         c3    454    ccc     C6  12725 0.37576500  12.010000   ; qtot -1.062812
12726         ho    454    ccc     H6  12726 0.53656000   1.008000   ; qtot -0.526252
12727         ho    454    ccc     H7  12727 0.49492100   1.008000   ; qtot -0.031331
12728         ho    454    ccc     H8  12728 0.51297200   1.008000   ; qtot 0.481641
12729         h1    454    ccc     H9  12729 0.05653400   1.008000   ; qtot 0.538175
12730         h1    454    ccc    H10  12730 0.05653400   1.008000   ; qtot 0.594709
12731         oh    454    ccc     O5  12731 -0.84113600  16.000000   ; qtot -0.246427
12732         ho    454    ccc    H11  12732 0.51201600   1.008000   ; qtot 0.265589
12733         os    454    ccc     O6  12733 -0.26013600  16.000000   ; qtot 0.005453
; residue  455 ccc rtp ccc q 0.0
12734         c3    455    ccc     C1  12734 -0.33178800  12.010000   ; qtot -0.326335
12735         c3    455    ccc     C2  12735 0.30606500  12.010000   ; qtot -0.020270
12736         h1    455    ccc     H1  12736 0.11662300   1.008000   ; qtot 0.096353
12737         h1    455    ccc     H2  12737 0.11526800   1.008000   ; qtot 0.211621
12738         c3    455    ccc     C3  12738 0.15592700  12.010000   ; qtot 0.367548
12739         c3    455    ccc     C4  12739 0.28383300  12.010000   ; qtot 0.651381
12740         c3    455    ccc     C5  12740 0.32403300  12.010000   ; qtot 0.975414
12741         h1    455    ccc     H3  12741 0.13386900   1.008000   ; qtot 1.109283
12742         h1    455    ccc     H4  12742 0.10146700   1.008000   ; qtot 1.210750
12743         h2    455    ccc     H5  12743 0.10960400   1.008000   ; qtot 1.320354
12744         os    455    ccc     O1  12744 -0.28650000  16.000000   ; qtot 1.033854
12745         oh    455    ccc     O2  12745 -0.86012500  16.000000   ; qtot 0.173729
12746         oh    455    ccc     O3  12746 -0.83772800  16.000000   ; qtot -0.663999
12747         oh    455    ccc     O4  12747 -0.77449700  16.000000   ; qtot -1.438496
12748         c3    455    ccc     C6  12748 0.37576500  12.010000   ; qtot -1.062731
12749         ho    455    ccc     H6  12749 0.53656000   1.008000   ; qtot -0.526171
12750         ho    455    ccc     H7  12750 0.49492100   1.008000   ; qtot -0.031250
12751         ho    455    ccc     H8  12751 0.51297200   1.008000   ; qtot 0.481722
12752         h1    455    ccc     H9  12752 0.05653400   1.008000   ; qtot 0.538256
12753         h1    455    ccc    H10  12753 0.05653400   1.008000   ; qtot 0.594790
12754         oh    455    ccc     O5  12754 -0.84113600  16.000000   ; qtot -0.246346
12755         ho    455    ccc    H11  12755 0.51201600   1.008000   ; qtot 0.265670
12756         os    455    ccc     O6  12756 -0.26013600  16.000000   ; qtot 0.005534
; residue  456 ccc rtp ccc q 0.0
12757         c3    456    ccc     C1  12757 -0.33178800  12.010000   ; qtot -0.326254
12758         c3    456    ccc     C2  12758 0.30606500  12.010000   ; qtot -0.020189
12759         h1    456    ccc     H1  12759 0.11662300   1.008000   ; qtot 0.096434
12760         h1    456    ccc     H2  12760 0.11526800   1.008000   ; qtot 0.211702
12761         c3    456    ccc     C3  12761 0.15592700  12.010000   ; qtot 0.367629
12762         c3    456    ccc     C4  12762 0.28383300  12.010000   ; qtot 0.651462
12763         c3    456    ccc     C5  12763 0.32403300  12.010000   ; qtot 0.975495
12764         h1    456    ccc     H3  12764 0.13386900   1.008000   ; qtot 1.109364
12765         h1    456    ccc     H4  12765 0.10146700   1.008000   ; qtot 1.210831
12766         h2    456    ccc     H5  12766 0.10960400   1.008000   ; qtot 1.320435
12767         os    456    ccc     O1  12767 -0.28650000  16.000000   ; qtot 1.033935
12768         oh    456    ccc     O2  12768 -0.86012500  16.000000   ; qtot 0.173810
12769         oh    456    ccc     O3  12769 -0.83772800  16.000000   ; qtot -0.663918
12770         oh    456    ccc     O4  12770 -0.77449700  16.000000   ; qtot -1.438415
12771         c3    456    ccc     C6  12771 0.37576500  12.010000   ; qtot -1.062650
12772         ho    456    ccc     H6  12772 0.53656000   1.008000   ; qtot -0.526090
12773         ho    456    ccc     H7  12773 0.49492100   1.008000   ; qtot -0.031169
12774         ho    456    ccc     H8  12774 0.51297200   1.008000   ; qtot 0.481803
12775         h1    456    ccc     H9  12775 0.05653400   1.008000   ; qtot 0.538337
12776         h1    456    ccc    H10  12776 0.05653400   1.008000   ; qtot 0.594871
12777         oh    456    ccc     O5  12777 -0.84113600  16.000000   ; qtot -0.246265
12778         ho    456    ccc    H11  12778 0.51201600   1.008000   ; qtot 0.265751
12779         os    456    ccc     O6  12779 -0.26013600  16.000000   ; qtot 0.005615
; residue  457 ccc rtp ccc q 0.0
12780         c3    457    ccc     C1  12780 -0.33178800  12.010000   ; qtot -0.326173
12781         c3    457    ccc     C2  12781 0.30606500  12.010000   ; qtot -0.020108
12782         h1    457    ccc     H1  12782 0.11662300   1.008000   ; qtot 0.096515
12783         h1    457    ccc     H2  12783 0.11526800   1.008000   ; qtot 0.211783
12784         c3    457    ccc     C3  12784 0.15592700  12.010000   ; qtot 0.367710
12785         c3    457    ccc     C4  12785 0.28383300  12.010000   ; qtot 0.651543
12786         c3    457    ccc     C5  12786 0.32403300  12.010000   ; qtot 0.975576
12787         h1    457    ccc     H3  12787 0.13386900   1.008000   ; qtot 1.109445
12788         h1    457    ccc     H4  12788 0.10146700   1.008000   ; qtot 1.210912
12789         h2    457    ccc     H5  12789 0.10960400   1.008000   ; qtot 1.320516
12790         os    457    ccc     O1  12790 -0.28650000  16.000000   ; qtot 1.034016
12791         oh    457    ccc     O2  12791 -0.86012500  16.000000   ; qtot 0.173891
12792         oh    457    ccc     O3  12792 -0.83772800  16.000000   ; qtot -0.663837
12793         oh    457    ccc     O4  12793 -0.77449700  16.000000   ; qtot -1.438334
12794         c3    457    ccc     C6  12794 0.37576500  12.010000   ; qtot -1.062569
12795         ho    457    ccc     H6  12795 0.53656000   1.008000   ; qtot -0.526009
12796         ho    457    ccc     H7  12796 0.49492100   1.008000   ; qtot -0.031088
12797         ho    457    ccc     H8  12797 0.51297200   1.008000   ; qtot 0.481884
12798         h1    457    ccc     H9  12798 0.05653400   1.008000   ; qtot 0.538418
12799         h1    457    ccc    H10  12799 0.05653400   1.008000   ; qtot 0.594952
12800         oh    457    ccc     O5  12800 -0.84113600  16.000000   ; qtot -0.246184
12801         ho    457    ccc    H11  12801 0.51201600   1.008000   ; qtot 0.265832
12802         os    457    ccc     O6  12802 -0.26013600  16.000000   ; qtot 0.005696
; residue  458 ccc rtp ccc q 0.0
12803         c3    458    ccc     C1  12803 -0.33178800  12.010000   ; qtot -0.326092
12804         c3    458    ccc     C2  12804 0.30606500  12.010000   ; qtot -0.020027
12805         h1    458    ccc     H1  12805 0.11662300   1.008000   ; qtot 0.096596
12806         h1    458    ccc     H2  12806 0.11526800   1.008000   ; qtot 0.211864
12807         c3    458    ccc     C3  12807 0.15592700  12.010000   ; qtot 0.367791
12808         c3    458    ccc     C4  12808 0.28383300  12.010000   ; qtot 0.651624
12809         c3    458    ccc     C5  12809 0.32403300  12.010000   ; qtot 0.975657
12810         h1    458    ccc     H3  12810 0.13386900   1.008000   ; qtot 1.109526
12811         h1    458    ccc     H4  12811 0.10146700   1.008000   ; qtot 1.210993
12812         h2    458    ccc     H5  12812 0.10960400   1.008000   ; qtot 1.320597
12813         os    458    ccc     O1  12813 -0.28650000  16.000000   ; qtot 1.034097
12814         oh    458    ccc     O2  12814 -0.86012500  16.000000   ; qtot 0.173972
12815         oh    458    ccc     O3  12815 -0.83772800  16.000000   ; qtot -0.663756
12816         oh    458    ccc     O4  12816 -0.77449700  16.000000   ; qtot -1.438253
12817         c3    458    ccc     C6  12817 0.37576500  12.010000   ; qtot -1.062488
12818         ho    458    ccc     H6  12818 0.53656000   1.008000   ; qtot -0.525928
12819         ho    458    ccc     H7  12819 0.49492100   1.008000   ; qtot -0.031007
12820         ho    458    ccc     H8  12820 0.51297200   1.008000   ; qtot 0.481965
12821         h1    458    ccc     H9  12821 0.05653400   1.008000   ; qtot 0.538499
12822         h1    458    ccc    H10  12822 0.05653400   1.008000   ; qtot 0.595033
12823         oh    458    ccc     O5  12823 -0.84113600  16.000000   ; qtot -0.246103
12824         ho    458    ccc    H11  12824 0.51201600   1.008000   ; qtot 0.265913
12825         os    458    ccc     O6  12825 -0.26013600  16.000000   ; qtot 0.005777
; residue  459 ccc rtp ccc q 0.0
12826         c3    459    ccc     C1  12826 -0.33178800  12.010000   ; qtot -0.326011
12827         c3    459    ccc     C2  12827 0.30606500  12.010000   ; qtot -0.019946
12828         h1    459    ccc     H1  12828 0.11662300   1.008000   ; qtot 0.096677
12829         h1    459    ccc     H2  12829 0.11526800   1.008000   ; qtot 0.211945
12830         c3    459    ccc     C3  12830 0.15592700  12.010000   ; qtot 0.367872
12831         c3    459    ccc     C4  12831 0.28383300  12.010000   ; qtot 0.651705
12832         c3    459    ccc     C5  12832 0.32403300  12.010000   ; qtot 0.975738
12833         h1    459    ccc     H3  12833 0.13386900   1.008000   ; qtot 1.109607
12834         h1    459    ccc     H4  12834 0.10146700   1.008000   ; qtot 1.211074
12835         h2    459    ccc     H5  12835 0.10960400   1.008000   ; qtot 1.320678
12836         os    459    ccc     O1  12836 -0.28650000  16.000000   ; qtot 1.034178
12837         oh    459    ccc     O2  12837 -0.86012500  16.000000   ; qtot 0.174053
12838         oh    459    ccc     O3  12838 -0.83772800  16.000000   ; qtot -0.663675
12839         oh    459    ccc     O4  12839 -0.77449700  16.000000   ; qtot -1.438172
12840         c3    459    ccc     C6  12840 0.37576500  12.010000   ; qtot -1.062407
12841         ho    459    ccc     H6  12841 0.53656000   1.008000   ; qtot -0.525847
12842         ho    459    ccc     H7  12842 0.49492100   1.008000   ; qtot -0.030926
12843         ho    459    ccc     H8  12843 0.51297200   1.008000   ; qtot 0.482046
12844         h1    459    ccc     H9  12844 0.05653400   1.008000   ; qtot 0.538580
12845         h1    459    ccc    H10  12845 0.05653400   1.008000   ; qtot 0.595114
12846         oh    459    ccc     O5  12846 -0.84113600  16.000000   ; qtot -0.246022
12847         ho    459    ccc    H11  12847 0.51201600   1.008000   ; qtot 0.265994
12848         os    459    ccc     O6  12848 -0.26013600  16.000000   ; qtot 0.005858
; residue  460 ccc rtp ccc q 0.0
12849         c3    460    ccc     C1  12849 -0.33178800  12.010000   ; qtot -0.325930
12850         c3    460    ccc     C2  12850 0.30606500  12.010000   ; qtot -0.019865
12851         h1    460    ccc     H1  12851 0.11662300   1.008000   ; qtot 0.096758
12852         h1    460    ccc     H2  12852 0.11526800   1.008000   ; qtot 0.212026
12853         c3    460    ccc     C3  12853 0.15592700  12.010000   ; qtot 0.367953
12854         c3    460    ccc     C4  12854 0.28383300  12.010000   ; qtot 0.651786
12855         c3    460    ccc     C5  12855 0.32403300  12.010000   ; qtot 0.975819
12856         h1    460    ccc     H3  12856 0.13386900   1.008000   ; qtot 1.109688
12857         h1    460    ccc     H4  12857 0.10146700   1.008000   ; qtot 1.211155
12858         h2    460    ccc     H5  12858 0.10960400   1.008000   ; qtot 1.320759
12859         os    460    ccc     O1  12859 -0.28650000  16.000000   ; qtot 1.034259
12860         oh    460    ccc     O2  12860 -0.86012500  16.000000   ; qtot 0.174134
12861         oh    460    ccc     O3  12861 -0.83772800  16.000000   ; qtot -0.663594
12862         oh    460    ccc     O4  12862 -0.77449700  16.000000   ; qtot -1.438091
12863         c3    460    ccc     C6  12863 0.37576500  12.010000   ; qtot -1.062326
12864         ho    460    ccc     H6  12864 0.53656000   1.008000   ; qtot -0.525766
12865         ho    460    ccc     H7  12865 0.49492100   1.008000   ; qtot -0.030845
12866         ho    460    ccc     H8  12866 0.51297200   1.008000   ; qtot 0.482127
12867         h1    460    ccc     H9  12867 0.05653400   1.008000   ; qtot 0.538661
12868         h1    460    ccc    H10  12868 0.05653400   1.008000   ; qtot 0.595195
12869         oh    460    ccc     O5  12869 -0.84113600  16.000000   ; qtot -0.245941
12870         ho    460    ccc    H11  12870 0.51201600   1.008000   ; qtot 0.266075
12871         os    460    ccc     O6  12871 -0.26013600  16.000000   ; qtot 0.005939
; residue  461 ccc rtp ccc q 0.0
12872         c3    461    ccc     C1  12872 -0.33178800  12.010000   ; qtot -0.325849
12873         c3    461    ccc     C2  12873 0.30606500  12.010000   ; qtot -0.019784
12874         h1    461    ccc     H1  12874 0.11662300   1.008000   ; qtot 0.096839
12875         h1    461    ccc     H2  12875 0.11526800   1.008000   ; qtot 0.212107
12876         c3    461    ccc     C3  12876 0.15592700  12.010000   ; qtot 0.368034
12877         c3    461    ccc     C4  12877 0.28383300  12.010000   ; qtot 0.651867
12878         c3    461    ccc     C5  12878 0.32403300  12.010000   ; qtot 0.975900
12879         h1    461    ccc     H3  12879 0.13386900   1.008000   ; qtot 1.109769
12880         h1    461    ccc     H4  12880 0.10146700   1.008000   ; qtot 1.211236
12881         h2    461    ccc     H5  12881 0.10960400   1.008000   ; qtot 1.320840
12882         os    461    ccc     O1  12882 -0.28650000  16.000000   ; qtot 1.034340
12883         oh    461    ccc     O2  12883 -0.86012500  16.000000   ; qtot 0.174215
12884         oh    461    ccc     O3  12884 -0.83772800  16.000000   ; qtot -0.663513
12885         oh    461    ccc     O4  12885 -0.77449700  16.000000   ; qtot -1.438010
12886         c3    461    ccc     C6  12886 0.37576500  12.010000   ; qtot -1.062245
12887         ho    461    ccc     H6  12887 0.53656000   1.008000   ; qtot -0.525685
12888         ho    461    ccc     H7  12888 0.49492100   1.008000   ; qtot -0.030764
12889         ho    461    ccc     H8  12889 0.51297200   1.008000   ; qtot 0.482208
12890         h1    461    ccc     H9  12890 0.05653400   1.008000   ; qtot 0.538742
12891         h1    461    ccc    H10  12891 0.05653400   1.008000   ; qtot 0.595276
12892         oh    461    ccc     O5  12892 -0.84113600  16.000000   ; qtot -0.245860
12893         ho    461    ccc    H11  12893 0.51201600   1.008000   ; qtot 0.266156
12894         os    461    ccc     O6  12894 -0.26013600  16.000000   ; qtot 0.006020
; residue  462 ccc rtp ccc q 0.0
12895         c3    462    ccc     C1  12895 -0.33178800  12.010000   ; qtot -0.325768
12896         c3    462    ccc     C2  12896 0.30606500  12.010000   ; qtot -0.019703
12897         h1    462    ccc     H1  12897 0.11662300   1.008000   ; qtot 0.096920
12898         h1    462    ccc     H2  12898 0.11526800   1.008000   ; qtot 0.212188
12899         c3    462    ccc     C3  12899 0.15592700  12.010000   ; qtot 0.368115
12900         c3    462    ccc     C4  12900 0.28383300  12.010000   ; qtot 0.651948
12901         c3    462    ccc     C5  12901 0.32403300  12.010000   ; qtot 0.975981
12902         h1    462    ccc     H3  12902 0.13386900   1.008000   ; qtot 1.109850
12903         h1    462    ccc     H4  12903 0.10146700   1.008000   ; qtot 1.211317
12904         h2    462    ccc     H5  12904 0.10960400   1.008000   ; qtot 1.320921
12905         os    462    ccc     O1  12905 -0.28650000  16.000000   ; qtot 1.034421
12906         oh    462    ccc     O2  12906 -0.86012500  16.000000   ; qtot 0.174296
12907         oh    462    ccc     O3  12907 -0.83772800  16.000000   ; qtot -0.663432
12908         oh    462    ccc     O4  12908 -0.77449700  16.000000   ; qtot -1.437929
12909         c3    462    ccc     C6  12909 0.37576500  12.010000   ; qtot -1.062164
12910         ho    462    ccc     H6  12910 0.53656000   1.008000   ; qtot -0.525604
12911         ho    462    ccc     H7  12911 0.49492100   1.008000   ; qtot -0.030683
12912         ho    462    ccc     H8  12912 0.51297200   1.008000   ; qtot 0.482289
12913         h1    462    ccc     H9  12913 0.05653400   1.008000   ; qtot 0.538823
12914         h1    462    ccc    H10  12914 0.05653400   1.008000   ; qtot 0.595357
12915         oh    462    ccc     O5  12915 -0.84113600  16.000000   ; qtot -0.245779
12916         ho    462    ccc    H11  12916 0.51201600   1.008000   ; qtot 0.266237
12917         os    462    ccc     O6  12917 -0.26013600  16.000000   ; qtot 0.006101
; residue  463 ccc rtp ccc q 0.0
12918         c3    463    ccc     C1  12918 -0.33178800  12.010000   ; qtot -0.325687
12919         c3    463    ccc     C2  12919 0.30606500  12.010000   ; qtot -0.019622
12920         h1    463    ccc     H1  12920 0.11662300   1.008000   ; qtot 0.097001
12921         h1    463    ccc     H2  12921 0.11526800   1.008000   ; qtot 0.212269
12922         c3    463    ccc     C3  12922 0.15592700  12.010000   ; qtot 0.368196
12923         c3    463    ccc     C4  12923 0.28383300  12.010000   ; qtot 0.652029
12924         c3    463    ccc     C5  12924 0.32403300  12.010000   ; qtot 0.976062
12925         h1    463    ccc     H3  12925 0.13386900   1.008000   ; qtot 1.109931
12926         h1    463    ccc     H4  12926 0.10146700   1.008000   ; qtot 1.211398
12927         h2    463    ccc     H5  12927 0.10960400   1.008000   ; qtot 1.321002
12928         os    463    ccc     O1  12928 -0.28650000  16.000000   ; qtot 1.034502
12929         oh    463    ccc     O2  12929 -0.86012500  16.000000   ; qtot 0.174377
12930         oh    463    ccc     O3  12930 -0.83772800  16.000000   ; qtot -0.663351
12931         oh    463    ccc     O4  12931 -0.77449700  16.000000   ; qtot -1.437848
12932         c3    463    ccc     C6  12932 0.37576500  12.010000   ; qtot -1.062083
12933         ho    463    ccc     H6  12933 0.53656000   1.008000   ; qtot -0.525523
12934         ho    463    ccc     H7  12934 0.49492100   1.008000   ; qtot -0.030602
12935         ho    463    ccc     H8  12935 0.51297200   1.008000   ; qtot 0.482370
12936         h1    463    ccc     H9  12936 0.05653400   1.008000   ; qtot 0.538904
12937         h1    463    ccc    H10  12937 0.05653400   1.008000   ; qtot 0.595438
12938         oh    463    ccc     O5  12938 -0.84113600  16.000000   ; qtot -0.245698
12939         ho    463    ccc    H11  12939 0.51201600   1.008000   ; qtot 0.266318
12940         os    463    ccc     O6  12940 -0.26013600  16.000000   ; qtot 0.006182
; residue  464 ccc rtp ccc q 0.0
12941         c3    464    ccc     C1  12941 -0.33178800  12.010000   ; qtot -0.325606
12942         c3    464    ccc     C2  12942 0.30606500  12.010000   ; qtot -0.019541
12943         h1    464    ccc     H1  12943 0.11662300   1.008000   ; qtot 0.097082
12944         h1    464    ccc     H2  12944 0.11526800   1.008000   ; qtot 0.212350
12945         c3    464    ccc     C3  12945 0.15592700  12.010000   ; qtot 0.368277
12946         c3    464    ccc     C4  12946 0.28383300  12.010000   ; qtot 0.652110
12947         c3    464    ccc     C5  12947 0.32403300  12.010000   ; qtot 0.976143
12948         h1    464    ccc     H3  12948 0.13386900   1.008000   ; qtot 1.110012
12949         h1    464    ccc     H4  12949 0.10146700   1.008000   ; qtot 1.211479
12950         h2    464    ccc     H5  12950 0.10960400   1.008000   ; qtot 1.321083
12951         os    464    ccc     O1  12951 -0.28650000  16.000000   ; qtot 1.034583
12952         oh    464    ccc     O2  12952 -0.86012500  16.000000   ; qtot 0.174458
12953         oh    464    ccc     O3  12953 -0.83772800  16.000000   ; qtot -0.663270
12954         oh    464    ccc     O4  12954 -0.77449700  16.000000   ; qtot -1.437767
12955         c3    464    ccc     C6  12955 0.37576500  12.010000   ; qtot -1.062002
12956         ho    464    ccc     H6  12956 0.53656000   1.008000   ; qtot -0.525442
12957         ho    464    ccc     H7  12957 0.49492100   1.008000   ; qtot -0.030521
12958         ho    464    ccc     H8  12958 0.51297200   1.008000   ; qtot 0.482451
12959         h1    464    ccc     H9  12959 0.05653400   1.008000   ; qtot 0.538985
12960         h1    464    ccc    H10  12960 0.05653400   1.008000   ; qtot 0.595519
12961         oh    464    ccc     O5  12961 -0.84113600  16.000000   ; qtot -0.245617
12962         ho    464    ccc    H11  12962 0.51201600   1.008000   ; qtot 0.266399
12963         os    464    ccc     O6  12963 -0.26013600  16.000000   ; qtot 0.006263
; residue  465 ccc rtp ccc q 0.0
12964         c3    465    ccc     C1  12964 -0.33178800  12.010000   ; qtot -0.325525
12965         c3    465    ccc     C2  12965 0.30606500  12.010000   ; qtot -0.019460
12966         h1    465    ccc     H1  12966 0.11662300   1.008000   ; qtot 0.097163
12967         h1    465    ccc     H2  12967 0.11526800   1.008000   ; qtot 0.212431
12968         c3    465    ccc     C3  12968 0.15592700  12.010000   ; qtot 0.368358
12969         c3    465    ccc     C4  12969 0.28383300  12.010000   ; qtot 0.652191
12970         c3    465    ccc     C5  12970 0.32403300  12.010000   ; qtot 0.976224
12971         h1    465    ccc     H3  12971 0.13386900   1.008000   ; qtot 1.110093
12972         h1    465    ccc     H4  12972 0.10146700   1.008000   ; qtot 1.211560
12973         h2    465    ccc     H5  12973 0.10960400   1.008000   ; qtot 1.321164
12974         os    465    ccc     O1  12974 -0.28650000  16.000000   ; qtot 1.034664
12975         oh    465    ccc     O2  12975 -0.86012500  16.000000   ; qtot 0.174539
12976         oh    465    ccc     O3  12976 -0.83772800  16.000000   ; qtot -0.663189
12977         oh    465    ccc     O4  12977 -0.77449700  16.000000   ; qtot -1.437686
12978         c3    465    ccc     C6  12978 0.37576500  12.010000   ; qtot -1.061921
12979         ho    465    ccc     H6  12979 0.53656000   1.008000   ; qtot -0.525361
12980         ho    465    ccc     H7  12980 0.49492100   1.008000   ; qtot -0.030440
12981         ho    465    ccc     H8  12981 0.51297200   1.008000   ; qtot 0.482532
12982         h1    465    ccc     H9  12982 0.05653400   1.008000   ; qtot 0.539066
12983         h1    465    ccc    H10  12983 0.05653400   1.008000   ; qtot 0.595600
12984         oh    465    ccc     O5  12984 -0.84113600  16.000000   ; qtot -0.245536
12985         ho    465    ccc    H11  12985 0.51201600   1.008000   ; qtot 0.266480
12986         os    465    ccc     O6  12986 -0.26013600  16.000000   ; qtot 0.006344
; residue  466 ccc rtp ccc q 0.0
12987         c3    466    ccc     C1  12987 -0.33178800  12.010000   ; qtot -0.325444
12988         c3    466    ccc     C2  12988 0.30606500  12.010000   ; qtot -0.019379
12989         h1    466    ccc     H1  12989 0.11662300   1.008000   ; qtot 0.097244
12990         h1    466    ccc     H2  12990 0.11526800   1.008000   ; qtot 0.212512
12991         c3    466    ccc     C3  12991 0.15592700  12.010000   ; qtot 0.368439
12992         c3    466    ccc     C4  12992 0.28383300  12.010000   ; qtot 0.652272
12993         c3    466    ccc     C5  12993 0.32403300  12.010000   ; qtot 0.976305
12994         h1    466    ccc     H3  12994 0.13386900   1.008000   ; qtot 1.110174
12995         h1    466    ccc     H4  12995 0.10146700   1.008000   ; qtot 1.211641
12996         h2    466    ccc     H5  12996 0.10960400   1.008000   ; qtot 1.321245
12997         os    466    ccc     O1  12997 -0.28650000  16.000000   ; qtot 1.034745
12998         oh    466    ccc     O2  12998 -0.86012500  16.000000   ; qtot 0.174620
12999         oh    466    ccc     O3  12999 -0.83772800  16.000000   ; qtot -0.663108
13000         oh    466    ccc     O4  13000 -0.77449700  16.000000   ; qtot -1.437605
13001         c3    466    ccc     C6  13001 0.37576500  12.010000   ; qtot -1.061840
13002         ho    466    ccc     H6  13002 0.53656000   1.008000   ; qtot -0.525280
13003         ho    466    ccc     H7  13003 0.49492100   1.008000   ; qtot -0.030359
13004         ho    466    ccc     H8  13004 0.51297200   1.008000   ; qtot 0.482613
13005         h1    466    ccc     H9  13005 0.05653400   1.008000   ; qtot 0.539147
13006         h1    466    ccc    H10  13006 0.05653400   1.008000   ; qtot 0.595681
13007         oh    466    ccc     O5  13007 -0.84113600  16.000000   ; qtot -0.245455
13008         ho    466    ccc    H11  13008 0.51201600   1.008000   ; qtot 0.266561
13009         os    466    ccc     O6  13009 -0.26013600  16.000000   ; qtot 0.006425
; residue  467 ccc rtp ccc q 0.0
13010         c3    467    ccc     C1  13010 -0.33178800  12.010000   ; qtot -0.325363
13011         c3    467    ccc     C2  13011 0.30606500  12.010000   ; qtot -0.019298
13012         h1    467    ccc     H1  13012 0.11662300   1.008000   ; qtot 0.097325
13013         h1    467    ccc     H2  13013 0.11526800   1.008000   ; qtot 0.212593
13014         c3    467    ccc     C3  13014 0.15592700  12.010000   ; qtot 0.368520
13015         c3    467    ccc     C4  13015 0.28383300  12.010000   ; qtot 0.652353
13016         c3    467    ccc     C5  13016 0.32403300  12.010000   ; qtot 0.976386
13017         h1    467    ccc     H3  13017 0.13386900   1.008000   ; qtot 1.110255
13018         h1    467    ccc     H4  13018 0.10146700   1.008000   ; qtot 1.211722
13019         h2    467    ccc     H5  13019 0.10960400   1.008000   ; qtot 1.321326
13020         os    467    ccc     O1  13020 -0.28650000  16.000000   ; qtot 1.034826
13021         oh    467    ccc     O2  13021 -0.86012500  16.000000   ; qtot 0.174701
13022         oh    467    ccc     O3  13022 -0.83772800  16.000000   ; qtot -0.663027
13023         oh    467    ccc     O4  13023 -0.77449700  16.000000   ; qtot -1.437524
13024         c3    467    ccc     C6  13024 0.37576500  12.010000   ; qtot -1.061759
13025         ho    467    ccc     H6  13025 0.53656000   1.008000   ; qtot -0.525199
13026         ho    467    ccc     H7  13026 0.49492100   1.008000   ; qtot -0.030278
13027         ho    467    ccc     H8  13027 0.51297200   1.008000   ; qtot 0.482694
13028         h1    467    ccc     H9  13028 0.05653400   1.008000   ; qtot 0.539228
13029         h1    467    ccc    H10  13029 0.05653400   1.008000   ; qtot 0.595762
13030         oh    467    ccc     O5  13030 -0.84113600  16.000000   ; qtot -0.245374
13031         ho    467    ccc    H11  13031 0.51201600   1.008000   ; qtot 0.266642
13032         os    467    ccc     O6  13032 -0.26013600  16.000000   ; qtot 0.006506
; residue  468 ccc rtp ccc q 0.0
13033         c3    468    ccc     C1  13033 -0.33178800  12.010000   ; qtot -0.325282
13034         c3    468    ccc     C2  13034 0.30606500  12.010000   ; qtot -0.019217
13035         h1    468    ccc     H1  13035 0.11662300   1.008000   ; qtot 0.097406
13036         h1    468    ccc     H2  13036 0.11526800   1.008000   ; qtot 0.212674
13037         c3    468    ccc     C3  13037 0.15592700  12.010000   ; qtot 0.368601
13038         c3    468    ccc     C4  13038 0.28383300  12.010000   ; qtot 0.652434
13039         c3    468    ccc     C5  13039 0.32403300  12.010000   ; qtot 0.976467
13040         h1    468    ccc     H3  13040 0.13386900   1.008000   ; qtot 1.110336
13041         h1    468    ccc     H4  13041 0.10146700   1.008000   ; qtot 1.211803
13042         h2    468    ccc     H5  13042 0.10960400   1.008000   ; qtot 1.321407
13043         os    468    ccc     O1  13043 -0.28650000  16.000000   ; qtot 1.034907
13044         oh    468    ccc     O2  13044 -0.86012500  16.000000   ; qtot 0.174782
13045         oh    468    ccc     O3  13045 -0.83772800  16.000000   ; qtot -0.662946
13046         oh    468    ccc     O4  13046 -0.77449700  16.000000   ; qtot -1.437443
13047         c3    468    ccc     C6  13047 0.37576500  12.010000   ; qtot -1.061678
13048         ho    468    ccc     H6  13048 0.53656000   1.008000   ; qtot -0.525118
13049         ho    468    ccc     H7  13049 0.49492100   1.008000   ; qtot -0.030197
13050         ho    468    ccc     H8  13050 0.51297200   1.008000   ; qtot 0.482775
13051         h1    468    ccc     H9  13051 0.05653400   1.008000   ; qtot 0.539309
13052         h1    468    ccc    H10  13052 0.05653400   1.008000   ; qtot 0.595843
13053         oh    468    ccc     O5  13053 -0.84113600  16.000000   ; qtot -0.245293
13054         ho    468    ccc    H11  13054 0.51201600   1.008000   ; qtot 0.266723
13055         os    468    ccc     O6  13055 -0.26013600  16.000000   ; qtot 0.006587
; residue  469 ccc rtp ccc q 0.0
13056         c3    469    ccc     C1  13056 -0.33178800  12.010000   ; qtot -0.325201
13057         c3    469    ccc     C2  13057 0.30606500  12.010000   ; qtot -0.019136
13058         h1    469    ccc     H1  13058 0.11662300   1.008000   ; qtot 0.097487
13059         h1    469    ccc     H2  13059 0.11526800   1.008000   ; qtot 0.212755
13060         c3    469    ccc     C3  13060 0.15592700  12.010000   ; qtot 0.368682
13061         c3    469    ccc     C4  13061 0.28383300  12.010000   ; qtot 0.652515
13062         c3    469    ccc     C5  13062 0.32403300  12.010000   ; qtot 0.976548
13063         h1    469    ccc     H3  13063 0.13386900   1.008000   ; qtot 1.110417
13064         h1    469    ccc     H4  13064 0.10146700   1.008000   ; qtot 1.211884
13065         h2    469    ccc     H5  13065 0.10960400   1.008000   ; qtot 1.321488
13066         os    469    ccc     O1  13066 -0.28650000  16.000000   ; qtot 1.034988
13067         oh    469    ccc     O2  13067 -0.86012500  16.000000   ; qtot 0.174863
13068         oh    469    ccc     O3  13068 -0.83772800  16.000000   ; qtot -0.662865
13069         oh    469    ccc     O4  13069 -0.77449700  16.000000   ; qtot -1.437362
13070         c3    469    ccc     C6  13070 0.37576500  12.010000   ; qtot -1.061597
13071         ho    469    ccc     H6  13071 0.53656000   1.008000   ; qtot -0.525037
13072         ho    469    ccc     H7  13072 0.49492100   1.008000   ; qtot -0.030116
13073         ho    469    ccc     H8  13073 0.51297200   1.008000   ; qtot 0.482856
13074         h1    469    ccc     H9  13074 0.05653400   1.008000   ; qtot 0.539390
13075         h1    469    ccc    H10  13075 0.05653400   1.008000   ; qtot 0.595924
13076         oh    469    ccc     O5  13076 -0.84113600  16.000000   ; qtot -0.245212
13077         ho    469    ccc    H11  13077 0.51201600   1.008000   ; qtot 0.266804
13078         os    469    ccc     O6  13078 -0.26013600  16.000000   ; qtot 0.006668
; residue  470 ccc rtp ccc q 0.0
13079         c3    470    ccc     C1  13079 -0.33178800  12.010000   ; qtot -0.325120
13080         c3    470    ccc     C2  13080 0.30606500  12.010000   ; qtot -0.019055
13081         h1    470    ccc     H1  13081 0.11662300   1.008000   ; qtot 0.097568
13082         h1    470    ccc     H2  13082 0.11526800   1.008000   ; qtot 0.212836
13083         c3    470    ccc     C3  13083 0.15592700  12.010000   ; qtot 0.368763
13084         c3    470    ccc     C4  13084 0.28383300  12.010000   ; qtot 0.652596
13085         c3    470    ccc     C5  13085 0.32403300  12.010000   ; qtot 0.976629
13086         h1    470    ccc     H3  13086 0.13386900   1.008000   ; qtot 1.110498
13087         h1    470    ccc     H4  13087 0.10146700   1.008000   ; qtot 1.211965
13088         h2    470    ccc     H5  13088 0.10960400   1.008000   ; qtot 1.321569
13089         os    470    ccc     O1  13089 -0.28650000  16.000000   ; qtot 1.035069
13090         oh    470    ccc     O2  13090 -0.86012500  16.000000   ; qtot 0.174944
13091         oh    470    ccc     O3  13091 -0.83772800  16.000000   ; qtot -0.662784
13092         oh    470    ccc     O4  13092 -0.77449700  16.000000   ; qtot -1.437281
13093         c3    470    ccc     C6  13093 0.37576500  12.010000   ; qtot -1.061516
13094         ho    470    ccc     H6  13094 0.53656000   1.008000   ; qtot -0.524956
13095         ho    470    ccc     H7  13095 0.49492100   1.008000   ; qtot -0.030035
13096         ho    470    ccc     H8  13096 0.51297200   1.008000   ; qtot 0.482937
13097         h1    470    ccc     H9  13097 0.05653400   1.008000   ; qtot 0.539471
13098         h1    470    ccc    H10  13098 0.05653400   1.008000   ; qtot 0.596005
13099         oh    470    ccc     O5  13099 -0.84113600  16.000000   ; qtot -0.245131
13100         ho    470    ccc    H11  13100 0.51201600   1.008000   ; qtot 0.266885
13101         os    470    ccc     O6  13101 -0.26013600  16.000000   ; qtot 0.006749
; residue  471 ccc rtp ccc q 0.0
13102         c3    471    ccc     C1  13102 -0.33178800  12.010000   ; qtot -0.325039
13103         c3    471    ccc     C2  13103 0.30606500  12.010000   ; qtot -0.018974
13104         h1    471    ccc     H1  13104 0.11662300   1.008000   ; qtot 0.097649
13105         h1    471    ccc     H2  13105 0.11526800   1.008000   ; qtot 0.212917
13106         c3    471    ccc     C3  13106 0.15592700  12.010000   ; qtot 0.368844
13107         c3    471    ccc     C4  13107 0.28383300  12.010000   ; qtot 0.652677
13108         c3    471    ccc     C5  13108 0.32403300  12.010000   ; qtot 0.976710
13109         h1    471    ccc     H3  13109 0.13386900   1.008000   ; qtot 1.110579
13110         h1    471    ccc     H4  13110 0.10146700   1.008000   ; qtot 1.212046
13111         h2    471    ccc     H5  13111 0.10960400   1.008000   ; qtot 1.321650
13112         os    471    ccc     O1  13112 -0.28650000  16.000000   ; qtot 1.035150
13113         oh    471    ccc     O2  13113 -0.86012500  16.000000   ; qtot 0.175025
13114         oh    471    ccc     O3  13114 -0.83772800  16.000000   ; qtot -0.662703
13115         oh    471    ccc     O4  13115 -0.77449700  16.000000   ; qtot -1.437200
13116         c3    471    ccc     C6  13116 0.37576500  12.010000   ; qtot -1.061435
13117         ho    471    ccc     H6  13117 0.53656000   1.008000   ; qtot -0.524875
13118         ho    471    ccc     H7  13118 0.49492100   1.008000   ; qtot -0.029954
13119         ho    471    ccc     H8  13119 0.51297200   1.008000   ; qtot 0.483018
13120         h1    471    ccc     H9  13120 0.05653400   1.008000   ; qtot 0.539552
13121         h1    471    ccc    H10  13121 0.05653400   1.008000   ; qtot 0.596086
13122         oh    471    ccc     O5  13122 -0.84113600  16.000000   ; qtot -0.245050
13123         ho    471    ccc    H11  13123 0.51201600   1.008000   ; qtot 0.266966
13124         os    471    ccc     O6  13124 -0.26013600  16.000000   ; qtot 0.006830
; residue  472 ccc rtp ccc q 0.0
13125         c3    472    ccc     C1  13125 -0.33178800  12.010000   ; qtot -0.324958
13126         c3    472    ccc     C2  13126 0.30606500  12.010000   ; qtot -0.018893
13127         h1    472    ccc     H1  13127 0.11662300   1.008000   ; qtot 0.097730
13128         h1    472    ccc     H2  13128 0.11526800   1.008000   ; qtot 0.212998
13129         c3    472    ccc     C3  13129 0.15592700  12.010000   ; qtot 0.368925
13130         c3    472    ccc     C4  13130 0.28383300  12.010000   ; qtot 0.652758
13131         c3    472    ccc     C5  13131 0.32403300  12.010000   ; qtot 0.976791
13132         h1    472    ccc     H3  13132 0.13386900   1.008000   ; qtot 1.110660
13133         h1    472    ccc     H4  13133 0.10146700   1.008000   ; qtot 1.212127
13134         h2    472    ccc     H5  13134 0.10960400   1.008000   ; qtot 1.321731
13135         os    472    ccc     O1  13135 -0.28650000  16.000000   ; qtot 1.035231
13136         oh    472    ccc     O2  13136 -0.86012500  16.000000   ; qtot 0.175106
13137         oh    472    ccc     O3  13137 -0.83772800  16.000000   ; qtot -0.662622
13138         oh    472    ccc     O4  13138 -0.77449700  16.000000   ; qtot -1.437119
13139         c3    472    ccc     C6  13139 0.37576500  12.010000   ; qtot -1.061354
13140         ho    472    ccc     H6  13140 0.53656000   1.008000   ; qtot -0.524794
13141         ho    472    ccc     H7  13141 0.49492100   1.008000   ; qtot -0.029873
13142         ho    472    ccc     H8  13142 0.51297200   1.008000   ; qtot 0.483099
13143         h1    472    ccc     H9  13143 0.05653400   1.008000   ; qtot 0.539633
13144         h1    472    ccc    H10  13144 0.05653400   1.008000   ; qtot 0.596167
13145         oh    472    ccc     O5  13145 -0.84113600  16.000000   ; qtot -0.244969
13146         ho    472    ccc    H11  13146 0.51201600   1.008000   ; qtot 0.267047
13147         os    472    ccc     O6  13147 -0.26013600  16.000000   ; qtot 0.006911
; residue  473 ccc rtp ccc q 0.0
13148         c3    473    ccc     C1  13148 -0.33178800  12.010000   ; qtot -0.324877
13149         c3    473    ccc     C2  13149 0.30606500  12.010000   ; qtot -0.018812
13150         h1    473    ccc     H1  13150 0.11662300   1.008000   ; qtot 0.097811
13151         h1    473    ccc     H2  13151 0.11526800   1.008000   ; qtot 0.213079
13152         c3    473    ccc     C3  13152 0.15592700  12.010000   ; qtot 0.369006
13153         c3    473    ccc     C4  13153 0.28383300  12.010000   ; qtot 0.652839
13154         c3    473    ccc     C5  13154 0.32403300  12.010000   ; qtot 0.976872
13155         h1    473    ccc     H3  13155 0.13386900   1.008000   ; qtot 1.110741
13156         h1    473    ccc     H4  13156 0.10146700   1.008000   ; qtot 1.212208
13157         h2    473    ccc     H5  13157 0.10960400   1.008000   ; qtot 1.321812
13158         os    473    ccc     O1  13158 -0.28650000  16.000000   ; qtot 1.035312
13159         oh    473    ccc     O2  13159 -0.86012500  16.000000   ; qtot 0.175187
13160         oh    473    ccc     O3  13160 -0.83772800  16.000000   ; qtot -0.662541
13161         oh    473    ccc     O4  13161 -0.77449700  16.000000   ; qtot -1.437038
13162         c3    473    ccc     C6  13162 0.37576500  12.010000   ; qtot -1.061273
13163         ho    473    ccc     H6  13163 0.53656000   1.008000   ; qtot -0.524713
13164         ho    473    ccc     H7  13164 0.49492100   1.008000   ; qtot -0.029792
13165         ho    473    ccc     H8  13165 0.51297200   1.008000   ; qtot 0.483180
13166         h1    473    ccc     H9  13166 0.05653400   1.008000   ; qtot 0.539714
13167         h1    473    ccc    H10  13167 0.05653400   1.008000   ; qtot 0.596248
13168         oh    473    ccc     O5  13168 -0.84113600  16.000000   ; qtot -0.244888
13169         ho    473    ccc    H11  13169 0.51201600   1.008000   ; qtot 0.267128
13170         os    473    ccc     O6  13170 -0.26013600  16.000000   ; qtot 0.006992
; residue  474 ccc rtp ccc q 0.0
13171         c3    474    ccc     C1  13171 -0.33178800  12.010000   ; qtot -0.324796
13172         c3    474    ccc     C2  13172 0.30606500  12.010000   ; qtot -0.018731
13173         h1    474    ccc     H1  13173 0.11662300   1.008000   ; qtot 0.097892
13174         h1    474    ccc     H2  13174 0.11526800   1.008000   ; qtot 0.213160
13175         c3    474    ccc     C3  13175 0.15592700  12.010000   ; qtot 0.369087
13176         c3    474    ccc     C4  13176 0.28383300  12.010000   ; qtot 0.652920
13177         c3    474    ccc     C5  13177 0.32403300  12.010000   ; qtot 0.976953
13178         h1    474    ccc     H3  13178 0.13386900   1.008000   ; qtot 1.110822
13179         h1    474    ccc     H4  13179 0.10146700   1.008000   ; qtot 1.212289
13180         h2    474    ccc     H5  13180 0.10960400   1.008000   ; qtot 1.321893
13181         os    474    ccc     O1  13181 -0.28650000  16.000000   ; qtot 1.035393
13182         oh    474    ccc     O2  13182 -0.86012500  16.000000   ; qtot 0.175268
13183         oh    474    ccc     O3  13183 -0.83772800  16.000000   ; qtot -0.662460
13184         oh    474    ccc     O4  13184 -0.77449700  16.000000   ; qtot -1.436957
13185         c3    474    ccc     C6  13185 0.37576500  12.010000   ; qtot -1.061192
13186         ho    474    ccc     H6  13186 0.53656000   1.008000   ; qtot -0.524632
13187         ho    474    ccc     H7  13187 0.49492100   1.008000   ; qtot -0.029711
13188         ho    474    ccc     H8  13188 0.51297200   1.008000   ; qtot 0.483261
13189         h1    474    ccc     H9  13189 0.05653400   1.008000   ; qtot 0.539795
13190         h1    474    ccc    H10  13190 0.05653400   1.008000   ; qtot 0.596329
13191         oh    474    ccc     O5  13191 -0.84113600  16.000000   ; qtot -0.244807
13192         ho    474    ccc    H11  13192 0.51201600   1.008000   ; qtot 0.267209
13193         os    474    ccc     O6  13193 -0.26013600  16.000000   ; qtot 0.007073
; residue  475 ccc rtp ccc q 0.0
13194         c3    475    ccc     C1  13194 -0.33178800  12.010000   ; qtot -0.324715
13195         c3    475    ccc     C2  13195 0.30606500  12.010000   ; qtot -0.018650
13196         h1    475    ccc     H1  13196 0.11662300   1.008000   ; qtot 0.097973
13197         h1    475    ccc     H2  13197 0.11526800   1.008000   ; qtot 0.213241
13198         c3    475    ccc     C3  13198 0.15592700  12.010000   ; qtot 0.369168
13199         c3    475    ccc     C4  13199 0.28383300  12.010000   ; qtot 0.653001
13200         c3    475    ccc     C5  13200 0.32403300  12.010000   ; qtot 0.977034
13201         h1    475    ccc     H3  13201 0.13386900   1.008000   ; qtot 1.110903
13202         h1    475    ccc     H4  13202 0.10146700   1.008000   ; qtot 1.212370
13203         h2    475    ccc     H5  13203 0.10960400   1.008000   ; qtot 1.321974
13204         os    475    ccc     O1  13204 -0.28650000  16.000000   ; qtot 1.035474
13205         oh    475    ccc     O2  13205 -0.86012500  16.000000   ; qtot 0.175349
13206         oh    475    ccc     O3  13206 -0.83772800  16.000000   ; qtot -0.662379
13207         oh    475    ccc     O4  13207 -0.77449700  16.000000   ; qtot -1.436876
13208         c3    475    ccc     C6  13208 0.37576500  12.010000   ; qtot -1.061111
13209         ho    475    ccc     H6  13209 0.53656000   1.008000   ; qtot -0.524551
13210         ho    475    ccc     H7  13210 0.49492100   1.008000   ; qtot -0.029630
13211         ho    475    ccc     H8  13211 0.51297200   1.008000   ; qtot 0.483342
13212         h1    475    ccc     H9  13212 0.05653400   1.008000   ; qtot 0.539876
13213         h1    475    ccc    H10  13213 0.05653400   1.008000   ; qtot 0.596410
13214         oh    475    ccc     O5  13214 -0.84113600  16.000000   ; qtot -0.244726
13215         ho    475    ccc    H11  13215 0.51201600   1.008000   ; qtot 0.267290
13216         os    475    ccc     O6  13216 -0.26013600  16.000000   ; qtot 0.007154
; residue  476 ccc rtp ccc q 0.0
13217         c3    476    ccc     C1  13217 -0.33178800  12.010000   ; qtot -0.324634
13218         c3    476    ccc     C2  13218 0.30606500  12.010000   ; qtot -0.018569
13219         h1    476    ccc     H1  13219 0.11662300   1.008000   ; qtot 0.098054
13220         h1    476    ccc     H2  13220 0.11526800   1.008000   ; qtot 0.213322
13221         c3    476    ccc     C3  13221 0.15592700  12.010000   ; qtot 0.369249
13222         c3    476    ccc     C4  13222 0.28383300  12.010000   ; qtot 0.653082
13223         c3    476    ccc     C5  13223 0.32403300  12.010000   ; qtot 0.977115
13224         h1    476    ccc     H3  13224 0.13386900   1.008000   ; qtot 1.110984
13225         h1    476    ccc     H4  13225 0.10146700   1.008000   ; qtot 1.212451
13226         h2    476    ccc     H5  13226 0.10960400   1.008000   ; qtot 1.322055
13227         os    476    ccc     O1  13227 -0.28650000  16.000000   ; qtot 1.035555
13228         oh    476    ccc     O2  13228 -0.86012500  16.000000   ; qtot 0.175430
13229         oh    476    ccc     O3  13229 -0.83772800  16.000000   ; qtot -0.662298
13230         oh    476    ccc     O4  13230 -0.77449700  16.000000   ; qtot -1.436795
13231         c3    476    ccc     C6  13231 0.37576500  12.010000   ; qtot -1.061030
13232         ho    476    ccc     H6  13232 0.53656000   1.008000   ; qtot -0.524470
13233         ho    476    ccc     H7  13233 0.49492100   1.008000   ; qtot -0.029549
13234         ho    476    ccc     H8  13234 0.51297200   1.008000   ; qtot 0.483423
13235         h1    476    ccc     H9  13235 0.05653400   1.008000   ; qtot 0.539957
13236         h1    476    ccc    H10  13236 0.05653400   1.008000   ; qtot 0.596491
13237         oh    476    ccc     O5  13237 -0.84113600  16.000000   ; qtot -0.244645
13238         ho    476    ccc    H11  13238 0.51201600   1.008000   ; qtot 0.267371
13239         os    476    ccc     O6  13239 -0.26013600  16.000000   ; qtot 0.007235
; residue  477 ccc rtp ccc q 0.0
13240         c3    477    ccc     C1  13240 -0.33178800  12.010000   ; qtot -0.324553
13241         c3    477    ccc     C2  13241 0.30606500  12.010000   ; qtot -0.018488
13242         h1    477    ccc     H1  13242 0.11662300   1.008000   ; qtot 0.098135
13243         h1    477    ccc     H2  13243 0.11526800   1.008000   ; qtot 0.213403
13244         c3    477    ccc     C3  13244 0.15592700  12.010000   ; qtot 0.369330
13245         c3    477    ccc     C4  13245 0.28383300  12.010000   ; qtot 0.653163
13246         c3    477    ccc     C5  13246 0.32403300  12.010000   ; qtot 0.977196
13247         h1    477    ccc     H3  13247 0.13386900   1.008000   ; qtot 1.111065
13248         h1    477    ccc     H4  13248 0.10146700   1.008000   ; qtot 1.212532
13249         h2    477    ccc     H5  13249 0.10960400   1.008000   ; qtot 1.322136
13250         os    477    ccc     O1  13250 -0.28650000  16.000000   ; qtot 1.035636
13251         oh    477    ccc     O2  13251 -0.86012500  16.000000   ; qtot 0.175511
13252         oh    477    ccc     O3  13252 -0.83772800  16.000000   ; qtot -0.662217
13253         oh    477    ccc     O4  13253 -0.77449700  16.000000   ; qtot -1.436714
13254         c3    477    ccc     C6  13254 0.37576500  12.010000   ; qtot -1.060949
13255         ho    477    ccc     H6  13255 0.53656000   1.008000   ; qtot -0.524389
13256         ho    477    ccc     H7  13256 0.49492100   1.008000   ; qtot -0.029468
13257         ho    477    ccc     H8  13257 0.51297200   1.008000   ; qtot 0.483504
13258         h1    477    ccc     H9  13258 0.05653400   1.008000   ; qtot 0.540038
13259         h1    477    ccc    H10  13259 0.05653400   1.008000   ; qtot 0.596572
13260         oh    477    ccc     O5  13260 -0.84113600  16.000000   ; qtot -0.244564
13261         ho    477    ccc    H11  13261 0.51201600   1.008000   ; qtot 0.267452
13262         os    477    ccc     O6  13262 -0.26013600  16.000000   ; qtot 0.007316
; residue  478 ccc rtp ccc q 0.0
13263         c3    478    ccc     C1  13263 -0.33178800  12.010000   ; qtot -0.324472
13264         c3    478    ccc     C2  13264 0.30606500  12.010000   ; qtot -0.018407
13265         h1    478    ccc     H1  13265 0.11662300   1.008000   ; qtot 0.098216
13266         h1    478    ccc     H2  13266 0.11526800   1.008000   ; qtot 0.213484
13267         c3    478    ccc     C3  13267 0.15592700  12.010000   ; qtot 0.369411
13268         c3    478    ccc     C4  13268 0.28383300  12.010000   ; qtot 0.653244
13269         c3    478    ccc     C5  13269 0.32403300  12.010000   ; qtot 0.977277
13270         h1    478    ccc     H3  13270 0.13386900   1.008000   ; qtot 1.111146
13271         h1    478    ccc     H4  13271 0.10146700   1.008000   ; qtot 1.212613
13272         h2    478    ccc     H5  13272 0.10960400   1.008000   ; qtot 1.322217
13273         os    478    ccc     O1  13273 -0.28650000  16.000000   ; qtot 1.035717
13274         oh    478    ccc     O2  13274 -0.86012500  16.000000   ; qtot 0.175592
13275         oh    478    ccc     O3  13275 -0.83772800  16.000000   ; qtot -0.662136
13276         oh    478    ccc     O4  13276 -0.77449700  16.000000   ; qtot -1.436633
13277         c3    478    ccc     C6  13277 0.37576500  12.010000   ; qtot -1.060868
13278         ho    478    ccc     H6  13278 0.53656000   1.008000   ; qtot -0.524308
13279         ho    478    ccc     H7  13279 0.49492100   1.008000   ; qtot -0.029387
13280         ho    478    ccc     H8  13280 0.51297200   1.008000   ; qtot 0.483585
13281         h1    478    ccc     H9  13281 0.05653400   1.008000   ; qtot 0.540119
13282         h1    478    ccc    H10  13282 0.05653400   1.008000   ; qtot 0.596653
13283         oh    478    ccc     O5  13283 -0.84113600  16.000000   ; qtot -0.244483
13284         ho    478    ccc    H11  13284 0.51201600   1.008000   ; qtot 0.267533
13285         os    478    ccc     O6  13285 -0.26013600  16.000000   ; qtot 0.007397
; residue  479 ccc rtp ccc q 0.0
13286         c3    479    ccc     C1  13286 -0.33178800  12.010000   ; qtot -0.324391
13287         c3    479    ccc     C2  13287 0.30606500  12.010000   ; qtot -0.018326
13288         h1    479    ccc     H1  13288 0.11662300   1.008000   ; qtot 0.098297
13289         h1    479    ccc     H2  13289 0.11526800   1.008000   ; qtot 0.213565
13290         c3    479    ccc     C3  13290 0.15592700  12.010000   ; qtot 0.369492
13291         c3    479    ccc     C4  13291 0.28383300  12.010000   ; qtot 0.653325
13292         c3    479    ccc     C5  13292 0.32403300  12.010000   ; qtot 0.977358
13293         h1    479    ccc     H3  13293 0.13386900   1.008000   ; qtot 1.111227
13294         h1    479    ccc     H4  13294 0.10146700   1.008000   ; qtot 1.212694
13295         h2    479    ccc     H5  13295 0.10960400   1.008000   ; qtot 1.322298
13296         os    479    ccc     O1  13296 -0.28650000  16.000000   ; qtot 1.035798
13297         oh    479    ccc     O2  13297 -0.86012500  16.000000   ; qtot 0.175673
13298         oh    479    ccc     O3  13298 -0.83772800  16.000000   ; qtot -0.662055
13299         oh    479    ccc     O4  13299 -0.77449700  16.000000   ; qtot -1.436552
13300         c3    479    ccc     C6  13300 0.37576500  12.010000   ; qtot -1.060787
13301         ho    479    ccc     H6  13301 0.53656000   1.008000   ; qtot -0.524227
13302         ho    479    ccc     H7  13302 0.49492100   1.008000   ; qtot -0.029306
13303         ho    479    ccc     H8  13303 0.51297200   1.008000   ; qtot 0.483666
13304         h1    479    ccc     H9  13304 0.05653400   1.008000   ; qtot 0.540200
13305         h1    479    ccc    H10  13305 0.05653400   1.008000   ; qtot 0.596734
13306         oh    479    ccc     O5  13306 -0.84113600  16.000000   ; qtot -0.244402
13307         ho    479    ccc    H11  13307 0.51201600   1.008000   ; qtot 0.267614
13308         os    479    ccc     O6  13308 -0.26013600  16.000000   ; qtot 0.007478
; residue  480 ccc rtp ccc q 0.0
13309         c3    480    ccc     C1  13309 -0.33178800  12.010000   ; qtot -0.324310
13310         c3    480    ccc     C2  13310 0.30606500  12.010000   ; qtot -0.018245
13311         h1    480    ccc     H1  13311 0.11662300   1.008000   ; qtot 0.098378
13312         h1    480    ccc     H2  13312 0.11526800   1.008000   ; qtot 0.213646
13313         c3    480    ccc     C3  13313 0.15592700  12.010000   ; qtot 0.369573
13314         c3    480    ccc     C4  13314 0.28383300  12.010000   ; qtot 0.653406
13315         c3    480    ccc     C5  13315 0.32403300  12.010000   ; qtot 0.977439
13316         h1    480    ccc     H3  13316 0.13386900   1.008000   ; qtot 1.111308
13317         h1    480    ccc     H4  13317 0.10146700   1.008000   ; qtot 1.212775
13318         h2    480    ccc     H5  13318 0.10960400   1.008000   ; qtot 1.322379
13319         os    480    ccc     O1  13319 -0.28650000  16.000000   ; qtot 1.035879
13320         oh    480    ccc     O2  13320 -0.86012500  16.000000   ; qtot 0.175754
13321         oh    480    ccc     O3  13321 -0.83772800  16.000000   ; qtot -0.661974
13322         oh    480    ccc     O4  13322 -0.77449700  16.000000   ; qtot -1.436471
13323         c3    480    ccc     C6  13323 0.37576500  12.010000   ; qtot -1.060706
13324         ho    480    ccc     H6  13324 0.53656000   1.008000   ; qtot -0.524146
13325         ho    480    ccc     H7  13325 0.49492100   1.008000   ; qtot -0.029225
13326         ho    480    ccc     H8  13326 0.51297200   1.008000   ; qtot 0.483747
13327         h1    480    ccc     H9  13327 0.05653400   1.008000   ; qtot 0.540281
13328         h1    480    ccc    H10  13328 0.05653400   1.008000   ; qtot 0.596815
13329         oh    480    ccc     O5  13329 -0.84113600  16.000000   ; qtot -0.244321
13330         ho    480    ccc    H11  13330 0.51201600   1.008000   ; qtot 0.267695
13331         os    480    ccc     O6  13331 -0.26013600  16.000000   ; qtot 0.007559
; residue  481 ccc rtp ccc q 0.0
13332         c3    481    ccc     C1  13332 -0.33178800  12.010000   ; qtot -0.324229
13333         c3    481    ccc     C2  13333 0.30606500  12.010000   ; qtot -0.018164
13334         h1    481    ccc     H1  13334 0.11662300   1.008000   ; qtot 0.098459
13335         h1    481    ccc     H2  13335 0.11526800   1.008000   ; qtot 0.213727
13336         c3    481    ccc     C3  13336 0.15592700  12.010000   ; qtot 0.369654
13337         c3    481    ccc     C4  13337 0.28383300  12.010000   ; qtot 0.653487
13338         c3    481    ccc     C5  13338 0.32403300  12.010000   ; qtot 0.977520
13339         h1    481    ccc     H3  13339 0.13386900   1.008000   ; qtot 1.111389
13340         h1    481    ccc     H4  13340 0.10146700   1.008000   ; qtot 1.212856
13341         h2    481    ccc     H5  13341 0.10960400   1.008000   ; qtot 1.322460
13342         os    481    ccc     O1  13342 -0.28650000  16.000000   ; qtot 1.035960
13343         oh    481    ccc     O2  13343 -0.86012500  16.000000   ; qtot 0.175835
13344         oh    481    ccc     O3  13344 -0.83772800  16.000000   ; qtot -0.661893
13345         oh    481    ccc     O4  13345 -0.77449700  16.000000   ; qtot -1.436390
13346         c3    481    ccc     C6  13346 0.37576500  12.010000   ; qtot -1.060625
13347         ho    481    ccc     H6  13347 0.53656000   1.008000   ; qtot -0.524065
13348         ho    481    ccc     H7  13348 0.49492100   1.008000   ; qtot -0.029144
13349         ho    481    ccc     H8  13349 0.51297200   1.008000   ; qtot 0.483828
13350         h1    481    ccc     H9  13350 0.05653400   1.008000   ; qtot 0.540362
13351         h1    481    ccc    H10  13351 0.05653400   1.008000   ; qtot 0.596896
13352         oh    481    ccc     O5  13352 -0.84113600  16.000000   ; qtot -0.244240
13353         ho    481    ccc    H11  13353 0.51201600   1.008000   ; qtot 0.267776
13354         os    481    ccc     O6  13354 -0.26013600  16.000000   ; qtot 0.007640
; residue  482 ccc rtp ccc q 0.0
13355         c3    482    ccc     C1  13355 -0.33178800  12.010000   ; qtot -0.324148
13356         c3    482    ccc     C2  13356 0.30606500  12.010000   ; qtot -0.018083
13357         h1    482    ccc     H1  13357 0.11662300   1.008000   ; qtot 0.098540
13358         h1    482    ccc     H2  13358 0.11526800   1.008000   ; qtot 0.213808
13359         c3    482    ccc     C3  13359 0.15592700  12.010000   ; qtot 0.369735
13360         c3    482    ccc     C4  13360 0.28383300  12.010000   ; qtot 0.653568
13361         c3    482    ccc     C5  13361 0.32403300  12.010000   ; qtot 0.977601
13362         h1    482    ccc     H3  13362 0.13386900   1.008000   ; qtot 1.111470
13363         h1    482    ccc     H4  13363 0.10146700   1.008000   ; qtot 1.212937
13364         h2    482    ccc     H5  13364 0.10960400   1.008000   ; qtot 1.322541
13365         os    482    ccc     O1  13365 -0.28650000  16.000000   ; qtot 1.036041
13366         oh    482    ccc     O2  13366 -0.86012500  16.000000   ; qtot 0.175916
13367         oh    482    ccc     O3  13367 -0.83772800  16.000000   ; qtot -0.661812
13368         oh    482    ccc     O4  13368 -0.77449700  16.000000   ; qtot -1.436309
13369         c3    482    ccc     C6  13369 0.37576500  12.010000   ; qtot -1.060544
13370         ho    482    ccc     H6  13370 0.53656000   1.008000   ; qtot -0.523984
13371         ho    482    ccc     H7  13371 0.49492100   1.008000   ; qtot -0.029063
13372         ho    482    ccc     H8  13372 0.51297200   1.008000   ; qtot 0.483909
13373         h1    482    ccc     H9  13373 0.05653400   1.008000   ; qtot 0.540443
13374         h1    482    ccc    H10  13374 0.05653400   1.008000   ; qtot 0.596977
13375         oh    482    ccc     O5  13375 -0.84113600  16.000000   ; qtot -0.244159
13376         ho    482    ccc    H11  13376 0.51201600   1.008000   ; qtot 0.267857
13377         os    482    ccc     O6  13377 -0.26013600  16.000000   ; qtot 0.007721
; residue  483 ccc rtp ccc q 0.0
13378         c3    483    ccc     C1  13378 -0.33178800  12.010000   ; qtot -0.324067
13379         c3    483    ccc     C2  13379 0.30606500  12.010000   ; qtot -0.018002
13380         h1    483    ccc     H1  13380 0.11662300   1.008000   ; qtot 0.098621
13381         h1    483    ccc     H2  13381 0.11526800   1.008000   ; qtot 0.213889
13382         c3    483    ccc     C3  13382 0.15592700  12.010000   ; qtot 0.369816
13383         c3    483    ccc     C4  13383 0.28383300  12.010000   ; qtot 0.653649
13384         c3    483    ccc     C5  13384 0.32403300  12.010000   ; qtot 0.977682
13385         h1    483    ccc     H3  13385 0.13386900   1.008000   ; qtot 1.111551
13386         h1    483    ccc     H4  13386 0.10146700   1.008000   ; qtot 1.213018
13387         h2    483    ccc     H5  13387 0.10960400   1.008000   ; qtot 1.322622
13388         os    483    ccc     O1  13388 -0.28650000  16.000000   ; qtot 1.036122
13389         oh    483    ccc     O2  13389 -0.86012500  16.000000   ; qtot 0.175997
13390         oh    483    ccc     O3  13390 -0.83772800  16.000000   ; qtot -0.661731
13391         oh    483    ccc     O4  13391 -0.77449700  16.000000   ; qtot -1.436228
13392         c3    483    ccc     C6  13392 0.37576500  12.010000   ; qtot -1.060463
13393         ho    483    ccc     H6  13393 0.53656000   1.008000   ; qtot -0.523903
13394         ho    483    ccc     H7  13394 0.49492100   1.008000   ; qtot -0.028982
13395         ho    483    ccc     H8  13395 0.51297200   1.008000   ; qtot 0.483990
13396         h1    483    ccc     H9  13396 0.05653400   1.008000   ; qtot 0.540524
13397         h1    483    ccc    H10  13397 0.05653400   1.008000   ; qtot 0.597058
13398         oh    483    ccc     O5  13398 -0.84113600  16.000000   ; qtot -0.244078
13399         ho    483    ccc    H11  13399 0.51201600   1.008000   ; qtot 0.267938
13400         os    483    ccc     O6  13400 -0.26013600  16.000000   ; qtot 0.007802
; residue  484 ccc rtp ccc q 0.0
13401         c3    484    ccc     C1  13401 -0.33178800  12.010000   ; qtot -0.323986
13402         c3    484    ccc     C2  13402 0.30606500  12.010000   ; qtot -0.017921
13403         h1    484    ccc     H1  13403 0.11662300   1.008000   ; qtot 0.098702
13404         h1    484    ccc     H2  13404 0.11526800   1.008000   ; qtot 0.213970
13405         c3    484    ccc     C3  13405 0.15592700  12.010000   ; qtot 0.369897
13406         c3    484    ccc     C4  13406 0.28383300  12.010000   ; qtot 0.653730
13407         c3    484    ccc     C5  13407 0.32403300  12.010000   ; qtot 0.977763
13408         h1    484    ccc     H3  13408 0.13386900   1.008000   ; qtot 1.111632
13409         h1    484    ccc     H4  13409 0.10146700   1.008000   ; qtot 1.213099
13410         h2    484    ccc     H5  13410 0.10960400   1.008000   ; qtot 1.322703
13411         os    484    ccc     O1  13411 -0.28650000  16.000000   ; qtot 1.036203
13412         oh    484    ccc     O2  13412 -0.86012500  16.000000   ; qtot 0.176078
13413         oh    484    ccc     O3  13413 -0.83772800  16.000000   ; qtot -0.661650
13414         oh    484    ccc     O4  13414 -0.77449700  16.000000   ; qtot -1.436147
13415         c3    484    ccc     C6  13415 0.37576500  12.010000   ; qtot -1.060382
13416         ho    484    ccc     H6  13416 0.53656000   1.008000   ; qtot -0.523822
13417         ho    484    ccc     H7  13417 0.49492100   1.008000   ; qtot -0.028901
13418         ho    484    ccc     H8  13418 0.51297200   1.008000   ; qtot 0.484071
13419         h1    484    ccc     H9  13419 0.05653400   1.008000   ; qtot 0.540605
13420         h1    484    ccc    H10  13420 0.05653400   1.008000   ; qtot 0.597139
13421         oh    484    ccc     O5  13421 -0.84113600  16.000000   ; qtot -0.243997
13422         ho    484    ccc    H11  13422 0.51201600   1.008000   ; qtot 0.268019
13423         os    484    ccc     O6  13423 -0.26013600  16.000000   ; qtot 0.007883
; residue  485 ccc rtp ccc q 0.0
13424         c3    485    ccc     C1  13424 -0.33178800  12.010000   ; qtot -0.323905
13425         c3    485    ccc     C2  13425 0.30606500  12.010000   ; qtot -0.017840
13426         h1    485    ccc     H1  13426 0.11662300   1.008000   ; qtot 0.098783
13427         h1    485    ccc     H2  13427 0.11526800   1.008000   ; qtot 0.214051
13428         c3    485    ccc     C3  13428 0.15592700  12.010000   ; qtot 0.369978
13429         c3    485    ccc     C4  13429 0.28383300  12.010000   ; qtot 0.653811
13430         c3    485    ccc     C5  13430 0.32403300  12.010000   ; qtot 0.977844
13431         h1    485    ccc     H3  13431 0.13386900   1.008000   ; qtot 1.111713
13432         h1    485    ccc     H4  13432 0.10146700   1.008000   ; qtot 1.213180
13433         h2    485    ccc     H5  13433 0.10960400   1.008000   ; qtot 1.322784
13434         os    485    ccc     O1  13434 -0.28650000  16.000000   ; qtot 1.036284
13435         oh    485    ccc     O2  13435 -0.86012500  16.000000   ; qtot 0.176159
13436         oh    485    ccc     O3  13436 -0.83772800  16.000000   ; qtot -0.661569
13437         oh    485    ccc     O4  13437 -0.77449700  16.000000   ; qtot -1.436066
13438         c3    485    ccc     C6  13438 0.37576500  12.010000   ; qtot -1.060301
13439         ho    485    ccc     H6  13439 0.53656000   1.008000   ; qtot -0.523741
13440         ho    485    ccc     H7  13440 0.49492100   1.008000   ; qtot -0.028820
13441         ho    485    ccc     H8  13441 0.51297200   1.008000   ; qtot 0.484152
13442         h1    485    ccc     H9  13442 0.05653400   1.008000   ; qtot 0.540686
13443         h1    485    ccc    H10  13443 0.05653400   1.008000   ; qtot 0.597220
13444         oh    485    ccc     O5  13444 -0.84113600  16.000000   ; qtot -0.243916
13445         ho    485    ccc    H11  13445 0.51201600   1.008000   ; qtot 0.268100
13446         os    485    ccc     O6  13446 -0.26013600  16.000000   ; qtot 0.007964
; residue  486 ccc rtp ccc q 0.0
13447         c3    486    ccc     C1  13447 -0.33178800  12.010000   ; qtot -0.323824
13448         c3    486    ccc     C2  13448 0.30606500  12.010000   ; qtot -0.017759
13449         h1    486    ccc     H1  13449 0.11662300   1.008000   ; qtot 0.098864
13450         h1    486    ccc     H2  13450 0.11526800   1.008000   ; qtot 0.214132
13451         c3    486    ccc     C3  13451 0.15592700  12.010000   ; qtot 0.370059
13452         c3    486    ccc     C4  13452 0.28383300  12.010000   ; qtot 0.653892
13453         c3    486    ccc     C5  13453 0.32403300  12.010000   ; qtot 0.977925
13454         h1    486    ccc     H3  13454 0.13386900   1.008000   ; qtot 1.111794
13455         h1    486    ccc     H4  13455 0.10146700   1.008000   ; qtot 1.213261
13456         h2    486    ccc     H5  13456 0.10960400   1.008000   ; qtot 1.322865
13457         os    486    ccc     O1  13457 -0.28650000  16.000000   ; qtot 1.036365
13458         oh    486    ccc     O2  13458 -0.86012500  16.000000   ; qtot 0.176240
13459         oh    486    ccc     O3  13459 -0.83772800  16.000000   ; qtot -0.661488
13460         oh    486    ccc     O4  13460 -0.77449700  16.000000   ; qtot -1.435985
13461         c3    486    ccc     C6  13461 0.37576500  12.010000   ; qtot -1.060220
13462         ho    486    ccc     H6  13462 0.53656000   1.008000   ; qtot -0.523660
13463         ho    486    ccc     H7  13463 0.49492100   1.008000   ; qtot -0.028739
13464         ho    486    ccc     H8  13464 0.51297200   1.008000   ; qtot 0.484233
13465         h1    486    ccc     H9  13465 0.05653400   1.008000   ; qtot 0.540767
13466         h1    486    ccc    H10  13466 0.05653400   1.008000   ; qtot 0.597301
13467         oh    486    ccc     O5  13467 -0.84113600  16.000000   ; qtot -0.243835
13468         ho    486    ccc    H11  13468 0.51201600   1.008000   ; qtot 0.268181
13469         os    486    ccc     O6  13469 -0.26013600  16.000000   ; qtot 0.008045
; residue  487 ccc rtp ccc q 0.0
13470         c3    487    ccc     C1  13470 -0.33178800  12.010000   ; qtot -0.323743
13471         c3    487    ccc     C2  13471 0.30606500  12.010000   ; qtot -0.017678
13472         h1    487    ccc     H1  13472 0.11662300   1.008000   ; qtot 0.098945
13473         h1    487    ccc     H2  13473 0.11526800   1.008000   ; qtot 0.214213
13474         c3    487    ccc     C3  13474 0.15592700  12.010000   ; qtot 0.370140
13475         c3    487    ccc     C4  13475 0.28383300  12.010000   ; qtot 0.653973
13476         c3    487    ccc     C5  13476 0.32403300  12.010000   ; qtot 0.978006
13477         h1    487    ccc     H3  13477 0.13386900   1.008000   ; qtot 1.111875
13478         h1    487    ccc     H4  13478 0.10146700   1.008000   ; qtot 1.213342
13479         h2    487    ccc     H5  13479 0.10960400   1.008000   ; qtot 1.322946
13480         os    487    ccc     O1  13480 -0.28650000  16.000000   ; qtot 1.036446
13481         oh    487    ccc     O2  13481 -0.86012500  16.000000   ; qtot 0.176321
13482         oh    487    ccc     O3  13482 -0.83772800  16.000000   ; qtot -0.661407
13483         oh    487    ccc     O4  13483 -0.77449700  16.000000   ; qtot -1.435904
13484         c3    487    ccc     C6  13484 0.37576500  12.010000   ; qtot -1.060139
13485         ho    487    ccc     H6  13485 0.53656000   1.008000   ; qtot -0.523579
13486         ho    487    ccc     H7  13486 0.49492100   1.008000   ; qtot -0.028658
13487         ho    487    ccc     H8  13487 0.51297200   1.008000   ; qtot 0.484314
13488         h1    487    ccc     H9  13488 0.05653400   1.008000   ; qtot 0.540848
13489         h1    487    ccc    H10  13489 0.05653400   1.008000   ; qtot 0.597382
13490         oh    487    ccc     O5  13490 -0.84113600  16.000000   ; qtot -0.243754
13491         ho    487    ccc    H11  13491 0.51201600   1.008000   ; qtot 0.268262
13492         os    487    ccc     O6  13492 -0.26013600  16.000000   ; qtot 0.008126
; residue  488 ccc rtp ccc q 0.0
13493         c3    488    ccc     C1  13493 -0.33178800  12.010000   ; qtot -0.323662
13494         c3    488    ccc     C2  13494 0.30606500  12.010000   ; qtot -0.017597
13495         h1    488    ccc     H1  13495 0.11662300   1.008000   ; qtot 0.099026
13496         h1    488    ccc     H2  13496 0.11526800   1.008000   ; qtot 0.214294
13497         c3    488    ccc     C3  13497 0.15592700  12.010000   ; qtot 0.370221
13498         c3    488    ccc     C4  13498 0.28383300  12.010000   ; qtot 0.654054
13499         c3    488    ccc     C5  13499 0.32403300  12.010000   ; qtot 0.978087
13500         h1    488    ccc     H3  13500 0.13386900   1.008000   ; qtot 1.111956
13501         h1    488    ccc     H4  13501 0.10146700   1.008000   ; qtot 1.213423
13502         h2    488    ccc     H5  13502 0.10960400   1.008000   ; qtot 1.323027
13503         os    488    ccc     O1  13503 -0.28650000  16.000000   ; qtot 1.036527
13504         oh    488    ccc     O2  13504 -0.86012500  16.000000   ; qtot 0.176402
13505         oh    488    ccc     O3  13505 -0.83772800  16.000000   ; qtot -0.661326
13506         oh    488    ccc     O4  13506 -0.77449700  16.000000   ; qtot -1.435823
13507         c3    488    ccc     C6  13507 0.37576500  12.010000   ; qtot -1.060058
13508         ho    488    ccc     H6  13508 0.53656000   1.008000   ; qtot -0.523498
13509         ho    488    ccc     H7  13509 0.49492100   1.008000   ; qtot -0.028577
13510         ho    488    ccc     H8  13510 0.51297200   1.008000   ; qtot 0.484395
13511         h1    488    ccc     H9  13511 0.05653400   1.008000   ; qtot 0.540929
13512         h1    488    ccc    H10  13512 0.05653400   1.008000   ; qtot 0.597463
13513         oh    488    ccc     O5  13513 -0.84113600  16.000000   ; qtot -0.243673
13514         ho    488    ccc    H11  13514 0.51201600   1.008000   ; qtot 0.268343
13515         os    488    ccc     O6  13515 -0.26013600  16.000000   ; qtot 0.008207
; residue  489 ccc rtp ccc q 0.0
13516         c3    489    ccc     C1  13516 -0.33178800  12.010000   ; qtot -0.323581
13517         c3    489    ccc     C2  13517 0.30606500  12.010000   ; qtot -0.017516
13518         h1    489    ccc     H1  13518 0.11662300   1.008000   ; qtot 0.099107
13519         h1    489    ccc     H2  13519 0.11526800   1.008000   ; qtot 0.214375
13520         c3    489    ccc     C3  13520 0.15592700  12.010000   ; qtot 0.370302
13521         c3    489    ccc     C4  13521 0.28383300  12.010000   ; qtot 0.654135
13522         c3    489    ccc     C5  13522 0.32403300  12.010000   ; qtot 0.978168
13523         h1    489    ccc     H3  13523 0.13386900   1.008000   ; qtot 1.112037
13524         h1    489    ccc     H4  13524 0.10146700   1.008000   ; qtot 1.213504
13525         h2    489    ccc     H5  13525 0.10960400   1.008000   ; qtot 1.323108
13526         os    489    ccc     O1  13526 -0.28650000  16.000000   ; qtot 1.036608
13527         oh    489    ccc     O2  13527 -0.86012500  16.000000   ; qtot 0.176483
13528         oh    489    ccc     O3  13528 -0.83772800  16.000000   ; qtot -0.661245
13529         oh    489    ccc     O4  13529 -0.77449700  16.000000   ; qtot -1.435742
13530         c3    489    ccc     C6  13530 0.37576500  12.010000   ; qtot -1.059977
13531         ho    489    ccc     H6  13531 0.53656000   1.008000   ; qtot -0.523417
13532         ho    489    ccc     H7  13532 0.49492100   1.008000   ; qtot -0.028496
13533         ho    489    ccc     H8  13533 0.51297200   1.008000   ; qtot 0.484476
13534         h1    489    ccc     H9  13534 0.05653400   1.008000   ; qtot 0.541010
13535         h1    489    ccc    H10  13535 0.05653400   1.008000   ; qtot 0.597544
13536         oh    489    ccc     O5  13536 -0.84113600  16.000000   ; qtot -0.243592
13537         ho    489    ccc    H11  13537 0.51201600   1.008000   ; qtot 0.268424
13538         os    489    ccc     O6  13538 -0.26013600  16.000000   ; qtot 0.008288
; residue  490 ccc rtp ccc q 0.0
13539         c3    490    ccc     C1  13539 -0.33178800  12.010000   ; qtot -0.323500
13540         c3    490    ccc     C2  13540 0.30606500  12.010000   ; qtot -0.017435
13541         h1    490    ccc     H1  13541 0.11662300   1.008000   ; qtot 0.099188
13542         h1    490    ccc     H2  13542 0.11526800   1.008000   ; qtot 0.214456
13543         c3    490    ccc     C3  13543 0.15592700  12.010000   ; qtot 0.370383
13544         c3    490    ccc     C4  13544 0.28383300  12.010000   ; qtot 0.654216
13545         c3    490    ccc     C5  13545 0.32403300  12.010000   ; qtot 0.978249
13546         h1    490    ccc     H3  13546 0.13386900   1.008000   ; qtot 1.112118
13547         h1    490    ccc     H4  13547 0.10146700   1.008000   ; qtot 1.213585
13548         h2    490    ccc     H5  13548 0.10960400   1.008000   ; qtot 1.323189
13549         os    490    ccc     O1  13549 -0.28650000  16.000000   ; qtot 1.036689
13550         oh    490    ccc     O2  13550 -0.86012500  16.000000   ; qtot 0.176564
13551         oh    490    ccc     O3  13551 -0.83772800  16.000000   ; qtot -0.661164
13552         oh    490    ccc     O4  13552 -0.77449700  16.000000   ; qtot -1.435661
13553         c3    490    ccc     C6  13553 0.37576500  12.010000   ; qtot -1.059896
13554         ho    490    ccc     H6  13554 0.53656000   1.008000   ; qtot -0.523336
13555         ho    490    ccc     H7  13555 0.49492100   1.008000   ; qtot -0.028415
13556         ho    490    ccc     H8  13556 0.51297200   1.008000   ; qtot 0.484557
13557         h1    490    ccc     H9  13557 0.05653400   1.008000   ; qtot 0.541091
13558         h1    490    ccc    H10  13558 0.05653400   1.008000   ; qtot 0.597625
13559         oh    490    ccc     O5  13559 -0.84113600  16.000000   ; qtot -0.243511
13560         ho    490    ccc    H11  13560 0.51201600   1.008000   ; qtot 0.268505
13561         os    490    ccc     O6  13561 -0.26013600  16.000000   ; qtot 0.008369
; residue  491 ccc rtp ccc q 0.0
13562         c3    491    ccc     C1  13562 -0.33178800  12.010000   ; qtot -0.323419
13563         c3    491    ccc     C2  13563 0.30606500  12.010000   ; qtot -0.017354
13564         h1    491    ccc     H1  13564 0.11662300   1.008000   ; qtot 0.099269
13565         h1    491    ccc     H2  13565 0.11526800   1.008000   ; qtot 0.214537
13566         c3    491    ccc     C3  13566 0.15592700  12.010000   ; qtot 0.370464
13567         c3    491    ccc     C4  13567 0.28383300  12.010000   ; qtot 0.654297
13568         c3    491    ccc     C5  13568 0.32403300  12.010000   ; qtot 0.978330
13569         h1    491    ccc     H3  13569 0.13386900   1.008000   ; qtot 1.112199
13570         h1    491    ccc     H4  13570 0.10146700   1.008000   ; qtot 1.213666
13571         h2    491    ccc     H5  13571 0.10960400   1.008000   ; qtot 1.323270
13572         os    491    ccc     O1  13572 -0.28650000  16.000000   ; qtot 1.036770
13573         oh    491    ccc     O2  13573 -0.86012500  16.000000   ; qtot 0.176645
13574         oh    491    ccc     O3  13574 -0.83772800  16.000000   ; qtot -0.661083
13575         oh    491    ccc     O4  13575 -0.77449700  16.000000   ; qtot -1.435580
13576         c3    491    ccc     C6  13576 0.37576500  12.010000   ; qtot -1.059815
13577         ho    491    ccc     H6  13577 0.53656000   1.008000   ; qtot -0.523255
13578         ho    491    ccc     H7  13578 0.49492100   1.008000   ; qtot -0.028334
13579         ho    491    ccc     H8  13579 0.51297200   1.008000   ; qtot 0.484638
13580         h1    491    ccc     H9  13580 0.05653400   1.008000   ; qtot 0.541172
13581         h1    491    ccc    H10  13581 0.05653400   1.008000   ; qtot 0.597706
13582         oh    491    ccc     O5  13582 -0.84113600  16.000000   ; qtot -0.243430
13583         ho    491    ccc    H11  13583 0.51201600   1.008000   ; qtot 0.268586
13584         os    491    ccc     O6  13584 -0.26013600  16.000000   ; qtot 0.008450
; residue  492 ccc rtp ccc q 0.0
13585         c3    492    ccc     C1  13585 -0.33178800  12.010000   ; qtot -0.323338
13586         c3    492    ccc     C2  13586 0.30606500  12.010000   ; qtot -0.017273
13587         h1    492    ccc     H1  13587 0.11662300   1.008000   ; qtot 0.099350
13588         h1    492    ccc     H2  13588 0.11526800   1.008000   ; qtot 0.214618
13589         c3    492    ccc     C3  13589 0.15592700  12.010000   ; qtot 0.370545
13590         c3    492    ccc     C4  13590 0.28383300  12.010000   ; qtot 0.654378
13591         c3    492    ccc     C5  13591 0.32403300  12.010000   ; qtot 0.978411
13592         h1    492    ccc     H3  13592 0.13386900   1.008000   ; qtot 1.112280
13593         h1    492    ccc     H4  13593 0.10146700   1.008000   ; qtot 1.213747
13594         h2    492    ccc     H5  13594 0.10960400   1.008000   ; qtot 1.323351
13595         os    492    ccc     O1  13595 -0.28650000  16.000000   ; qtot 1.036851
13596         oh    492    ccc     O2  13596 -0.86012500  16.000000   ; qtot 0.176726
13597         oh    492    ccc     O3  13597 -0.83772800  16.000000   ; qtot -0.661002
13598         oh    492    ccc     O4  13598 -0.77449700  16.000000   ; qtot -1.435499
13599         c3    492    ccc     C6  13599 0.37576500  12.010000   ; qtot -1.059734
13600         ho    492    ccc     H6  13600 0.53656000   1.008000   ; qtot -0.523174
13601         ho    492    ccc     H7  13601 0.49492100   1.008000   ; qtot -0.028253
13602         ho    492    ccc     H8  13602 0.51297200   1.008000   ; qtot 0.484719
13603         h1    492    ccc     H9  13603 0.05653400   1.008000   ; qtot 0.541253
13604         h1    492    ccc    H10  13604 0.05653400   1.008000   ; qtot 0.597787
13605         oh    492    ccc     O5  13605 -0.84113600  16.000000   ; qtot -0.243349
13606         ho    492    ccc    H11  13606 0.51201600   1.008000   ; qtot 0.268667
13607         os    492    ccc     O6  13607 -0.26013600  16.000000   ; qtot 0.008531
; residue  493 ccc rtp ccc q 0.0
13608         c3    493    ccc     C1  13608 -0.33178800  12.010000   ; qtot -0.323257
13609         c3    493    ccc     C2  13609 0.30606500  12.010000   ; qtot -0.017192
13610         h1    493    ccc     H1  13610 0.11662300   1.008000   ; qtot 0.099431
13611         h1    493    ccc     H2  13611 0.11526800   1.008000   ; qtot 0.214699
13612         c3    493    ccc     C3  13612 0.15592700  12.010000   ; qtot 0.370626
13613         c3    493    ccc     C4  13613 0.28383300  12.010000   ; qtot 0.654459
13614         c3    493    ccc     C5  13614 0.32403300  12.010000   ; qtot 0.978492
13615         h1    493    ccc     H3  13615 0.13386900   1.008000   ; qtot 1.112361
13616         h1    493    ccc     H4  13616 0.10146700   1.008000   ; qtot 1.213828
13617         h2    493    ccc     H5  13617 0.10960400   1.008000   ; qtot 1.323432
13618         os    493    ccc     O1  13618 -0.28650000  16.000000   ; qtot 1.036932
13619         oh    493    ccc     O2  13619 -0.86012500  16.000000   ; qtot 0.176807
13620         oh    493    ccc     O3  13620 -0.83772800  16.000000   ; qtot -0.660921
13621         oh    493    ccc     O4  13621 -0.77449700  16.000000   ; qtot -1.435418
13622         c3    493    ccc     C6  13622 0.37576500  12.010000   ; qtot -1.059653
13623         ho    493    ccc     H6  13623 0.53656000   1.008000   ; qtot -0.523093
13624         ho    493    ccc     H7  13624 0.49492100   1.008000   ; qtot -0.028172
13625         ho    493    ccc     H8  13625 0.51297200   1.008000   ; qtot 0.484800
13626         h1    493    ccc     H9  13626 0.05653400   1.008000   ; qtot 0.541334
13627         h1    493    ccc    H10  13627 0.05653400   1.008000   ; qtot 0.597868
13628         oh    493    ccc     O5  13628 -0.84113600  16.000000   ; qtot -0.243268
13629         ho    493    ccc    H11  13629 0.51201600   1.008000   ; qtot 0.268748
13630         os    493    ccc     O6  13630 -0.26013600  16.000000   ; qtot 0.008612
; residue  494 ccc rtp ccc q 0.0
13631         c3    494    ccc     C1  13631 -0.33178800  12.010000   ; qtot -0.323176
13632         c3    494    ccc     C2  13632 0.30606500  12.010000   ; qtot -0.017111
13633         h1    494    ccc     H1  13633 0.11662300   1.008000   ; qtot 0.099512
13634         h1    494    ccc     H2  13634 0.11526800   1.008000   ; qtot 0.214780
13635         c3    494    ccc     C3  13635 0.15592700  12.010000   ; qtot 0.370707
13636         c3    494    ccc     C4  13636 0.28383300  12.010000   ; qtot 0.654540
13637         c3    494    ccc     C5  13637 0.32403300  12.010000   ; qtot 0.978573
13638         h1    494    ccc     H3  13638 0.13386900   1.008000   ; qtot 1.112442
13639         h1    494    ccc     H4  13639 0.10146700   1.008000   ; qtot 1.213909
13640         h2    494    ccc     H5  13640 0.10960400   1.008000   ; qtot 1.323513
13641         os    494    ccc     O1  13641 -0.28650000  16.000000   ; qtot 1.037013
13642         oh    494    ccc     O2  13642 -0.86012500  16.000000   ; qtot 0.176888
13643         oh    494    ccc     O3  13643 -0.83772800  16.000000   ; qtot -0.660840
13644         oh    494    ccc     O4  13644 -0.77449700  16.000000   ; qtot -1.435337
13645         c3    494    ccc     C6  13645 0.37576500  12.010000   ; qtot -1.059572
13646         ho    494    ccc     H6  13646 0.53656000   1.008000   ; qtot -0.523012
13647         ho    494    ccc     H7  13647 0.49492100   1.008000   ; qtot -0.028091
13648         ho    494    ccc     H8  13648 0.51297200   1.008000   ; qtot 0.484881
13649         h1    494    ccc     H9  13649 0.05653400   1.008000   ; qtot 0.541415
13650         h1    494    ccc    H10  13650 0.05653400   1.008000   ; qtot 0.597949
13651         oh    494    ccc     O5  13651 -0.84113600  16.000000   ; qtot -0.243187
13652         ho    494    ccc    H11  13652 0.51201600   1.008000   ; qtot 0.268829
13653         os    494    ccc     O6  13653 -0.26013600  16.000000   ; qtot 0.008693
; residue  495 ccc rtp ccc q 0.0
13654         c3    495    ccc     C1  13654 -0.33178800  12.010000   ; qtot -0.323095
13655         c3    495    ccc     C2  13655 0.30606500  12.010000   ; qtot -0.017030
13656         h1    495    ccc     H1  13656 0.11662300   1.008000   ; qtot 0.099593
13657         h1    495    ccc     H2  13657 0.11526800   1.008000   ; qtot 0.214861
13658         c3    495    ccc     C3  13658 0.15592700  12.010000   ; qtot 0.370788
13659         c3    495    ccc     C4  13659 0.28383300  12.010000   ; qtot 0.654621
13660         c3    495    ccc     C5  13660 0.32403300  12.010000   ; qtot 0.978654
13661         h1    495    ccc     H3  13661 0.13386900   1.008000   ; qtot 1.112523
13662         h1    495    ccc     H4  13662 0.10146700   1.008000   ; qtot 1.213990
13663         h2    495    ccc     H5  13663 0.10960400   1.008000   ; qtot 1.323594
13664         os    495    ccc     O1  13664 -0.28650000  16.000000   ; qtot 1.037094
13665         oh    495    ccc     O2  13665 -0.86012500  16.000000   ; qtot 0.176969
13666         oh    495    ccc     O3  13666 -0.83772800  16.000000   ; qtot -0.660759
13667         oh    495    ccc     O4  13667 -0.77449700  16.000000   ; qtot -1.435256
13668         c3    495    ccc     C6  13668 0.37576500  12.010000   ; qtot -1.059491
13669         ho    495    ccc     H6  13669 0.53656000   1.008000   ; qtot -0.522931
13670         ho    495    ccc     H7  13670 0.49492100   1.008000   ; qtot -0.028010
13671         ho    495    ccc     H8  13671 0.51297200   1.008000   ; qtot 0.484962
13672         h1    495    ccc     H9  13672 0.05653400   1.008000   ; qtot 0.541496
13673         h1    495    ccc    H10  13673 0.05653400   1.008000   ; qtot 0.598030
13674         oh    495    ccc     O5  13674 -0.84113600  16.000000   ; qtot -0.243106
13675         ho    495    ccc    H11  13675 0.51201600   1.008000   ; qtot 0.268910
13676         os    495    ccc     O6  13676 -0.26013600  16.000000   ; qtot 0.008774
; residue  496 ccc rtp ccc q 0.0
13677         c3    496    ccc     C1  13677 -0.33178800  12.010000   ; qtot -0.323014
13678         c3    496    ccc     C2  13678 0.30606500  12.010000   ; qtot -0.016949
13679         h1    496    ccc     H1  13679 0.11662300   1.008000   ; qtot 0.099674
13680         h1    496    ccc     H2  13680 0.11526800   1.008000   ; qtot 0.214942
13681         c3    496    ccc     C3  13681 0.15592700  12.010000   ; qtot 0.370869
13682         c3    496    ccc     C4  13682 0.28383300  12.010000   ; qtot 0.654702
13683         c3    496    ccc     C5  13683 0.32403300  12.010000   ; qtot 0.978735
13684         h1    496    ccc     H3  13684 0.13386900   1.008000   ; qtot 1.112604
13685         h1    496    ccc     H4  13685 0.10146700   1.008000   ; qtot 1.214071
13686         h2    496    ccc     H5  13686 0.10960400   1.008000   ; qtot 1.323675
13687         os    496    ccc     O1  13687 -0.28650000  16.000000   ; qtot 1.037175
13688         oh    496    ccc     O2  13688 -0.86012500  16.000000   ; qtot 0.177050
13689         oh    496    ccc     O3  13689 -0.83772800  16.000000   ; qtot -0.660678
13690         oh    496    ccc     O4  13690 -0.77449700  16.000000   ; qtot -1.435175
13691         c3    496    ccc     C6  13691 0.37576500  12.010000   ; qtot -1.059410
13692         ho    496    ccc     H6  13692 0.53656000   1.008000   ; qtot -0.522850
13693         ho    496    ccc     H7  13693 0.49492100   1.008000   ; qtot -0.027929
13694         ho    496    ccc     H8  13694 0.51297200   1.008000   ; qtot 0.485043
13695         h1    496    ccc     H9  13695 0.05653400   1.008000   ; qtot 0.541577
13696         h1    496    ccc    H10  13696 0.05653400   1.008000   ; qtot 0.598111
13697         oh    496    ccc     O5  13697 -0.84113600  16.000000   ; qtot -0.243025
13698         ho    496    ccc    H11  13698 0.51201600   1.008000   ; qtot 0.268991
13699         os    496    ccc     O6  13699 -0.26013600  16.000000   ; qtot 0.008855
; residue  497 ccc rtp ccc q 0.0
13700         c3    497    ccc     C1  13700 -0.33178800  12.010000   ; qtot -0.322933
13701         c3    497    ccc     C2  13701 0.30606500  12.010000   ; qtot -0.016868
13702         h1    497    ccc     H1  13702 0.11662300   1.008000   ; qtot 0.099755
13703         h1    497    ccc     H2  13703 0.11526800   1.008000   ; qtot 0.215023
13704         c3    497    ccc     C3  13704 0.15592700  12.010000   ; qtot 0.370950
13705         c3    497    ccc     C4  13705 0.28383300  12.010000   ; qtot 0.654783
13706         c3    497    ccc     C5  13706 0.32403300  12.010000   ; qtot 0.978816
13707         h1    497    ccc     H3  13707 0.13386900   1.008000   ; qtot 1.112685
13708         h1    497    ccc     H4  13708 0.10146700   1.008000   ; qtot 1.214152
13709         h2    497    ccc     H5  13709 0.10960400   1.008000   ; qtot 1.323756
13710         os    497    ccc     O1  13710 -0.28650000  16.000000   ; qtot 1.037256
13711         oh    497    ccc     O2  13711 -0.86012500  16.000000   ; qtot 0.177131
13712         oh    497    ccc     O3  13712 -0.83772800  16.000000   ; qtot -0.660597
13713         oh    497    ccc     O4  13713 -0.77449700  16.000000   ; qtot -1.435094
13714         c3    497    ccc     C6  13714 0.37576500  12.010000   ; qtot -1.059329
13715         ho    497    ccc     H6  13715 0.53656000   1.008000   ; qtot -0.522769
13716         ho    497    ccc     H7  13716 0.49492100   1.008000   ; qtot -0.027848
13717         ho    497    ccc     H8  13717 0.51297200   1.008000   ; qtot 0.485124
13718         h1    497    ccc     H9  13718 0.05653400   1.008000   ; qtot 0.541658
13719         h1    497    ccc    H10  13719 0.05653400   1.008000   ; qtot 0.598192
13720         oh    497    ccc     O5  13720 -0.84113600  16.000000   ; qtot -0.242944
13721         ho    497    ccc    H11  13721 0.51201600   1.008000   ; qtot 0.269072
13722         os    497    ccc     O6  13722 -0.26013600  16.000000   ; qtot 0.008936
; residue  498 ccc rtp ccc q 0.0
13723         c3    498    ccc     C1  13723 -0.33178800  12.010000   ; qtot -0.322852
13724         c3    498    ccc     C2  13724 0.30606500  12.010000   ; qtot -0.016787
13725         h1    498    ccc     H1  13725 0.11662300   1.008000   ; qtot 0.099836
13726         h1    498    ccc     H2  13726 0.11526800   1.008000   ; qtot 0.215104
13727         c3    498    ccc     C3  13727 0.15592700  12.010000   ; qtot 0.371031
13728         c3    498    ccc     C4  13728 0.28383300  12.010000   ; qtot 0.654864
13729         c3    498    ccc     C5  13729 0.32403300  12.010000   ; qtot 0.978897
13730         h1    498    ccc     H3  13730 0.13386900   1.008000   ; qtot 1.112766
13731         h1    498    ccc     H4  13731 0.10146700   1.008000   ; qtot 1.214233
13732         h2    498    ccc     H5  13732 0.10960400   1.008000   ; qtot 1.323837
13733         os    498    ccc     O1  13733 -0.28650000  16.000000   ; qtot 1.037337
13734         oh    498    ccc     O2  13734 -0.86012500  16.000000   ; qtot 0.177212
13735         oh    498    ccc     O3  13735 -0.83772800  16.000000   ; qtot -0.660516
13736         oh    498    ccc     O4  13736 -0.77449700  16.000000   ; qtot -1.435013
13737         c3    498    ccc     C6  13737 0.37576500  12.010000   ; qtot -1.059248
13738         ho    498    ccc     H6  13738 0.53656000   1.008000   ; qtot -0.522688
13739         ho    498    ccc     H7  13739 0.49492100   1.008000   ; qtot -0.027767
13740         ho    498    ccc     H8  13740 0.51297200   1.008000   ; qtot 0.485205
13741         h1    498    ccc     H9  13741 0.05653400   1.008000   ; qtot 0.541739
13742         h1    498    ccc    H10  13742 0.05653400   1.008000   ; qtot 0.598273
13743         oh    498    ccc     O5  13743 -0.84113600  16.000000   ; qtot -0.242863
13744         ho    498    ccc    H11  13744 0.51201600   1.008000   ; qtot 0.269153
13745         os    498    ccc     O6  13745 -0.26013600  16.000000   ; qtot 0.009017
; residue  499 ccc rtp ccc q 0.0
13746         c3    499    ccc     C1  13746 -0.33178800  12.010000   ; qtot -0.322771
13747         c3    499    ccc     C2  13747 0.30606500  12.010000   ; qtot -0.016706
13748         h1    499    ccc     H1  13748 0.11662300   1.008000   ; qtot 0.099917
13749         h1    499    ccc     H2  13749 0.11526800   1.008000   ; qtot 0.215185
13750         c3    499    ccc     C3  13750 0.15592700  12.010000   ; qtot 0.371112
13751         c3    499    ccc     C4  13751 0.28383300  12.010000   ; qtot 0.654945
13752         c3    499    ccc     C5  13752 0.32403300  12.010000   ; qtot 0.978978
13753         h1    499    ccc     H3  13753 0.13386900   1.008000   ; qtot 1.112847
13754         h1    499    ccc     H4  13754 0.10146700   1.008000   ; qtot 1.214314
13755         h2    499    ccc     H5  13755 0.10960400   1.008000   ; qtot 1.323918
13756         os    499    ccc     O1  13756 -0.28650000  16.000000   ; qtot 1.037418
13757         oh    499    ccc     O2  13757 -0.86012500  16.000000   ; qtot 0.177293
13758         oh    499    ccc     O3  13758 -0.83772800  16.000000   ; qtot -0.660435
13759         oh    499    ccc     O4  13759 -0.77449700  16.000000   ; qtot -1.434932
13760         c3    499    ccc     C6  13760 0.37576500  12.010000   ; qtot -1.059167
13761         ho    499    ccc     H6  13761 0.53656000   1.008000   ; qtot -0.522607
13762         ho    499    ccc     H7  13762 0.49492100   1.008000   ; qtot -0.027686
13763         ho    499    ccc     H8  13763 0.51297200   1.008000   ; qtot 0.485286
13764         h1    499    ccc     H9  13764 0.05653400   1.008000   ; qtot 0.541820
13765         h1    499    ccc    H10  13765 0.05653400   1.008000   ; qtot 0.598354
13766         oh    499    ccc     O5  13766 -0.84113600  16.000000   ; qtot -0.242782
13767         ho    499    ccc    H11  13767 0.51201600   1.008000   ; qtot 0.269234
13768         os    499    ccc     O6  13768 -0.26013600  16.000000   ; qtot 0.009098
; residue  500 ccc rtp ccc q 0.0
13769         c3    500    ccc     C1  13769 -0.33178800  12.010000   ; qtot -0.322690
13770         c3    500    ccc     C2  13770 0.30606500  12.010000   ; qtot -0.016625
13771         h1    500    ccc     H1  13771 0.11662300   1.008000   ; qtot 0.099998
13772         h1    500    ccc     H2  13772 0.11526800   1.008000   ; qtot 0.215266
13773         c3    500    ccc     C3  13773 0.15592700  12.010000   ; qtot 0.371193
13774         c3    500    ccc     C4  13774 0.28383300  12.010000   ; qtot 0.655026
13775         c3    500    ccc     C5  13775 0.32403300  12.010000   ; qtot 0.979059
13776         h1    500    ccc     H3  13776 0.13386900   1.008000   ; qtot 1.112928
13777         h1    500    ccc     H4  13777 0.10146700   1.008000   ; qtot 1.214395
13778         h2    500    ccc     H5  13778 0.10960400   1.008000   ; qtot 1.323999
13779         os    500    ccc     O1  13779 -0.28650000  16.000000   ; qtot 1.037499
13780         oh    500    ccc     O2  13780 -0.86012500  16.000000   ; qtot 0.177374
13781         oh    500    ccc     O3  13781 -0.83772800  16.000000   ; qtot -0.660354
13782         oh    500    ccc     O4  13782 -0.77449700  16.000000   ; qtot -1.434851
13783         c3    500    ccc     C6  13783 0.37576500  12.010000   ; qtot -1.059086
13784         ho    500    ccc     H6  13784 0.53656000   1.008000   ; qtot -0.522526
13785         ho    500    ccc     H7  13785 0.49492100   1.008000   ; qtot -0.027605
13786         ho    500    ccc     H8  13786 0.51297200   1.008000   ; qtot 0.485367
13787         h1    500    ccc     H9  13787 0.05653400   1.008000   ; qtot 0.541901
13788         h1    500    ccc    H10  13788 0.05653400   1.008000   ; qtot 0.598435
13789         oh    500    ccc     O5  13789 -0.84113600  16.000000   ; qtot -0.242701
13790         ho    500    ccc    H11  13790 0.51201600   1.008000   ; qtot 0.269315
13791         os    500    ccc     O6  13791 -0.26013600  16.000000   ; qtot 0.009179
; residue  501 ccc rtp ccc q 0.0
13792         c3    501    ccc     C1  13792 -0.33178800  12.010000   ; qtot -0.322609
13793         c3    501    ccc     C2  13793 0.30606500  12.010000   ; qtot -0.016544
13794         h1    501    ccc     H1  13794 0.11662300   1.008000   ; qtot 0.100079
13795         h1    501    ccc     H2  13795 0.11526800   1.008000   ; qtot 0.215347
13796         c3    501    ccc     C3  13796 0.15592700  12.010000   ; qtot 0.371274
13797         c3    501    ccc     C4  13797 0.28383300  12.010000   ; qtot 0.655107
13798         c3    501    ccc     C5  13798 0.32403300  12.010000   ; qtot 0.979140
13799         h1    501    ccc     H3  13799 0.13386900   1.008000   ; qtot 1.113009
13800         h1    501    ccc     H4  13800 0.10146700   1.008000   ; qtot 1.214476
13801         h2    501    ccc     H5  13801 0.10960400   1.008000   ; qtot 1.324080
13802         os    501    ccc     O1  13802 -0.28650000  16.000000   ; qtot 1.037580
13803         oh    501    ccc     O2  13803 -0.86012500  16.000000   ; qtot 0.177455
13804         oh    501    ccc     O3  13804 -0.83772800  16.000000   ; qtot -0.660273
13805         oh    501    ccc     O4  13805 -0.77449700  16.000000   ; qtot -1.434770
13806         c3    501    ccc     C6  13806 0.37576500  12.010000   ; qtot -1.059005
13807         ho    501    ccc     H6  13807 0.53656000   1.008000   ; qtot -0.522445
13808         ho    501    ccc     H7  13808 0.49492100   1.008000   ; qtot -0.027524
13809         ho    501    ccc     H8  13809 0.51297200   1.008000   ; qtot 0.485448
13810         h1    501    ccc     H9  13810 0.05653400   1.008000   ; qtot 0.541982
13811         h1    501    ccc    H10  13811 0.05653400   1.008000   ; qtot 0.598516
13812         oh    501    ccc     O5  13812 -0.84113600  16.000000   ; qtot -0.242620
13813         ho    501    ccc    H11  13813 0.51201600   1.008000   ; qtot 0.269396
13814         os    501    ccc     O6  13814 -0.26013600  16.000000   ; qtot 0.009260
; residue  502 ccc rtp ccc q 0.0
13815         c3    502    ccc     C1  13815 -0.33178800  12.010000   ; qtot -0.322528
13816         c3    502    ccc     C2  13816 0.30606500  12.010000   ; qtot -0.016463
13817         h1    502    ccc     H1  13817 0.11662300   1.008000   ; qtot 0.100160
13818         h1    502    ccc     H2  13818 0.11526800   1.008000   ; qtot 0.215428
13819         c3    502    ccc     C3  13819 0.15592700  12.010000   ; qtot 0.371355
13820         c3    502    ccc     C4  13820 0.28383300  12.010000   ; qtot 0.655188
13821         c3    502    ccc     C5  13821 0.32403300  12.010000   ; qtot 0.979221
13822         h1    502    ccc     H3  13822 0.13386900   1.008000   ; qtot 1.113090
13823         h1    502    ccc     H4  13823 0.10146700   1.008000   ; qtot 1.214557
13824         h2    502    ccc     H5  13824 0.10960400   1.008000   ; qtot 1.324161
13825         os    502    ccc     O1  13825 -0.28650000  16.000000   ; qtot 1.037661
13826         oh    502    ccc     O2  13826 -0.86012500  16.000000   ; qtot 0.177536
13827         oh    502    ccc     O3  13827 -0.83772800  16.000000   ; qtot -0.660192
13828         oh    502    ccc     O4  13828 -0.77449700  16.000000   ; qtot -1.434689
13829         c3    502    ccc     C6  13829 0.37576500  12.010000   ; qtot -1.058924
13830         ho    502    ccc     H6  13830 0.53656000   1.008000   ; qtot -0.522364
13831         ho    502    ccc     H7  13831 0.49492100   1.008000   ; qtot -0.027443
13832         ho    502    ccc     H8  13832 0.51297200   1.008000   ; qtot 0.485529
13833         h1    502    ccc     H9  13833 0.05653400   1.008000   ; qtot 0.542063
13834         h1    502    ccc    H10  13834 0.05653400   1.008000   ; qtot 0.598597
13835         oh    502    ccc     O5  13835 -0.84113600  16.000000   ; qtot -0.242539
13836         ho    502    ccc    H11  13836 0.51201600   1.008000   ; qtot 0.269477
13837         os    502    ccc     O6  13837 -0.26013600  16.000000   ; qtot 0.009341
; residue  503 ccc rtp ccc q 0.0
13838         c3    503    ccc     C1  13838 -0.33178800  12.010000   ; qtot -0.322447
13839         c3    503    ccc     C2  13839 0.30606500  12.010000   ; qtot -0.016382
13840         h1    503    ccc     H1  13840 0.11662300   1.008000   ; qtot 0.100241
13841         h1    503    ccc     H2  13841 0.11526800   1.008000   ; qtot 0.215509
13842         c3    503    ccc     C3  13842 0.15592700  12.010000   ; qtot 0.371436
13843         c3    503    ccc     C4  13843 0.28383300  12.010000   ; qtot 0.655269
13844         c3    503    ccc     C5  13844 0.32403300  12.010000   ; qtot 0.979302
13845         h1    503    ccc     H3  13845 0.13386900   1.008000   ; qtot 1.113171
13846         h1    503    ccc     H4  13846 0.10146700   1.008000   ; qtot 1.214638
13847         h2    503    ccc     H5  13847 0.10960400   1.008000   ; qtot 1.324242
13848         os    503    ccc     O1  13848 -0.28650000  16.000000   ; qtot 1.037742
13849         oh    503    ccc     O2  13849 -0.86012500  16.000000   ; qtot 0.177617
13850         oh    503    ccc     O3  13850 -0.83772800  16.000000   ; qtot -0.660111
13851         oh    503    ccc     O4  13851 -0.77449700  16.000000   ; qtot -1.434608
13852         c3    503    ccc     C6  13852 0.37576500  12.010000   ; qtot -1.058843
13853         ho    503    ccc     H6  13853 0.53656000   1.008000   ; qtot -0.522283
13854         ho    503    ccc     H7  13854 0.49492100   1.008000   ; qtot -0.027362
13855         ho    503    ccc     H8  13855 0.51297200   1.008000   ; qtot 0.485610
13856         h1    503    ccc     H9  13856 0.05653400   1.008000   ; qtot 0.542144
13857         h1    503    ccc    H10  13857 0.05653400   1.008000   ; qtot 0.598678
13858         oh    503    ccc     O5  13858 -0.84113600  16.000000   ; qtot -0.242458
13859         ho    503    ccc    H11  13859 0.51201600   1.008000   ; qtot 0.269558
13860         os    503    ccc     O6  13860 -0.26013600  16.000000   ; qtot 0.009422
; residue  504 ccc rtp ccc q 0.0
13861         c3    504    ccc     C1  13861 -0.33178800  12.010000   ; qtot -0.322366
13862         c3    504    ccc     C2  13862 0.30606500  12.010000   ; qtot -0.016301
13863         h1    504    ccc     H1  13863 0.11662300   1.008000   ; qtot 0.100322
13864         h1    504    ccc     H2  13864 0.11526800   1.008000   ; qtot 0.215590
13865         c3    504    ccc     C3  13865 0.15592700  12.010000   ; qtot 0.371517
13866         c3    504    ccc     C4  13866 0.28383300  12.010000   ; qtot 0.655350
13867         c3    504    ccc     C5  13867 0.32403300  12.010000   ; qtot 0.979383
13868         h1    504    ccc     H3  13868 0.13386900   1.008000   ; qtot 1.113252
13869         h1    504    ccc     H4  13869 0.10146700   1.008000   ; qtot 1.214719
13870         h2    504    ccc     H5  13870 0.10960400   1.008000   ; qtot 1.324323
13871         os    504    ccc     O1  13871 -0.28650000  16.000000   ; qtot 1.037823
13872         oh    504    ccc     O2  13872 -0.86012500  16.000000   ; qtot 0.177698
13873         oh    504    ccc     O3  13873 -0.83772800  16.000000   ; qtot -0.660030
13874         oh    504    ccc     O4  13874 -0.77449700  16.000000   ; qtot -1.434527
13875         c3    504    ccc     C6  13875 0.37576500  12.010000   ; qtot -1.058762
13876         ho    504    ccc     H6  13876 0.53656000   1.008000   ; qtot -0.522202
13877         ho    504    ccc     H7  13877 0.49492100   1.008000   ; qtot -0.027281
13878         ho    504    ccc     H8  13878 0.51297200   1.008000   ; qtot 0.485691
13879         h1    504    ccc     H9  13879 0.05653400   1.008000   ; qtot 0.542225
13880         h1    504    ccc    H10  13880 0.05653400   1.008000   ; qtot 0.598759
13881         oh    504    ccc     O5  13881 -0.84113600  16.000000   ; qtot -0.242377
13882         ho    504    ccc    H11  13882 0.51201600   1.008000   ; qtot 0.269639
13883         os    504    ccc     O6  13883 -0.26013600  16.000000   ; qtot 0.009503
; residue  505 ccc rtp ccc q 0.0
13884         c3    505    ccc     C1  13884 -0.33178800  12.010000   ; qtot -0.322285
13885         c3    505    ccc     C2  13885 0.30606500  12.010000   ; qtot -0.016220
13886         h1    505    ccc     H1  13886 0.11662300   1.008000   ; qtot 0.100403
13887         h1    505    ccc     H2  13887 0.11526800   1.008000   ; qtot 0.215671
13888         c3    505    ccc     C3  13888 0.15592700  12.010000   ; qtot 0.371598
13889         c3    505    ccc     C4  13889 0.28383300  12.010000   ; qtot 0.655431
13890         c3    505    ccc     C5  13890 0.32403300  12.010000   ; qtot 0.979464
13891         h1    505    ccc     H3  13891 0.13386900   1.008000   ; qtot 1.113333
13892         h1    505    ccc     H4  13892 0.10146700   1.008000   ; qtot 1.214800
13893         h2    505    ccc     H5  13893 0.10960400   1.008000   ; qtot 1.324404
13894         os    505    ccc     O1  13894 -0.28650000  16.000000   ; qtot 1.037904
13895         oh    505    ccc     O2  13895 -0.86012500  16.000000   ; qtot 0.177779
13896         oh    505    ccc     O3  13896 -0.83772800  16.000000   ; qtot -0.659949
13897         oh    505    ccc     O4  13897 -0.77449700  16.000000   ; qtot -1.434446
13898         c3    505    ccc     C6  13898 0.37576500  12.010000   ; qtot -1.058681
13899         ho    505    ccc     H6  13899 0.53656000   1.008000   ; qtot -0.522121
13900         ho    505    ccc     H7  13900 0.49492100   1.008000   ; qtot -0.027200
13901         ho    505    ccc     H8  13901 0.51297200   1.008000   ; qtot 0.485772
13902         h1    505    ccc     H9  13902 0.05653400   1.008000   ; qtot 0.542306
13903         h1    505    ccc    H10  13903 0.05653400   1.008000   ; qtot 0.598840
13904         oh    505    ccc     O5  13904 -0.84113600  16.000000   ; qtot -0.242296
13905         ho    505    ccc    H11  13905 0.51201600   1.008000   ; qtot 0.269720
13906         os    505    ccc     O6  13906 -0.26013600  16.000000   ; qtot 0.009584
; residue  506 ccc rtp ccc q 0.0
13907         c3    506    ccc     C1  13907 -0.33178800  12.010000   ; qtot -0.322204
13908         c3    506    ccc     C2  13908 0.30606500  12.010000   ; qtot -0.016139
13909         h1    506    ccc     H1  13909 0.11662300   1.008000   ; qtot 0.100484
13910         h1    506    ccc     H2  13910 0.11526800   1.008000   ; qtot 0.215752
13911         c3    506    ccc     C3  13911 0.15592700  12.010000   ; qtot 0.371679
13912         c3    506    ccc     C4  13912 0.28383300  12.010000   ; qtot 0.655512
13913         c3    506    ccc     C5  13913 0.32403300  12.010000   ; qtot 0.979545
13914         h1    506    ccc     H3  13914 0.13386900   1.008000   ; qtot 1.113414
13915         h1    506    ccc     H4  13915 0.10146700   1.008000   ; qtot 1.214881
13916         h2    506    ccc     H5  13916 0.10960400   1.008000   ; qtot 1.324485
13917         os    506    ccc     O1  13917 -0.28650000  16.000000   ; qtot 1.037985
13918         oh    506    ccc     O2  13918 -0.86012500  16.000000   ; qtot 0.177860
13919         oh    506    ccc     O3  13919 -0.83772800  16.000000   ; qtot -0.659868
13920         oh    506    ccc     O4  13920 -0.77449700  16.000000   ; qtot -1.434365
13921         c3    506    ccc     C6  13921 0.37576500  12.010000   ; qtot -1.058600
13922         ho    506    ccc     H6  13922 0.53656000   1.008000   ; qtot -0.522040
13923         ho    506    ccc     H7  13923 0.49492100   1.008000   ; qtot -0.027119
13924         ho    506    ccc     H8  13924 0.51297200   1.008000   ; qtot 0.485853
13925         h1    506    ccc     H9  13925 0.05653400   1.008000   ; qtot 0.542387
13926         h1    506    ccc    H10  13926 0.05653400   1.008000   ; qtot 0.598921
13927         oh    506    ccc     O5  13927 -0.84113600  16.000000   ; qtot -0.242215
13928         ho    506    ccc    H11  13928 0.51201600   1.008000   ; qtot 0.269801
13929         os    506    ccc     O6  13929 -0.26013600  16.000000   ; qtot 0.009665
; residue  507 ccc rtp ccc q 0.0
13930         c3    507    ccc     C1  13930 -0.33178800  12.010000   ; qtot -0.322123
13931         c3    507    ccc     C2  13931 0.30606500  12.010000   ; qtot -0.016058
13932         h1    507    ccc     H1  13932 0.11662300   1.008000   ; qtot 0.100565
13933         h1    507    ccc     H2  13933 0.11526800   1.008000   ; qtot 0.215833
13934         c3    507    ccc     C3  13934 0.15592700  12.010000   ; qtot 0.371760
13935         c3    507    ccc     C4  13935 0.28383300  12.010000   ; qtot 0.655593
13936         c3    507    ccc     C5  13936 0.32403300  12.010000   ; qtot 0.979626
13937         h1    507    ccc     H3  13937 0.13386900   1.008000   ; qtot 1.113495
13938         h1    507    ccc     H4  13938 0.10146700   1.008000   ; qtot 1.214962
13939         h2    507    ccc     H5  13939 0.10960400   1.008000   ; qtot 1.324566
13940         os    507    ccc     O1  13940 -0.28650000  16.000000   ; qtot 1.038066
13941         oh    507    ccc     O2  13941 -0.86012500  16.000000   ; qtot 0.177941
13942         oh    507    ccc     O3  13942 -0.83772800  16.000000   ; qtot -0.659787
13943         oh    507    ccc     O4  13943 -0.77449700  16.000000   ; qtot -1.434284
13944         c3    507    ccc     C6  13944 0.37576500  12.010000   ; qtot -1.058519
13945         ho    507    ccc     H6  13945 0.53656000   1.008000   ; qtot -0.521959
13946         ho    507    ccc     H7  13946 0.49492100   1.008000   ; qtot -0.027038
13947         ho    507    ccc     H8  13947 0.51297200   1.008000   ; qtot 0.485934
13948         h1    507    ccc     H9  13948 0.05653400   1.008000   ; qtot 0.542468
13949         h1    507    ccc    H10  13949 0.05653400   1.008000   ; qtot 0.599002
13950         oh    507    ccc     O5  13950 -0.84113600  16.000000   ; qtot -0.242134
13951         ho    507    ccc    H11  13951 0.51201600   1.008000   ; qtot 0.269882
13952         os    507    ccc     O6  13952 -0.26013600  16.000000   ; qtot 0.009746
; residue  508 ccc rtp ccc q 0.0
13953         c3    508    ccc     C1  13953 -0.33178800  12.010000   ; qtot -0.322042
13954         c3    508    ccc     C2  13954 0.30606500  12.010000   ; qtot -0.015977
13955         h1    508    ccc     H1  13955 0.11662300   1.008000   ; qtot 0.100646
13956         h1    508    ccc     H2  13956 0.11526800   1.008000   ; qtot 0.215914
13957         c3    508    ccc     C3  13957 0.15592700  12.010000   ; qtot 0.371841
13958         c3    508    ccc     C4  13958 0.28383300  12.010000   ; qtot 0.655674
13959         c3    508    ccc     C5  13959 0.32403300  12.010000   ; qtot 0.979707
13960         h1    508    ccc     H3  13960 0.13386900   1.008000   ; qtot 1.113576
13961         h1    508    ccc     H4  13961 0.10146700   1.008000   ; qtot 1.215043
13962         h2    508    ccc     H5  13962 0.10960400   1.008000   ; qtot 1.324647
13963         os    508    ccc     O1  13963 -0.28650000  16.000000   ; qtot 1.038147
13964         oh    508    ccc     O2  13964 -0.86012500  16.000000   ; qtot 0.178022
13965         oh    508    ccc     O3  13965 -0.83772800  16.000000   ; qtot -0.659706
13966         oh    508    ccc     O4  13966 -0.77449700  16.000000   ; qtot -1.434203
13967         c3    508    ccc     C6  13967 0.37576500  12.010000   ; qtot -1.058438
13968         ho    508    ccc     H6  13968 0.53656000   1.008000   ; qtot -0.521878
13969         ho    508    ccc     H7  13969 0.49492100   1.008000   ; qtot -0.026957
13970         ho    508    ccc     H8  13970 0.51297200   1.008000   ; qtot 0.486015
13971         h1    508    ccc     H9  13971 0.05653400   1.008000   ; qtot 0.542549
13972         h1    508    ccc    H10  13972 0.05653400   1.008000   ; qtot 0.599083
13973         oh    508    ccc     O5  13973 -0.84113600  16.000000   ; qtot -0.242053
13974         ho    508    ccc    H11  13974 0.51201600   1.008000   ; qtot 0.269963
13975         os    508    ccc     O6  13975 -0.26013600  16.000000   ; qtot 0.009827
; residue  509 ccc rtp ccc q 0.0
13976         c3    509    ccc     C1  13976 -0.33178800  12.010000   ; qtot -0.321961
13977         c3    509    ccc     C2  13977 0.30606500  12.010000   ; qtot -0.015896
13978         h1    509    ccc     H1  13978 0.11662300   1.008000   ; qtot 0.100727
13979         h1    509    ccc     H2  13979 0.11526800   1.008000   ; qtot 0.215995
13980         c3    509    ccc     C3  13980 0.15592700  12.010000   ; qtot 0.371922
13981         c3    509    ccc     C4  13981 0.28383300  12.010000   ; qtot 0.655755
13982         c3    509    ccc     C5  13982 0.32403300  12.010000   ; qtot 0.979788
13983         h1    509    ccc     H3  13983 0.13386900   1.008000   ; qtot 1.113657
13984         h1    509    ccc     H4  13984 0.10146700   1.008000   ; qtot 1.215124
13985         h2    509    ccc     H5  13985 0.10960400   1.008000   ; qtot 1.324728
13986         os    509    ccc     O1  13986 -0.28650000  16.000000   ; qtot 1.038228
13987         oh    509    ccc     O2  13987 -0.86012500  16.000000   ; qtot 0.178103
13988         oh    509    ccc     O3  13988 -0.83772800  16.000000   ; qtot -0.659625
13989         oh    509    ccc     O4  13989 -0.77449700  16.000000   ; qtot -1.434122
13990         c3    509    ccc     C6  13990 0.37576500  12.010000   ; qtot -1.058357
13991         ho    509    ccc     H6  13991 0.53656000   1.008000   ; qtot -0.521797
13992         ho    509    ccc     H7  13992 0.49492100   1.008000   ; qtot -0.026876
13993         ho    509    ccc     H8  13993 0.51297200   1.008000   ; qtot 0.486096
13994         h1    509    ccc     H9  13994 0.05653400   1.008000   ; qtot 0.542630
13995         h1    509    ccc    H10  13995 0.05653400   1.008000   ; qtot 0.599164
13996         oh    509    ccc     O5  13996 -0.84113600  16.000000   ; qtot -0.241972
13997         ho    509    ccc    H11  13997 0.51201600   1.008000   ; qtot 0.270044
13998         os    509    ccc     O6  13998 -0.26013600  16.000000   ; qtot 0.009908
; residue  510 ccc rtp ccc q 0.0
13999         c3    510    ccc     C1  13999 -0.33178800  12.010000   ; qtot -0.321880
14000         c3    510    ccc     C2  14000 0.30606500  12.010000   ; qtot -0.015815
14001         h1    510    ccc     H1  14001 0.11662300   1.008000   ; qtot 0.100808
14002         h1    510    ccc     H2  14002 0.11526800   1.008000   ; qtot 0.216076
14003         c3    510    ccc     C3  14003 0.15592700  12.010000   ; qtot 0.372003
14004         c3    510    ccc     C4  14004 0.28383300  12.010000   ; qtot 0.655836
14005         c3    510    ccc     C5  14005 0.32403300  12.010000   ; qtot 0.979869
14006         h1    510    ccc     H3  14006 0.13386900   1.008000   ; qtot 1.113738
14007         h1    510    ccc     H4  14007 0.10146700   1.008000   ; qtot 1.215205
14008         h2    510    ccc     H5  14008 0.10960400   1.008000   ; qtot 1.324809
14009         os    510    ccc     O1  14009 -0.28650000  16.000000   ; qtot 1.038309
14010         oh    510    ccc     O2  14010 -0.86012500  16.000000   ; qtot 0.178184
14011         oh    510    ccc     O3  14011 -0.83772800  16.000000   ; qtot -0.659544
14012         oh    510    ccc     O4  14012 -0.77449700  16.000000   ; qtot -1.434041
14013         c3    510    ccc     C6  14013 0.37576500  12.010000   ; qtot -1.058276
14014         ho    510    ccc     H6  14014 0.53656000   1.008000   ; qtot -0.521716
14015         ho    510    ccc     H7  14015 0.49492100   1.008000   ; qtot -0.026795
14016         ho    510    ccc     H8  14016 0.51297200   1.008000   ; qtot 0.486177
14017         h1    510    ccc     H9  14017 0.05653400   1.008000   ; qtot 0.542711
14018         h1    510    ccc    H10  14018 0.05653400   1.008000   ; qtot 0.599245
14019         oh    510    ccc     O5  14019 -0.84113600  16.000000   ; qtot -0.241891
14020         ho    510    ccc    H11  14020 0.51201600   1.008000   ; qtot 0.270125
14021         os    510    ccc     O6  14021 -0.26013600  16.000000   ; qtot 0.009989
; residue  511 ccc rtp ccc q 0.0
14022         c3    511    ccc     C1  14022 -0.33178800  12.010000   ; qtot -0.321799
14023         c3    511    ccc     C2  14023 0.30606500  12.010000   ; qtot -0.015734
14024         h1    511    ccc     H1  14024 0.11662300   1.008000   ; qtot 0.100889
14025         h1    511    ccc     H2  14025 0.11526800   1.008000   ; qtot 0.216157
14026         c3    511    ccc     C3  14026 0.15592700  12.010000   ; qtot 0.372084
14027         c3    511    ccc     C4  14027 0.28383300  12.010000   ; qtot 0.655917
14028         c3    511    ccc     C5  14028 0.32403300  12.010000   ; qtot 0.979950
14029         h1    511    ccc     H3  14029 0.13386900   1.008000   ; qtot 1.113819
14030         h1    511    ccc     H4  14030 0.10146700   1.008000   ; qtot 1.215286
14031         h2    511    ccc     H5  14031 0.10960400   1.008000   ; qtot 1.324890
14032         os    511    ccc     O1  14032 -0.28650000  16.000000   ; qtot 1.038390
14033         oh    511    ccc     O2  14033 -0.86012500  16.000000   ; qtot 0.178265
14034         oh    511    ccc     O3  14034 -0.83772800  16.000000   ; qtot -0.659463
14035         oh    511    ccc     O4  14035 -0.77449700  16.000000   ; qtot -1.433960
14036         c3    511    ccc     C6  14036 0.37576500  12.010000   ; qtot -1.058195
14037         ho    511    ccc     H6  14037 0.53656000   1.008000   ; qtot -0.521635
14038         ho    511    ccc     H7  14038 0.49492100   1.008000   ; qtot -0.026714
14039         ho    511    ccc     H8  14039 0.51297200   1.008000   ; qtot 0.486258
14040         h1    511    ccc     H9  14040 0.05653400   1.008000   ; qtot 0.542792
14041         h1    511    ccc    H10  14041 0.05653400   1.008000   ; qtot 0.599326
14042         oh    511    ccc     O5  14042 -0.84113600  16.000000   ; qtot -0.241810
14043         ho    511    ccc    H11  14043 0.51201600   1.008000   ; qtot 0.270206
14044         os    511    ccc     O6  14044 -0.26013600  16.000000   ; qtot 0.010070
; residue  512 ccc rtp ccc q 0.0
14045         c3    512    ccc     C1  14045 -0.33178800  12.010000   ; qtot -0.321718
14046         c3    512    ccc     C2  14046 0.30606500  12.010000   ; qtot -0.015653
14047         h1    512    ccc     H1  14047 0.11662300   1.008000   ; qtot 0.100970
14048         h1    512    ccc     H2  14048 0.11526800   1.008000   ; qtot 0.216238
14049         c3    512    ccc     C3  14049 0.15592700  12.010000   ; qtot 0.372165
14050         c3    512    ccc     C4  14050 0.28383300  12.010000   ; qtot 0.655998
14051         c3    512    ccc     C5  14051 0.32403300  12.010000   ; qtot 0.980031
14052         h1    512    ccc     H3  14052 0.13386900   1.008000   ; qtot 1.113900
14053         h1    512    ccc     H4  14053 0.10146700   1.008000   ; qtot 1.215367
14054         h2    512    ccc     H5  14054 0.10960400   1.008000   ; qtot 1.324971
14055         os    512    ccc     O1  14055 -0.28650000  16.000000   ; qtot 1.038471
14056         oh    512    ccc     O2  14056 -0.86012500  16.000000   ; qtot 0.178346
14057         oh    512    ccc     O3  14057 -0.83772800  16.000000   ; qtot -0.659382
14058         oh    512    ccc     O4  14058 -0.77449700  16.000000   ; qtot -1.433879
14059         c3    512    ccc     C6  14059 0.37576500  12.010000   ; qtot -1.058114
14060         ho    512    ccc     H6  14060 0.53656000   1.008000   ; qtot -0.521554
14061         ho    512    ccc     H7  14061 0.49492100   1.008000   ; qtot -0.026633
14062         ho    512    ccc     H8  14062 0.51297200   1.008000   ; qtot 0.486339
14063         h1    512    ccc     H9  14063 0.05653400   1.008000   ; qtot 0.542873
14064         h1    512    ccc    H10  14064 0.05653400   1.008000   ; qtot 0.599407
14065         oh    512    ccc     O5  14065 -0.84113600  16.000000   ; qtot -0.241729
14066         ho    512    ccc    H11  14066 0.51201600   1.008000   ; qtot 0.270287
14067         os    512    ccc     O6  14067 -0.26013600  16.000000   ; qtot 0.010151
; residue  513 ccc rtp ccc q 0.0
14068         c3    513    ccc     C1  14068 -0.33178800  12.010000   ; qtot -0.321637
14069         c3    513    ccc     C2  14069 0.30606500  12.010000   ; qtot -0.015572
14070         h1    513    ccc     H1  14070 0.11662300   1.008000   ; qtot 0.101051
14071         h1    513    ccc     H2  14071 0.11526800   1.008000   ; qtot 0.216319
14072         c3    513    ccc     C3  14072 0.15592700  12.010000   ; qtot 0.372246
14073         c3    513    ccc     C4  14073 0.28383300  12.010000   ; qtot 0.656079
14074         c3    513    ccc     C5  14074 0.32403300  12.010000   ; qtot 0.980112
14075         h1    513    ccc     H3  14075 0.13386900   1.008000   ; qtot 1.113981
14076         h1    513    ccc     H4  14076 0.10146700   1.008000   ; qtot 1.215448
14077         h2    513    ccc     H5  14077 0.10960400   1.008000   ; qtot 1.325052
14078         os    513    ccc     O1  14078 -0.28650000  16.000000   ; qtot 1.038552
14079         oh    513    ccc     O2  14079 -0.86012500  16.000000   ; qtot 0.178427
14080         oh    513    ccc     O3  14080 -0.83772800  16.000000   ; qtot -0.659301
14081         oh    513    ccc     O4  14081 -0.77449700  16.000000   ; qtot -1.433798
14082         c3    513    ccc     C6  14082 0.37576500  12.010000   ; qtot -1.058033
14083         ho    513    ccc     H6  14083 0.53656000   1.008000   ; qtot -0.521473
14084         ho    513    ccc     H7  14084 0.49492100   1.008000   ; qtot -0.026552
14085         ho    513    ccc     H8  14085 0.51297200   1.008000   ; qtot 0.486420
14086         h1    513    ccc     H9  14086 0.05653400   1.008000   ; qtot 0.542954
14087         h1    513    ccc    H10  14087 0.05653400   1.008000   ; qtot 0.599488
14088         oh    513    ccc     O5  14088 -0.84113600  16.000000   ; qtot -0.241648
14089         ho    513    ccc    H11  14089 0.51201600   1.008000   ; qtot 0.270368
14090         os    513    ccc     O6  14090 -0.26013600  16.000000   ; qtot 0.010232
; residue  514 ccc rtp ccc q 0.0
14091         c3    514    ccc     C1  14091 -0.33178800  12.010000   ; qtot -0.321556
14092         c3    514    ccc     C2  14092 0.30606500  12.010000   ; qtot -0.015491
14093         h1    514    ccc     H1  14093 0.11662300   1.008000   ; qtot 0.101132
14094         h1    514    ccc     H2  14094 0.11526800   1.008000   ; qtot 0.216400
14095         c3    514    ccc     C3  14095 0.15592700  12.010000   ; qtot 0.372327
14096         c3    514    ccc     C4  14096 0.28383300  12.010000   ; qtot 0.656160
14097         c3    514    ccc     C5  14097 0.32403300  12.010000   ; qtot 0.980193
14098         h1    514    ccc     H3  14098 0.13386900   1.008000   ; qtot 1.114062
14099         h1    514    ccc     H4  14099 0.10146700   1.008000   ; qtot 1.215529
14100         h2    514    ccc     H5  14100 0.10960400   1.008000   ; qtot 1.325133
14101         os    514    ccc     O1  14101 -0.28650000  16.000000   ; qtot 1.038633
14102         oh    514    ccc     O2  14102 -0.86012500  16.000000   ; qtot 0.178508
14103         oh    514    ccc     O3  14103 -0.83772800  16.000000   ; qtot -0.659220
14104         oh    514    ccc     O4  14104 -0.77449700  16.000000   ; qtot -1.433717
14105         c3    514    ccc     C6  14105 0.37576500  12.010000   ; qtot -1.057952
14106         ho    514    ccc     H6  14106 0.53656000   1.008000   ; qtot -0.521392
14107         ho    514    ccc     H7  14107 0.49492100   1.008000   ; qtot -0.026471
14108         ho    514    ccc     H8  14108 0.51297200   1.008000   ; qtot 0.486501
14109         h1    514    ccc     H9  14109 0.05653400   1.008000   ; qtot 0.543035
14110         h1    514    ccc    H10  14110 0.05653400   1.008000   ; qtot 0.599569
14111         oh    514    ccc     O5  14111 -0.84113600  16.000000   ; qtot -0.241567
14112         ho    514    ccc    H11  14112 0.51201600   1.008000   ; qtot 0.270449
14113         os    514    ccc     O6  14113 -0.26013600  16.000000   ; qtot 0.010313
; residue  515 ccc rtp ccc q 0.0
14114         c3    515    ccc     C1  14114 -0.33178800  12.010000   ; qtot -0.321475
14115         c3    515    ccc     C2  14115 0.30606500  12.010000   ; qtot -0.015410
14116         h1    515    ccc     H1  14116 0.11662300   1.008000   ; qtot 0.101213
14117         h1    515    ccc     H2  14117 0.11526800   1.008000   ; qtot 0.216481
14118         c3    515    ccc     C3  14118 0.15592700  12.010000   ; qtot 0.372408
14119         c3    515    ccc     C4  14119 0.28383300  12.010000   ; qtot 0.656241
14120         c3    515    ccc     C5  14120 0.32403300  12.010000   ; qtot 0.980274
14121         h1    515    ccc     H3  14121 0.13386900   1.008000   ; qtot 1.114143
14122         h1    515    ccc     H4  14122 0.10146700   1.008000   ; qtot 1.215610
14123         h2    515    ccc     H5  14123 0.10960400   1.008000   ; qtot 1.325214
14124         os    515    ccc     O1  14124 -0.28650000  16.000000   ; qtot 1.038714
14125         oh    515    ccc     O2  14125 -0.86012500  16.000000   ; qtot 0.178589
14126         oh    515    ccc     O3  14126 -0.83772800  16.000000   ; qtot -0.659139
14127         oh    515    ccc     O4  14127 -0.77449700  16.000000   ; qtot -1.433636
14128         c3    515    ccc     C6  14128 0.37576500  12.010000   ; qtot -1.057871
14129         ho    515    ccc     H6  14129 0.53656000   1.008000   ; qtot -0.521311
14130         ho    515    ccc     H7  14130 0.49492100   1.008000   ; qtot -0.026390
14131         ho    515    ccc     H8  14131 0.51297200   1.008000   ; qtot 0.486582
14132         h1    515    ccc     H9  14132 0.05653400   1.008000   ; qtot 0.543116
14133         h1    515    ccc    H10  14133 0.05653400   1.008000   ; qtot 0.599650
14134         oh    515    ccc     O5  14134 -0.84113600  16.000000   ; qtot -0.241486
14135         ho    515    ccc    H11  14135 0.51201600   1.008000   ; qtot 0.270530
14136         os    515    ccc     O6  14136 -0.26013600  16.000000   ; qtot 0.010394
; residue  516 ccc rtp ccc q 0.0
14137         c3    516    ccc     C1  14137 -0.33178800  12.010000   ; qtot -0.321394
14138         c3    516    ccc     C2  14138 0.30606500  12.010000   ; qtot -0.015329
14139         h1    516    ccc     H1  14139 0.11662300   1.008000   ; qtot 0.101294
14140         h1    516    ccc     H2  14140 0.11526800   1.008000   ; qtot 0.216562
14141         c3    516    ccc     C3  14141 0.15592700  12.010000   ; qtot 0.372489
14142         c3    516    ccc     C4  14142 0.28383300  12.010000   ; qtot 0.656322
14143         c3    516    ccc     C5  14143 0.32403300  12.010000   ; qtot 0.980355
14144         h1    516    ccc     H3  14144 0.13386900   1.008000   ; qtot 1.114224
14145         h1    516    ccc     H4  14145 0.10146700   1.008000   ; qtot 1.215691
14146         h2    516    ccc     H5  14146 0.10960400   1.008000   ; qtot 1.325295
14147         os    516    ccc     O1  14147 -0.28650000  16.000000   ; qtot 1.038795
14148         oh    516    ccc     O2  14148 -0.86012500  16.000000   ; qtot 0.178670
14149         oh    516    ccc     O3  14149 -0.83772800  16.000000   ; qtot -0.659058
14150         oh    516    ccc     O4  14150 -0.77449700  16.000000   ; qtot -1.433555
14151         c3    516    ccc     C6  14151 0.37576500  12.010000   ; qtot -1.057790
14152         ho    516    ccc     H6  14152 0.53656000   1.008000   ; qtot -0.521230
14153         ho    516    ccc     H7  14153 0.49492100   1.008000   ; qtot -0.026309
14154         ho    516    ccc     H8  14154 0.51297200   1.008000   ; qtot 0.486663
14155         h1    516    ccc     H9  14155 0.05653400   1.008000   ; qtot 0.543197
14156         h1    516    ccc    H10  14156 0.05653400   1.008000   ; qtot 0.599731
14157         oh    516    ccc     O5  14157 -0.84113600  16.000000   ; qtot -0.241405
14158         ho    516    ccc    H11  14158 0.51201600   1.008000   ; qtot 0.270611
14159         os    516    ccc     O6  14159 -0.26013600  16.000000   ; qtot 0.010475
; residue  517 ccc rtp ccc q 0.0
14160         c3    517    ccc     C1  14160 -0.33178800  12.010000   ; qtot -0.321313
14161         c3    517    ccc     C2  14161 0.30606500  12.010000   ; qtot -0.015248
14162         h1    517    ccc     H1  14162 0.11662300   1.008000   ; qtot 0.101375
14163         h1    517    ccc     H2  14163 0.11526800   1.008000   ; qtot 0.216643
14164         c3    517    ccc     C3  14164 0.15592700  12.010000   ; qtot 0.372570
14165         c3    517    ccc     C4  14165 0.28383300  12.010000   ; qtot 0.656403
14166         c3    517    ccc     C5  14166 0.32403300  12.010000   ; qtot 0.980436
14167         h1    517    ccc     H3  14167 0.13386900   1.008000   ; qtot 1.114305
14168         h1    517    ccc     H4  14168 0.10146700   1.008000   ; qtot 1.215772
14169         h2    517    ccc     H5  14169 0.10960400   1.008000   ; qtot 1.325376
14170         os    517    ccc     O1  14170 -0.28650000  16.000000   ; qtot 1.038876
14171         oh    517    ccc     O2  14171 -0.86012500  16.000000   ; qtot 0.178751
14172         oh    517    ccc     O3  14172 -0.83772800  16.000000   ; qtot -0.658977
14173         oh    517    ccc     O4  14173 -0.77449700  16.000000   ; qtot -1.433474
14174         c3    517    ccc     C6  14174 0.37576500  12.010000   ; qtot -1.057709
14175         ho    517    ccc     H6  14175 0.53656000   1.008000   ; qtot -0.521149
14176         ho    517    ccc     H7  14176 0.49492100   1.008000   ; qtot -0.026228
14177         ho    517    ccc     H8  14177 0.51297200   1.008000   ; qtot 0.486744
14178         h1    517    ccc     H9  14178 0.05653400   1.008000   ; qtot 0.543278
14179         h1    517    ccc    H10  14179 0.05653400   1.008000   ; qtot 0.599812
14180         oh    517    ccc     O5  14180 -0.84113600  16.000000   ; qtot -0.241324
14181         ho    517    ccc    H11  14181 0.51201600   1.008000   ; qtot 0.270692
14182         os    517    ccc     O6  14182 -0.26013600  16.000000   ; qtot 0.010556
; residue  518 ccc rtp ccc q 0.0
14183         c3    518    ccc     C1  14183 -0.33178800  12.010000   ; qtot -0.321232
14184         c3    518    ccc     C2  14184 0.30606500  12.010000   ; qtot -0.015167
14185         h1    518    ccc     H1  14185 0.11662300   1.008000   ; qtot 0.101456
14186         h1    518    ccc     H2  14186 0.11526800   1.008000   ; qtot 0.216724
14187         c3    518    ccc     C3  14187 0.15592700  12.010000   ; qtot 0.372651
14188         c3    518    ccc     C4  14188 0.28383300  12.010000   ; qtot 0.656484
14189         c3    518    ccc     C5  14189 0.32403300  12.010000   ; qtot 0.980517
14190         h1    518    ccc     H3  14190 0.13386900   1.008000   ; qtot 1.114386
14191         h1    518    ccc     H4  14191 0.10146700   1.008000   ; qtot 1.215853
14192         h2    518    ccc     H5  14192 0.10960400   1.008000   ; qtot 1.325457
14193         os    518    ccc     O1  14193 -0.28650000  16.000000   ; qtot 1.038957
14194         oh    518    ccc     O2  14194 -0.86012500  16.000000   ; qtot 0.178832
14195         oh    518    ccc     O3  14195 -0.83772800  16.000000   ; qtot -0.658896
14196         oh    518    ccc     O4  14196 -0.77449700  16.000000   ; qtot -1.433393
14197         c3    518    ccc     C6  14197 0.37576500  12.010000   ; qtot -1.057628
14198         ho    518    ccc     H6  14198 0.53656000   1.008000   ; qtot -0.521068
14199         ho    518    ccc     H7  14199 0.49492100   1.008000   ; qtot -0.026147
14200         ho    518    ccc     H8  14200 0.51297200   1.008000   ; qtot 0.486825
14201         h1    518    ccc     H9  14201 0.05653400   1.008000   ; qtot 0.543359
14202         h1    518    ccc    H10  14202 0.05653400   1.008000   ; qtot 0.599893
14203         oh    518    ccc     O5  14203 -0.84113600  16.000000   ; qtot -0.241243
14204         ho    518    ccc    H11  14204 0.51201600   1.008000   ; qtot 0.270773
14205         os    518    ccc     O6  14205 -0.26013600  16.000000   ; qtot 0.010637
; residue  519 ccc rtp ccc q 0.0
14206         c3    519    ccc     C1  14206 -0.33178800  12.010000   ; qtot -0.321151
14207         c3    519    ccc     C2  14207 0.30606500  12.010000   ; qtot -0.015086
14208         h1    519    ccc     H1  14208 0.11662300   1.008000   ; qtot 0.101537
14209         h1    519    ccc     H2  14209 0.11526800   1.008000   ; qtot 0.216805
14210         c3    519    ccc     C3  14210 0.15592700  12.010000   ; qtot 0.372732
14211         c3    519    ccc     C4  14211 0.28383300  12.010000   ; qtot 0.656565
14212         c3    519    ccc     C5  14212 0.32403300  12.010000   ; qtot 0.980598
14213         h1    519    ccc     H3  14213 0.13386900   1.008000   ; qtot 1.114467
14214         h1    519    ccc     H4  14214 0.10146700   1.008000   ; qtot 1.215934
14215         h2    519    ccc     H5  14215 0.10960400   1.008000   ; qtot 1.325538
14216         os    519    ccc     O1  14216 -0.28650000  16.000000   ; qtot 1.039038
14217         oh    519    ccc     O2  14217 -0.86012500  16.000000   ; qtot 0.178913
14218         oh    519    ccc     O3  14218 -0.83772800  16.000000   ; qtot -0.658815
14219         oh    519    ccc     O4  14219 -0.77449700  16.000000   ; qtot -1.433312
14220         c3    519    ccc     C6  14220 0.37576500  12.010000   ; qtot -1.057547
14221         ho    519    ccc     H6  14221 0.53656000   1.008000   ; qtot -0.520987
14222         ho    519    ccc     H7  14222 0.49492100   1.008000   ; qtot -0.026066
14223         ho    519    ccc     H8  14223 0.51297200   1.008000   ; qtot 0.486906
14224         h1    519    ccc     H9  14224 0.05653400   1.008000   ; qtot 0.543440
14225         h1    519    ccc    H10  14225 0.05653400   1.008000   ; qtot 0.599974
14226         oh    519    ccc     O5  14226 -0.84113600  16.000000   ; qtot -0.241162
14227         ho    519    ccc    H11  14227 0.51201600   1.008000   ; qtot 0.270854
14228         os    519    ccc     O6  14228 -0.26013600  16.000000   ; qtot 0.010718
; residue  520 ccc rtp ccc q 0.0
14229         c3    520    ccc     C1  14229 -0.33178800  12.010000   ; qtot -0.321070
14230         c3    520    ccc     C2  14230 0.30606500  12.010000   ; qtot -0.015005
14231         h1    520    ccc     H1  14231 0.11662300   1.008000   ; qtot 0.101618
14232         h1    520    ccc     H2  14232 0.11526800   1.008000   ; qtot 0.216886
14233         c3    520    ccc     C3  14233 0.15592700  12.010000   ; qtot 0.372813
14234         c3    520    ccc     C4  14234 0.28383300  12.010000   ; qtot 0.656646
14235         c3    520    ccc     C5  14235 0.32403300  12.010000   ; qtot 0.980679
14236         h1    520    ccc     H3  14236 0.13386900   1.008000   ; qtot 1.114548
14237         h1    520    ccc     H4  14237 0.10146700   1.008000   ; qtot 1.216015
14238         h2    520    ccc     H5  14238 0.10960400   1.008000   ; qtot 1.325619
14239         os    520    ccc     O1  14239 -0.28650000  16.000000   ; qtot 1.039119
14240         oh    520    ccc     O2  14240 -0.86012500  16.000000   ; qtot 0.178994
14241         oh    520    ccc     O3  14241 -0.83772800  16.000000   ; qtot -0.658734
14242         oh    520    ccc     O4  14242 -0.77449700  16.000000   ; qtot -1.433231
14243         c3    520    ccc     C6  14243 0.37576500  12.010000   ; qtot -1.057466
14244         ho    520    ccc     H6  14244 0.53656000   1.008000   ; qtot -0.520906
14245         ho    520    ccc     H7  14245 0.49492100   1.008000   ; qtot -0.025985
14246         ho    520    ccc     H8  14246 0.51297200   1.008000   ; qtot 0.486987
14247         h1    520    ccc     H9  14247 0.05653400   1.008000   ; qtot 0.543521
14248         h1    520    ccc    H10  14248 0.05653400   1.008000   ; qtot 0.600055
14249         oh    520    ccc     O5  14249 -0.84113600  16.000000   ; qtot -0.241081
14250         ho    520    ccc    H11  14250 0.51201600   1.008000   ; qtot 0.270935
14251         os    520    ccc     O6  14251 -0.26013600  16.000000   ; qtot 0.010799
; residue  521 ccc rtp ccc q 0.0
14252         c3    521    ccc     C1  14252 -0.33178800  12.010000   ; qtot -0.320989
14253         c3    521    ccc     C2  14253 0.30606500  12.010000   ; qtot -0.014924
14254         h1    521    ccc     H1  14254 0.11662300   1.008000   ; qtot 0.101699
14255         h1    521    ccc     H2  14255 0.11526800   1.008000   ; qtot 0.216967
14256         c3    521    ccc     C3  14256 0.15592700  12.010000   ; qtot 0.372894
14257         c3    521    ccc     C4  14257 0.28383300  12.010000   ; qtot 0.656727
14258         c3    521    ccc     C5  14258 0.32403300  12.010000   ; qtot 0.980760
14259         h1    521    ccc     H3  14259 0.13386900   1.008000   ; qtot 1.114629
14260         h1    521    ccc     H4  14260 0.10146700   1.008000   ; qtot 1.216096
14261         h2    521    ccc     H5  14261 0.10960400   1.008000   ; qtot 1.325700
14262         os    521    ccc     O1  14262 -0.28650000  16.000000   ; qtot 1.039200
14263         oh    521    ccc     O2  14263 -0.86012500  16.000000   ; qtot 0.179075
14264         oh    521    ccc     O3  14264 -0.83772800  16.000000   ; qtot -0.658653
14265         oh    521    ccc     O4  14265 -0.77449700  16.000000   ; qtot -1.433150
14266         c3    521    ccc     C6  14266 0.37576500  12.010000   ; qtot -1.057385
14267         ho    521    ccc     H6  14267 0.53656000   1.008000   ; qtot -0.520825
14268         ho    521    ccc     H7  14268 0.49492100   1.008000   ; qtot -0.025904
14269         ho    521    ccc     H8  14269 0.51297200   1.008000   ; qtot 0.487068
14270         h1    521    ccc     H9  14270 0.05653400   1.008000   ; qtot 0.543602
14271         h1    521    ccc    H10  14271 0.05653400   1.008000   ; qtot 0.600136
14272         oh    521    ccc     O5  14272 -0.84113600  16.000000   ; qtot -0.241000
14273         ho    521    ccc    H11  14273 0.51201600   1.008000   ; qtot 0.271016
14274         os    521    ccc     O6  14274 -0.26013600  16.000000   ; qtot 0.010880
; residue  522 ccc rtp ccc q 0.0
14275         c3    522    ccc     C1  14275 -0.33178800  12.010000   ; qtot -0.320908
14276         c3    522    ccc     C2  14276 0.30606500  12.010000   ; qtot -0.014843
14277         h1    522    ccc     H1  14277 0.11662300   1.008000   ; qtot 0.101780
14278         h1    522    ccc     H2  14278 0.11526800   1.008000   ; qtot 0.217048
14279         c3    522    ccc     C3  14279 0.15592700  12.010000   ; qtot 0.372975
14280         c3    522    ccc     C4  14280 0.28383300  12.010000   ; qtot 0.656808
14281         c3    522    ccc     C5  14281 0.32403300  12.010000   ; qtot 0.980841
14282         h1    522    ccc     H3  14282 0.13386900   1.008000   ; qtot 1.114710
14283         h1    522    ccc     H4  14283 0.10146700   1.008000   ; qtot 1.216177
14284         h2    522    ccc     H5  14284 0.10960400   1.008000   ; qtot 1.325781
14285         os    522    ccc     O1  14285 -0.28650000  16.000000   ; qtot 1.039281
14286         oh    522    ccc     O2  14286 -0.86012500  16.000000   ; qtot 0.179156
14287         oh    522    ccc     O3  14287 -0.83772800  16.000000   ; qtot -0.658572
14288         oh    522    ccc     O4  14288 -0.77449700  16.000000   ; qtot -1.433069
14289         c3    522    ccc     C6  14289 0.37576500  12.010000   ; qtot -1.057304
14290         ho    522    ccc     H6  14290 0.53656000   1.008000   ; qtot -0.520744
14291         ho    522    ccc     H7  14291 0.49492100   1.008000   ; qtot -0.025823
14292         ho    522    ccc     H8  14292 0.51297200   1.008000   ; qtot 0.487149
14293         h1    522    ccc     H9  14293 0.05653400   1.008000   ; qtot 0.543683
14294         h1    522    ccc    H10  14294 0.05653400   1.008000   ; qtot 0.600217
14295         oh    522    ccc     O5  14295 -0.84113600  16.000000   ; qtot -0.240919
14296         ho    522    ccc    H11  14296 0.51201600   1.008000   ; qtot 0.271097
14297         os    522    ccc     O6  14297 -0.26013600  16.000000   ; qtot 0.010961
; residue  523 ccc rtp ccc q 0.0
14298         c3    523    ccc     C1  14298 -0.33178800  12.010000   ; qtot -0.320827
14299         c3    523    ccc     C2  14299 0.30606500  12.010000   ; qtot -0.014762
14300         h1    523    ccc     H1  14300 0.11662300   1.008000   ; qtot 0.101861
14301         h1    523    ccc     H2  14301 0.11526800   1.008000   ; qtot 0.217129
14302         c3    523    ccc     C3  14302 0.15592700  12.010000   ; qtot 0.373056
14303         c3    523    ccc     C4  14303 0.28383300  12.010000   ; qtot 0.656889
14304         c3    523    ccc     C5  14304 0.32403300  12.010000   ; qtot 0.980922
14305         h1    523    ccc     H3  14305 0.13386900   1.008000   ; qtot 1.114791
14306         h1    523    ccc     H4  14306 0.10146700   1.008000   ; qtot 1.216258
14307         h2    523    ccc     H5  14307 0.10960400   1.008000   ; qtot 1.325862
14308         os    523    ccc     O1  14308 -0.28650000  16.000000   ; qtot 1.039362
14309         oh    523    ccc     O2  14309 -0.86012500  16.000000   ; qtot 0.179237
14310         oh    523    ccc     O3  14310 -0.83772800  16.000000   ; qtot -0.658491
14311         oh    523    ccc     O4  14311 -0.77449700  16.000000   ; qtot -1.432988
14312         c3    523    ccc     C6  14312 0.37576500  12.010000   ; qtot -1.057223
14313         ho    523    ccc     H6  14313 0.53656000   1.008000   ; qtot -0.520663
14314         ho    523    ccc     H7  14314 0.49492100   1.008000   ; qtot -0.025742
14315         ho    523    ccc     H8  14315 0.51297200   1.008000   ; qtot 0.487230
14316         h1    523    ccc     H9  14316 0.05653400   1.008000   ; qtot 0.543764
14317         h1    523    ccc    H10  14317 0.05653400   1.008000   ; qtot 0.600298
14318         oh    523    ccc     O5  14318 -0.84113600  16.000000   ; qtot -0.240838
14319         ho    523    ccc    H11  14319 0.51201600   1.008000   ; qtot 0.271178
14320         os    523    ccc     O6  14320 -0.26013600  16.000000   ; qtot 0.011042
; residue  524 ccc rtp ccc q 0.0
14321         c3    524    ccc     C1  14321 -0.33178800  12.010000   ; qtot -0.320746
14322         c3    524    ccc     C2  14322 0.30606500  12.010000   ; qtot -0.014681
14323         h1    524    ccc     H1  14323 0.11662300   1.008000   ; qtot 0.101942
14324         h1    524    ccc     H2  14324 0.11526800   1.008000   ; qtot 0.217210
14325         c3    524    ccc     C3  14325 0.15592700  12.010000   ; qtot 0.373137
14326         c3    524    ccc     C4  14326 0.28383300  12.010000   ; qtot 0.656970
14327         c3    524    ccc     C5  14327 0.32403300  12.010000   ; qtot 0.981003
14328         h1    524    ccc     H3  14328 0.13386900   1.008000   ; qtot 1.114872
14329         h1    524    ccc     H4  14329 0.10146700   1.008000   ; qtot 1.216339
14330         h2    524    ccc     H5  14330 0.10960400   1.008000   ; qtot 1.325943
14331         os    524    ccc     O1  14331 -0.28650000  16.000000   ; qtot 1.039443
14332         oh    524    ccc     O2  14332 -0.86012500  16.000000   ; qtot 0.179318
14333         oh    524    ccc     O3  14333 -0.83772800  16.000000   ; qtot -0.658410
14334         oh    524    ccc     O4  14334 -0.77449700  16.000000   ; qtot -1.432907
14335         c3    524    ccc     C6  14335 0.37576500  12.010000   ; qtot -1.057142
14336         ho    524    ccc     H6  14336 0.53656000   1.008000   ; qtot -0.520582
14337         ho    524    ccc     H7  14337 0.49492100   1.008000   ; qtot -0.025661
14338         ho    524    ccc     H8  14338 0.51297200   1.008000   ; qtot 0.487311
14339         h1    524    ccc     H9  14339 0.05653400   1.008000   ; qtot 0.543845
14340         h1    524    ccc    H10  14340 0.05653400   1.008000   ; qtot 0.600379
14341         oh    524    ccc     O5  14341 -0.84113600  16.000000   ; qtot -0.240757
14342         ho    524    ccc    H11  14342 0.51201600   1.008000   ; qtot 0.271259
14343         os    524    ccc     O6  14343 -0.26013600  16.000000   ; qtot 0.011123
; residue  525 ccc rtp ccc q 0.0
14344         c3    525    ccc     C1  14344 -0.33178800  12.010000   ; qtot -0.320665
14345         c3    525    ccc     C2  14345 0.30606500  12.010000   ; qtot -0.014600
14346         h1    525    ccc     H1  14346 0.11662300   1.008000   ; qtot 0.102023
14347         h1    525    ccc     H2  14347 0.11526800   1.008000   ; qtot 0.217291
14348         c3    525    ccc     C3  14348 0.15592700  12.010000   ; qtot 0.373218
14349         c3    525    ccc     C4  14349 0.28383300  12.010000   ; qtot 0.657051
14350         c3    525    ccc     C5  14350 0.32403300  12.010000   ; qtot 0.981084
14351         h1    525    ccc     H3  14351 0.13386900   1.008000   ; qtot 1.114953
14352         h1    525    ccc     H4  14352 0.10146700   1.008000   ; qtot 1.216420
14353         h2    525    ccc     H5  14353 0.10960400   1.008000   ; qtot 1.326024
14354         os    525    ccc     O1  14354 -0.28650000  16.000000   ; qtot 1.039524
14355         oh    525    ccc     O2  14355 -0.86012500  16.000000   ; qtot 0.179399
14356         oh    525    ccc     O3  14356 -0.83772800  16.000000   ; qtot -0.658329
14357         oh    525    ccc     O4  14357 -0.77449700  16.000000   ; qtot -1.432826
14358         c3    525    ccc     C6  14358 0.37576500  12.010000   ; qtot -1.057061
14359         ho    525    ccc     H6  14359 0.53656000   1.008000   ; qtot -0.520501
14360         ho    525    ccc     H7  14360 0.49492100   1.008000   ; qtot -0.025580
14361         ho    525    ccc     H8  14361 0.51297200   1.008000   ; qtot 0.487392
14362         h1    525    ccc     H9  14362 0.05653400   1.008000   ; qtot 0.543926
14363         h1    525    ccc    H10  14363 0.05653400   1.008000   ; qtot 0.600460
14364         oh    525    ccc     O5  14364 -0.84113600  16.000000   ; qtot -0.240676
14365         ho    525    ccc    H11  14365 0.51201600   1.008000   ; qtot 0.271340
14366         os    525    ccc     O6  14366 -0.26013600  16.000000   ; qtot 0.011204
; residue  526 ccc rtp ccc q 0.0
14367         c3    526    ccc     C1  14367 -0.33178800  12.010000   ; qtot -0.320584
14368         c3    526    ccc     C2  14368 0.30606500  12.010000   ; qtot -0.014519
14369         h1    526    ccc     H1  14369 0.11662300   1.008000   ; qtot 0.102104
14370         h1    526    ccc     H2  14370 0.11526800   1.008000   ; qtot 0.217372
14371         c3    526    ccc     C3  14371 0.15592700  12.010000   ; qtot 0.373299
14372         c3    526    ccc     C4  14372 0.28383300  12.010000   ; qtot 0.657132
14373         c3    526    ccc     C5  14373 0.32403300  12.010000   ; qtot 0.981165
14374         h1    526    ccc     H3  14374 0.13386900   1.008000   ; qtot 1.115034
14375         h1    526    ccc     H4  14375 0.10146700   1.008000   ; qtot 1.216501
14376         h2    526    ccc     H5  14376 0.10960400   1.008000   ; qtot 1.326105
14377         os    526    ccc     O1  14377 -0.28650000  16.000000   ; qtot 1.039605
14378         oh    526    ccc     O2  14378 -0.86012500  16.000000   ; qtot 0.179480
14379         oh    526    ccc     O3  14379 -0.83772800  16.000000   ; qtot -0.658248
14380         oh    526    ccc     O4  14380 -0.77449700  16.000000   ; qtot -1.432745
14381         c3    526    ccc     C6  14381 0.37576500  12.010000   ; qtot -1.056980
14382         ho    526    ccc     H6  14382 0.53656000   1.008000   ; qtot -0.520420
14383         ho    526    ccc     H7  14383 0.49492100   1.008000   ; qtot -0.025499
14384         ho    526    ccc     H8  14384 0.51297200   1.008000   ; qtot 0.487473
14385         h1    526    ccc     H9  14385 0.05653400   1.008000   ; qtot 0.544007
14386         h1    526    ccc    H10  14386 0.05653400   1.008000   ; qtot 0.600541
14387         oh    526    ccc     O5  14387 -0.84113600  16.000000   ; qtot -0.240595
14388         ho    526    ccc    H11  14388 0.51201600   1.008000   ; qtot 0.271421
14389         os    526    ccc     O6  14389 -0.26013600  16.000000   ; qtot 0.011285
; residue  527 ccc rtp ccc q 0.0
14390         c3    527    ccc     C1  14390 -0.33178800  12.010000   ; qtot -0.320503
14391         c3    527    ccc     C2  14391 0.30606500  12.010000   ; qtot -0.014438
14392         h1    527    ccc     H1  14392 0.11662300   1.008000   ; qtot 0.102185
14393         h1    527    ccc     H2  14393 0.11526800   1.008000   ; qtot 0.217453
14394         c3    527    ccc     C3  14394 0.15592700  12.010000   ; qtot 0.373380
14395         c3    527    ccc     C4  14395 0.28383300  12.010000   ; qtot 0.657213
14396         c3    527    ccc     C5  14396 0.32403300  12.010000   ; qtot 0.981246
14397         h1    527    ccc     H3  14397 0.13386900   1.008000   ; qtot 1.115115
14398         h1    527    ccc     H4  14398 0.10146700   1.008000   ; qtot 1.216582
14399         h2    527    ccc     H5  14399 0.10960400   1.008000   ; qtot 1.326186
14400         os    527    ccc     O1  14400 -0.28650000  16.000000   ; qtot 1.039686
14401         oh    527    ccc     O2  14401 -0.86012500  16.000000   ; qtot 0.179561
14402         oh    527    ccc     O3  14402 -0.83772800  16.000000   ; qtot -0.658167
14403         oh    527    ccc     O4  14403 -0.77449700  16.000000   ; qtot -1.432664
14404         c3    527    ccc     C6  14404 0.37576500  12.010000   ; qtot -1.056899
14405         ho    527    ccc     H6  14405 0.53656000   1.008000   ; qtot -0.520339
14406         ho    527    ccc     H7  14406 0.49492100   1.008000   ; qtot -0.025418
14407         ho    527    ccc     H8  14407 0.51297200   1.008000   ; qtot 0.487554
14408         h1    527    ccc     H9  14408 0.05653400   1.008000   ; qtot 0.544088
14409         h1    527    ccc    H10  14409 0.05653400   1.008000   ; qtot 0.600622
14410         oh    527    ccc     O5  14410 -0.84113600  16.000000   ; qtot -0.240514
14411         ho    527    ccc    H11  14411 0.51201600   1.008000   ; qtot 0.271502
14412         os    527    ccc     O6  14412 -0.26013600  16.000000   ; qtot 0.011366
; residue  528 ccc rtp ccc q 0.0
14413         c3    528    ccc     C1  14413 -0.33178800  12.010000   ; qtot -0.320422
14414         c3    528    ccc     C2  14414 0.30606500  12.010000   ; qtot -0.014357
14415         h1    528    ccc     H1  14415 0.11662300   1.008000   ; qtot 0.102266
14416         h1    528    ccc     H2  14416 0.11526800   1.008000   ; qtot 0.217534
14417         c3    528    ccc     C3  14417 0.15592700  12.010000   ; qtot 0.373461
14418         c3    528    ccc     C4  14418 0.28383300  12.010000   ; qtot 0.657294
14419         c3    528    ccc     C5  14419 0.32403300  12.010000   ; qtot 0.981327
14420         h1    528    ccc     H3  14420 0.13386900   1.008000   ; qtot 1.115196
14421         h1    528    ccc     H4  14421 0.10146700   1.008000   ; qtot 1.216663
14422         h2    528    ccc     H5  14422 0.10960400   1.008000   ; qtot 1.326267
14423         os    528    ccc     O1  14423 -0.28650000  16.000000   ; qtot 1.039767
14424         oh    528    ccc     O2  14424 -0.86012500  16.000000   ; qtot 0.179642
14425         oh    528    ccc     O3  14425 -0.83772800  16.000000   ; qtot -0.658086
14426         oh    528    ccc     O4  14426 -0.77449700  16.000000   ; qtot -1.432583
14427         c3    528    ccc     C6  14427 0.37576500  12.010000   ; qtot -1.056818
14428         ho    528    ccc     H6  14428 0.53656000   1.008000   ; qtot -0.520258
14429         ho    528    ccc     H7  14429 0.49492100   1.008000   ; qtot -0.025337
14430         ho    528    ccc     H8  14430 0.51297200   1.008000   ; qtot 0.487635
14431         h1    528    ccc     H9  14431 0.05653400   1.008000   ; qtot 0.544169
14432         h1    528    ccc    H10  14432 0.05653400   1.008000   ; qtot 0.600703
14433         oh    528    ccc     O5  14433 -0.84113600  16.000000   ; qtot -0.240433
14434         ho    528    ccc    H11  14434 0.51201600   1.008000   ; qtot 0.271583
14435         os    528    ccc     O6  14435 -0.26013600  16.000000   ; qtot 0.011447
; residue  529 ccc rtp ccc q 0.0
14436         c3    529    ccc     C1  14436 -0.33178800  12.010000   ; qtot -0.320341
14437         c3    529    ccc     C2  14437 0.30606500  12.010000   ; qtot -0.014276
14438         h1    529    ccc     H1  14438 0.11662300   1.008000   ; qtot 0.102347
14439         h1    529    ccc     H2  14439 0.11526800   1.008000   ; qtot 0.217615
14440         c3    529    ccc     C3  14440 0.15592700  12.010000   ; qtot 0.373542
14441         c3    529    ccc     C4  14441 0.28383300  12.010000   ; qtot 0.657375
14442         c3    529    ccc     C5  14442 0.32403300  12.010000   ; qtot 0.981408
14443         h1    529    ccc     H3  14443 0.13386900   1.008000   ; qtot 1.115277
14444         h1    529    ccc     H4  14444 0.10146700   1.008000   ; qtot 1.216744
14445         h2    529    ccc     H5  14445 0.10960400   1.008000   ; qtot 1.326348
14446         os    529    ccc     O1  14446 -0.28650000  16.000000   ; qtot 1.039848
14447         oh    529    ccc     O2  14447 -0.86012500  16.000000   ; qtot 0.179723
14448         oh    529    ccc     O3  14448 -0.83772800  16.000000   ; qtot -0.658005
14449         oh    529    ccc     O4  14449 -0.77449700  16.000000   ; qtot -1.432502
14450         c3    529    ccc     C6  14450 0.37576500  12.010000   ; qtot -1.056737
14451         ho    529    ccc     H6  14451 0.53656000   1.008000   ; qtot -0.520177
14452         ho    529    ccc     H7  14452 0.49492100   1.008000   ; qtot -0.025256
14453         ho    529    ccc     H8  14453 0.51297200   1.008000   ; qtot 0.487716
14454         h1    529    ccc     H9  14454 0.05653400   1.008000   ; qtot 0.544250
14455         h1    529    ccc    H10  14455 0.05653400   1.008000   ; qtot 0.600784
14456         oh    529    ccc     O5  14456 -0.84113600  16.000000   ; qtot -0.240352
14457         ho    529    ccc    H11  14457 0.51201600   1.008000   ; qtot 0.271664
14458         os    529    ccc     O6  14458 -0.26013600  16.000000   ; qtot 0.011528
; residue  530 ccc rtp ccc q 0.0
14459         c3    530    ccc     C1  14459 -0.33178800  12.010000   ; qtot -0.320260
14460         c3    530    ccc     C2  14460 0.30606500  12.010000   ; qtot -0.014195
14461         h1    530    ccc     H1  14461 0.11662300   1.008000   ; qtot 0.102428
14462         h1    530    ccc     H2  14462 0.11526800   1.008000   ; qtot 0.217696
14463         c3    530    ccc     C3  14463 0.15592700  12.010000   ; qtot 0.373623
14464         c3    530    ccc     C4  14464 0.28383300  12.010000   ; qtot 0.657456
14465         c3    530    ccc     C5  14465 0.32403300  12.010000   ; qtot 0.981489
14466         h1    530    ccc     H3  14466 0.13386900   1.008000   ; qtot 1.115358
14467         h1    530    ccc     H4  14467 0.10146700   1.008000   ; qtot 1.216825
14468         h2    530    ccc     H5  14468 0.10960400   1.008000   ; qtot 1.326429
14469         os    530    ccc     O1  14469 -0.28650000  16.000000   ; qtot 1.039929
14470         oh    530    ccc     O2  14470 -0.86012500  16.000000   ; qtot 0.179804
14471         oh    530    ccc     O3  14471 -0.83772800  16.000000   ; qtot -0.657924
14472         oh    530    ccc     O4  14472 -0.77449700  16.000000   ; qtot -1.432421
14473         c3    530    ccc     C6  14473 0.37576500  12.010000   ; qtot -1.056656
14474         ho    530    ccc     H6  14474 0.53656000   1.008000   ; qtot -0.520096
14475         ho    530    ccc     H7  14475 0.49492100   1.008000   ; qtot -0.025175
14476         ho    530    ccc     H8  14476 0.51297200   1.008000   ; qtot 0.487797
14477         h1    530    ccc     H9  14477 0.05653400   1.008000   ; qtot 0.544331
14478         h1    530    ccc    H10  14478 0.05653400   1.008000   ; qtot 0.600865
14479         oh    530    ccc     O5  14479 -0.84113600  16.000000   ; qtot -0.240271
14480         ho    530    ccc    H11  14480 0.51201600   1.008000   ; qtot 0.271745
14481         os    530    ccc     O6  14481 -0.26013600  16.000000   ; qtot 0.011609
; residue  531 ccc rtp ccc q 0.0
14482         c3    531    ccc     C1  14482 -0.33178800  12.010000   ; qtot -0.320179
14483         c3    531    ccc     C2  14483 0.30606500  12.010000   ; qtot -0.014114
14484         h1    531    ccc     H1  14484 0.11662300   1.008000   ; qtot 0.102509
14485         h1    531    ccc     H2  14485 0.11526800   1.008000   ; qtot 0.217777
14486         c3    531    ccc     C3  14486 0.15592700  12.010000   ; qtot 0.373704
14487         c3    531    ccc     C4  14487 0.28383300  12.010000   ; qtot 0.657537
14488         c3    531    ccc     C5  14488 0.32403300  12.010000   ; qtot 0.981570
14489         h1    531    ccc     H3  14489 0.13386900   1.008000   ; qtot 1.115439
14490         h1    531    ccc     H4  14490 0.10146700   1.008000   ; qtot 1.216906
14491         h2    531    ccc     H5  14491 0.10960400   1.008000   ; qtot 1.326510
14492         os    531    ccc     O1  14492 -0.28650000  16.000000   ; qtot 1.040010
14493         oh    531    ccc     O2  14493 -0.86012500  16.000000   ; qtot 0.179885
14494         oh    531    ccc     O3  14494 -0.83772800  16.000000   ; qtot -0.657843
14495         oh    531    ccc     O4  14495 -0.77449700  16.000000   ; qtot -1.432340
14496         c3    531    ccc     C6  14496 0.37576500  12.010000   ; qtot -1.056575
14497         ho    531    ccc     H6  14497 0.53656000   1.008000   ; qtot -0.520015
14498         ho    531    ccc     H7  14498 0.49492100   1.008000   ; qtot -0.025094
14499         ho    531    ccc     H8  14499 0.51297200   1.008000   ; qtot 0.487878
14500         h1    531    ccc     H9  14500 0.05653400   1.008000   ; qtot 0.544412
14501         h1    531    ccc    H10  14501 0.05653400   1.008000   ; qtot 0.600946
14502         oh    531    ccc     O5  14502 -0.84113600  16.000000   ; qtot -0.240190
14503         ho    531    ccc    H11  14503 0.51201600   1.008000   ; qtot 0.271826
14504         os    531    ccc     O6  14504 -0.26013600  16.000000   ; qtot 0.011690
; residue  532 ccc rtp ccc q 0.0
14505         c3    532    ccc     C1  14505 -0.33178800  12.010000   ; qtot -0.320098
14506         c3    532    ccc     C2  14506 0.30606500  12.010000   ; qtot -0.014033
14507         h1    532    ccc     H1  14507 0.11662300   1.008000   ; qtot 0.102590
14508         h1    532    ccc     H2  14508 0.11526800   1.008000   ; qtot 0.217858
14509         c3    532    ccc     C3  14509 0.15592700  12.010000   ; qtot 0.373785
14510         c3    532    ccc     C4  14510 0.28383300  12.010000   ; qtot 0.657618
14511         c3    532    ccc     C5  14511 0.32403300  12.010000   ; qtot 0.981651
14512         h1    532    ccc     H3  14512 0.13386900   1.008000   ; qtot 1.115520
14513         h1    532    ccc     H4  14513 0.10146700   1.008000   ; qtot 1.216987
14514         h2    532    ccc     H5  14514 0.10960400   1.008000   ; qtot 1.326591
14515         os    532    ccc     O1  14515 -0.28650000  16.000000   ; qtot 1.040091
14516         oh    532    ccc     O2  14516 -0.86012500  16.000000   ; qtot 0.179966
14517         oh    532    ccc     O3  14517 -0.83772800  16.000000   ; qtot -0.657762
14518         oh    532    ccc     O4  14518 -0.77449700  16.000000   ; qtot -1.432259
14519         c3    532    ccc     C6  14519 0.37576500  12.010000   ; qtot -1.056494
14520         ho    532    ccc     H6  14520 0.53656000   1.008000   ; qtot -0.519934
14521         ho    532    ccc     H7  14521 0.49492100   1.008000   ; qtot -0.025013
14522         ho    532    ccc     H8  14522 0.51297200   1.008000   ; qtot 0.487959
14523         h1    532    ccc     H9  14523 0.05653400   1.008000   ; qtot 0.544493
14524         h1    532    ccc    H10  14524 0.05653400   1.008000   ; qtot 0.601027
14525         oh    532    ccc     O5  14525 -0.84113600  16.000000   ; qtot -0.240109
14526         ho    532    ccc    H11  14526 0.51201600   1.008000   ; qtot 0.271907
14527         os    532    ccc     O6  14527 -0.26013600  16.000000   ; qtot 0.011771
; residue  533 ccc rtp ccc q 0.0
14528         c3    533    ccc     C1  14528 -0.33178800  12.010000   ; qtot -0.320017
14529         c3    533    ccc     C2  14529 0.30606500  12.010000   ; qtot -0.013952
14530         h1    533    ccc     H1  14530 0.11662300   1.008000   ; qtot 0.102671
14531         h1    533    ccc     H2  14531 0.11526800   1.008000   ; qtot 0.217939
14532         c3    533    ccc     C3  14532 0.15592700  12.010000   ; qtot 0.373866
14533         c3    533    ccc     C4  14533 0.28383300  12.010000   ; qtot 0.657699
14534         c3    533    ccc     C5  14534 0.32403300  12.010000   ; qtot 0.981732
14535         h1    533    ccc     H3  14535 0.13386900   1.008000   ; qtot 1.115601
14536         h1    533    ccc     H4  14536 0.10146700   1.008000   ; qtot 1.217068
14537         h2    533    ccc     H5  14537 0.10960400   1.008000   ; qtot 1.326672
14538         os    533    ccc     O1  14538 -0.28650000  16.000000   ; qtot 1.040172
14539         oh    533    ccc     O2  14539 -0.86012500  16.000000   ; qtot 0.180047
14540         oh    533    ccc     O3  14540 -0.83772800  16.000000   ; qtot -0.657681
14541         oh    533    ccc     O4  14541 -0.77449700  16.000000   ; qtot -1.432178
14542         c3    533    ccc     C6  14542 0.37576500  12.010000   ; qtot -1.056413
14543         ho    533    ccc     H6  14543 0.53656000   1.008000   ; qtot -0.519853
14544         ho    533    ccc     H7  14544 0.49492100   1.008000   ; qtot -0.024932
14545         ho    533    ccc     H8  14545 0.51297200   1.008000   ; qtot 0.488040
14546         h1    533    ccc     H9  14546 0.05653400   1.008000   ; qtot 0.544574
14547         h1    533    ccc    H10  14547 0.05653400   1.008000   ; qtot 0.601108
14548         oh    533    ccc     O5  14548 -0.84113600  16.000000   ; qtot -0.240028
14549         ho    533    ccc    H11  14549 0.51201600   1.008000   ; qtot 0.271988
14550         os    533    ccc     O6  14550 -0.26013600  16.000000   ; qtot 0.011852
; residue  534 ccc rtp ccc q 0.0
14551         c3    534    ccc     C1  14551 -0.33178800  12.010000   ; qtot -0.319936
14552         c3    534    ccc     C2  14552 0.30606500  12.010000   ; qtot -0.013871
14553         h1    534    ccc     H1  14553 0.11662300   1.008000   ; qtot 0.102752
14554         h1    534    ccc     H2  14554 0.11526800   1.008000   ; qtot 0.218020
14555         c3    534    ccc     C3  14555 0.15592700  12.010000   ; qtot 0.373947
14556         c3    534    ccc     C4  14556 0.28383300  12.010000   ; qtot 0.657780
14557         c3    534    ccc     C5  14557 0.32403300  12.010000   ; qtot 0.981813
14558         h1    534    ccc     H3  14558 0.13386900   1.008000   ; qtot 1.115682
14559         h1    534    ccc     H4  14559 0.10146700   1.008000   ; qtot 1.217149
14560         h2    534    ccc     H5  14560 0.10960400   1.008000   ; qtot 1.326753
14561         os    534    ccc     O1  14561 -0.28650000  16.000000   ; qtot 1.040253
14562         oh    534    ccc     O2  14562 -0.86012500  16.000000   ; qtot 0.180128
14563         oh    534    ccc     O3  14563 -0.83772800  16.000000   ; qtot -0.657600
14564         oh    534    ccc     O4  14564 -0.77449700  16.000000   ; qtot -1.432097
14565         c3    534    ccc     C6  14565 0.37576500  12.010000   ; qtot -1.056332
14566         ho    534    ccc     H6  14566 0.53656000   1.008000   ; qtot -0.519772
14567         ho    534    ccc     H7  14567 0.49492100   1.008000   ; qtot -0.024851
14568         ho    534    ccc     H8  14568 0.51297200   1.008000   ; qtot 0.488121
14569         h1    534    ccc     H9  14569 0.05653400   1.008000   ; qtot 0.544655
14570         h1    534    ccc    H10  14570 0.05653400   1.008000   ; qtot 0.601189
14571         oh    534    ccc     O5  14571 -0.84113600  16.000000   ; qtot -0.239947
14572         ho    534    ccc    H11  14572 0.51201600   1.008000   ; qtot 0.272069
14573         os    534    ccc     O6  14573 -0.26013600  16.000000   ; qtot 0.011933
; residue  535 ccc rtp ccc q 0.0
14574         c3    535    ccc     C1  14574 -0.33178800  12.010000   ; qtot -0.319855
14575         c3    535    ccc     C2  14575 0.30606500  12.010000   ; qtot -0.013790
14576         h1    535    ccc     H1  14576 0.11662300   1.008000   ; qtot 0.102833
14577         h1    535    ccc     H2  14577 0.11526800   1.008000   ; qtot 0.218101
14578         c3    535    ccc     C3  14578 0.15592700  12.010000   ; qtot 0.374028
14579         c3    535    ccc     C4  14579 0.28383300  12.010000   ; qtot 0.657861
14580         c3    535    ccc     C5  14580 0.32403300  12.010000   ; qtot 0.981894
14581         h1    535    ccc     H3  14581 0.13386900   1.008000   ; qtot 1.115763
14582         h1    535    ccc     H4  14582 0.10146700   1.008000   ; qtot 1.217230
14583         h2    535    ccc     H5  14583 0.10960400   1.008000   ; qtot 1.326834
14584         os    535    ccc     O1  14584 -0.28650000  16.000000   ; qtot 1.040334
14585         oh    535    ccc     O2  14585 -0.86012500  16.000000   ; qtot 0.180209
14586         oh    535    ccc     O3  14586 -0.83772800  16.000000   ; qtot -0.657519
14587         oh    535    ccc     O4  14587 -0.77449700  16.000000   ; qtot -1.432016
14588         c3    535    ccc     C6  14588 0.37576500  12.010000   ; qtot -1.056251
14589         ho    535    ccc     H6  14589 0.53656000   1.008000   ; qtot -0.519691
14590         ho    535    ccc     H7  14590 0.49492100   1.008000   ; qtot -0.024770
14591         ho    535    ccc     H8  14591 0.51297200   1.008000   ; qtot 0.488202
14592         h1    535    ccc     H9  14592 0.05653400   1.008000   ; qtot 0.544736
14593         h1    535    ccc    H10  14593 0.05653400   1.008000   ; qtot 0.601270
14594         oh    535    ccc     O5  14594 -0.84113600  16.000000   ; qtot -0.239866
14595         ho    535    ccc    H11  14595 0.51201600   1.008000   ; qtot 0.272150
14596         os    535    ccc     O6  14596 -0.26013600  16.000000   ; qtot 0.012014
; residue  536 ccc rtp ccc q 0.0
14597         c3    536    ccc     C1  14597 -0.33178800  12.010000   ; qtot -0.319774
14598         c3    536    ccc     C2  14598 0.30606500  12.010000   ; qtot -0.013709
14599         h1    536    ccc     H1  14599 0.11662300   1.008000   ; qtot 0.102914
14600         h1    536    ccc     H2  14600 0.11526800   1.008000   ; qtot 0.218182
14601         c3    536    ccc     C3  14601 0.15592700  12.010000   ; qtot 0.374109
14602         c3    536    ccc     C4  14602 0.28383300  12.010000   ; qtot 0.657942
14603         c3    536    ccc     C5  14603 0.32403300  12.010000   ; qtot 0.981975
14604         h1    536    ccc     H3  14604 0.13386900   1.008000   ; qtot 1.115844
14605         h1    536    ccc     H4  14605 0.10146700   1.008000   ; qtot 1.217311
14606         h2    536    ccc     H5  14606 0.10960400   1.008000   ; qtot 1.326915
14607         os    536    ccc     O1  14607 -0.28650000  16.000000   ; qtot 1.040415
14608         oh    536    ccc     O2  14608 -0.86012500  16.000000   ; qtot 0.180290
14609         oh    536    ccc     O3  14609 -0.83772800  16.000000   ; qtot -0.657438
14610         oh    536    ccc     O4  14610 -0.77449700  16.000000   ; qtot -1.431935
14611         c3    536    ccc     C6  14611 0.37576500  12.010000   ; qtot -1.056170
14612         ho    536    ccc     H6  14612 0.53656000   1.008000   ; qtot -0.519610
14613         ho    536    ccc     H7  14613 0.49492100   1.008000   ; qtot -0.024689
14614         ho    536    ccc     H8  14614 0.51297200   1.008000   ; qtot 0.488283
14615         h1    536    ccc     H9  14615 0.05653400   1.008000   ; qtot 0.544817
14616         h1    536    ccc    H10  14616 0.05653400   1.008000   ; qtot 0.601351
14617         oh    536    ccc     O5  14617 -0.84113600  16.000000   ; qtot -0.239785
14618         ho    536    ccc    H11  14618 0.51201600   1.008000   ; qtot 0.272231
14619         os    536    ccc     O6  14619 -0.26013600  16.000000   ; qtot 0.012095
; residue  537 ccc rtp ccc q 0.0
14620         c3    537    ccc     C1  14620 -0.33178800  12.010000   ; qtot -0.319693
14621         c3    537    ccc     C2  14621 0.30606500  12.010000   ; qtot -0.013628
14622         h1    537    ccc     H1  14622 0.11662300   1.008000   ; qtot 0.102995
14623         h1    537    ccc     H2  14623 0.11526800   1.008000   ; qtot 0.218263
14624         c3    537    ccc     C3  14624 0.15592700  12.010000   ; qtot 0.374190
14625         c3    537    ccc     C4  14625 0.28383300  12.010000   ; qtot 0.658023
14626         c3    537    ccc     C5  14626 0.32403300  12.010000   ; qtot 0.982056
14627         h1    537    ccc     H3  14627 0.13386900   1.008000   ; qtot 1.115925
14628         h1    537    ccc     H4  14628 0.10146700   1.008000   ; qtot 1.217392
14629         h2    537    ccc     H5  14629 0.10960400   1.008000   ; qtot 1.326996
14630         os    537    ccc     O1  14630 -0.28650000  16.000000   ; qtot 1.040496
14631         oh    537    ccc     O2  14631 -0.86012500  16.000000   ; qtot 0.180371
14632         oh    537    ccc     O3  14632 -0.83772800  16.000000   ; qtot -0.657357
14633         oh    537    ccc     O4  14633 -0.77449700  16.000000   ; qtot -1.431854
14634         c3    537    ccc     C6  14634 0.37576500  12.010000   ; qtot -1.056089
14635         ho    537    ccc     H6  14635 0.53656000   1.008000   ; qtot -0.519529
14636         ho    537    ccc     H7  14636 0.49492100   1.008000   ; qtot -0.024608
14637         ho    537    ccc     H8  14637 0.51297200   1.008000   ; qtot 0.488364
14638         h1    537    ccc     H9  14638 0.05653400   1.008000   ; qtot 0.544898
14639         h1    537    ccc    H10  14639 0.05653400   1.008000   ; qtot 0.601432
14640         oh    537    ccc     O5  14640 -0.84113600  16.000000   ; qtot -0.239704
14641         ho    537    ccc    H11  14641 0.51201600   1.008000   ; qtot 0.272312
14642         os    537    ccc     O6  14642 -0.26013600  16.000000   ; qtot 0.012176
; residue  538 ccc rtp ccc q 0.0
14643         c3    538    ccc     C1  14643 -0.33178800  12.010000   ; qtot -0.319612
14644         c3    538    ccc     C2  14644 0.30606500  12.010000   ; qtot -0.013547
14645         h1    538    ccc     H1  14645 0.11662300   1.008000   ; qtot 0.103076
14646         h1    538    ccc     H2  14646 0.11526800   1.008000   ; qtot 0.218344
14647         c3    538    ccc     C3  14647 0.15592700  12.010000   ; qtot 0.374271
14648         c3    538    ccc     C4  14648 0.28383300  12.010000   ; qtot 0.658104
14649         c3    538    ccc     C5  14649 0.32403300  12.010000   ; qtot 0.982137
14650         h1    538    ccc     H3  14650 0.13386900   1.008000   ; qtot 1.116006
14651         h1    538    ccc     H4  14651 0.10146700   1.008000   ; qtot 1.217473
14652         h2    538    ccc     H5  14652 0.10960400   1.008000   ; qtot 1.327077
14653         os    538    ccc     O1  14653 -0.28650000  16.000000   ; qtot 1.040577
14654         oh    538    ccc     O2  14654 -0.86012500  16.000000   ; qtot 0.180452
14655         oh    538    ccc     O3  14655 -0.83772800  16.000000   ; qtot -0.657276
14656         oh    538    ccc     O4  14656 -0.77449700  16.000000   ; qtot -1.431773
14657         c3    538    ccc     C6  14657 0.37576500  12.010000   ; qtot -1.056008
14658         ho    538    ccc     H6  14658 0.53656000   1.008000   ; qtot -0.519448
14659         ho    538    ccc     H7  14659 0.49492100   1.008000   ; qtot -0.024527
14660         ho    538    ccc     H8  14660 0.51297200   1.008000   ; qtot 0.488445
14661         h1    538    ccc     H9  14661 0.05653400   1.008000   ; qtot 0.544979
14662         h1    538    ccc    H10  14662 0.05653400   1.008000   ; qtot 0.601513
14663         oh    538    ccc     O5  14663 -0.84113600  16.000000   ; qtot -0.239623
14664         ho    538    ccc    H11  14664 0.51201600   1.008000   ; qtot 0.272393
14665         os    538    ccc     O6  14665 -0.26013600  16.000000   ; qtot 0.012257
; residue  539 ccc rtp ccc q 0.0
14666         c3    539    ccc     C1  14666 -0.33178800  12.010000   ; qtot -0.319531
14667         c3    539    ccc     C2  14667 0.30606500  12.010000   ; qtot -0.013466
14668         h1    539    ccc     H1  14668 0.11662300   1.008000   ; qtot 0.103157
14669         h1    539    ccc     H2  14669 0.11526800   1.008000   ; qtot 0.218425
14670         c3    539    ccc     C3  14670 0.15592700  12.010000   ; qtot 0.374352
14671         c3    539    ccc     C4  14671 0.28383300  12.010000   ; qtot 0.658185
14672         c3    539    ccc     C5  14672 0.32403300  12.010000   ; qtot 0.982218
14673         h1    539    ccc     H3  14673 0.13386900   1.008000   ; qtot 1.116087
14674         h1    539    ccc     H4  14674 0.10146700   1.008000   ; qtot 1.217554
14675         h2    539    ccc     H5  14675 0.10960400   1.008000   ; qtot 1.327158
14676         os    539    ccc     O1  14676 -0.28650000  16.000000   ; qtot 1.040658
14677         oh    539    ccc     O2  14677 -0.86012500  16.000000   ; qtot 0.180533
14678         oh    539    ccc     O3  14678 -0.83772800  16.000000   ; qtot -0.657195
14679         oh    539    ccc     O4  14679 -0.77449700  16.000000   ; qtot -1.431692
14680         c3    539    ccc     C6  14680 0.37576500  12.010000   ; qtot -1.055927
14681         ho    539    ccc     H6  14681 0.53656000   1.008000   ; qtot -0.519367
14682         ho    539    ccc     H7  14682 0.49492100   1.008000   ; qtot -0.024446
14683         ho    539    ccc     H8  14683 0.51297200   1.008000   ; qtot 0.488526
14684         h1    539    ccc     H9  14684 0.05653400   1.008000   ; qtot 0.545060
14685         h1    539    ccc    H10  14685 0.05653400   1.008000   ; qtot 0.601594
14686         oh    539    ccc     O5  14686 -0.84113600  16.000000   ; qtot -0.239542
14687         ho    539    ccc    H11  14687 0.51201600   1.008000   ; qtot 0.272474
14688         os    539    ccc     O6  14688 -0.26013600  16.000000   ; qtot 0.012338
; residue  540 ccc rtp ccc q 0.0
14689         c3    540    ccc     C1  14689 -0.33178800  12.010000   ; qtot -0.319450
14690         c3    540    ccc     C2  14690 0.30606500  12.010000   ; qtot -0.013385
14691         h1    540    ccc     H1  14691 0.11662300   1.008000   ; qtot 0.103238
14692         h1    540    ccc     H2  14692 0.11526800   1.008000   ; qtot 0.218506
14693         c3    540    ccc     C3  14693 0.15592700  12.010000   ; qtot 0.374433
14694         c3    540    ccc     C4  14694 0.28383300  12.010000   ; qtot 0.658266
14695         c3    540    ccc     C5  14695 0.32403300  12.010000   ; qtot 0.982299
14696         h1    540    ccc     H3  14696 0.13386900   1.008000   ; qtot 1.116168
14697         h1    540    ccc     H4  14697 0.10146700   1.008000   ; qtot 1.217635
14698         h2    540    ccc     H5  14698 0.10960400   1.008000   ; qtot 1.327239
14699         os    540    ccc     O1  14699 -0.28650000  16.000000   ; qtot 1.040739
14700         oh    540    ccc     O2  14700 -0.86012500  16.000000   ; qtot 0.180614
14701         oh    540    ccc     O3  14701 -0.83772800  16.000000   ; qtot -0.657114
14702         oh    540    ccc     O4  14702 -0.77449700  16.000000   ; qtot -1.431611
14703         c3    540    ccc     C6  14703 0.37576500  12.010000   ; qtot -1.055846
14704         ho    540    ccc     H6  14704 0.53656000   1.008000   ; qtot -0.519286
14705         ho    540    ccc     H7  14705 0.49492100   1.008000   ; qtot -0.024365
14706         ho    540    ccc     H8  14706 0.51297200   1.008000   ; qtot 0.488607
14707         h1    540    ccc     H9  14707 0.05653400   1.008000   ; qtot 0.545141
14708         h1    540    ccc    H10  14708 0.05653400   1.008000   ; qtot 0.601675
14709         oh    540    ccc     O5  14709 -0.84113600  16.000000   ; qtot -0.239461
14710         ho    540    ccc    H11  14710 0.51201600   1.008000   ; qtot 0.272555
14711         os    540    ccc     O6  14711 -0.26013600  16.000000   ; qtot 0.012419
; residue  541 ccc rtp ccc q 0.0
14712         c3    541    ccc     C1  14712 -0.33178800  12.010000   ; qtot -0.319369
14713         c3    541    ccc     C2  14713 0.30606500  12.010000   ; qtot -0.013304
14714         h1    541    ccc     H1  14714 0.11662300   1.008000   ; qtot 0.103319
14715         h1    541    ccc     H2  14715 0.11526800   1.008000   ; qtot 0.218587
14716         c3    541    ccc     C3  14716 0.15592700  12.010000   ; qtot 0.374514
14717         c3    541    ccc     C4  14717 0.28383300  12.010000   ; qtot 0.658347
14718         c3    541    ccc     C5  14718 0.32403300  12.010000   ; qtot 0.982380
14719         h1    541    ccc     H3  14719 0.13386900   1.008000   ; qtot 1.116249
14720         h1    541    ccc     H4  14720 0.10146700   1.008000   ; qtot 1.217716
14721         h2    541    ccc     H5  14721 0.10960400   1.008000   ; qtot 1.327320
14722         os    541    ccc     O1  14722 -0.28650000  16.000000   ; qtot 1.040820
14723         oh    541    ccc     O2  14723 -0.86012500  16.000000   ; qtot 0.180695
14724         oh    541    ccc     O3  14724 -0.83772800  16.000000   ; qtot -0.657033
14725         oh    541    ccc     O4  14725 -0.77449700  16.000000   ; qtot -1.431530
14726         c3    541    ccc     C6  14726 0.37576500  12.010000   ; qtot -1.055765
14727         ho    541    ccc     H6  14727 0.53656000   1.008000   ; qtot -0.519205
14728         ho    541    ccc     H7  14728 0.49492100   1.008000   ; qtot -0.024284
14729         ho    541    ccc     H8  14729 0.51297200   1.008000   ; qtot 0.488688
14730         h1    541    ccc     H9  14730 0.05653400   1.008000   ; qtot 0.545222
14731         h1    541    ccc    H10  14731 0.05653400   1.008000   ; qtot 0.601756
14732         oh    541    ccc     O5  14732 -0.84113600  16.000000   ; qtot -0.239380
14733         ho    541    ccc    H11  14733 0.51201600   1.008000   ; qtot 0.272636
14734         os    541    ccc     O6  14734 -0.26013600  16.000000   ; qtot 0.012500
; residue  542 ccc rtp ccc q 0.0
14735         c3    542    ccc     C1  14735 -0.33178800  12.010000   ; qtot -0.319288
14736         c3    542    ccc     C2  14736 0.30606500  12.010000   ; qtot -0.013223
14737         h1    542    ccc     H1  14737 0.11662300   1.008000   ; qtot 0.103400
14738         h1    542    ccc     H2  14738 0.11526800   1.008000   ; qtot 0.218668
14739         c3    542    ccc     C3  14739 0.15592700  12.010000   ; qtot 0.374595
14740         c3    542    ccc     C4  14740 0.28383300  12.010000   ; qtot 0.658428
14741         c3    542    ccc     C5  14741 0.32403300  12.010000   ; qtot 0.982461
14742         h1    542    ccc     H3  14742 0.13386900   1.008000   ; qtot 1.116330
14743         h1    542    ccc     H4  14743 0.10146700   1.008000   ; qtot 1.217797
14744         h2    542    ccc     H5  14744 0.10960400   1.008000   ; qtot 1.327401
14745         os    542    ccc     O1  14745 -0.28650000  16.000000   ; qtot 1.040901
14746         oh    542    ccc     O2  14746 -0.86012500  16.000000   ; qtot 0.180776
14747         oh    542    ccc     O3  14747 -0.83772800  16.000000   ; qtot -0.656952
14748         oh    542    ccc     O4  14748 -0.77449700  16.000000   ; qtot -1.431449
14749         c3    542    ccc     C6  14749 0.37576500  12.010000   ; qtot -1.055684
14750         ho    542    ccc     H6  14750 0.53656000   1.008000   ; qtot -0.519124
14751         ho    542    ccc     H7  14751 0.49492100   1.008000   ; qtot -0.024203
14752         ho    542    ccc     H8  14752 0.51297200   1.008000   ; qtot 0.488769
14753         h1    542    ccc     H9  14753 0.05653400   1.008000   ; qtot 0.545303
14754         h1    542    ccc    H10  14754 0.05653400   1.008000   ; qtot 0.601837
14755         oh    542    ccc     O5  14755 -0.84113600  16.000000   ; qtot -0.239299
14756         ho    542    ccc    H11  14756 0.51201600   1.008000   ; qtot 0.272717
14757         os    542    ccc     O6  14757 -0.26013600  16.000000   ; qtot 0.012581
; residue  543 ccc rtp ccc q 0.0
14758         c3    543    ccc     C1  14758 -0.33178800  12.010000   ; qtot -0.319207
14759         c3    543    ccc     C2  14759 0.30606500  12.010000   ; qtot -0.013142
14760         h1    543    ccc     H1  14760 0.11662300   1.008000   ; qtot 0.103481
14761         h1    543    ccc     H2  14761 0.11526800   1.008000   ; qtot 0.218749
14762         c3    543    ccc     C3  14762 0.15592700  12.010000   ; qtot 0.374676
14763         c3    543    ccc     C4  14763 0.28383300  12.010000   ; qtot 0.658509
14764         c3    543    ccc     C5  14764 0.32403300  12.010000   ; qtot 0.982542
14765         h1    543    ccc     H3  14765 0.13386900   1.008000   ; qtot 1.116411
14766         h1    543    ccc     H4  14766 0.10146700   1.008000   ; qtot 1.217878
14767         h2    543    ccc     H5  14767 0.10960400   1.008000   ; qtot 1.327482
14768         os    543    ccc     O1  14768 -0.28650000  16.000000   ; qtot 1.040982
14769         oh    543    ccc     O2  14769 -0.86012500  16.000000   ; qtot 0.180857
14770         oh    543    ccc     O3  14770 -0.83772800  16.000000   ; qtot -0.656871
14771         oh    543    ccc     O4  14771 -0.77449700  16.000000   ; qtot -1.431368
14772         c3    543    ccc     C6  14772 0.37576500  12.010000   ; qtot -1.055603
14773         ho    543    ccc     H6  14773 0.53656000   1.008000   ; qtot -0.519043
14774         ho    543    ccc     H7  14774 0.49492100   1.008000   ; qtot -0.024122
14775         ho    543    ccc     H8  14775 0.51297200   1.008000   ; qtot 0.488850
14776         h1    543    ccc     H9  14776 0.05653400   1.008000   ; qtot 0.545384
14777         h1    543    ccc    H10  14777 0.05653400   1.008000   ; qtot 0.601918
14778         oh    543    ccc     O5  14778 -0.84113600  16.000000   ; qtot -0.239218
14779         ho    543    ccc    H11  14779 0.51201600   1.008000   ; qtot 0.272798
14780         os    543    ccc     O6  14780 -0.26013600  16.000000   ; qtot 0.012662
; residue  544 ccc rtp ccc q 0.0
14781         c3    544    ccc     C1  14781 -0.33178800  12.010000   ; qtot -0.319126
14782         c3    544    ccc     C2  14782 0.30606500  12.010000   ; qtot -0.013061
14783         h1    544    ccc     H1  14783 0.11662300   1.008000   ; qtot 0.103562
14784         h1    544    ccc     H2  14784 0.11526800   1.008000   ; qtot 0.218830
14785         c3    544    ccc     C3  14785 0.15592700  12.010000   ; qtot 0.374757
14786         c3    544    ccc     C4  14786 0.28383300  12.010000   ; qtot 0.658590
14787         c3    544    ccc     C5  14787 0.32403300  12.010000   ; qtot 0.982623
14788         h1    544    ccc     H3  14788 0.13386900   1.008000   ; qtot 1.116492
14789         h1    544    ccc     H4  14789 0.10146700   1.008000   ; qtot 1.217959
14790         h2    544    ccc     H5  14790 0.10960400   1.008000   ; qtot 1.327563
14791         os    544    ccc     O1  14791 -0.28650000  16.000000   ; qtot 1.041063
14792         oh    544    ccc     O2  14792 -0.86012500  16.000000   ; qtot 0.180938
14793         oh    544    ccc     O3  14793 -0.83772800  16.000000   ; qtot -0.656790
14794         oh    544    ccc     O4  14794 -0.77449700  16.000000   ; qtot -1.431287
14795         c3    544    ccc     C6  14795 0.37576500  12.010000   ; qtot -1.055522
14796         ho    544    ccc     H6  14796 0.53656000   1.008000   ; qtot -0.518962
14797         ho    544    ccc     H7  14797 0.49492100   1.008000   ; qtot -0.024041
14798         ho    544    ccc     H8  14798 0.51297200   1.008000   ; qtot 0.488931
14799         h1    544    ccc     H9  14799 0.05653400   1.008000   ; qtot 0.545465
14800         h1    544    ccc    H10  14800 0.05653400   1.008000   ; qtot 0.601999
14801         oh    544    ccc     O5  14801 -0.84113600  16.000000   ; qtot -0.239137
14802         ho    544    ccc    H11  14802 0.51201600   1.008000   ; qtot 0.272879
14803         os    544    ccc     O6  14803 -0.26013600  16.000000   ; qtot 0.012743
; residue  545 ccc rtp ccc q 0.0
14804         c3    545    ccc     C1  14804 -0.33178800  12.010000   ; qtot -0.319045
14805         c3    545    ccc     C2  14805 0.30606500  12.010000   ; qtot -0.012980
14806         h1    545    ccc     H1  14806 0.11662300   1.008000   ; qtot 0.103643
14807         h1    545    ccc     H2  14807 0.11526800   1.008000   ; qtot 0.218911
14808         c3    545    ccc     C3  14808 0.15592700  12.010000   ; qtot 0.374838
14809         c3    545    ccc     C4  14809 0.28383300  12.010000   ; qtot 0.658671
14810         c3    545    ccc     C5  14810 0.32403300  12.010000   ; qtot 0.982704
14811         h1    545    ccc     H3  14811 0.13386900   1.008000   ; qtot 1.116573
14812         h1    545    ccc     H4  14812 0.10146700   1.008000   ; qtot 1.218040
14813         h2    545    ccc     H5  14813 0.10960400   1.008000   ; qtot 1.327644
14814         os    545    ccc     O1  14814 -0.28650000  16.000000   ; qtot 1.041144
14815         oh    545    ccc     O2  14815 -0.86012500  16.000000   ; qtot 0.181019
14816         oh    545    ccc     O3  14816 -0.83772800  16.000000   ; qtot -0.656709
14817         oh    545    ccc     O4  14817 -0.77449700  16.000000   ; qtot -1.431206
14818         c3    545    ccc     C6  14818 0.37576500  12.010000   ; qtot -1.055441
14819         ho    545    ccc     H6  14819 0.53656000   1.008000   ; qtot -0.518881
14820         ho    545    ccc     H7  14820 0.49492100   1.008000   ; qtot -0.023960
14821         ho    545    ccc     H8  14821 0.51297200   1.008000   ; qtot 0.489012
14822         h1    545    ccc     H9  14822 0.05653400   1.008000   ; qtot 0.545546
14823         h1    545    ccc    H10  14823 0.05653400   1.008000   ; qtot 0.602080
14824         oh    545    ccc     O5  14824 -0.84113600  16.000000   ; qtot -0.239056
14825         ho    545    ccc    H11  14825 0.51201600   1.008000   ; qtot 0.272960
14826         os    545    ccc     O6  14826 -0.26013600  16.000000   ; qtot 0.012824
; residue  546 ccc rtp ccc q 0.0
14827         c3    546    ccc     C1  14827 -0.33178800  12.010000   ; qtot -0.318964
14828         c3    546    ccc     C2  14828 0.30606500  12.010000   ; qtot -0.012899
14829         h1    546    ccc     H1  14829 0.11662300   1.008000   ; qtot 0.103724
14830         h1    546    ccc     H2  14830 0.11526800   1.008000   ; qtot 0.218992
14831         c3    546    ccc     C3  14831 0.15592700  12.010000   ; qtot 0.374919
14832         c3    546    ccc     C4  14832 0.28383300  12.010000   ; qtot 0.658752
14833         c3    546    ccc     C5  14833 0.32403300  12.010000   ; qtot 0.982785
14834         h1    546    ccc     H3  14834 0.13386900   1.008000   ; qtot 1.116654
14835         h1    546    ccc     H4  14835 0.10146700   1.008000   ; qtot 1.218121
14836         h2    546    ccc     H5  14836 0.10960400   1.008000   ; qtot 1.327725
14837         os    546    ccc     O1  14837 -0.28650000  16.000000   ; qtot 1.041225
14838         oh    546    ccc     O2  14838 -0.86012500  16.000000   ; qtot 0.181100
14839         oh    546    ccc     O3  14839 -0.83772800  16.000000   ; qtot -0.656628
14840         oh    546    ccc     O4  14840 -0.77449700  16.000000   ; qtot -1.431125
14841         c3    546    ccc     C6  14841 0.37576500  12.010000   ; qtot -1.055360
14842         ho    546    ccc     H6  14842 0.53656000   1.008000   ; qtot -0.518800
14843         ho    546    ccc     H7  14843 0.49492100   1.008000   ; qtot -0.023879
14844         ho    546    ccc     H8  14844 0.51297200   1.008000   ; qtot 0.489093
14845         h1    546    ccc     H9  14845 0.05653400   1.008000   ; qtot 0.545627
14846         h1    546    ccc    H10  14846 0.05653400   1.008000   ; qtot 0.602161
14847         oh    546    ccc     O5  14847 -0.84113600  16.000000   ; qtot -0.238975
14848         ho    546    ccc    H11  14848 0.51201600   1.008000   ; qtot 0.273041
14849         os    546    ccc     O6  14849 -0.26013600  16.000000   ; qtot 0.012905
; residue  547 ccc rtp ccc q 0.0
14850         c3    547    ccc     C1  14850 -0.33178800  12.010000   ; qtot -0.318883
14851         c3    547    ccc     C2  14851 0.30606500  12.010000   ; qtot -0.012818
14852         h1    547    ccc     H1  14852 0.11662300   1.008000   ; qtot 0.103805
14853         h1    547    ccc     H2  14853 0.11526800   1.008000   ; qtot 0.219073
14854         c3    547    ccc     C3  14854 0.15592700  12.010000   ; qtot 0.375000
14855         c3    547    ccc     C4  14855 0.28383300  12.010000   ; qtot 0.658833
14856         c3    547    ccc     C5  14856 0.32403300  12.010000   ; qtot 0.982866
14857         h1    547    ccc     H3  14857 0.13386900   1.008000   ; qtot 1.116735
14858         h1    547    ccc     H4  14858 0.10146700   1.008000   ; qtot 1.218202
14859         h2    547    ccc     H5  14859 0.10960400   1.008000   ; qtot 1.327806
14860         os    547    ccc     O1  14860 -0.28650000  16.000000   ; qtot 1.041306
14861         oh    547    ccc     O2  14861 -0.86012500  16.000000   ; qtot 0.181181
14862         oh    547    ccc     O3  14862 -0.83772800  16.000000   ; qtot -0.656547
14863         oh    547    ccc     O4  14863 -0.77449700  16.000000   ; qtot -1.431044
14864         c3    547    ccc     C6  14864 0.37576500  12.010000   ; qtot -1.055279
14865         ho    547    ccc     H6  14865 0.53656000   1.008000   ; qtot -0.518719
14866         ho    547    ccc     H7  14866 0.49492100   1.008000   ; qtot -0.023798
14867         ho    547    ccc     H8  14867 0.51297200   1.008000   ; qtot 0.489174
14868         h1    547    ccc     H9  14868 0.05653400   1.008000   ; qtot 0.545708
14869         h1    547    ccc    H10  14869 0.05653400   1.008000   ; qtot 0.602242
14870         oh    547    ccc     O5  14870 -0.84113600  16.000000   ; qtot -0.238894
14871         ho    547    ccc    H11  14871 0.51201600   1.008000   ; qtot 0.273122
14872         os    547    ccc     O6  14872 -0.26013600  16.000000   ; qtot 0.012986
; residue  548 ccc rtp ccc q 0.0
14873         c3    548    ccc     C1  14873 -0.33178800  12.010000   ; qtot -0.318802
14874         c3    548    ccc     C2  14874 0.30606500  12.010000   ; qtot -0.012737
14875         h1    548    ccc     H1  14875 0.11662300   1.008000   ; qtot 0.103886
14876         h1    548    ccc     H2  14876 0.11526800   1.008000   ; qtot 0.219154
14877         c3    548    ccc     C3  14877 0.15592700  12.010000   ; qtot 0.375081
14878         c3    548    ccc     C4  14878 0.28383300  12.010000   ; qtot 0.658914
14879         c3    548    ccc     C5  14879 0.32403300  12.010000   ; qtot 0.982947
14880         h1    548    ccc     H3  14880 0.13386900   1.008000   ; qtot 1.116816
14881         h1    548    ccc     H4  14881 0.10146700   1.008000   ; qtot 1.218283
14882         h2    548    ccc     H5  14882 0.10960400   1.008000   ; qtot 1.327887
14883         os    548    ccc     O1  14883 -0.28650000  16.000000   ; qtot 1.041387
14884         oh    548    ccc     O2  14884 -0.86012500  16.000000   ; qtot 0.181262
14885         oh    548    ccc     O3  14885 -0.83772800  16.000000   ; qtot -0.656466
14886         oh    548    ccc     O4  14886 -0.77449700  16.000000   ; qtot -1.430963
14887         c3    548    ccc     C6  14887 0.37576500  12.010000   ; qtot -1.055198
14888         ho    548    ccc     H6  14888 0.53656000   1.008000   ; qtot -0.518638
14889         ho    548    ccc     H7  14889 0.49492100   1.008000   ; qtot -0.023717
14890         ho    548    ccc     H8  14890 0.51297200   1.008000   ; qtot 0.489255
14891         h1    548    ccc     H9  14891 0.05653400   1.008000   ; qtot 0.545789
14892         h1    548    ccc    H10  14892 0.05653400   1.008000   ; qtot 0.602323
14893         oh    548    ccc     O5  14893 -0.84113600  16.000000   ; qtot -0.238813
14894         ho    548    ccc    H11  14894 0.51201600   1.008000   ; qtot 0.273203
14895         os    548    ccc     O6  14895 -0.26013600  16.000000   ; qtot 0.013067
; residue  549 ccc rtp ccc q 0.0
14896         c3    549    ccc     C1  14896 -0.33178800  12.010000   ; qtot -0.318721
14897         c3    549    ccc     C2  14897 0.30606500  12.010000   ; qtot -0.012656
14898         h1    549    ccc     H1  14898 0.11662300   1.008000   ; qtot 0.103967
14899         h1    549    ccc     H2  14899 0.11526800   1.008000   ; qtot 0.219235
14900         c3    549    ccc     C3  14900 0.15592700  12.010000   ; qtot 0.375162
14901         c3    549    ccc     C4  14901 0.28383300  12.010000   ; qtot 0.658995
14902         c3    549    ccc     C5  14902 0.32403300  12.010000   ; qtot 0.983028
14903         h1    549    ccc     H3  14903 0.13386900   1.008000   ; qtot 1.116897
14904         h1    549    ccc     H4  14904 0.10146700   1.008000   ; qtot 1.218364
14905         h2    549    ccc     H5  14905 0.10960400   1.008000   ; qtot 1.327968
14906         os    549    ccc     O1  14906 -0.28650000  16.000000   ; qtot 1.041468
14907         oh    549    ccc     O2  14907 -0.86012500  16.000000   ; qtot 0.181343
14908         oh    549    ccc     O3  14908 -0.83772800  16.000000   ; qtot -0.656385
14909         oh    549    ccc     O4  14909 -0.77449700  16.000000   ; qtot -1.430882
14910         c3    549    ccc     C6  14910 0.37576500  12.010000   ; qtot -1.055117
14911         ho    549    ccc     H6  14911 0.53656000   1.008000   ; qtot -0.518557
14912         ho    549    ccc     H7  14912 0.49492100   1.008000   ; qtot -0.023636
14913         ho    549    ccc     H8  14913 0.51297200   1.008000   ; qtot 0.489336
14914         h1    549    ccc     H9  14914 0.05653400   1.008000   ; qtot 0.545870
14915         h1    549    ccc    H10  14915 0.05653400   1.008000   ; qtot 0.602404
14916         oh    549    ccc     O5  14916 -0.84113600  16.000000   ; qtot -0.238732
14917         ho    549    ccc    H11  14917 0.51201600   1.008000   ; qtot 0.273284
14918         os    549    ccc     O6  14918 -0.26013600  16.000000   ; qtot 0.013148
; residue  550 ccc rtp ccc q 0.0
14919         c3    550    ccc     C1  14919 -0.33178800  12.010000   ; qtot -0.318640
14920         c3    550    ccc     C2  14920 0.30606500  12.010000   ; qtot -0.012575
14921         h1    550    ccc     H1  14921 0.11662300   1.008000   ; qtot 0.104048
14922         h1    550    ccc     H2  14922 0.11526800   1.008000   ; qtot 0.219316
14923         c3    550    ccc     C3  14923 0.15592700  12.010000   ; qtot 0.375243
14924         c3    550    ccc     C4  14924 0.28383300  12.010000   ; qtot 0.659076
14925         c3    550    ccc     C5  14925 0.32403300  12.010000   ; qtot 0.983109
14926         h1    550    ccc     H3  14926 0.13386900   1.008000   ; qtot 1.116978
14927         h1    550    ccc     H4  14927 0.10146700   1.008000   ; qtot 1.218445
14928         h2    550    ccc     H5  14928 0.10960400   1.008000   ; qtot 1.328049
14929         os    550    ccc     O1  14929 -0.28650000  16.000000   ; qtot 1.041549
14930         oh    550    ccc     O2  14930 -0.86012500  16.000000   ; qtot 0.181424
14931         oh    550    ccc     O3  14931 -0.83772800  16.000000   ; qtot -0.656304
14932         oh    550    ccc     O4  14932 -0.77449700  16.000000   ; qtot -1.430801
14933         c3    550    ccc     C6  14933 0.37576500  12.010000   ; qtot -1.055036
14934         ho    550    ccc     H6  14934 0.53656000   1.008000   ; qtot -0.518476
14935         ho    550    ccc     H7  14935 0.49492100   1.008000   ; qtot -0.023555
14936         ho    550    ccc     H8  14936 0.51297200   1.008000   ; qtot 0.489417
14937         h1    550    ccc     H9  14937 0.05653400   1.008000   ; qtot 0.545951
14938         h1    550    ccc    H10  14938 0.05653400   1.008000   ; qtot 0.602485
14939         oh    550    ccc     O5  14939 -0.84113600  16.000000   ; qtot -0.238651
14940         ho    550    ccc    H11  14940 0.51201600   1.008000   ; qtot 0.273365
14941         os    550    ccc     O6  14941 -0.26013600  16.000000   ; qtot 0.013229
; residue  551 ccc rtp ccc q 0.0
14942         c3    551    ccc     C1  14942 -0.33178800  12.010000   ; qtot -0.318559
14943         c3    551    ccc     C2  14943 0.30606500  12.010000   ; qtot -0.012494
14944         h1    551    ccc     H1  14944 0.11662300   1.008000   ; qtot 0.104129
14945         h1    551    ccc     H2  14945 0.11526800   1.008000   ; qtot 0.219397
14946         c3    551    ccc     C3  14946 0.15592700  12.010000   ; qtot 0.375324
14947         c3    551    ccc     C4  14947 0.28383300  12.010000   ; qtot 0.659157
14948         c3    551    ccc     C5  14948 0.32403300  12.010000   ; qtot 0.983190
14949         h1    551    ccc     H3  14949 0.13386900   1.008000   ; qtot 1.117059
14950         h1    551    ccc     H4  14950 0.10146700   1.008000   ; qtot 1.218526
14951         h2    551    ccc     H5  14951 0.10960400   1.008000   ; qtot 1.328130
14952         os    551    ccc     O1  14952 -0.28650000  16.000000   ; qtot 1.041630
14953         oh    551    ccc     O2  14953 -0.86012500  16.000000   ; qtot 0.181505
14954         oh    551    ccc     O3  14954 -0.83772800  16.000000   ; qtot -0.656223
14955         oh    551    ccc     O4  14955 -0.77449700  16.000000   ; qtot -1.430720
14956         c3    551    ccc     C6  14956 0.37576500  12.010000   ; qtot -1.054955
14957         ho    551    ccc     H6  14957 0.53656000   1.008000   ; qtot -0.518395
14958         ho    551    ccc     H7  14958 0.49492100   1.008000   ; qtot -0.023474
14959         ho    551    ccc     H8  14959 0.51297200   1.008000   ; qtot 0.489498
14960         h1    551    ccc     H9  14960 0.05653400   1.008000   ; qtot 0.546032
14961         h1    551    ccc    H10  14961 0.05653400   1.008000   ; qtot 0.602566
14962         oh    551    ccc     O5  14962 -0.84113600  16.000000   ; qtot -0.238570
14963         ho    551    ccc    H11  14963 0.51201600   1.008000   ; qtot 0.273446
14964         os    551    ccc     O6  14964 -0.26013600  16.000000   ; qtot 0.013310
; residue  552 ccc rtp ccc q 0.0
14965         c3    552    ccc     C1  14965 -0.33178800  12.010000   ; qtot -0.318478
14966         c3    552    ccc     C2  14966 0.30606500  12.010000   ; qtot -0.012413
14967         h1    552    ccc     H1  14967 0.11662300   1.008000   ; qtot 0.104210
14968         h1    552    ccc     H2  14968 0.11526800   1.008000   ; qtot 0.219478
14969         c3    552    ccc     C3  14969 0.15592700  12.010000   ; qtot 0.375405
14970         c3    552    ccc     C4  14970 0.28383300  12.010000   ; qtot 0.659238
14971         c3    552    ccc     C5  14971 0.32403300  12.010000   ; qtot 0.983271
14972         h1    552    ccc     H3  14972 0.13386900   1.008000   ; qtot 1.117140
14973         h1    552    ccc     H4  14973 0.10146700   1.008000   ; qtot 1.218607
14974         h2    552    ccc     H5  14974 0.10960400   1.008000   ; qtot 1.328211
14975         os    552    ccc     O1  14975 -0.28650000  16.000000   ; qtot 1.041711
14976         oh    552    ccc     O2  14976 -0.86012500  16.000000   ; qtot 0.181586
14977         oh    552    ccc     O3  14977 -0.83772800  16.000000   ; qtot -0.656142
14978         oh    552    ccc     O4  14978 -0.77449700  16.000000   ; qtot -1.430639
14979         c3    552    ccc     C6  14979 0.37576500  12.010000   ; qtot -1.054874
14980         ho    552    ccc     H6  14980 0.53656000   1.008000   ; qtot -0.518314
14981         ho    552    ccc     H7  14981 0.49492100   1.008000   ; qtot -0.023393
14982         ho    552    ccc     H8  14982 0.51297200   1.008000   ; qtot 0.489579
14983         h1    552    ccc     H9  14983 0.05653400   1.008000   ; qtot 0.546113
14984         h1    552    ccc    H10  14984 0.05653400   1.008000   ; qtot 0.602647
14985         oh    552    ccc     O5  14985 -0.84113600  16.000000   ; qtot -0.238489
14986         ho    552    ccc    H11  14986 0.51201600   1.008000   ; qtot 0.273527
14987         os    552    ccc     O6  14987 -0.26013600  16.000000   ; qtot 0.013391
; residue  553 ccc rtp ccc q 0.0
14988         c3    553    ccc     C1  14988 -0.33178800  12.010000   ; qtot -0.318397
14989         c3    553    ccc     C2  14989 0.30606500  12.010000   ; qtot -0.012332
14990         h1    553    ccc     H1  14990 0.11662300   1.008000   ; qtot 0.104291
14991         h1    553    ccc     H2  14991 0.11526800   1.008000   ; qtot 0.219559
14992         c3    553    ccc     C3  14992 0.15592700  12.010000   ; qtot 0.375486
14993         c3    553    ccc     C4  14993 0.28383300  12.010000   ; qtot 0.659319
14994         c3    553    ccc     C5  14994 0.32403300  12.010000   ; qtot 0.983352
14995         h1    553    ccc     H3  14995 0.13386900   1.008000   ; qtot 1.117221
14996         h1    553    ccc     H4  14996 0.10146700   1.008000   ; qtot 1.218688
14997         h2    553    ccc     H5  14997 0.10960400   1.008000   ; qtot 1.328292
14998         os    553    ccc     O1  14998 -0.28650000  16.000000   ; qtot 1.041792
14999         oh    553    ccc     O2  14999 -0.86012500  16.000000   ; qtot 0.181667
15000         oh    553    ccc     O3  15000 -0.83772800  16.000000   ; qtot -0.656061
15001         oh    553    ccc     O4  15001 -0.77449700  16.000000   ; qtot -1.430558
15002         c3    553    ccc     C6  15002 0.37576500  12.010000   ; qtot -1.054793
15003         ho    553    ccc     H6  15003 0.53656000   1.008000   ; qtot -0.518233
15004         ho    553    ccc     H7  15004 0.49492100   1.008000   ; qtot -0.023312
15005         ho    553    ccc     H8  15005 0.51297200   1.008000   ; qtot 0.489660
15006         h1    553    ccc     H9  15006 0.05653400   1.008000   ; qtot 0.546194
15007         h1    553    ccc    H10  15007 0.05653400   1.008000   ; qtot 0.602728
15008         oh    553    ccc     O5  15008 -0.84113600  16.000000   ; qtot -0.238408
15009         ho    553    ccc    H11  15009 0.51201600   1.008000   ; qtot 0.273608
15010         os    553    ccc     O6  15010 -0.26013600  16.000000   ; qtot 0.013472
; residue  554 ccc rtp ccc q 0.0
15011         c3    554    ccc     C1  15011 -0.33178800  12.010000   ; qtot -0.318316
15012         c3    554    ccc     C2  15012 0.30606500  12.010000   ; qtot -0.012251
15013         h1    554    ccc     H1  15013 0.11662300   1.008000   ; qtot 0.104372
15014         h1    554    ccc     H2  15014 0.11526800   1.008000   ; qtot 0.219640
15015         c3    554    ccc     C3  15015 0.15592700  12.010000   ; qtot 0.375567
15016         c3    554    ccc     C4  15016 0.28383300  12.010000   ; qtot 0.659400
15017         c3    554    ccc     C5  15017 0.32403300  12.010000   ; qtot 0.983433
15018         h1    554    ccc     H3  15018 0.13386900   1.008000   ; qtot 1.117302
15019         h1    554    ccc     H4  15019 0.10146700   1.008000   ; qtot 1.218769
15020         h2    554    ccc     H5  15020 0.10960400   1.008000   ; qtot 1.328373
15021         os    554    ccc     O1  15021 -0.28650000  16.000000   ; qtot 1.041873
15022         oh    554    ccc     O2  15022 -0.86012500  16.000000   ; qtot 0.181748
15023         oh    554    ccc     O3  15023 -0.83772800  16.000000   ; qtot -0.655980
15024         oh    554    ccc     O4  15024 -0.77449700  16.000000   ; qtot -1.430477
15025         c3    554    ccc     C6  15025 0.37576500  12.010000   ; qtot -1.054712
15026         ho    554    ccc     H6  15026 0.53656000   1.008000   ; qtot -0.518152
15027         ho    554    ccc     H7  15027 0.49492100   1.008000   ; qtot -0.023231
15028         ho    554    ccc     H8  15028 0.51297200   1.008000   ; qtot 0.489741
15029         h1    554    ccc     H9  15029 0.05653400   1.008000   ; qtot 0.546275
15030         h1    554    ccc    H10  15030 0.05653400   1.008000   ; qtot 0.602809
15031         oh    554    ccc     O5  15031 -0.84113600  16.000000   ; qtot -0.238327
15032         ho    554    ccc    H11  15032 0.51201600   1.008000   ; qtot 0.273689
15033         os    554    ccc     O6  15033 -0.26013600  16.000000   ; qtot 0.013553
; residue  555 ccc rtp ccc q 0.0
15034         c3    555    ccc     C1  15034 -0.33178800  12.010000   ; qtot -0.318235
15035         c3    555    ccc     C2  15035 0.30606500  12.010000   ; qtot -0.012170
15036         h1    555    ccc     H1  15036 0.11662300   1.008000   ; qtot 0.104453
15037         h1    555    ccc     H2  15037 0.11526800   1.008000   ; qtot 0.219721
15038         c3    555    ccc     C3  15038 0.15592700  12.010000   ; qtot 0.375648
15039         c3    555    ccc     C4  15039 0.28383300  12.010000   ; qtot 0.659481
15040         c3    555    ccc     C5  15040 0.32403300  12.010000   ; qtot 0.983514
15041         h1    555    ccc     H3  15041 0.13386900   1.008000   ; qtot 1.117383
15042         h1    555    ccc     H4  15042 0.10146700   1.008000   ; qtot 1.218850
15043         h2    555    ccc     H5  15043 0.10960400   1.008000   ; qtot 1.328454
15044         os    555    ccc     O1  15044 -0.28650000  16.000000   ; qtot 1.041954
15045         oh    555    ccc     O2  15045 -0.86012500  16.000000   ; qtot 0.181829
15046         oh    555    ccc     O3  15046 -0.83772800  16.000000   ; qtot -0.655899
15047         oh    555    ccc     O4  15047 -0.77449700  16.000000   ; qtot -1.430396
15048         c3    555    ccc     C6  15048 0.37576500  12.010000   ; qtot -1.054631
15049         ho    555    ccc     H6  15049 0.53656000   1.008000   ; qtot -0.518071
15050         ho    555    ccc     H7  15050 0.49492100   1.008000   ; qtot -0.023150
15051         ho    555    ccc     H8  15051 0.51297200   1.008000   ; qtot 0.489822
15052         h1    555    ccc     H9  15052 0.05653400   1.008000   ; qtot 0.546356
15053         h1    555    ccc    H10  15053 0.05653400   1.008000   ; qtot 0.602890
15054         oh    555    ccc     O5  15054 -0.84113600  16.000000   ; qtot -0.238246
15055         ho    555    ccc    H11  15055 0.51201600   1.008000   ; qtot 0.273770
15056         os    555    ccc     O6  15056 -0.26013600  16.000000   ; qtot 0.013634
; residue  556 ccc rtp ccc q 0.0
15057         c3    556    ccc     C1  15057 -0.33178800  12.010000   ; qtot -0.318154
15058         c3    556    ccc     C2  15058 0.30606500  12.010000   ; qtot -0.012089
15059         h1    556    ccc     H1  15059 0.11662300   1.008000   ; qtot 0.104534
15060         h1    556    ccc     H2  15060 0.11526800   1.008000   ; qtot 0.219802
15061         c3    556    ccc     C3  15061 0.15592700  12.010000   ; qtot 0.375729
15062         c3    556    ccc     C4  15062 0.28383300  12.010000   ; qtot 0.659562
15063         c3    556    ccc     C5  15063 0.32403300  12.010000   ; qtot 0.983595
15064         h1    556    ccc     H3  15064 0.13386900   1.008000   ; qtot 1.117464
15065         h1    556    ccc     H4  15065 0.10146700   1.008000   ; qtot 1.218931
15066         h2    556    ccc     H5  15066 0.10960400   1.008000   ; qtot 1.328535
15067         os    556    ccc     O1  15067 -0.28650000  16.000000   ; qtot 1.042035
15068         oh    556    ccc     O2  15068 -0.86012500  16.000000   ; qtot 0.181910
15069         oh    556    ccc     O3  15069 -0.83772800  16.000000   ; qtot -0.655818
15070         oh    556    ccc     O4  15070 -0.77449700  16.000000   ; qtot -1.430315
15071         c3    556    ccc     C6  15071 0.37576500  12.010000   ; qtot -1.054550
15072         ho    556    ccc     H6  15072 0.53656000   1.008000   ; qtot -0.517990
15073         ho    556    ccc     H7  15073 0.49492100   1.008000   ; qtot -0.023069
15074         ho    556    ccc     H8  15074 0.51297200   1.008000   ; qtot 0.489903
15075         h1    556    ccc     H9  15075 0.05653400   1.008000   ; qtot 0.546437
15076         h1    556    ccc    H10  15076 0.05653400   1.008000   ; qtot 0.602971
15077         oh    556    ccc     O5  15077 -0.84113600  16.000000   ; qtot -0.238165
15078         ho    556    ccc    H11  15078 0.51201600   1.008000   ; qtot 0.273851
15079         os    556    ccc     O6  15079 -0.26013600  16.000000   ; qtot 0.013715
; residue  557 ccc rtp ccc q 0.0
15080         c3    557    ccc     C1  15080 -0.33178800  12.010000   ; qtot -0.318073
15081         c3    557    ccc     C2  15081 0.30606500  12.010000   ; qtot -0.012008
15082         h1    557    ccc     H1  15082 0.11662300   1.008000   ; qtot 0.104615
15083         h1    557    ccc     H2  15083 0.11526800   1.008000   ; qtot 0.219883
15084         c3    557    ccc     C3  15084 0.15592700  12.010000   ; qtot 0.375810
15085         c3    557    ccc     C4  15085 0.28383300  12.010000   ; qtot 0.659643
15086         c3    557    ccc     C5  15086 0.32403300  12.010000   ; qtot 0.983676
15087         h1    557    ccc     H3  15087 0.13386900   1.008000   ; qtot 1.117545
15088         h1    557    ccc     H4  15088 0.10146700   1.008000   ; qtot 1.219012
15089         h2    557    ccc     H5  15089 0.10960400   1.008000   ; qtot 1.328616
15090         os    557    ccc     O1  15090 -0.28650000  16.000000   ; qtot 1.042116
15091         oh    557    ccc     O2  15091 -0.86012500  16.000000   ; qtot 0.181991
15092         oh    557    ccc     O3  15092 -0.83772800  16.000000   ; qtot -0.655737
15093         oh    557    ccc     O4  15093 -0.77449700  16.000000   ; qtot -1.430234
15094         c3    557    ccc     C6  15094 0.37576500  12.010000   ; qtot -1.054469
15095         ho    557    ccc     H6  15095 0.53656000   1.008000   ; qtot -0.517909
15096         ho    557    ccc     H7  15096 0.49492100   1.008000   ; qtot -0.022988
15097         ho    557    ccc     H8  15097 0.51297200   1.008000   ; qtot 0.489984
15098         h1    557    ccc     H9  15098 0.05653400   1.008000   ; qtot 0.546518
15099         h1    557    ccc    H10  15099 0.05653400   1.008000   ; qtot 0.603052
15100         oh    557    ccc     O5  15100 -0.84113600  16.000000   ; qtot -0.238084
15101         ho    557    ccc    H11  15101 0.51201600   1.008000   ; qtot 0.273932
15102         os    557    ccc     O6  15102 -0.26013600  16.000000   ; qtot 0.013796
; residue  558 ccc rtp ccc q 0.0
15103         c3    558    ccc     C1  15103 -0.33178800  12.010000   ; qtot -0.317992
15104         c3    558    ccc     C2  15104 0.30606500  12.010000   ; qtot -0.011927
15105         h1    558    ccc     H1  15105 0.11662300   1.008000   ; qtot 0.104696
15106         h1    558    ccc     H2  15106 0.11526800   1.008000   ; qtot 0.219964
15107         c3    558    ccc     C3  15107 0.15592700  12.010000   ; qtot 0.375891
15108         c3    558    ccc     C4  15108 0.28383300  12.010000   ; qtot 0.659724
15109         c3    558    ccc     C5  15109 0.32403300  12.010000   ; qtot 0.983757
15110         h1    558    ccc     H3  15110 0.13386900   1.008000   ; qtot 1.117626
15111         h1    558    ccc     H4  15111 0.10146700   1.008000   ; qtot 1.219093
15112         h2    558    ccc     H5  15112 0.10960400   1.008000   ; qtot 1.328697
15113         os    558    ccc     O1  15113 -0.28650000  16.000000   ; qtot 1.042197
15114         oh    558    ccc     O2  15114 -0.86012500  16.000000   ; qtot 0.182072
15115         oh    558    ccc     O3  15115 -0.83772800  16.000000   ; qtot -0.655656
15116         oh    558    ccc     O4  15116 -0.77449700  16.000000   ; qtot -1.430153
15117         c3    558    ccc     C6  15117 0.37576500  12.010000   ; qtot -1.054388
15118         ho    558    ccc     H6  15118 0.53656000   1.008000   ; qtot -0.517828
15119         ho    558    ccc     H7  15119 0.49492100   1.008000   ; qtot -0.022907
15120         ho    558    ccc     H8  15120 0.51297200   1.008000   ; qtot 0.490065
15121         h1    558    ccc     H9  15121 0.05653400   1.008000   ; qtot 0.546599
15122         h1    558    ccc    H10  15122 0.05653400   1.008000   ; qtot 0.603133
15123         oh    558    ccc     O5  15123 -0.84113600  16.000000   ; qtot -0.238003
15124         ho    558    ccc    H11  15124 0.51201600   1.008000   ; qtot 0.274013
15125         os    558    ccc     O6  15125 -0.26013600  16.000000   ; qtot 0.013877
; residue  559 ccc rtp ccc q 0.0
15126         c3    559    ccc     C1  15126 -0.33178800  12.010000   ; qtot -0.317911
15127         c3    559    ccc     C2  15127 0.30606500  12.010000   ; qtot -0.011846
15128         h1    559    ccc     H1  15128 0.11662300   1.008000   ; qtot 0.104777
15129         h1    559    ccc     H2  15129 0.11526800   1.008000   ; qtot 0.220045
15130         c3    559    ccc     C3  15130 0.15592700  12.010000   ; qtot 0.375972
15131         c3    559    ccc     C4  15131 0.28383300  12.010000   ; qtot 0.659805
15132         c3    559    ccc     C5  15132 0.32403300  12.010000   ; qtot 0.983838
15133         h1    559    ccc     H3  15133 0.13386900   1.008000   ; qtot 1.117707
15134         h1    559    ccc     H4  15134 0.10146700   1.008000   ; qtot 1.219174
15135         h2    559    ccc     H5  15135 0.10960400   1.008000   ; qtot 1.328778
15136         os    559    ccc     O1  15136 -0.28650000  16.000000   ; qtot 1.042278
15137         oh    559    ccc     O2  15137 -0.86012500  16.000000   ; qtot 0.182153
15138         oh    559    ccc     O3  15138 -0.83772800  16.000000   ; qtot -0.655575
15139         oh    559    ccc     O4  15139 -0.77449700  16.000000   ; qtot -1.430072
15140         c3    559    ccc     C6  15140 0.37576500  12.010000   ; qtot -1.054307
15141         ho    559    ccc     H6  15141 0.53656000   1.008000   ; qtot -0.517747
15142         ho    559    ccc     H7  15142 0.49492100   1.008000   ; qtot -0.022826
15143         ho    559    ccc     H8  15143 0.51297200   1.008000   ; qtot 0.490146
15144         h1    559    ccc     H9  15144 0.05653400   1.008000   ; qtot 0.546680
15145         h1    559    ccc    H10  15145 0.05653400   1.008000   ; qtot 0.603214
15146         oh    559    ccc     O5  15146 -0.84113600  16.000000   ; qtot -0.237922
15147         ho    559    ccc    H11  15147 0.51201600   1.008000   ; qtot 0.274094
15148         os    559    ccc     O6  15148 -0.26013600  16.000000   ; qtot 0.013958
; residue  560 ccc rtp ccc q 0.0
15149         c3    560    ccc     C1  15149 -0.33178800  12.010000   ; qtot -0.317830
15150         c3    560    ccc     C2  15150 0.30606500  12.010000   ; qtot -0.011765
15151         h1    560    ccc     H1  15151 0.11662300   1.008000   ; qtot 0.104858
15152         h1    560    ccc     H2  15152 0.11526800   1.008000   ; qtot 0.220126
15153         c3    560    ccc     C3  15153 0.15592700  12.010000   ; qtot 0.376053
15154         c3    560    ccc     C4  15154 0.28383300  12.010000   ; qtot 0.659886
15155         c3    560    ccc     C5  15155 0.32403300  12.010000   ; qtot 0.983919
15156         h1    560    ccc     H3  15156 0.13386900   1.008000   ; qtot 1.117788
15157         h1    560    ccc     H4  15157 0.10146700   1.008000   ; qtot 1.219255
15158         h2    560    ccc     H5  15158 0.10960400   1.008000   ; qtot 1.328859
15159         os    560    ccc     O1  15159 -0.28650000  16.000000   ; qtot 1.042359
15160         oh    560    ccc     O2  15160 -0.86012500  16.000000   ; qtot 0.182234
15161         oh    560    ccc     O3  15161 -0.83772800  16.000000   ; qtot -0.655494
15162         oh    560    ccc     O4  15162 -0.77449700  16.000000   ; qtot -1.429991
15163         c3    560    ccc     C6  15163 0.37576500  12.010000   ; qtot -1.054226
15164         ho    560    ccc     H6  15164 0.53656000   1.008000   ; qtot -0.517666
15165         ho    560    ccc     H7  15165 0.49492100   1.008000   ; qtot -0.022745
15166         ho    560    ccc     H8  15166 0.51297200   1.008000   ; qtot 0.490227
15167         h1    560    ccc     H9  15167 0.05653400   1.008000   ; qtot 0.546761
15168         h1    560    ccc    H10  15168 0.05653400   1.008000   ; qtot 0.603295
15169         oh    560    ccc     O5  15169 -0.84113600  16.000000   ; qtot -0.237841
15170         ho    560    ccc    H11  15170 0.51201600   1.008000   ; qtot 0.274175
15171         os    560    ccc     O6  15171 -0.26013600  16.000000   ; qtot 0.014039
; residue  561 ccc rtp ccc q 0.0
15172         c3    561    ccc     C1  15172 -0.33178800  12.010000   ; qtot -0.317749
15173         c3    561    ccc     C2  15173 0.30606500  12.010000   ; qtot -0.011684
15174         h1    561    ccc     H1  15174 0.11662300   1.008000   ; qtot 0.104939
15175         h1    561    ccc     H2  15175 0.11526800   1.008000   ; qtot 0.220207
15176         c3    561    ccc     C3  15176 0.15592700  12.010000   ; qtot 0.376134
15177         c3    561    ccc     C4  15177 0.28383300  12.010000   ; qtot 0.659967
15178         c3    561    ccc     C5  15178 0.32403300  12.010000   ; qtot 0.984000
15179         h1    561    ccc     H3  15179 0.13386900   1.008000   ; qtot 1.117869
15180         h1    561    ccc     H4  15180 0.10146700   1.008000   ; qtot 1.219336
15181         h2    561    ccc     H5  15181 0.10960400   1.008000   ; qtot 1.328940
15182         os    561    ccc     O1  15182 -0.28650000  16.000000   ; qtot 1.042440
15183         oh    561    ccc     O2  15183 -0.86012500  16.000000   ; qtot 0.182315
15184         oh    561    ccc     O3  15184 -0.83772800  16.000000   ; qtot -0.655413
15185         oh    561    ccc     O4  15185 -0.77449700  16.000000   ; qtot -1.429910
15186         c3    561    ccc     C6  15186 0.37576500  12.010000   ; qtot -1.054145
15187         ho    561    ccc     H6  15187 0.53656000   1.008000   ; qtot -0.517585
15188         ho    561    ccc     H7  15188 0.49492100   1.008000   ; qtot -0.022664
15189         ho    561    ccc     H8  15189 0.51297200   1.008000   ; qtot 0.490308
15190         h1    561    ccc     H9  15190 0.05653400   1.008000   ; qtot 0.546842
15191         h1    561    ccc    H10  15191 0.05653400   1.008000   ; qtot 0.603376
15192         oh    561    ccc     O5  15192 -0.84113600  16.000000   ; qtot -0.237760
15193         ho    561    ccc    H11  15193 0.51201600   1.008000   ; qtot 0.274256
15194         os    561    ccc     O6  15194 -0.26013600  16.000000   ; qtot 0.014120
; residue  562 ccc rtp ccc q 0.0
15195         c3    562    ccc     C1  15195 -0.33178800  12.010000   ; qtot -0.317668
15196         c3    562    ccc     C2  15196 0.30606500  12.010000   ; qtot -0.011603
15197         h1    562    ccc     H1  15197 0.11662300   1.008000   ; qtot 0.105020
15198         h1    562    ccc     H2  15198 0.11526800   1.008000   ; qtot 0.220288
15199         c3    562    ccc     C3  15199 0.15592700  12.010000   ; qtot 0.376215
15200         c3    562    ccc     C4  15200 0.28383300  12.010000   ; qtot 0.660048
15201         c3    562    ccc     C5  15201 0.32403300  12.010000   ; qtot 0.984081
15202         h1    562    ccc     H3  15202 0.13386900   1.008000   ; qtot 1.117950
15203         h1    562    ccc     H4  15203 0.10146700   1.008000   ; qtot 1.219417
15204         h2    562    ccc     H5  15204 0.10960400   1.008000   ; qtot 1.329021
15205         os    562    ccc     O1  15205 -0.28650000  16.000000   ; qtot 1.042521
15206         oh    562    ccc     O2  15206 -0.86012500  16.000000   ; qtot 0.182396
15207         oh    562    ccc     O3  15207 -0.83772800  16.000000   ; qtot -0.655332
15208         oh    562    ccc     O4  15208 -0.77449700  16.000000   ; qtot -1.429829
15209         c3    562    ccc     C6  15209 0.37576500  12.010000   ; qtot -1.054064
15210         ho    562    ccc     H6  15210 0.53656000   1.008000   ; qtot -0.517504
15211         ho    562    ccc     H7  15211 0.49492100   1.008000   ; qtot -0.022583
15212         ho    562    ccc     H8  15212 0.51297200   1.008000   ; qtot 0.490389
15213         h1    562    ccc     H9  15213 0.05653400   1.008000   ; qtot 0.546923
15214         h1    562    ccc    H10  15214 0.05653400   1.008000   ; qtot 0.603457
15215         oh    562    ccc     O5  15215 -0.84113600  16.000000   ; qtot -0.237679
15216         ho    562    ccc    H11  15216 0.51201600   1.008000   ; qtot 0.274337
15217         os    562    ccc     O6  15217 -0.26013600  16.000000   ; qtot 0.014201
; residue  563 ccc rtp ccc q 0.0
15218         c3    563    ccc     C1  15218 -0.33178800  12.010000   ; qtot -0.317587
15219         c3    563    ccc     C2  15219 0.30606500  12.010000   ; qtot -0.011522
15220         h1    563    ccc     H1  15220 0.11662300   1.008000   ; qtot 0.105101
15221         h1    563    ccc     H2  15221 0.11526800   1.008000   ; qtot 0.220369
15222         c3    563    ccc     C3  15222 0.15592700  12.010000   ; qtot 0.376296
15223         c3    563    ccc     C4  15223 0.28383300  12.010000   ; qtot 0.660129
15224         c3    563    ccc     C5  15224 0.32403300  12.010000   ; qtot 0.984162
15225         h1    563    ccc     H3  15225 0.13386900   1.008000   ; qtot 1.118031
15226         h1    563    ccc     H4  15226 0.10146700   1.008000   ; qtot 1.219498
15227         h2    563    ccc     H5  15227 0.10960400   1.008000   ; qtot 1.329102
15228         os    563    ccc     O1  15228 -0.28650000  16.000000   ; qtot 1.042602
15229         oh    563    ccc     O2  15229 -0.86012500  16.000000   ; qtot 0.182477
15230         oh    563    ccc     O3  15230 -0.83772800  16.000000   ; qtot -0.655251
15231         oh    563    ccc     O4  15231 -0.77449700  16.000000   ; qtot -1.429748
15232         c3    563    ccc     C6  15232 0.37576500  12.010000   ; qtot -1.053983
15233         ho    563    ccc     H6  15233 0.53656000   1.008000   ; qtot -0.517423
15234         ho    563    ccc     H7  15234 0.49492100   1.008000   ; qtot -0.022502
15235         ho    563    ccc     H8  15235 0.51297200   1.008000   ; qtot 0.490470
15236         h1    563    ccc     H9  15236 0.05653400   1.008000   ; qtot 0.547004
15237         h1    563    ccc    H10  15237 0.05653400   1.008000   ; qtot 0.603538
15238         oh    563    ccc     O5  15238 -0.84113600  16.000000   ; qtot -0.237598
15239         ho    563    ccc    H11  15239 0.51201600   1.008000   ; qtot 0.274418
15240         os    563    ccc     O6  15240 -0.26013600  16.000000   ; qtot 0.014282
; residue  564 ccc rtp ccc q 0.0
15241         c3    564    ccc     C1  15241 -0.33178800  12.010000   ; qtot -0.317506
15242         c3    564    ccc     C2  15242 0.30606500  12.010000   ; qtot -0.011441
15243         h1    564    ccc     H1  15243 0.11662300   1.008000   ; qtot 0.105182
15244         h1    564    ccc     H2  15244 0.11526800   1.008000   ; qtot 0.220450
15245         c3    564    ccc     C3  15245 0.15592700  12.010000   ; qtot 0.376377
15246         c3    564    ccc     C4  15246 0.28383300  12.010000   ; qtot 0.660210
15247         c3    564    ccc     C5  15247 0.32403300  12.010000   ; qtot 0.984243
15248         h1    564    ccc     H3  15248 0.13386900   1.008000   ; qtot 1.118112
15249         h1    564    ccc     H4  15249 0.10146700   1.008000   ; qtot 1.219579
15250         h2    564    ccc     H5  15250 0.10960400   1.008000   ; qtot 1.329183
15251         os    564    ccc     O1  15251 -0.28650000  16.000000   ; qtot 1.042683
15252         oh    564    ccc     O2  15252 -0.86012500  16.000000   ; qtot 0.182558
15253         oh    564    ccc     O3  15253 -0.83772800  16.000000   ; qtot -0.655170
15254         oh    564    ccc     O4  15254 -0.77449700  16.000000   ; qtot -1.429667
15255         c3    564    ccc     C6  15255 0.37576500  12.010000   ; qtot -1.053902
15256         ho    564    ccc     H6  15256 0.53656000   1.008000   ; qtot -0.517342
15257         ho    564    ccc     H7  15257 0.49492100   1.008000   ; qtot -0.022421
15258         ho    564    ccc     H8  15258 0.51297200   1.008000   ; qtot 0.490551
15259         h1    564    ccc     H9  15259 0.05653400   1.008000   ; qtot 0.547085
15260         h1    564    ccc    H10  15260 0.05653400   1.008000   ; qtot 0.603619
15261         oh    564    ccc     O5  15261 -0.84113600  16.000000   ; qtot -0.237517
15262         ho    564    ccc    H11  15262 0.51201600   1.008000   ; qtot 0.274499
15263         os    564    ccc     O6  15263 -0.26013600  16.000000   ; qtot 0.014363
; residue  565 ccc rtp ccc q 0.0
15264         c3    565    ccc     C1  15264 -0.33178800  12.010000   ; qtot -0.317425
15265         c3    565    ccc     C2  15265 0.30606500  12.010000   ; qtot -0.011360
15266         h1    565    ccc     H1  15266 0.11662300   1.008000   ; qtot 0.105263
15267         h1    565    ccc     H2  15267 0.11526800   1.008000   ; qtot 0.220531
15268         c3    565    ccc     C3  15268 0.15592700  12.010000   ; qtot 0.376458
15269         c3    565    ccc     C4  15269 0.28383300  12.010000   ; qtot 0.660291
15270         c3    565    ccc     C5  15270 0.32403300  12.010000   ; qtot 0.984324
15271         h1    565    ccc     H3  15271 0.13386900   1.008000   ; qtot 1.118193
15272         h1    565    ccc     H4  15272 0.10146700   1.008000   ; qtot 1.219660
15273         h2    565    ccc     H5  15273 0.10960400   1.008000   ; qtot 1.329264
15274         os    565    ccc     O1  15274 -0.28650000  16.000000   ; qtot 1.042764
15275         oh    565    ccc     O2  15275 -0.86012500  16.000000   ; qtot 0.182639
15276         oh    565    ccc     O3  15276 -0.83772800  16.000000   ; qtot -0.655089
15277         oh    565    ccc     O4  15277 -0.77449700  16.000000   ; qtot -1.429586
15278         c3    565    ccc     C6  15278 0.37576500  12.010000   ; qtot -1.053821
15279         ho    565    ccc     H6  15279 0.53656000   1.008000   ; qtot -0.517261
15280         ho    565    ccc     H7  15280 0.49492100   1.008000   ; qtot -0.022340
15281         ho    565    ccc     H8  15281 0.51297200   1.008000   ; qtot 0.490632
15282         h1    565    ccc     H9  15282 0.05653400   1.008000   ; qtot 0.547166
15283         h1    565    ccc    H10  15283 0.05653400   1.008000   ; qtot 0.603700
15284         oh    565    ccc     O5  15284 -0.84113600  16.000000   ; qtot -0.237436
15285         ho    565    ccc    H11  15285 0.51201600   1.008000   ; qtot 0.274580
15286         os    565    ccc     O6  15286 -0.26013600  16.000000   ; qtot 0.014444
; residue  566 ccc rtp ccc q 0.0
15287         c3    566    ccc     C1  15287 -0.33178800  12.010000   ; qtot -0.317344
15288         c3    566    ccc     C2  15288 0.30606500  12.010000   ; qtot -0.011279
15289         h1    566    ccc     H1  15289 0.11662300   1.008000   ; qtot 0.105344
15290         h1    566    ccc     H2  15290 0.11526800   1.008000   ; qtot 0.220612
15291         c3    566    ccc     C3  15291 0.15592700  12.010000   ; qtot 0.376539
15292         c3    566    ccc     C4  15292 0.28383300  12.010000   ; qtot 0.660372
15293         c3    566    ccc     C5  15293 0.32403300  12.010000   ; qtot 0.984405
15294         h1    566    ccc     H3  15294 0.13386900   1.008000   ; qtot 1.118274
15295         h1    566    ccc     H4  15295 0.10146700   1.008000   ; qtot 1.219741
15296         h2    566    ccc     H5  15296 0.10960400   1.008000   ; qtot 1.329345
15297         os    566    ccc     O1  15297 -0.28650000  16.000000   ; qtot 1.042845
15298         oh    566    ccc     O2  15298 -0.86012500  16.000000   ; qtot 0.182720
15299         oh    566    ccc     O3  15299 -0.83772800  16.000000   ; qtot -0.655008
15300         oh    566    ccc     O4  15300 -0.77449700  16.000000   ; qtot -1.429505
15301         c3    566    ccc     C6  15301 0.37576500  12.010000   ; qtot -1.053740
15302         ho    566    ccc     H6  15302 0.53656000   1.008000   ; qtot -0.517180
15303         ho    566    ccc     H7  15303 0.49492100   1.008000   ; qtot -0.022259
15304         ho    566    ccc     H8  15304 0.51297200   1.008000   ; qtot 0.490713
15305         h1    566    ccc     H9  15305 0.05653400   1.008000   ; qtot 0.547247
15306         h1    566    ccc    H10  15306 0.05653400   1.008000   ; qtot 0.603781
15307         oh    566    ccc     O5  15307 -0.84113600  16.000000   ; qtot -0.237355
15308         ho    566    ccc    H11  15308 0.51201600   1.008000   ; qtot 0.274661
15309         os    566    ccc     O6  15309 -0.26013600  16.000000   ; qtot 0.014525
; residue  567 ccc rtp ccc q 0.0
15310         c3    567    ccc     C1  15310 -0.33178800  12.010000   ; qtot -0.317263
15311         c3    567    ccc     C2  15311 0.30606500  12.010000   ; qtot -0.011198
15312         h1    567    ccc     H1  15312 0.11662300   1.008000   ; qtot 0.105425
15313         h1    567    ccc     H2  15313 0.11526800   1.008000   ; qtot 0.220693
15314         c3    567    ccc     C3  15314 0.15592700  12.010000   ; qtot 0.376620
15315         c3    567    ccc     C4  15315 0.28383300  12.010000   ; qtot 0.660453
15316         c3    567    ccc     C5  15316 0.32403300  12.010000   ; qtot 0.984486
15317         h1    567    ccc     H3  15317 0.13386900   1.008000   ; qtot 1.118355
15318         h1    567    ccc     H4  15318 0.10146700   1.008000   ; qtot 1.219822
15319         h2    567    ccc     H5  15319 0.10960400   1.008000   ; qtot 1.329426
15320         os    567    ccc     O1  15320 -0.28650000  16.000000   ; qtot 1.042926
15321         oh    567    ccc     O2  15321 -0.86012500  16.000000   ; qtot 0.182801
15322         oh    567    ccc     O3  15322 -0.83772800  16.000000   ; qtot -0.654927
15323         oh    567    ccc     O4  15323 -0.77449700  16.000000   ; qtot -1.429424
15324         c3    567    ccc     C6  15324 0.37576500  12.010000   ; qtot -1.053659
15325         ho    567    ccc     H6  15325 0.53656000   1.008000   ; qtot -0.517099
15326         ho    567    ccc     H7  15326 0.49492100   1.008000   ; qtot -0.022178
15327         ho    567    ccc     H8  15327 0.51297200   1.008000   ; qtot 0.490794
15328         h1    567    ccc     H9  15328 0.05653400   1.008000   ; qtot 0.547328
15329         h1    567    ccc    H10  15329 0.05653400   1.008000   ; qtot 0.603862
15330         oh    567    ccc     O5  15330 -0.84113600  16.000000   ; qtot -0.237274
15331         ho    567    ccc    H11  15331 0.51201600   1.008000   ; qtot 0.274742
15332         os    567    ccc     O6  15332 -0.26013600  16.000000   ; qtot 0.014606
; residue  568 ccc rtp ccc q 0.0
15333         c3    568    ccc     C1  15333 -0.33178800  12.010000   ; qtot -0.317182
15334         c3    568    ccc     C2  15334 0.30606500  12.010000   ; qtot -0.011117
15335         h1    568    ccc     H1  15335 0.11662300   1.008000   ; qtot 0.105506
15336         h1    568    ccc     H2  15336 0.11526800   1.008000   ; qtot 0.220774
15337         c3    568    ccc     C3  15337 0.15592700  12.010000   ; qtot 0.376701
15338         c3    568    ccc     C4  15338 0.28383300  12.010000   ; qtot 0.660534
15339         c3    568    ccc     C5  15339 0.32403300  12.010000   ; qtot 0.984567
15340         h1    568    ccc     H3  15340 0.13386900   1.008000   ; qtot 1.118436
15341         h1    568    ccc     H4  15341 0.10146700   1.008000   ; qtot 1.219903
15342         h2    568    ccc     H5  15342 0.10960400   1.008000   ; qtot 1.329507
15343         os    568    ccc     O1  15343 -0.28650000  16.000000   ; qtot 1.043007
15344         oh    568    ccc     O2  15344 -0.86012500  16.000000   ; qtot 0.182882
15345         oh    568    ccc     O3  15345 -0.83772800  16.000000   ; qtot -0.654846
15346         oh    568    ccc     O4  15346 -0.77449700  16.000000   ; qtot -1.429343
15347         c3    568    ccc     C6  15347 0.37576500  12.010000   ; qtot -1.053578
15348         ho    568    ccc     H6  15348 0.53656000   1.008000   ; qtot -0.517018
15349         ho    568    ccc     H7  15349 0.49492100   1.008000   ; qtot -0.022097
15350         ho    568    ccc     H8  15350 0.51297200   1.008000   ; qtot 0.490875
15351         h1    568    ccc     H9  15351 0.05653400   1.008000   ; qtot 0.547409
15352         h1    568    ccc    H10  15352 0.05653400   1.008000   ; qtot 0.603943
15353         oh    568    ccc     O5  15353 -0.84113600  16.000000   ; qtot -0.237193
15354         ho    568    ccc    H11  15354 0.51201600   1.008000   ; qtot 0.274823
15355         os    568    ccc     O6  15355 -0.26013600  16.000000   ; qtot 0.014687
; residue  569 ccc rtp ccc q 0.0
15356         c3    569    ccc     C1  15356 -0.33178800  12.010000   ; qtot -0.317101
15357         c3    569    ccc     C2  15357 0.30606500  12.010000   ; qtot -0.011036
15358         h1    569    ccc     H1  15358 0.11662300   1.008000   ; qtot 0.105587
15359         h1    569    ccc     H2  15359 0.11526800   1.008000   ; qtot 0.220855
15360         c3    569    ccc     C3  15360 0.15592700  12.010000   ; qtot 0.376782
15361         c3    569    ccc     C4  15361 0.28383300  12.010000   ; qtot 0.660615
15362         c3    569    ccc     C5  15362 0.32403300  12.010000   ; qtot 0.984648
15363         h1    569    ccc     H3  15363 0.13386900   1.008000   ; qtot 1.118517
15364         h1    569    ccc     H4  15364 0.10146700   1.008000   ; qtot 1.219984
15365         h2    569    ccc     H5  15365 0.10960400   1.008000   ; qtot 1.329588
15366         os    569    ccc     O1  15366 -0.28650000  16.000000   ; qtot 1.043088
15367         oh    569    ccc     O2  15367 -0.86012500  16.000000   ; qtot 0.182963
15368         oh    569    ccc     O3  15368 -0.83772800  16.000000   ; qtot -0.654765
15369         oh    569    ccc     O4  15369 -0.77449700  16.000000   ; qtot -1.429262
15370         c3    569    ccc     C6  15370 0.37576500  12.010000   ; qtot -1.053497
15371         ho    569    ccc     H6  15371 0.53656000   1.008000   ; qtot -0.516937
15372         ho    569    ccc     H7  15372 0.49492100   1.008000   ; qtot -0.022016
15373         ho    569    ccc     H8  15373 0.51297200   1.008000   ; qtot 0.490956
15374         h1    569    ccc     H9  15374 0.05653400   1.008000   ; qtot 0.547490
15375         h1    569    ccc    H10  15375 0.05653400   1.008000   ; qtot 0.604024
15376         oh    569    ccc     O5  15376 -0.84113600  16.000000   ; qtot -0.237112
15377         ho    569    ccc    H11  15377 0.51201600   1.008000   ; qtot 0.274904
15378         os    569    ccc     O6  15378 -0.26013600  16.000000   ; qtot 0.014768
; residue  570 ccc rtp ccc q 0.0
15379         c3    570    ccc     C1  15379 -0.33178800  12.010000   ; qtot -0.317020
15380         c3    570    ccc     C2  15380 0.30606500  12.010000   ; qtot -0.010955
15381         h1    570    ccc     H1  15381 0.11662300   1.008000   ; qtot 0.105668
15382         h1    570    ccc     H2  15382 0.11526800   1.008000   ; qtot 0.220936
15383         c3    570    ccc     C3  15383 0.15592700  12.010000   ; qtot 0.376863
15384         c3    570    ccc     C4  15384 0.28383300  12.010000   ; qtot 0.660696
15385         c3    570    ccc     C5  15385 0.32403300  12.010000   ; qtot 0.984729
15386         h1    570    ccc     H3  15386 0.13386900   1.008000   ; qtot 1.118598
15387         h1    570    ccc     H4  15387 0.10146700   1.008000   ; qtot 1.220065
15388         h2    570    ccc     H5  15388 0.10960400   1.008000   ; qtot 1.329669
15389         os    570    ccc     O1  15389 -0.28650000  16.000000   ; qtot 1.043169
15390         oh    570    ccc     O2  15390 -0.86012500  16.000000   ; qtot 0.183044
15391         oh    570    ccc     O3  15391 -0.83772800  16.000000   ; qtot -0.654684
15392         oh    570    ccc     O4  15392 -0.77449700  16.000000   ; qtot -1.429181
15393         c3    570    ccc     C6  15393 0.37576500  12.010000   ; qtot -1.053416
15394         ho    570    ccc     H6  15394 0.53656000   1.008000   ; qtot -0.516856
15395         ho    570    ccc     H7  15395 0.49492100   1.008000   ; qtot -0.021935
15396         ho    570    ccc     H8  15396 0.51297200   1.008000   ; qtot 0.491037
15397         h1    570    ccc     H9  15397 0.05653400   1.008000   ; qtot 0.547571
15398         h1    570    ccc    H10  15398 0.05653400   1.008000   ; qtot 0.604105
15399         oh    570    ccc     O5  15399 -0.84113600  16.000000   ; qtot -0.237031
15400         ho    570    ccc    H11  15400 0.51201600   1.008000   ; qtot 0.274985
15401         os    570    ccc     O6  15401 -0.26013600  16.000000   ; qtot 0.014849
; residue  571 ccc rtp ccc q 0.0
15402         c3    571    ccc     C1  15402 -0.33178800  12.010000   ; qtot -0.316939
15403         c3    571    ccc     C2  15403 0.30606500  12.010000   ; qtot -0.010874
15404         h1    571    ccc     H1  15404 0.11662300   1.008000   ; qtot 0.105749
15405         h1    571    ccc     H2  15405 0.11526800   1.008000   ; qtot 0.221017
15406         c3    571    ccc     C3  15406 0.15592700  12.010000   ; qtot 0.376944
15407         c3    571    ccc     C4  15407 0.28383300  12.010000   ; qtot 0.660777
15408         c3    571    ccc     C5  15408 0.32403300  12.010000   ; qtot 0.984810
15409         h1    571    ccc     H3  15409 0.13386900   1.008000   ; qtot 1.118679
15410         h1    571    ccc     H4  15410 0.10146700   1.008000   ; qtot 1.220146
15411         h2    571    ccc     H5  15411 0.10960400   1.008000   ; qtot 1.329750
15412         os    571    ccc     O1  15412 -0.28650000  16.000000   ; qtot 1.043250
15413         oh    571    ccc     O2  15413 -0.86012500  16.000000   ; qtot 0.183125
15414         oh    571    ccc     O3  15414 -0.83772800  16.000000   ; qtot -0.654603
15415         oh    571    ccc     O4  15415 -0.77449700  16.000000   ; qtot -1.429100
15416         c3    571    ccc     C6  15416 0.37576500  12.010000   ; qtot -1.053335
15417         ho    571    ccc     H6  15417 0.53656000   1.008000   ; qtot -0.516775
15418         ho    571    ccc     H7  15418 0.49492100   1.008000   ; qtot -0.021854
15419         ho    571    ccc     H8  15419 0.51297200   1.008000   ; qtot 0.491118
15420         h1    571    ccc     H9  15420 0.05653400   1.008000   ; qtot 0.547652
15421         h1    571    ccc    H10  15421 0.05653400   1.008000   ; qtot 0.604186
15422         oh    571    ccc     O5  15422 -0.84113600  16.000000   ; qtot -0.236950
15423         ho    571    ccc    H11  15423 0.51201600   1.008000   ; qtot 0.275066
15424         os    571    ccc     O6  15424 -0.26013600  16.000000   ; qtot 0.014930
; residue  572 ccc rtp ccc q 0.0
15425         c3    572    ccc     C1  15425 -0.33178800  12.010000   ; qtot -0.316858
15426         c3    572    ccc     C2  15426 0.30606500  12.010000   ; qtot -0.010793
15427         h1    572    ccc     H1  15427 0.11662300   1.008000   ; qtot 0.105830
15428         h1    572    ccc     H2  15428 0.11526800   1.008000   ; qtot 0.221098
15429         c3    572    ccc     C3  15429 0.15592700  12.010000   ; qtot 0.377025
15430         c3    572    ccc     C4  15430 0.28383300  12.010000   ; qtot 0.660858
15431         c3    572    ccc     C5  15431 0.32403300  12.010000   ; qtot 0.984891
15432         h1    572    ccc     H3  15432 0.13386900   1.008000   ; qtot 1.118760
15433         h1    572    ccc     H4  15433 0.10146700   1.008000   ; qtot 1.220227
15434         h2    572    ccc     H5  15434 0.10960400   1.008000   ; qtot 1.329831
15435         os    572    ccc     O1  15435 -0.28650000  16.000000   ; qtot 1.043331
15436         oh    572    ccc     O2  15436 -0.86012500  16.000000   ; qtot 0.183206
15437         oh    572    ccc     O3  15437 -0.83772800  16.000000   ; qtot -0.654522
15438         oh    572    ccc     O4  15438 -0.77449700  16.000000   ; qtot -1.429019
15439         c3    572    ccc     C6  15439 0.37576500  12.010000   ; qtot -1.053254
15440         ho    572    ccc     H6  15440 0.53656000   1.008000   ; qtot -0.516694
15441         ho    572    ccc     H7  15441 0.49492100   1.008000   ; qtot -0.021773
15442         ho    572    ccc     H8  15442 0.51297200   1.008000   ; qtot 0.491199
15443         h1    572    ccc     H9  15443 0.05653400   1.008000   ; qtot 0.547733
15444         h1    572    ccc    H10  15444 0.05653400   1.008000   ; qtot 0.604267
15445         oh    572    ccc     O5  15445 -0.84113600  16.000000   ; qtot -0.236869
15446         ho    572    ccc    H11  15446 0.51201600   1.008000   ; qtot 0.275147
15447         os    572    ccc     O6  15447 -0.26013600  16.000000   ; qtot 0.015011
; residue  573 ccc rtp ccc q 0.0
15448         c3    573    ccc     C1  15448 -0.33178800  12.010000   ; qtot -0.316777
15449         c3    573    ccc     C2  15449 0.30606500  12.010000   ; qtot -0.010712
15450         h1    573    ccc     H1  15450 0.11662300   1.008000   ; qtot 0.105911
15451         h1    573    ccc     H2  15451 0.11526800   1.008000   ; qtot 0.221179
15452         c3    573    ccc     C3  15452 0.15592700  12.010000   ; qtot 0.377106
15453         c3    573    ccc     C4  15453 0.28383300  12.010000   ; qtot 0.660939
15454         c3    573    ccc     C5  15454 0.32403300  12.010000   ; qtot 0.984972
15455         h1    573    ccc     H3  15455 0.13386900   1.008000   ; qtot 1.118841
15456         h1    573    ccc     H4  15456 0.10146700   1.008000   ; qtot 1.220308
15457         h2    573    ccc     H5  15457 0.10960400   1.008000   ; qtot 1.329912
15458         os    573    ccc     O1  15458 -0.28650000  16.000000   ; qtot 1.043412
15459         oh    573    ccc     O2  15459 -0.86012500  16.000000   ; qtot 0.183287
15460         oh    573    ccc     O3  15460 -0.83772800  16.000000   ; qtot -0.654441
15461         oh    573    ccc     O4  15461 -0.77449700  16.000000   ; qtot -1.428938
15462         c3    573    ccc     C6  15462 0.37576500  12.010000   ; qtot -1.053173
15463         ho    573    ccc     H6  15463 0.53656000   1.008000   ; qtot -0.516613
15464         ho    573    ccc     H7  15464 0.49492100   1.008000   ; qtot -0.021692
15465         ho    573    ccc     H8  15465 0.51297200   1.008000   ; qtot 0.491280
15466         h1    573    ccc     H9  15466 0.05653400   1.008000   ; qtot 0.547814
15467         h1    573    ccc    H10  15467 0.05653400   1.008000   ; qtot 0.604348
15468         oh    573    ccc     O5  15468 -0.84113600  16.000000   ; qtot -0.236788
15469         ho    573    ccc    H11  15469 0.51201600   1.008000   ; qtot 0.275228
15470         os    573    ccc     O6  15470 -0.26013600  16.000000   ; qtot 0.015092
; residue  574 ccc rtp ccc q 0.0
15471         c3    574    ccc     C1  15471 -0.33178800  12.010000   ; qtot -0.316696
15472         c3    574    ccc     C2  15472 0.30606500  12.010000   ; qtot -0.010631
15473         h1    574    ccc     H1  15473 0.11662300   1.008000   ; qtot 0.105992
15474         h1    574    ccc     H2  15474 0.11526800   1.008000   ; qtot 0.221260
15475         c3    574    ccc     C3  15475 0.15592700  12.010000   ; qtot 0.377187
15476         c3    574    ccc     C4  15476 0.28383300  12.010000   ; qtot 0.661020
15477         c3    574    ccc     C5  15477 0.32403300  12.010000   ; qtot 0.985053
15478         h1    574    ccc     H3  15478 0.13386900   1.008000   ; qtot 1.118922
15479         h1    574    ccc     H4  15479 0.10146700   1.008000   ; qtot 1.220389
15480         h2    574    ccc     H5  15480 0.10960400   1.008000   ; qtot 1.329993
15481         os    574    ccc     O1  15481 -0.28650000  16.000000   ; qtot 1.043493
15482         oh    574    ccc     O2  15482 -0.86012500  16.000000   ; qtot 0.183368
15483         oh    574    ccc     O3  15483 -0.83772800  16.000000   ; qtot -0.654360
15484         oh    574    ccc     O4  15484 -0.77449700  16.000000   ; qtot -1.428857
15485         c3    574    ccc     C6  15485 0.37576500  12.010000   ; qtot -1.053092
15486         ho    574    ccc     H6  15486 0.53656000   1.008000   ; qtot -0.516532
15487         ho    574    ccc     H7  15487 0.49492100   1.008000   ; qtot -0.021611
15488         ho    574    ccc     H8  15488 0.51297200   1.008000   ; qtot 0.491361
15489         h1    574    ccc     H9  15489 0.05653400   1.008000   ; qtot 0.547895
15490         h1    574    ccc    H10  15490 0.05653400   1.008000   ; qtot 0.604429
15491         oh    574    ccc     O5  15491 -0.84113600  16.000000   ; qtot -0.236707
15492         ho    574    ccc    H11  15492 0.51201600   1.008000   ; qtot 0.275309
15493         os    574    ccc     O6  15493 -0.26013600  16.000000   ; qtot 0.015173
; residue  575 ccc rtp ccc q 0.0
15494         c3    575    ccc     C1  15494 -0.33178800  12.010000   ; qtot -0.316615
15495         c3    575    ccc     C2  15495 0.30606500  12.010000   ; qtot -0.010550
15496         h1    575    ccc     H1  15496 0.11662300   1.008000   ; qtot 0.106073
15497         h1    575    ccc     H2  15497 0.11526800   1.008000   ; qtot 0.221341
15498         c3    575    ccc     C3  15498 0.15592700  12.010000   ; qtot 0.377268
15499         c3    575    ccc     C4  15499 0.28383300  12.010000   ; qtot 0.661101
15500         c3    575    ccc     C5  15500 0.32403300  12.010000   ; qtot 0.985134
15501         h1    575    ccc     H3  15501 0.13386900   1.008000   ; qtot 1.119003
15502         h1    575    ccc     H4  15502 0.10146700   1.008000   ; qtot 1.220470
15503         h2    575    ccc     H5  15503 0.10960400   1.008000   ; qtot 1.330074
15504         os    575    ccc     O1  15504 -0.28650000  16.000000   ; qtot 1.043574
15505         oh    575    ccc     O2  15505 -0.86012500  16.000000   ; qtot 0.183449
15506         oh    575    ccc     O3  15506 -0.83772800  16.000000   ; qtot -0.654279
15507         oh    575    ccc     O4  15507 -0.77449700  16.000000   ; qtot -1.428776
15508         c3    575    ccc     C6  15508 0.37576500  12.010000   ; qtot -1.053011
15509         ho    575    ccc     H6  15509 0.53656000   1.008000   ; qtot -0.516451
15510         ho    575    ccc     H7  15510 0.49492100   1.008000   ; qtot -0.021530
15511         ho    575    ccc     H8  15511 0.51297200   1.008000   ; qtot 0.491442
15512         h1    575    ccc     H9  15512 0.05653400   1.008000   ; qtot 0.547976
15513         h1    575    ccc    H10  15513 0.05653400   1.008000   ; qtot 0.604510
15514         oh    575    ccc     O5  15514 -0.84113600  16.000000   ; qtot -0.236626
15515         ho    575    ccc    H11  15515 0.51201600   1.008000   ; qtot 0.275390
15516         os    575    ccc     O6  15516 -0.26013600  16.000000   ; qtot 0.015254
; residue  576 ccc rtp ccc q 0.0
15517         c3    576    ccc     C1  15517 -0.33178800  12.010000   ; qtot -0.316534
15518         c3    576    ccc     C2  15518 0.30606500  12.010000   ; qtot -0.010469
15519         h1    576    ccc     H1  15519 0.11662300   1.008000   ; qtot 0.106154
15520         h1    576    ccc     H2  15520 0.11526800   1.008000   ; qtot 0.221422
15521         c3    576    ccc     C3  15521 0.15592700  12.010000   ; qtot 0.377349
15522         c3    576    ccc     C4  15522 0.28383300  12.010000   ; qtot 0.661182
15523         c3    576    ccc     C5  15523 0.32403300  12.010000   ; qtot 0.985215
15524         h1    576    ccc     H3  15524 0.13386900   1.008000   ; qtot 1.119084
15525         h1    576    ccc     H4  15525 0.10146700   1.008000   ; qtot 1.220551
15526         h2    576    ccc     H5  15526 0.10960400   1.008000   ; qtot 1.330155
15527         os    576    ccc     O1  15527 -0.28650000  16.000000   ; qtot 1.043655
15528         oh    576    ccc     O2  15528 -0.86012500  16.000000   ; qtot 0.183530
15529         oh    576    ccc     O3  15529 -0.83772800  16.000000   ; qtot -0.654198
15530         oh    576    ccc     O4  15530 -0.77449700  16.000000   ; qtot -1.428695
15531         c3    576    ccc     C6  15531 0.37576500  12.010000   ; qtot -1.052930
15532         ho    576    ccc     H6  15532 0.53656000   1.008000   ; qtot -0.516370
15533         ho    576    ccc     H7  15533 0.49492100   1.008000   ; qtot -0.021449
15534         ho    576    ccc     H8  15534 0.51297200   1.008000   ; qtot 0.491523
15535         h1    576    ccc     H9  15535 0.05653400   1.008000   ; qtot 0.548057
15536         h1    576    ccc    H10  15536 0.05653400   1.008000   ; qtot 0.604591
15537         oh    576    ccc     O5  15537 -0.84113600  16.000000   ; qtot -0.236545
15538         ho    576    ccc    H11  15538 0.51201600   1.008000   ; qtot 0.275471
15539         os    576    ccc     O6  15539 -0.26013600  16.000000   ; qtot 0.015335
; residue  577 ccc rtp ccc q 0.0
15540         c3    577    ccc     C1  15540 -0.33178800  12.010000   ; qtot -0.316453
15541         c3    577    ccc     C2  15541 0.30606500  12.010000   ; qtot -0.010388
15542         h1    577    ccc     H1  15542 0.11662300   1.008000   ; qtot 0.106235
15543         h1    577    ccc     H2  15543 0.11526800   1.008000   ; qtot 0.221503
15544         c3    577    ccc     C3  15544 0.15592700  12.010000   ; qtot 0.377430
15545         c3    577    ccc     C4  15545 0.28383300  12.010000   ; qtot 0.661263
15546         c3    577    ccc     C5  15546 0.32403300  12.010000   ; qtot 0.985296
15547         h1    577    ccc     H3  15547 0.13386900   1.008000   ; qtot 1.119165
15548         h1    577    ccc     H4  15548 0.10146700   1.008000   ; qtot 1.220632
15549         h2    577    ccc     H5  15549 0.10960400   1.008000   ; qtot 1.330236
15550         os    577    ccc     O1  15550 -0.28650000  16.000000   ; qtot 1.043736
15551         oh    577    ccc     O2  15551 -0.86012500  16.000000   ; qtot 0.183611
15552         oh    577    ccc     O3  15552 -0.83772800  16.000000   ; qtot -0.654117
15553         oh    577    ccc     O4  15553 -0.77449700  16.000000   ; qtot -1.428614
15554         c3    577    ccc     C6  15554 0.37576500  12.010000   ; qtot -1.052849
15555         ho    577    ccc     H6  15555 0.53656000   1.008000   ; qtot -0.516289
15556         ho    577    ccc     H7  15556 0.49492100   1.008000   ; qtot -0.021368
15557         ho    577    ccc     H8  15557 0.51297200   1.008000   ; qtot 0.491604
15558         h1    577    ccc     H9  15558 0.05653400   1.008000   ; qtot 0.548138
15559         h1    577    ccc    H10  15559 0.05653400   1.008000   ; qtot 0.604672
15560         oh    577    ccc     O5  15560 -0.84113600  16.000000   ; qtot -0.236464
15561         ho    577    ccc    H11  15561 0.51201600   1.008000   ; qtot 0.275552
15562         os    577    ccc     O6  15562 -0.26013600  16.000000   ; qtot 0.015416
; residue  578 ccc rtp ccc q 0.0
15563         c3    578    ccc     C1  15563 -0.33178800  12.010000   ; qtot -0.316372
15564         c3    578    ccc     C2  15564 0.30606500  12.010000   ; qtot -0.010307
15565         h1    578    ccc     H1  15565 0.11662300   1.008000   ; qtot 0.106316
15566         h1    578    ccc     H2  15566 0.11526800   1.008000   ; qtot 0.221584
15567         c3    578    ccc     C3  15567 0.15592700  12.010000   ; qtot 0.377511
15568         c3    578    ccc     C4  15568 0.28383300  12.010000   ; qtot 0.661344
15569         c3    578    ccc     C5  15569 0.32403300  12.010000   ; qtot 0.985377
15570         h1    578    ccc     H3  15570 0.13386900   1.008000   ; qtot 1.119246
15571         h1    578    ccc     H4  15571 0.10146700   1.008000   ; qtot 1.220713
15572         h2    578    ccc     H5  15572 0.10960400   1.008000   ; qtot 1.330317
15573         os    578    ccc     O1  15573 -0.28650000  16.000000   ; qtot 1.043817
15574         oh    578    ccc     O2  15574 -0.86012500  16.000000   ; qtot 0.183692
15575         oh    578    ccc     O3  15575 -0.83772800  16.000000   ; qtot -0.654036
15576         oh    578    ccc     O4  15576 -0.77449700  16.000000   ; qtot -1.428533
15577         c3    578    ccc     C6  15577 0.37576500  12.010000   ; qtot -1.052768
15578         ho    578    ccc     H6  15578 0.53656000   1.008000   ; qtot -0.516208
15579         ho    578    ccc     H7  15579 0.49492100   1.008000   ; qtot -0.021287
15580         ho    578    ccc     H8  15580 0.51297200   1.008000   ; qtot 0.491685
15581         h1    578    ccc     H9  15581 0.05653400   1.008000   ; qtot 0.548219
15582         h1    578    ccc    H10  15582 0.05653400   1.008000   ; qtot 0.604753
15583         oh    578    ccc     O5  15583 -0.84113600  16.000000   ; qtot -0.236383
15584         ho    578    ccc    H11  15584 0.51201600   1.008000   ; qtot 0.275633
15585         os    578    ccc     O6  15585 -0.26013600  16.000000   ; qtot 0.015497
; residue  579 ccc rtp ccc q 0.0
15586         c3    579    ccc     C1  15586 -0.33178800  12.010000   ; qtot -0.316291
15587         c3    579    ccc     C2  15587 0.30606500  12.010000   ; qtot -0.010226
15588         h1    579    ccc     H1  15588 0.11662300   1.008000   ; qtot 0.106397
15589         h1    579    ccc     H2  15589 0.11526800   1.008000   ; qtot 0.221665
15590         c3    579    ccc     C3  15590 0.15592700  12.010000   ; qtot 0.377592
15591         c3    579    ccc     C4  15591 0.28383300  12.010000   ; qtot 0.661425
15592         c3    579    ccc     C5  15592 0.32403300  12.010000   ; qtot 0.985458
15593         h1    579    ccc     H3  15593 0.13386900   1.008000   ; qtot 1.119327
15594         h1    579    ccc     H4  15594 0.10146700   1.008000   ; qtot 1.220794
15595         h2    579    ccc     H5  15595 0.10960400   1.008000   ; qtot 1.330398
15596         os    579    ccc     O1  15596 -0.28650000  16.000000   ; qtot 1.043898
15597         oh    579    ccc     O2  15597 -0.86012500  16.000000   ; qtot 0.183773
15598         oh    579    ccc     O3  15598 -0.83772800  16.000000   ; qtot -0.653955
15599         oh    579    ccc     O4  15599 -0.77449700  16.000000   ; qtot -1.428452
15600         c3    579    ccc     C6  15600 0.37576500  12.010000   ; qtot -1.052687
15601         ho    579    ccc     H6  15601 0.53656000   1.008000   ; qtot -0.516127
15602         ho    579    ccc     H7  15602 0.49492100   1.008000   ; qtot -0.021206
15603         ho    579    ccc     H8  15603 0.51297200   1.008000   ; qtot 0.491766
15604         h1    579    ccc     H9  15604 0.05653400   1.008000   ; qtot 0.548300
15605         h1    579    ccc    H10  15605 0.05653400   1.008000   ; qtot 0.604834
15606         oh    579    ccc     O5  15606 -0.84113600  16.000000   ; qtot -0.236302
15607         ho    579    ccc    H11  15607 0.51201600   1.008000   ; qtot 0.275714
15608         os    579    ccc     O6  15608 -0.26013600  16.000000   ; qtot 0.015578
; residue  580 ccc rtp ccc q 0.0
15609         c3    580    ccc     C1  15609 -0.33178800  12.010000   ; qtot -0.316210
15610         c3    580    ccc     C2  15610 0.30606500  12.010000   ; qtot -0.010145
15611         h1    580    ccc     H1  15611 0.11662300   1.008000   ; qtot 0.106478
15612         h1    580    ccc     H2  15612 0.11526800   1.008000   ; qtot 0.221746
15613         c3    580    ccc     C3  15613 0.15592700  12.010000   ; qtot 0.377673
15614         c3    580    ccc     C4  15614 0.28383300  12.010000   ; qtot 0.661506
15615         c3    580    ccc     C5  15615 0.32403300  12.010000   ; qtot 0.985539
15616         h1    580    ccc     H3  15616 0.13386900   1.008000   ; qtot 1.119408
15617         h1    580    ccc     H4  15617 0.10146700   1.008000   ; qtot 1.220875
15618         h2    580    ccc     H5  15618 0.10960400   1.008000   ; qtot 1.330479
15619         os    580    ccc     O1  15619 -0.28650000  16.000000   ; qtot 1.043979
15620         oh    580    ccc     O2  15620 -0.86012500  16.000000   ; qtot 0.183854
15621         oh    580    ccc     O3  15621 -0.83772800  16.000000   ; qtot -0.653874
15622         oh    580    ccc     O4  15622 -0.77449700  16.000000   ; qtot -1.428371
15623         c3    580    ccc     C6  15623 0.37576500  12.010000   ; qtot -1.052606
15624         ho    580    ccc     H6  15624 0.53656000   1.008000   ; qtot -0.516046
15625         ho    580    ccc     H7  15625 0.49492100   1.008000   ; qtot -0.021125
15626         ho    580    ccc     H8  15626 0.51297200   1.008000   ; qtot 0.491847
15627         h1    580    ccc     H9  15627 0.05653400   1.008000   ; qtot 0.548381
15628         h1    580    ccc    H10  15628 0.05653400   1.008000   ; qtot 0.604915
15629         oh    580    ccc     O5  15629 -0.84113600  16.000000   ; qtot -0.236221
15630         ho    580    ccc    H11  15630 0.51201600   1.008000   ; qtot 0.275795
15631         os    580    ccc     O6  15631 -0.26013600  16.000000   ; qtot 0.015659
; residue  581 ccc rtp ccc q 0.0
15632         c3    581    ccc     C1  15632 -0.33178800  12.010000   ; qtot -0.316129
15633         c3    581    ccc     C2  15633 0.30606500  12.010000   ; qtot -0.010064
15634         h1    581    ccc     H1  15634 0.11662300   1.008000   ; qtot 0.106559
15635         h1    581    ccc     H2  15635 0.11526800   1.008000   ; qtot 0.221827
15636         c3    581    ccc     C3  15636 0.15592700  12.010000   ; qtot 0.377754
15637         c3    581    ccc     C4  15637 0.28383300  12.010000   ; qtot 0.661587
15638         c3    581    ccc     C5  15638 0.32403300  12.010000   ; qtot 0.985620
15639         h1    581    ccc     H3  15639 0.13386900   1.008000   ; qtot 1.119489
15640         h1    581    ccc     H4  15640 0.10146700   1.008000   ; qtot 1.220956
15641         h2    581    ccc     H5  15641 0.10960400   1.008000   ; qtot 1.330560
15642         os    581    ccc     O1  15642 -0.28650000  16.000000   ; qtot 1.044060
15643         oh    581    ccc     O2  15643 -0.86012500  16.000000   ; qtot 0.183935
15644         oh    581    ccc     O3  15644 -0.83772800  16.000000   ; qtot -0.653793
15645         oh    581    ccc     O4  15645 -0.77449700  16.000000   ; qtot -1.428290
15646         c3    581    ccc     C6  15646 0.37576500  12.010000   ; qtot -1.052525
15647         ho    581    ccc     H6  15647 0.53656000   1.008000   ; qtot -0.515965
15648         ho    581    ccc     H7  15648 0.49492100   1.008000   ; qtot -0.021044
15649         ho    581    ccc     H8  15649 0.51297200   1.008000   ; qtot 0.491928
15650         h1    581    ccc     H9  15650 0.05653400   1.008000   ; qtot 0.548462
15651         h1    581    ccc    H10  15651 0.05653400   1.008000   ; qtot 0.604996
15652         oh    581    ccc     O5  15652 -0.84113600  16.000000   ; qtot -0.236140
15653         ho    581    ccc    H11  15653 0.51201600   1.008000   ; qtot 0.275876
15654         os    581    ccc     O6  15654 -0.26013600  16.000000   ; qtot 0.015740
; residue  582 ccc rtp ccc q 0.0
15655         c3    582    ccc     C1  15655 -0.33178800  12.010000   ; qtot -0.316048
15656         c3    582    ccc     C2  15656 0.30606500  12.010000   ; qtot -0.009983
15657         h1    582    ccc     H1  15657 0.11662300   1.008000   ; qtot 0.106640
15658         h1    582    ccc     H2  15658 0.11526800   1.008000   ; qtot 0.221908
15659         c3    582    ccc     C3  15659 0.15592700  12.010000   ; qtot 0.377835
15660         c3    582    ccc     C4  15660 0.28383300  12.010000   ; qtot 0.661668
15661         c3    582    ccc     C5  15661 0.32403300  12.010000   ; qtot 0.985701
15662         h1    582    ccc     H3  15662 0.13386900   1.008000   ; qtot 1.119570
15663         h1    582    ccc     H4  15663 0.10146700   1.008000   ; qtot 1.221037
15664         h2    582    ccc     H5  15664 0.10960400   1.008000   ; qtot 1.330641
15665         os    582    ccc     O1  15665 -0.28650000  16.000000   ; qtot 1.044141
15666         oh    582    ccc     O2  15666 -0.86012500  16.000000   ; qtot 0.184016
15667         oh    582    ccc     O3  15667 -0.83772800  16.000000   ; qtot -0.653712
15668         oh    582    ccc     O4  15668 -0.77449700  16.000000   ; qtot -1.428209
15669         c3    582    ccc     C6  15669 0.37576500  12.010000   ; qtot -1.052444
15670         ho    582    ccc     H6  15670 0.53656000   1.008000   ; qtot -0.515884
15671         ho    582    ccc     H7  15671 0.49492100   1.008000   ; qtot -0.020963
15672         ho    582    ccc     H8  15672 0.51297200   1.008000   ; qtot 0.492009
15673         h1    582    ccc     H9  15673 0.05653400   1.008000   ; qtot 0.548543
15674         h1    582    ccc    H10  15674 0.05653400   1.008000   ; qtot 0.605077
15675         oh    582    ccc     O5  15675 -0.84113600  16.000000   ; qtot -0.236059
15676         ho    582    ccc    H11  15676 0.51201600   1.008000   ; qtot 0.275957
15677         os    582    ccc     O6  15677 -0.26013600  16.000000   ; qtot 0.015821
; residue  583 ccc rtp ccc q 0.0
15678         c3    583    ccc     C1  15678 -0.33178800  12.010000   ; qtot -0.315967
15679         c3    583    ccc     C2  15679 0.30606500  12.010000   ; qtot -0.009902
15680         h1    583    ccc     H1  15680 0.11662300   1.008000   ; qtot 0.106721
15681         h1    583    ccc     H2  15681 0.11526800   1.008000   ; qtot 0.221989
15682         c3    583    ccc     C3  15682 0.15592700  12.010000   ; qtot 0.377916
15683         c3    583    ccc     C4  15683 0.28383300  12.010000   ; qtot 0.661749
15684         c3    583    ccc     C5  15684 0.32403300  12.010000   ; qtot 0.985782
15685         h1    583    ccc     H3  15685 0.13386900   1.008000   ; qtot 1.119651
15686         h1    583    ccc     H4  15686 0.10146700   1.008000   ; qtot 1.221118
15687         h2    583    ccc     H5  15687 0.10960400   1.008000   ; qtot 1.330722
15688         os    583    ccc     O1  15688 -0.28650000  16.000000   ; qtot 1.044222
15689         oh    583    ccc     O2  15689 -0.86012500  16.000000   ; qtot 0.184097
15690         oh    583    ccc     O3  15690 -0.83772800  16.000000   ; qtot -0.653631
15691         oh    583    ccc     O4  15691 -0.77449700  16.000000   ; qtot -1.428128
15692         c3    583    ccc     C6  15692 0.37576500  12.010000   ; qtot -1.052363
15693         ho    583    ccc     H6  15693 0.53656000   1.008000   ; qtot -0.515803
15694         ho    583    ccc     H7  15694 0.49492100   1.008000   ; qtot -0.020882
15695         ho    583    ccc     H8  15695 0.51297200   1.008000   ; qtot 0.492090
15696         h1    583    ccc     H9  15696 0.05653400   1.008000   ; qtot 0.548624
15697         h1    583    ccc    H10  15697 0.05653400   1.008000   ; qtot 0.605158
15698         oh    583    ccc     O5  15698 -0.84113600  16.000000   ; qtot -0.235978
15699         ho    583    ccc    H11  15699 0.51201600   1.008000   ; qtot 0.276038
15700         os    583    ccc     O6  15700 -0.26013600  16.000000   ; qtot 0.015902
; residue  584 ccc rtp ccc q 0.0
15701         c3    584    ccc     C1  15701 -0.33178800  12.010000   ; qtot -0.315886
15702         c3    584    ccc     C2  15702 0.30606500  12.010000   ; qtot -0.009821
15703         h1    584    ccc     H1  15703 0.11662300   1.008000   ; qtot 0.106802
15704         h1    584    ccc     H2  15704 0.11526800   1.008000   ; qtot 0.222070
15705         c3    584    ccc     C3  15705 0.15592700  12.010000   ; qtot 0.377997
15706         c3    584    ccc     C4  15706 0.28383300  12.010000   ; qtot 0.661830
15707         c3    584    ccc     C5  15707 0.32403300  12.010000   ; qtot 0.985863
15708         h1    584    ccc     H3  15708 0.13386900   1.008000   ; qtot 1.119732
15709         h1    584    ccc     H4  15709 0.10146700   1.008000   ; qtot 1.221199
15710         h2    584    ccc     H5  15710 0.10960400   1.008000   ; qtot 1.330803
15711         os    584    ccc     O1  15711 -0.28650000  16.000000   ; qtot 1.044303
15712         oh    584    ccc     O2  15712 -0.86012500  16.000000   ; qtot 0.184178
15713         oh    584    ccc     O3  15713 -0.83772800  16.000000   ; qtot -0.653550
15714         oh    584    ccc     O4  15714 -0.77449700  16.000000   ; qtot -1.428047
15715         c3    584    ccc     C6  15715 0.37576500  12.010000   ; qtot -1.052282
15716         ho    584    ccc     H6  15716 0.53656000   1.008000   ; qtot -0.515722
15717         ho    584    ccc     H7  15717 0.49492100   1.008000   ; qtot -0.020801
15718         ho    584    ccc     H8  15718 0.51297200   1.008000   ; qtot 0.492171
15719         h1    584    ccc     H9  15719 0.05653400   1.008000   ; qtot 0.548705
15720         h1    584    ccc    H10  15720 0.05653400   1.008000   ; qtot 0.605239
15721         oh    584    ccc     O5  15721 -0.84113600  16.000000   ; qtot -0.235897
15722         ho    584    ccc    H11  15722 0.51201600   1.008000   ; qtot 0.276119
15723         os    584    ccc     O6  15723 -0.26013600  16.000000   ; qtot 0.015983
; residue  585 ccc rtp ccc q 0.0
15724         c3    585    ccc     C1  15724 -0.33178800  12.010000   ; qtot -0.315805
15725         c3    585    ccc     C2  15725 0.30606500  12.010000   ; qtot -0.009740
15726         h1    585    ccc     H1  15726 0.11662300   1.008000   ; qtot 0.106883
15727         h1    585    ccc     H2  15727 0.11526800   1.008000   ; qtot 0.222151
15728         c3    585    ccc     C3  15728 0.15592700  12.010000   ; qtot 0.378078
15729         c3    585    ccc     C4  15729 0.28383300  12.010000   ; qtot 0.661911
15730         c3    585    ccc     C5  15730 0.32403300  12.010000   ; qtot 0.985944
15731         h1    585    ccc     H3  15731 0.13386900   1.008000   ; qtot 1.119813
15732         h1    585    ccc     H4  15732 0.10146700   1.008000   ; qtot 1.221280
15733         h2    585    ccc     H5  15733 0.10960400   1.008000   ; qtot 1.330884
15734         os    585    ccc     O1  15734 -0.28650000  16.000000   ; qtot 1.044384
15735         oh    585    ccc     O2  15735 -0.86012500  16.000000   ; qtot 0.184259
15736         oh    585    ccc     O3  15736 -0.83772800  16.000000   ; qtot -0.653469
15737         oh    585    ccc     O4  15737 -0.77449700  16.000000   ; qtot -1.427966
15738         c3    585    ccc     C6  15738 0.37576500  12.010000   ; qtot -1.052201
15739         ho    585    ccc     H6  15739 0.53656000   1.008000   ; qtot -0.515641
15740         ho    585    ccc     H7  15740 0.49492100   1.008000   ; qtot -0.020720
15741         ho    585    ccc     H8  15741 0.51297200   1.008000   ; qtot 0.492252
15742         h1    585    ccc     H9  15742 0.05653400   1.008000   ; qtot 0.548786
15743         h1    585    ccc    H10  15743 0.05653400   1.008000   ; qtot 0.605320
15744         oh    585    ccc     O5  15744 -0.84113600  16.000000   ; qtot -0.235816
15745         ho    585    ccc    H11  15745 0.51201600   1.008000   ; qtot 0.276200
15746         os    585    ccc     O6  15746 -0.26013600  16.000000   ; qtot 0.016064
; residue  586 ccc rtp ccc q 0.0
15747         c3    586    ccc     C1  15747 -0.33178800  12.010000   ; qtot -0.315724
15748         c3    586    ccc     C2  15748 0.30606500  12.010000   ; qtot -0.009659
15749         h1    586    ccc     H1  15749 0.11662300   1.008000   ; qtot 0.106964
15750         h1    586    ccc     H2  15750 0.11526800   1.008000   ; qtot 0.222232
15751         c3    586    ccc     C3  15751 0.15592700  12.010000   ; qtot 0.378159
15752         c3    586    ccc     C4  15752 0.28383300  12.010000   ; qtot 0.661992
15753         c3    586    ccc     C5  15753 0.32403300  12.010000   ; qtot 0.986025
15754         h1    586    ccc     H3  15754 0.13386900   1.008000   ; qtot 1.119894
15755         h1    586    ccc     H4  15755 0.10146700   1.008000   ; qtot 1.221361
15756         h2    586    ccc     H5  15756 0.10960400   1.008000   ; qtot 1.330965
15757         os    586    ccc     O1  15757 -0.28650000  16.000000   ; qtot 1.044465
15758         oh    586    ccc     O2  15758 -0.86012500  16.000000   ; qtot 0.184340
15759         oh    586    ccc     O3  15759 -0.83772800  16.000000   ; qtot -0.653388
15760         oh    586    ccc     O4  15760 -0.77449700  16.000000   ; qtot -1.427885
15761         c3    586    ccc     C6  15761 0.37576500  12.010000   ; qtot -1.052120
15762         ho    586    ccc     H6  15762 0.53656000   1.008000   ; qtot -0.515560
15763         ho    586    ccc     H7  15763 0.49492100   1.008000   ; qtot -0.020639
15764         ho    586    ccc     H8  15764 0.51297200   1.008000   ; qtot 0.492333
15765         h1    586    ccc     H9  15765 0.05653400   1.008000   ; qtot 0.548867
15766         h1    586    ccc    H10  15766 0.05653400   1.008000   ; qtot 0.605401
15767         oh    586    ccc     O5  15767 -0.84113600  16.000000   ; qtot -0.235735
15768         ho    586    ccc    H11  15768 0.51201600   1.008000   ; qtot 0.276281
15769         os    586    ccc     O6  15769 -0.26013600  16.000000   ; qtot 0.016145
; residue  587 ccc rtp ccc q 0.0
15770         c3    587    ccc     C1  15770 -0.33178800  12.010000   ; qtot -0.315643
15771         c3    587    ccc     C2  15771 0.30606500  12.010000   ; qtot -0.009578
15772         h1    587    ccc     H1  15772 0.11662300   1.008000   ; qtot 0.107045
15773         h1    587    ccc     H2  15773 0.11526800   1.008000   ; qtot 0.222313
15774         c3    587    ccc     C3  15774 0.15592700  12.010000   ; qtot 0.378240
15775         c3    587    ccc     C4  15775 0.28383300  12.010000   ; qtot 0.662073
15776         c3    587    ccc     C5  15776 0.32403300  12.010000   ; qtot 0.986106
15777         h1    587    ccc     H3  15777 0.13386900   1.008000   ; qtot 1.119975
15778         h1    587    ccc     H4  15778 0.10146700   1.008000   ; qtot 1.221442
15779         h2    587    ccc     H5  15779 0.10960400   1.008000   ; qtot 1.331046
15780         os    587    ccc     O1  15780 -0.28650000  16.000000   ; qtot 1.044546
15781         oh    587    ccc     O2  15781 -0.86012500  16.000000   ; qtot 0.184421
15782         oh    587    ccc     O3  15782 -0.83772800  16.000000   ; qtot -0.653307
15783         oh    587    ccc     O4  15783 -0.77449700  16.000000   ; qtot -1.427804
15784         c3    587    ccc     C6  15784 0.37576500  12.010000   ; qtot -1.052039
15785         ho    587    ccc     H6  15785 0.53656000   1.008000   ; qtot -0.515479
15786         ho    587    ccc     H7  15786 0.49492100   1.008000   ; qtot -0.020558
15787         ho    587    ccc     H8  15787 0.51297200   1.008000   ; qtot 0.492414
15788         h1    587    ccc     H9  15788 0.05653400   1.008000   ; qtot 0.548948
15789         h1    587    ccc    H10  15789 0.05653400   1.008000   ; qtot 0.605482
15790         oh    587    ccc     O5  15790 -0.84113600  16.000000   ; qtot -0.235654
15791         ho    587    ccc    H11  15791 0.51201600   1.008000   ; qtot 0.276362
15792         os    587    ccc     O6  15792 -0.26013600  16.000000   ; qtot 0.016226
; residue  588 ccc rtp ccc q 0.0
15793         c3    588    ccc     C1  15793 -0.33178800  12.010000   ; qtot -0.315562
15794         c3    588    ccc     C2  15794 0.30606500  12.010000   ; qtot -0.009497
15795         h1    588    ccc     H1  15795 0.11662300   1.008000   ; qtot 0.107126
15796         h1    588    ccc     H2  15796 0.11526800   1.008000   ; qtot 0.222394
15797         c3    588    ccc     C3  15797 0.15592700  12.010000   ; qtot 0.378321
15798         c3    588    ccc     C4  15798 0.28383300  12.010000   ; qtot 0.662154
15799         c3    588    ccc     C5  15799 0.32403300  12.010000   ; qtot 0.986187
15800         h1    588    ccc     H3  15800 0.13386900   1.008000   ; qtot 1.120056
15801         h1    588    ccc     H4  15801 0.10146700   1.008000   ; qtot 1.221523
15802         h2    588    ccc     H5  15802 0.10960400   1.008000   ; qtot 1.331127
15803         os    588    ccc     O1  15803 -0.28650000  16.000000   ; qtot 1.044627
15804         oh    588    ccc     O2  15804 -0.86012500  16.000000   ; qtot 0.184502
15805         oh    588    ccc     O3  15805 -0.83772800  16.000000   ; qtot -0.653226
15806         oh    588    ccc     O4  15806 -0.77449700  16.000000   ; qtot -1.427723
15807         c3    588    ccc     C6  15807 0.37576500  12.010000   ; qtot -1.051958
15808         ho    588    ccc     H6  15808 0.53656000   1.008000   ; qtot -0.515398
15809         ho    588    ccc     H7  15809 0.49492100   1.008000   ; qtot -0.020477
15810         ho    588    ccc     H8  15810 0.51297200   1.008000   ; qtot 0.492495
15811         h1    588    ccc     H9  15811 0.05653400   1.008000   ; qtot 0.549029
15812         h1    588    ccc    H10  15812 0.05653400   1.008000   ; qtot 0.605563
15813         oh    588    ccc     O5  15813 -0.84113600  16.000000   ; qtot -0.235573
15814         ho    588    ccc    H11  15814 0.51201600   1.008000   ; qtot 0.276443
15815         os    588    ccc     O6  15815 -0.26013600  16.000000   ; qtot 0.016307
; residue  589 ccc rtp ccc q 0.0
15816         c3    589    ccc     C1  15816 -0.33178800  12.010000   ; qtot -0.315481
15817         c3    589    ccc     C2  15817 0.30606500  12.010000   ; qtot -0.009416
15818         h1    589    ccc     H1  15818 0.11662300   1.008000   ; qtot 0.107207
15819         h1    589    ccc     H2  15819 0.11526800   1.008000   ; qtot 0.222475
15820         c3    589    ccc     C3  15820 0.15592700  12.010000   ; qtot 0.378402
15821         c3    589    ccc     C4  15821 0.28383300  12.010000   ; qtot 0.662235
15822         c3    589    ccc     C5  15822 0.32403300  12.010000   ; qtot 0.986268
15823         h1    589    ccc     H3  15823 0.13386900   1.008000   ; qtot 1.120137
15824         h1    589    ccc     H4  15824 0.10146700   1.008000   ; qtot 1.221604
15825         h2    589    ccc     H5  15825 0.10960400   1.008000   ; qtot 1.331208
15826         os    589    ccc     O1  15826 -0.28650000  16.000000   ; qtot 1.044708
15827         oh    589    ccc     O2  15827 -0.86012500  16.000000   ; qtot 0.184583
15828         oh    589    ccc     O3  15828 -0.83772800  16.000000   ; qtot -0.653145
15829         oh    589    ccc     O4  15829 -0.77449700  16.000000   ; qtot -1.427642
15830         c3    589    ccc     C6  15830 0.37576500  12.010000   ; qtot -1.051877
15831         ho    589    ccc     H6  15831 0.53656000   1.008000   ; qtot -0.515317
15832         ho    589    ccc     H7  15832 0.49492100   1.008000   ; qtot -0.020396
15833         ho    589    ccc     H8  15833 0.51297200   1.008000   ; qtot 0.492576
15834         h1    589    ccc     H9  15834 0.05653400   1.008000   ; qtot 0.549110
15835         h1    589    ccc    H10  15835 0.05653400   1.008000   ; qtot 0.605644
15836         oh    589    ccc     O5  15836 -0.84113600  16.000000   ; qtot -0.235492
15837         ho    589    ccc    H11  15837 0.51201600   1.008000   ; qtot 0.276524
15838         os    589    ccc     O6  15838 -0.26013600  16.000000   ; qtot 0.016388
; residue  590 ccc rtp ccc q 0.0
15839         c3    590    ccc     C1  15839 -0.33178800  12.010000   ; qtot -0.315400
15840         c3    590    ccc     C2  15840 0.30606500  12.010000   ; qtot -0.009335
15841         h1    590    ccc     H1  15841 0.11662300   1.008000   ; qtot 0.107288
15842         h1    590    ccc     H2  15842 0.11526800   1.008000   ; qtot 0.222556
15843         c3    590    ccc     C3  15843 0.15592700  12.010000   ; qtot 0.378483
15844         c3    590    ccc     C4  15844 0.28383300  12.010000   ; qtot 0.662316
15845         c3    590    ccc     C5  15845 0.32403300  12.010000   ; qtot 0.986349
15846         h1    590    ccc     H3  15846 0.13386900   1.008000   ; qtot 1.120218
15847         h1    590    ccc     H4  15847 0.10146700   1.008000   ; qtot 1.221685
15848         h2    590    ccc     H5  15848 0.10960400   1.008000   ; qtot 1.331289
15849         os    590    ccc     O1  15849 -0.28650000  16.000000   ; qtot 1.044789
15850         oh    590    ccc     O2  15850 -0.86012500  16.000000   ; qtot 0.184664
15851         oh    590    ccc     O3  15851 -0.83772800  16.000000   ; qtot -0.653064
15852         oh    590    ccc     O4  15852 -0.77449700  16.000000   ; qtot -1.427561
15853         c3    590    ccc     C6  15853 0.37576500  12.010000   ; qtot -1.051796
15854         ho    590    ccc     H6  15854 0.53656000   1.008000   ; qtot -0.515236
15855         ho    590    ccc     H7  15855 0.49492100   1.008000   ; qtot -0.020315
15856         ho    590    ccc     H8  15856 0.51297200   1.008000   ; qtot 0.492657
15857         h1    590    ccc     H9  15857 0.05653400   1.008000   ; qtot 0.549191
15858         h1    590    ccc    H10  15858 0.05653400   1.008000   ; qtot 0.605725
15859         oh    590    ccc     O5  15859 -0.84113600  16.000000   ; qtot -0.235411
15860         ho    590    ccc    H11  15860 0.51201600   1.008000   ; qtot 0.276605
15861         os    590    ccc     O6  15861 -0.26013600  16.000000   ; qtot 0.016469
; residue  591 ccc rtp ccc q 0.0
15862         c3    591    ccc     C1  15862 -0.33178800  12.010000   ; qtot -0.315319
15863         c3    591    ccc     C2  15863 0.30606500  12.010000   ; qtot -0.009254
15864         h1    591    ccc     H1  15864 0.11662300   1.008000   ; qtot 0.107369
15865         h1    591    ccc     H2  15865 0.11526800   1.008000   ; qtot 0.222637
15866         c3    591    ccc     C3  15866 0.15592700  12.010000   ; qtot 0.378564
15867         c3    591    ccc     C4  15867 0.28383300  12.010000   ; qtot 0.662397
15868         c3    591    ccc     C5  15868 0.32403300  12.010000   ; qtot 0.986430
15869         h1    591    ccc     H3  15869 0.13386900   1.008000   ; qtot 1.120299
15870         h1    591    ccc     H4  15870 0.10146700   1.008000   ; qtot 1.221766
15871         h2    591    ccc     H5  15871 0.10960400   1.008000   ; qtot 1.331370
15872         os    591    ccc     O1  15872 -0.28650000  16.000000   ; qtot 1.044870
15873         oh    591    ccc     O2  15873 -0.86012500  16.000000   ; qtot 0.184745
15874         oh    591    ccc     O3  15874 -0.83772800  16.000000   ; qtot -0.652983
15875         oh    591    ccc     O4  15875 -0.77449700  16.000000   ; qtot -1.427480
15876         c3    591    ccc     C6  15876 0.37576500  12.010000   ; qtot -1.051715
15877         ho    591    ccc     H6  15877 0.53656000   1.008000   ; qtot -0.515155
15878         ho    591    ccc     H7  15878 0.49492100   1.008000   ; qtot -0.020234
15879         ho    591    ccc     H8  15879 0.51297200   1.008000   ; qtot 0.492738
15880         h1    591    ccc     H9  15880 0.05653400   1.008000   ; qtot 0.549272
15881         h1    591    ccc    H10  15881 0.05653400   1.008000   ; qtot 0.605806
15882         oh    591    ccc     O5  15882 -0.84113600  16.000000   ; qtot -0.235330
15883         ho    591    ccc    H11  15883 0.51201600   1.008000   ; qtot 0.276686
15884         os    591    ccc     O6  15884 -0.26013600  16.000000   ; qtot 0.016550
; residue  592 ccc rtp ccc q 0.0
15885         c3    592    ccc     C1  15885 -0.33178800  12.010000   ; qtot -0.315238
15886         c3    592    ccc     C2  15886 0.30606500  12.010000   ; qtot -0.009173
15887         h1    592    ccc     H1  15887 0.11662300   1.008000   ; qtot 0.107450
15888         h1    592    ccc     H2  15888 0.11526800   1.008000   ; qtot 0.222718
15889         c3    592    ccc     C3  15889 0.15592700  12.010000   ; qtot 0.378645
15890         c3    592    ccc     C4  15890 0.28383300  12.010000   ; qtot 0.662478
15891         c3    592    ccc     C5  15891 0.32403300  12.010000   ; qtot 0.986511
15892         h1    592    ccc     H3  15892 0.13386900   1.008000   ; qtot 1.120380
15893         h1    592    ccc     H4  15893 0.10146700   1.008000   ; qtot 1.221847
15894         h2    592    ccc     H5  15894 0.10960400   1.008000   ; qtot 1.331451
15895         os    592    ccc     O1  15895 -0.28650000  16.000000   ; qtot 1.044951
15896         oh    592    ccc     O2  15896 -0.86012500  16.000000   ; qtot 0.184826
15897         oh    592    ccc     O3  15897 -0.83772800  16.000000   ; qtot -0.652902
15898         oh    592    ccc     O4  15898 -0.77449700  16.000000   ; qtot -1.427399
15899         c3    592    ccc     C6  15899 0.37576500  12.010000   ; qtot -1.051634
15900         ho    592    ccc     H6  15900 0.53656000   1.008000   ; qtot -0.515074
15901         ho    592    ccc     H7  15901 0.49492100   1.008000   ; qtot -0.020153
15902         ho    592    ccc     H8  15902 0.51297200   1.008000   ; qtot 0.492819
15903         h1    592    ccc     H9  15903 0.05653400   1.008000   ; qtot 0.549353
15904         h1    592    ccc    H10  15904 0.05653400   1.008000   ; qtot 0.605887
15905         oh    592    ccc     O5  15905 -0.84113600  16.000000   ; qtot -0.235249
15906         ho    592    ccc    H11  15906 0.51201600   1.008000   ; qtot 0.276767
15907         os    592    ccc     O6  15907 -0.26013600  16.000000   ; qtot 0.016631
; residue  593 ccc rtp ccc q 0.0
15908         c3    593    ccc     C1  15908 -0.33178800  12.010000   ; qtot -0.315157
15909         c3    593    ccc     C2  15909 0.30606500  12.010000   ; qtot -0.009092
15910         h1    593    ccc     H1  15910 0.11662300   1.008000   ; qtot 0.107531
15911         h1    593    ccc     H2  15911 0.11526800   1.008000   ; qtot 0.222799
15912         c3    593    ccc     C3  15912 0.15592700  12.010000   ; qtot 0.378726
15913         c3    593    ccc     C4  15913 0.28383300  12.010000   ; qtot 0.662559
15914         c3    593    ccc     C5  15914 0.32403300  12.010000   ; qtot 0.986592
15915         h1    593    ccc     H3  15915 0.13386900   1.008000   ; qtot 1.120461
15916         h1    593    ccc     H4  15916 0.10146700   1.008000   ; qtot 1.221928
15917         h2    593    ccc     H5  15917 0.10960400   1.008000   ; qtot 1.331532
15918         os    593    ccc     O1  15918 -0.28650000  16.000000   ; qtot 1.045032
15919         oh    593    ccc     O2  15919 -0.86012500  16.000000   ; qtot 0.184907
15920         oh    593    ccc     O3  15920 -0.83772800  16.000000   ; qtot -0.652821
15921         oh    593    ccc     O4  15921 -0.77449700  16.000000   ; qtot -1.427318
15922         c3    593    ccc     C6  15922 0.37576500  12.010000   ; qtot -1.051553
15923         ho    593    ccc     H6  15923 0.53656000   1.008000   ; qtot -0.514993
15924         ho    593    ccc     H7  15924 0.49492100   1.008000   ; qtot -0.020072
15925         ho    593    ccc     H8  15925 0.51297200   1.008000   ; qtot 0.492900
15926         h1    593    ccc     H9  15926 0.05653400   1.008000   ; qtot 0.549434
15927         h1    593    ccc    H10  15927 0.05653400   1.008000   ; qtot 0.605968
15928         oh    593    ccc     O5  15928 -0.84113600  16.000000   ; qtot -0.235168
15929         ho    593    ccc    H11  15929 0.51201600   1.008000   ; qtot 0.276848
15930         os    593    ccc     O6  15930 -0.26013600  16.000000   ; qtot 0.016712
; residue  594 ccc rtp ccc q 0.0
15931         c3    594    ccc     C1  15931 -0.33178800  12.010000   ; qtot -0.315076
15932         c3    594    ccc     C2  15932 0.30606500  12.010000   ; qtot -0.009011
15933         h1    594    ccc     H1  15933 0.11662300   1.008000   ; qtot 0.107612
15934         h1    594    ccc     H2  15934 0.11526800   1.008000   ; qtot 0.222880
15935         c3    594    ccc     C3  15935 0.15592700  12.010000   ; qtot 0.378807
15936         c3    594    ccc     C4  15936 0.28383300  12.010000   ; qtot 0.662640
15937         c3    594    ccc     C5  15937 0.32403300  12.010000   ; qtot 0.986673
15938         h1    594    ccc     H3  15938 0.13386900   1.008000   ; qtot 1.120542
15939         h1    594    ccc     H4  15939 0.10146700   1.008000   ; qtot 1.222009
15940         h2    594    ccc     H5  15940 0.10960400   1.008000   ; qtot 1.331613
15941         os    594    ccc     O1  15941 -0.28650000  16.000000   ; qtot 1.045113
15942         oh    594    ccc     O2  15942 -0.86012500  16.000000   ; qtot 0.184988
15943         oh    594    ccc     O3  15943 -0.83772800  16.000000   ; qtot -0.652740
15944         oh    594    ccc     O4  15944 -0.77449700  16.000000   ; qtot -1.427237
15945         c3    594    ccc     C6  15945 0.37576500  12.010000   ; qtot -1.051472
15946         ho    594    ccc     H6  15946 0.53656000   1.008000   ; qtot -0.514912
15947         ho    594    ccc     H7  15947 0.49492100   1.008000   ; qtot -0.019991
15948         ho    594    ccc     H8  15948 0.51297200   1.008000   ; qtot 0.492981
15949         h1    594    ccc     H9  15949 0.05653400   1.008000   ; qtot 0.549515
15950         h1    594    ccc    H10  15950 0.05653400   1.008000   ; qtot 0.606049
15951         oh    594    ccc     O5  15951 -0.84113600  16.000000   ; qtot -0.235087
15952         ho    594    ccc    H11  15952 0.51201600   1.008000   ; qtot 0.276929
15953         os    594    ccc     O6  15953 -0.26013600  16.000000   ; qtot 0.016793
; residue  595 ccc rtp ccc q 0.0
15954         c3    595    ccc     C1  15954 -0.33178800  12.010000   ; qtot -0.314995
15955         c3    595    ccc     C2  15955 0.30606500  12.010000   ; qtot -0.008930
15956         h1    595    ccc     H1  15956 0.11662300   1.008000   ; qtot 0.107693
15957         h1    595    ccc     H2  15957 0.11526800   1.008000   ; qtot 0.222961
15958         c3    595    ccc     C3  15958 0.15592700  12.010000   ; qtot 0.378888
15959         c3    595    ccc     C4  15959 0.28383300  12.010000   ; qtot 0.662721
15960         c3    595    ccc     C5  15960 0.32403300  12.010000   ; qtot 0.986754
15961         h1    595    ccc     H3  15961 0.13386900   1.008000   ; qtot 1.120623
15962         h1    595    ccc     H4  15962 0.10146700   1.008000   ; qtot 1.222090
15963         h2    595    ccc     H5  15963 0.10960400   1.008000   ; qtot 1.331694
15964         os    595    ccc     O1  15964 -0.28650000  16.000000   ; qtot 1.045194
15965         oh    595    ccc     O2  15965 -0.86012500  16.000000   ; qtot 0.185069
15966         oh    595    ccc     O3  15966 -0.83772800  16.000000   ; qtot -0.652659
15967         oh    595    ccc     O4  15967 -0.77449700  16.000000   ; qtot -1.427156
15968         c3    595    ccc     C6  15968 0.37576500  12.010000   ; qtot -1.051391
15969         ho    595    ccc     H6  15969 0.53656000   1.008000   ; qtot -0.514831
15970         ho    595    ccc     H7  15970 0.49492100   1.008000   ; qtot -0.019910
15971         ho    595    ccc     H8  15971 0.51297200   1.008000   ; qtot 0.493062
15972         h1    595    ccc     H9  15972 0.05653400   1.008000   ; qtot 0.549596
15973         h1    595    ccc    H10  15973 0.05653400   1.008000   ; qtot 0.606130
15974         oh    595    ccc     O5  15974 -0.84113600  16.000000   ; qtot -0.235006
15975         ho    595    ccc    H11  15975 0.51201600   1.008000   ; qtot 0.277010
15976         os    595    ccc     O6  15976 -0.26013600  16.000000   ; qtot 0.016874
; residue  596 ccc rtp ccc q 0.0
15977         c3    596    ccc     C1  15977 -0.33178800  12.010000   ; qtot -0.314914
15978         c3    596    ccc     C2  15978 0.30606500  12.010000   ; qtot -0.008849
15979         h1    596    ccc     H1  15979 0.11662300   1.008000   ; qtot 0.107774
15980         h1    596    ccc     H2  15980 0.11526800   1.008000   ; qtot 0.223042
15981         c3    596    ccc     C3  15981 0.15592700  12.010000   ; qtot 0.378969
15982         c3    596    ccc     C4  15982 0.28383300  12.010000   ; qtot 0.662802
15983         c3    596    ccc     C5  15983 0.32403300  12.010000   ; qtot 0.986835
15984         h1    596    ccc     H3  15984 0.13386900   1.008000   ; qtot 1.120704
15985         h1    596    ccc     H4  15985 0.10146700   1.008000   ; qtot 1.222171
15986         h2    596    ccc     H5  15986 0.10960400   1.008000   ; qtot 1.331775
15987         os    596    ccc     O1  15987 -0.28650000  16.000000   ; qtot 1.045275
15988         oh    596    ccc     O2  15988 -0.86012500  16.000000   ; qtot 0.185150
15989         oh    596    ccc     O3  15989 -0.83772800  16.000000   ; qtot -0.652578
15990         oh    596    ccc     O4  15990 -0.77449700  16.000000   ; qtot -1.427075
15991         c3    596    ccc     C6  15991 0.37576500  12.010000   ; qtot -1.051310
15992         ho    596    ccc     H6  15992 0.53656000   1.008000   ; qtot -0.514750
15993         ho    596    ccc     H7  15993 0.49492100   1.008000   ; qtot -0.019829
15994         ho    596    ccc     H8  15994 0.51297200   1.008000   ; qtot 0.493143
15995         h1    596    ccc     H9  15995 0.05653400   1.008000   ; qtot 0.549677
15996         h1    596    ccc    H10  15996 0.05653400   1.008000   ; qtot 0.606211
15997         oh    596    ccc     O5  15997 -0.84113600  16.000000   ; qtot -0.234925
15998         ho    596    ccc    H11  15998 0.51201600   1.008000   ; qtot 0.277091
15999         os    596    ccc     O6  15999 -0.26013600  16.000000   ; qtot 0.016955
; residue  597 ccc rtp ccc q 0.0
16000         c3    597    ccc     C1  16000 -0.33178800  12.010000   ; qtot -0.314833
16001         c3    597    ccc     C2  16001 0.30606500  12.010000   ; qtot -0.008768
16002         h1    597    ccc     H1  16002 0.11662300   1.008000   ; qtot 0.107855
16003         h1    597    ccc     H2  16003 0.11526800   1.008000   ; qtot 0.223123
16004         c3    597    ccc     C3  16004 0.15592700  12.010000   ; qtot 0.379050
16005         c3    597    ccc     C4  16005 0.28383300  12.010000   ; qtot 0.662883
16006         c3    597    ccc     C5  16006 0.32403300  12.010000   ; qtot 0.986916
16007         h1    597    ccc     H3  16007 0.13386900   1.008000   ; qtot 1.120785
16008         h1    597    ccc     H4  16008 0.10146700   1.008000   ; qtot 1.222252
16009         h2    597    ccc     H5  16009 0.10960400   1.008000   ; qtot 1.331856
16010         os    597    ccc     O1  16010 -0.28650000  16.000000   ; qtot 1.045356
16011         oh    597    ccc     O2  16011 -0.86012500  16.000000   ; qtot 0.185231
16012         oh    597    ccc     O3  16012 -0.83772800  16.000000   ; qtot -0.652497
16013         oh    597    ccc     O4  16013 -0.77449700  16.000000   ; qtot -1.426994
16014         c3    597    ccc     C6  16014 0.37576500  12.010000   ; qtot -1.051229
16015         ho    597    ccc     H6  16015 0.53656000   1.008000   ; qtot -0.514669
16016         ho    597    ccc     H7  16016 0.49492100   1.008000   ; qtot -0.019748
16017         ho    597    ccc     H8  16017 0.51297200   1.008000   ; qtot 0.493224
16018         h1    597    ccc     H9  16018 0.05653400   1.008000   ; qtot 0.549758
16019         h1    597    ccc    H10  16019 0.05653400   1.008000   ; qtot 0.606292
16020         oh    597    ccc     O5  16020 -0.84113600  16.000000   ; qtot -0.234844
16021         ho    597    ccc    H11  16021 0.51201600   1.008000   ; qtot 0.277172
16022         os    597    ccc     O6  16022 -0.26013600  16.000000   ; qtot 0.017036
; residue  598 ccc rtp ccc q 0.0
16023         c3    598    ccc     C1  16023 -0.33178800  12.010000   ; qtot -0.314752
16024         c3    598    ccc     C2  16024 0.30606500  12.010000   ; qtot -0.008687
16025         h1    598    ccc     H1  16025 0.11662300   1.008000   ; qtot 0.107936
16026         h1    598    ccc     H2  16026 0.11526800   1.008000   ; qtot 0.223204
16027         c3    598    ccc     C3  16027 0.15592700  12.010000   ; qtot 0.379131
16028         c3    598    ccc     C4  16028 0.28383300  12.010000   ; qtot 0.662964
16029         c3    598    ccc     C5  16029 0.32403300  12.010000   ; qtot 0.986997
16030         h1    598    ccc     H3  16030 0.13386900   1.008000   ; qtot 1.120866
16031         h1    598    ccc     H4  16031 0.10146700   1.008000   ; qtot 1.222333
16032         h2    598    ccc     H5  16032 0.10960400   1.008000   ; qtot 1.331937
16033         os    598    ccc     O1  16033 -0.28650000  16.000000   ; qtot 1.045437
16034         oh    598    ccc     O2  16034 -0.86012500  16.000000   ; qtot 0.185312
16035         oh    598    ccc     O3  16035 -0.83772800  16.000000   ; qtot -0.652416
16036         oh    598    ccc     O4  16036 -0.77449700  16.000000   ; qtot -1.426913
16037         c3    598    ccc     C6  16037 0.37576500  12.010000   ; qtot -1.051148
16038         ho    598    ccc     H6  16038 0.53656000   1.008000   ; qtot -0.514588
16039         ho    598    ccc     H7  16039 0.49492100   1.008000   ; qtot -0.019667
16040         ho    598    ccc     H8  16040 0.51297200   1.008000   ; qtot 0.493305
16041         h1    598    ccc     H9  16041 0.05653400   1.008000   ; qtot 0.549839
16042         h1    598    ccc    H10  16042 0.05653400   1.008000   ; qtot 0.606373
16043         oh    598    ccc     O5  16043 -0.84113600  16.000000   ; qtot -0.234763
16044         ho    598    ccc    H11  16044 0.51201600   1.008000   ; qtot 0.277253
16045         os    598    ccc     O6  16045 -0.26013600  16.000000   ; qtot 0.017117
; residue  599 ccc rtp ccc q 0.0
16046         c3    599    ccc     C1  16046 -0.33178800  12.010000   ; qtot -0.314671
16047         c3    599    ccc     C2  16047 0.30606500  12.010000   ; qtot -0.008606
16048         h1    599    ccc     H1  16048 0.11662300   1.008000   ; qtot 0.108017
16049         h1    599    ccc     H2  16049 0.11526800   1.008000   ; qtot 0.223285
16050         c3    599    ccc     C3  16050 0.15592700  12.010000   ; qtot 0.379212
16051         c3    599    ccc     C4  16051 0.28383300  12.010000   ; qtot 0.663045
16052         c3    599    ccc     C5  16052 0.32403300  12.010000   ; qtot 0.987078
16053         h1    599    ccc     H3  16053 0.13386900   1.008000   ; qtot 1.120947
16054         h1    599    ccc     H4  16054 0.10146700   1.008000   ; qtot 1.222414
16055         h2    599    ccc     H5  16055 0.10960400   1.008000   ; qtot 1.332018
16056         os    599    ccc     O1  16056 -0.28650000  16.000000   ; qtot 1.045518
16057         oh    599    ccc     O2  16057 -0.86012500  16.000000   ; qtot 0.185393
16058         oh    599    ccc     O3  16058 -0.83772800  16.000000   ; qtot -0.652335
16059         oh    599    ccc     O4  16059 -0.77449700  16.000000   ; qtot -1.426832
16060         c3    599    ccc     C6  16060 0.37576500  12.010000   ; qtot -1.051067
16061         ho    599    ccc     H6  16061 0.53656000   1.008000   ; qtot -0.514507
16062         ho    599    ccc     H7  16062 0.49492100   1.008000   ; qtot -0.019586
16063         ho    599    ccc     H8  16063 0.51297200   1.008000   ; qtot 0.493386
16064         h1    599    ccc     H9  16064 0.05653400   1.008000   ; qtot 0.549920
16065         h1    599    ccc    H10  16065 0.05653400   1.008000   ; qtot 0.606454
16066         oh    599    ccc     O5  16066 -0.84113600  16.000000   ; qtot -0.234682
16067         ho    599    ccc    H11  16067 0.51201600   1.008000   ; qtot 0.277334
16068         os    599    ccc     O6  16068 -0.26013600  16.000000   ; qtot 0.017198
; residue  600 ccc rtp ccc q 0.0
16069         c3    600    ccc     C1  16069 -0.33178800  12.010000   ; qtot -0.314590
16070         c3    600    ccc     C2  16070 0.30606500  12.010000   ; qtot -0.008525
16071         h1    600    ccc     H1  16071 0.11662300   1.008000   ; qtot 0.108098
16072         h1    600    ccc     H2  16072 0.11526800   1.008000   ; qtot 0.223366
16073         c3    600    ccc     C3  16073 0.15592700  12.010000   ; qtot 0.379293
16074         c3    600    ccc     C4  16074 0.28383300  12.010000   ; qtot 0.663126
16075         c3    600    ccc     C5  16075 0.32403300  12.010000   ; qtot 0.987159
16076         h1    600    ccc     H3  16076 0.13386900   1.008000   ; qtot 1.121028
16077         h1    600    ccc     H4  16077 0.10146700   1.008000   ; qtot 1.222495
16078         h2    600    ccc     H5  16078 0.10960400   1.008000   ; qtot 1.332099
16079         os    600    ccc     O1  16079 -0.28650000  16.000000   ; qtot 1.045599
16080         oh    600    ccc     O2  16080 -0.86012500  16.000000   ; qtot 0.185474
16081         oh    600    ccc     O3  16081 -0.83772800  16.000000   ; qtot -0.652254
16082         oh    600    ccc     O4  16082 -0.77449700  16.000000   ; qtot -1.426751
16083         c3    600    ccc     C6  16083 0.37576500  12.010000   ; qtot -1.050986
16084         ho    600    ccc     H6  16084 0.53656000   1.008000   ; qtot -0.514426
16085         ho    600    ccc     H7  16085 0.49492100   1.008000   ; qtot -0.019505
16086         ho    600    ccc     H8  16086 0.51297200   1.008000   ; qtot 0.493467
16087         h1    600    ccc     H9  16087 0.05653400   1.008000   ; qtot 0.550001
16088         h1    600    ccc    H10  16088 0.05653400   1.008000   ; qtot 0.606535
16089         oh    600    ccc     O5  16089 -0.84113600  16.000000   ; qtot -0.234601
16090         ho    600    ccc    H11  16090 0.51201600   1.008000   ; qtot 0.277415
16091         os    600    ccc     O6  16091 -0.26013600  16.000000   ; qtot 0.017279
; residue  601 ccc rtp ccc q 0.0
16092         c3    601    ccc     C1  16092 -0.33178800  12.010000   ; qtot -0.314509
16093         c3    601    ccc     C2  16093 0.30606500  12.010000   ; qtot -0.008444
16094         h1    601    ccc     H1  16094 0.11662300   1.008000   ; qtot 0.108179
16095         h1    601    ccc     H2  16095 0.11526800   1.008000   ; qtot 0.223447
16096         c3    601    ccc     C3  16096 0.15592700  12.010000   ; qtot 0.379374
16097         c3    601    ccc     C4  16097 0.28383300  12.010000   ; qtot 0.663207
16098         c3    601    ccc     C5  16098 0.32403300  12.010000   ; qtot 0.987240
16099         h1    601    ccc     H3  16099 0.13386900   1.008000   ; qtot 1.121109
16100         h1    601    ccc     H4  16100 0.10146700   1.008000   ; qtot 1.222576
16101         h2    601    ccc     H5  16101 0.10960400   1.008000   ; qtot 1.332180
16102         os    601    ccc     O1  16102 -0.28650000  16.000000   ; qtot 1.045680
16103         oh    601    ccc     O2  16103 -0.86012500  16.000000   ; qtot 0.185555
16104         oh    601    ccc     O3  16104 -0.83772800  16.000000   ; qtot -0.652173
16105         oh    601    ccc     O4  16105 -0.77449700  16.000000   ; qtot -1.426670
16106         c3    601    ccc     C6  16106 0.37576500  12.010000   ; qtot -1.050905
16107         ho    601    ccc     H6  16107 0.53656000   1.008000   ; qtot -0.514345
16108         ho    601    ccc     H7  16108 0.49492100   1.008000   ; qtot -0.019424
16109         ho    601    ccc     H8  16109 0.51297200   1.008000   ; qtot 0.493548
16110         h1    601    ccc     H9  16110 0.05653400   1.008000   ; qtot 0.550082
16111         h1    601    ccc    H10  16111 0.05653400   1.008000   ; qtot 0.606616
16112         oh    601    ccc     O5  16112 -0.84113600  16.000000   ; qtot -0.234520
16113         ho    601    ccc    H11  16113 0.51201600   1.008000   ; qtot 0.277496
16114         os    601    ccc     O6  16114 -0.26013600  16.000000   ; qtot 0.017360
; residue  602 ccc rtp ccc q 0.0
16115         c3    602    ccc     C1  16115 -0.33178800  12.010000   ; qtot -0.314428
16116         c3    602    ccc     C2  16116 0.30606500  12.010000   ; qtot -0.008363
16117         h1    602    ccc     H1  16117 0.11662300   1.008000   ; qtot 0.108260
16118         h1    602    ccc     H2  16118 0.11526800   1.008000   ; qtot 0.223528
16119         c3    602    ccc     C3  16119 0.15592700  12.010000   ; qtot 0.379455
16120         c3    602    ccc     C4  16120 0.28383300  12.010000   ; qtot 0.663288
16121         c3    602    ccc     C5  16121 0.32403300  12.010000   ; qtot 0.987321
16122         h1    602    ccc     H3  16122 0.13386900   1.008000   ; qtot 1.121190
16123         h1    602    ccc     H4  16123 0.10146700   1.008000   ; qtot 1.222657
16124         h2    602    ccc     H5  16124 0.10960400   1.008000   ; qtot 1.332261
16125         os    602    ccc     O1  16125 -0.28650000  16.000000   ; qtot 1.045761
16126         oh    602    ccc     O2  16126 -0.86012500  16.000000   ; qtot 0.185636
16127         oh    602    ccc     O3  16127 -0.83772800  16.000000   ; qtot -0.652092
16128         oh    602    ccc     O4  16128 -0.77449700  16.000000   ; qtot -1.426589
16129         c3    602    ccc     C6  16129 0.37576500  12.010000   ; qtot -1.050824
16130         ho    602    ccc     H6  16130 0.53656000   1.008000   ; qtot -0.514264
16131         ho    602    ccc     H7  16131 0.49492100   1.008000   ; qtot -0.019343
16132         ho    602    ccc     H8  16132 0.51297200   1.008000   ; qtot 0.493629
16133         h1    602    ccc     H9  16133 0.05653400   1.008000   ; qtot 0.550163
16134         h1    602    ccc    H10  16134 0.05653400   1.008000   ; qtot 0.606697
16135         oh    602    ccc     O5  16135 -0.84113600  16.000000   ; qtot -0.234439
16136         ho    602    ccc    H11  16136 0.51201600   1.008000   ; qtot 0.277577
16137         os    602    ccc     O6  16137 -0.26013600  16.000000   ; qtot 0.017441
; residue  603 ccc rtp ccc q 0.0
16138         c3    603    ccc     C1  16138 -0.33178800  12.010000   ; qtot -0.314347
16139         c3    603    ccc     C2  16139 0.30606500  12.010000   ; qtot -0.008282
16140         h1    603    ccc     H1  16140 0.11662300   1.008000   ; qtot 0.108341
16141         h1    603    ccc     H2  16141 0.11526800   1.008000   ; qtot 0.223609
16142         c3    603    ccc     C3  16142 0.15592700  12.010000   ; qtot 0.379536
16143         c3    603    ccc     C4  16143 0.28383300  12.010000   ; qtot 0.663369
16144         c3    603    ccc     C5  16144 0.32403300  12.010000   ; qtot 0.987402
16145         h1    603    ccc     H3  16145 0.13386900   1.008000   ; qtot 1.121271
16146         h1    603    ccc     H4  16146 0.10146700   1.008000   ; qtot 1.222738
16147         h2    603    ccc     H5  16147 0.10960400   1.008000   ; qtot 1.332342
16148         os    603    ccc     O1  16148 -0.28650000  16.000000   ; qtot 1.045842
16149         oh    603    ccc     O2  16149 -0.86012500  16.000000   ; qtot 0.185717
16150         oh    603    ccc     O3  16150 -0.83772800  16.000000   ; qtot -0.652011
16151         oh    603    ccc     O4  16151 -0.77449700  16.000000   ; qtot -1.426508
16152         c3    603    ccc     C6  16152 0.37576500  12.010000   ; qtot -1.050743
16153         ho    603    ccc     H6  16153 0.53656000   1.008000   ; qtot -0.514183
16154         ho    603    ccc     H7  16154 0.49492100   1.008000   ; qtot -0.019262
16155         ho    603    ccc     H8  16155 0.51297200   1.008000   ; qtot 0.493710
16156         h1    603    ccc     H9  16156 0.05653400   1.008000   ; qtot 0.550244
16157         h1    603    ccc    H10  16157 0.05653400   1.008000   ; qtot 0.606778
16158         oh    603    ccc     O5  16158 -0.84113600  16.000000   ; qtot -0.234358
16159         ho    603    ccc    H11  16159 0.51201600   1.008000   ; qtot 0.277658
16160         os    603    ccc     O6  16160 -0.26013600  16.000000   ; qtot 0.017522
; residue  604 ccc rtp ccc q 0.0
16161         c3    604    ccc     C1  16161 -0.33178800  12.010000   ; qtot -0.314266
16162         c3    604    ccc     C2  16162 0.30606500  12.010000   ; qtot -0.008201
16163         h1    604    ccc     H1  16163 0.11662300   1.008000   ; qtot 0.108422
16164         h1    604    ccc     H2  16164 0.11526800   1.008000   ; qtot 0.223690
16165         c3    604    ccc     C3  16165 0.15592700  12.010000   ; qtot 0.379617
16166         c3    604    ccc     C4  16166 0.28383300  12.010000   ; qtot 0.663450
16167         c3    604    ccc     C5  16167 0.32403300  12.010000   ; qtot 0.987483
16168         h1    604    ccc     H3  16168 0.13386900   1.008000   ; qtot 1.121352
16169         h1    604    ccc     H4  16169 0.10146700   1.008000   ; qtot 1.222819
16170         h2    604    ccc     H5  16170 0.10960400   1.008000   ; qtot 1.332423
16171         os    604    ccc     O1  16171 -0.28650000  16.000000   ; qtot 1.045923
16172         oh    604    ccc     O2  16172 -0.86012500  16.000000   ; qtot 0.185798
16173         oh    604    ccc     O3  16173 -0.83772800  16.000000   ; qtot -0.651930
16174         oh    604    ccc     O4  16174 -0.77449700  16.000000   ; qtot -1.426427
16175         c3    604    ccc     C6  16175 0.37576500  12.010000   ; qtot -1.050662
16176         ho    604    ccc     H6  16176 0.53656000   1.008000   ; qtot -0.514102
16177         ho    604    ccc     H7  16177 0.49492100   1.008000   ; qtot -0.019181
16178         ho    604    ccc     H8  16178 0.51297200   1.008000   ; qtot 0.493791
16179         h1    604    ccc     H9  16179 0.05653400   1.008000   ; qtot 0.550325
16180         h1    604    ccc    H10  16180 0.05653400   1.008000   ; qtot 0.606859
16181         oh    604    ccc     O5  16181 -0.84113600  16.000000   ; qtot -0.234277
16182         ho    604    ccc    H11  16182 0.51201600   1.008000   ; qtot 0.277739
16183         os    604    ccc     O6  16183 -0.26013600  16.000000   ; qtot 0.017603
; residue  605 ccc rtp ccc q 0.0
16184         c3    605    ccc     C1  16184 -0.33178800  12.010000   ; qtot -0.314185
16185         c3    605    ccc     C2  16185 0.30606500  12.010000   ; qtot -0.008120
16186         h1    605    ccc     H1  16186 0.11662300   1.008000   ; qtot 0.108503
16187         h1    605    ccc     H2  16187 0.11526800   1.008000   ; qtot 0.223771
16188         c3    605    ccc     C3  16188 0.15592700  12.010000   ; qtot 0.379698
16189         c3    605    ccc     C4  16189 0.28383300  12.010000   ; qtot 0.663531
16190         c3    605    ccc     C5  16190 0.32403300  12.010000   ; qtot 0.987564
16191         h1    605    ccc     H3  16191 0.13386900   1.008000   ; qtot 1.121433
16192         h1    605    ccc     H4  16192 0.10146700   1.008000   ; qtot 1.222900
16193         h2    605    ccc     H5  16193 0.10960400   1.008000   ; qtot 1.332504
16194         os    605    ccc     O1  16194 -0.28650000  16.000000   ; qtot 1.046004
16195         oh    605    ccc     O2  16195 -0.86012500  16.000000   ; qtot 0.185879
16196         oh    605    ccc     O3  16196 -0.83772800  16.000000   ; qtot -0.651849
16197         oh    605    ccc     O4  16197 -0.77449700  16.000000   ; qtot -1.426346
16198         c3    605    ccc     C6  16198 0.37576500  12.010000   ; qtot -1.050581
16199         ho    605    ccc     H6  16199 0.53656000   1.008000   ; qtot -0.514021
16200         ho    605    ccc     H7  16200 0.49492100   1.008000   ; qtot -0.019100
16201         ho    605    ccc     H8  16201 0.51297200   1.008000   ; qtot 0.493872
16202         h1    605    ccc     H9  16202 0.05653400   1.008000   ; qtot 0.550406
16203         h1    605    ccc    H10  16203 0.05653400   1.008000   ; qtot 0.606940
16204         oh    605    ccc     O5  16204 -0.84113600  16.000000   ; qtot -0.234196
16205         ho    605    ccc    H11  16205 0.51201600   1.008000   ; qtot 0.277820
16206         os    605    ccc     O6  16206 -0.26013600  16.000000   ; qtot 0.017684
; residue  606 ccc rtp ccc q 0.0
16207         c3    606    ccc     C1  16207 -0.33178800  12.010000   ; qtot -0.314104
16208         c3    606    ccc     C2  16208 0.30606500  12.010000   ; qtot -0.008039
16209         h1    606    ccc     H1  16209 0.11662300   1.008000   ; qtot 0.108584
16210         h1    606    ccc     H2  16210 0.11526800   1.008000   ; qtot 0.223852
16211         c3    606    ccc     C3  16211 0.15592700  12.010000   ; qtot 0.379779
16212         c3    606    ccc     C4  16212 0.28383300  12.010000   ; qtot 0.663612
16213         c3    606    ccc     C5  16213 0.32403300  12.010000   ; qtot 0.987645
16214         h1    606    ccc     H3  16214 0.13386900   1.008000   ; qtot 1.121514
16215         h1    606    ccc     H4  16215 0.10146700   1.008000   ; qtot 1.222981
16216         h2    606    ccc     H5  16216 0.10960400   1.008000   ; qtot 1.332585
16217         os    606    ccc     O1  16217 -0.28650000  16.000000   ; qtot 1.046085
16218         oh    606    ccc     O2  16218 -0.86012500  16.000000   ; qtot 0.185960
16219         oh    606    ccc     O3  16219 -0.83772800  16.000000   ; qtot -0.651768
16220         oh    606    ccc     O4  16220 -0.77449700  16.000000   ; qtot -1.426265
16221         c3    606    ccc     C6  16221 0.37576500  12.010000   ; qtot -1.050500
16222         ho    606    ccc     H6  16222 0.53656000   1.008000   ; qtot -0.513940
16223         ho    606    ccc     H7  16223 0.49492100   1.008000   ; qtot -0.019019
16224         ho    606    ccc     H8  16224 0.51297200   1.008000   ; qtot 0.493953
16225         h1    606    ccc     H9  16225 0.05653400   1.008000   ; qtot 0.550487
16226         h1    606    ccc    H10  16226 0.05653400   1.008000   ; qtot 0.607021
16227         oh    606    ccc     O5  16227 -0.84113600  16.000000   ; qtot -0.234115
16228         ho    606    ccc    H11  16228 0.51201600   1.008000   ; qtot 0.277901
16229         os    606    ccc     O6  16229 -0.26013600  16.000000   ; qtot 0.017765
; residue  607 ccc rtp ccc q 0.0
16230         c3    607    ccc     C1  16230 -0.33178800  12.010000   ; qtot -0.314023
16231         c3    607    ccc     C2  16231 0.30606500  12.010000   ; qtot -0.007958
16232         h1    607    ccc     H1  16232 0.11662300   1.008000   ; qtot 0.108665
16233         h1    607    ccc     H2  16233 0.11526800   1.008000   ; qtot 0.223933
16234         c3    607    ccc     C3  16234 0.15592700  12.010000   ; qtot 0.379860
16235         c3    607    ccc     C4  16235 0.28383300  12.010000   ; qtot 0.663693
16236         c3    607    ccc     C5  16236 0.32403300  12.010000   ; qtot 0.987726
16237         h1    607    ccc     H3  16237 0.13386900   1.008000   ; qtot 1.121595
16238         h1    607    ccc     H4  16238 0.10146700   1.008000   ; qtot 1.223062
16239         h2    607    ccc     H5  16239 0.10960400   1.008000   ; qtot 1.332666
16240         os    607    ccc     O1  16240 -0.28650000  16.000000   ; qtot 1.046166
16241         oh    607    ccc     O2  16241 -0.86012500  16.000000   ; qtot 0.186041
16242         oh    607    ccc     O3  16242 -0.83772800  16.000000   ; qtot -0.651687
16243         oh    607    ccc     O4  16243 -0.77449700  16.000000   ; qtot -1.426184
16244         c3    607    ccc     C6  16244 0.37576500  12.010000   ; qtot -1.050419
16245         ho    607    ccc     H6  16245 0.53656000   1.008000   ; qtot -0.513859
16246         ho    607    ccc     H7  16246 0.49492100   1.008000   ; qtot -0.018938
16247         ho    607    ccc     H8  16247 0.51297200   1.008000   ; qtot 0.494034
16248         h1    607    ccc     H9  16248 0.05653400   1.008000   ; qtot 0.550568
16249         h1    607    ccc    H10  16249 0.05653400   1.008000   ; qtot 0.607102
16250         oh    607    ccc     O5  16250 -0.84113600  16.000000   ; qtot -0.234034
16251         ho    607    ccc    H11  16251 0.51201600   1.008000   ; qtot 0.277982
16252         os    607    ccc     O6  16252 -0.26013600  16.000000   ; qtot 0.017846
; residue  608 ccc rtp ccc q 0.0
16253         c3    608    ccc     C1  16253 -0.33178800  12.010000   ; qtot -0.313942
16254         c3    608    ccc     C2  16254 0.30606500  12.010000   ; qtot -0.007877
16255         h1    608    ccc     H1  16255 0.11662300   1.008000   ; qtot 0.108746
16256         h1    608    ccc     H2  16256 0.11526800   1.008000   ; qtot 0.224014
16257         c3    608    ccc     C3  16257 0.15592700  12.010000   ; qtot 0.379941
16258         c3    608    ccc     C4  16258 0.28383300  12.010000   ; qtot 0.663774
16259         c3    608    ccc     C5  16259 0.32403300  12.010000   ; qtot 0.987807
16260         h1    608    ccc     H3  16260 0.13386900   1.008000   ; qtot 1.121676
16261         h1    608    ccc     H4  16261 0.10146700   1.008000   ; qtot 1.223143
16262         h2    608    ccc     H5  16262 0.10960400   1.008000   ; qtot 1.332747
16263         os    608    ccc     O1  16263 -0.28650000  16.000000   ; qtot 1.046247
16264         oh    608    ccc     O2  16264 -0.86012500  16.000000   ; qtot 0.186122
16265         oh    608    ccc     O3  16265 -0.83772800  16.000000   ; qtot -0.651606
16266         oh    608    ccc     O4  16266 -0.77449700  16.000000   ; qtot -1.426103
16267         c3    608    ccc     C6  16267 0.37576500  12.010000   ; qtot -1.050338
16268         ho    608    ccc     H6  16268 0.53656000   1.008000   ; qtot -0.513778
16269         ho    608    ccc     H7  16269 0.49492100   1.008000   ; qtot -0.018857
16270         ho    608    ccc     H8  16270 0.51297200   1.008000   ; qtot 0.494115
16271         h1    608    ccc     H9  16271 0.05653400   1.008000   ; qtot 0.550649
16272         h1    608    ccc    H10  16272 0.05653400   1.008000   ; qtot 0.607183
16273         oh    608    ccc     O5  16273 -0.84113600  16.000000   ; qtot -0.233953
16274         ho    608    ccc    H11  16274 0.51201600   1.008000   ; qtot 0.278063
16275         os    608    ccc     O6  16275 -0.26013600  16.000000   ; qtot 0.017927
; residue  609 ccc rtp ccc q 0.0
16276         c3    609    ccc     C1  16276 -0.33178800  12.010000   ; qtot -0.313861
16277         c3    609    ccc     C2  16277 0.30606500  12.010000   ; qtot -0.007796
16278         h1    609    ccc     H1  16278 0.11662300   1.008000   ; qtot 0.108827
16279         h1    609    ccc     H2  16279 0.11526800   1.008000   ; qtot 0.224095
16280         c3    609    ccc     C3  16280 0.15592700  12.010000   ; qtot 0.380022
16281         c3    609    ccc     C4  16281 0.28383300  12.010000   ; qtot 0.663855
16282         c3    609    ccc     C5  16282 0.32403300  12.010000   ; qtot 0.987888
16283         h1    609    ccc     H3  16283 0.13386900   1.008000   ; qtot 1.121757
16284         h1    609    ccc     H4  16284 0.10146700   1.008000   ; qtot 1.223224
16285         h2    609    ccc     H5  16285 0.10960400   1.008000   ; qtot 1.332828
16286         os    609    ccc     O1  16286 -0.28650000  16.000000   ; qtot 1.046328
16287         oh    609    ccc     O2  16287 -0.86012500  16.000000   ; qtot 0.186203
16288         oh    609    ccc     O3  16288 -0.83772800  16.000000   ; qtot -0.651525
16289         oh    609    ccc     O4  16289 -0.77449700  16.000000   ; qtot -1.426022
16290         c3    609    ccc     C6  16290 0.37576500  12.010000   ; qtot -1.050257
16291         ho    609    ccc     H6  16291 0.53656000   1.008000   ; qtot -0.513697
16292         ho    609    ccc     H7  16292 0.49492100   1.008000   ; qtot -0.018776
16293         ho    609    ccc     H8  16293 0.51297200   1.008000   ; qtot 0.494196
16294         h1    609    ccc     H9  16294 0.05653400   1.008000   ; qtot 0.550730
16295         h1    609    ccc    H10  16295 0.05653400   1.008000   ; qtot 0.607264
16296         oh    609    ccc     O5  16296 -0.84113600  16.000000   ; qtot -0.233872
16297         ho    609    ccc    H11  16297 0.51201600   1.008000   ; qtot 0.278144
16298         os    609    ccc     O6  16298 -0.26013600  16.000000   ; qtot 0.018008
; residue  610 ccc rtp ccc q 0.0
16299         c3    610    ccc     C1  16299 -0.33178800  12.010000   ; qtot -0.313780
16300         c3    610    ccc     C2  16300 0.30606500  12.010000   ; qtot -0.007715
16301         h1    610    ccc     H1  16301 0.11662300   1.008000   ; qtot 0.108908
16302         h1    610    ccc     H2  16302 0.11526800   1.008000   ; qtot 0.224176
16303         c3    610    ccc     C3  16303 0.15592700  12.010000   ; qtot 0.380103
16304         c3    610    ccc     C4  16304 0.28383300  12.010000   ; qtot 0.663936
16305         c3    610    ccc     C5  16305 0.32403300  12.010000   ; qtot 0.987969
16306         h1    610    ccc     H3  16306 0.13386900   1.008000   ; qtot 1.121838
16307         h1    610    ccc     H4  16307 0.10146700   1.008000   ; qtot 1.223305
16308         h2    610    ccc     H5  16308 0.10960400   1.008000   ; qtot 1.332909
16309         os    610    ccc     O1  16309 -0.28650000  16.000000   ; qtot 1.046409
16310         oh    610    ccc     O2  16310 -0.86012500  16.000000   ; qtot 0.186284
16311         oh    610    ccc     O3  16311 -0.83772800  16.000000   ; qtot -0.651444
16312         oh    610    ccc     O4  16312 -0.77449700  16.000000   ; qtot -1.425941
16313         c3    610    ccc     C6  16313 0.37576500  12.010000   ; qtot -1.050176
16314         ho    610    ccc     H6  16314 0.53656000   1.008000   ; qtot -0.513616
16315         ho    610    ccc     H7  16315 0.49492100   1.008000   ; qtot -0.018695
16316         ho    610    ccc     H8  16316 0.51297200   1.008000   ; qtot 0.494277
16317         h1    610    ccc     H9  16317 0.05653400   1.008000   ; qtot 0.550811
16318         h1    610    ccc    H10  16318 0.05653400   1.008000   ; qtot 0.607345
16319         oh    610    ccc     O5  16319 -0.84113600  16.000000   ; qtot -0.233791
16320         ho    610    ccc    H11  16320 0.51201600   1.008000   ; qtot 0.278225
16321         os    610    ccc     O6  16321 -0.26013600  16.000000   ; qtot 0.018089
; residue  611 ccc rtp ccc q 0.0
16322         c3    611    ccc     C1  16322 -0.33178800  12.010000   ; qtot -0.313699
16323         c3    611    ccc     C2  16323 0.30606500  12.010000   ; qtot -0.007634
16324         h1    611    ccc     H1  16324 0.11662300   1.008000   ; qtot 0.108989
16325         h1    611    ccc     H2  16325 0.11526800   1.008000   ; qtot 0.224257
16326         c3    611    ccc     C3  16326 0.15592700  12.010000   ; qtot 0.380184
16327         c3    611    ccc     C4  16327 0.28383300  12.010000   ; qtot 0.664017
16328         c3    611    ccc     C5  16328 0.32403300  12.010000   ; qtot 0.988050
16329         h1    611    ccc     H3  16329 0.13386900   1.008000   ; qtot 1.121919
16330         h1    611    ccc     H4  16330 0.10146700   1.008000   ; qtot 1.223386
16331         h2    611    ccc     H5  16331 0.10960400   1.008000   ; qtot 1.332990
16332         os    611    ccc     O1  16332 -0.28650000  16.000000   ; qtot 1.046490
16333         oh    611    ccc     O2  16333 -0.86012500  16.000000   ; qtot 0.186365
16334         oh    611    ccc     O3  16334 -0.83772800  16.000000   ; qtot -0.651363
16335         oh    611    ccc     O4  16335 -0.77449700  16.000000   ; qtot -1.425860
16336         c3    611    ccc     C6  16336 0.37576500  12.010000   ; qtot -1.050095
16337         ho    611    ccc     H6  16337 0.53656000   1.008000   ; qtot -0.513535
16338         ho    611    ccc     H7  16338 0.49492100   1.008000   ; qtot -0.018614
16339         ho    611    ccc     H8  16339 0.51297200   1.008000   ; qtot 0.494358
16340         h1    611    ccc     H9  16340 0.05653400   1.008000   ; qtot 0.550892
16341         h1    611    ccc    H10  16341 0.05653400   1.008000   ; qtot 0.607426
16342         oh    611    ccc     O5  16342 -0.84113600  16.000000   ; qtot -0.233710
16343         ho    611    ccc    H11  16343 0.51201600   1.008000   ; qtot 0.278306
16344         os    611    ccc     O6  16344 -0.26013600  16.000000   ; qtot 0.018170
; residue  612 ccc rtp ccc q 0.0
16345         c3    612    ccc     C1  16345 -0.33178800  12.010000   ; qtot -0.313618
16346         c3    612    ccc     C2  16346 0.30606500  12.010000   ; qtot -0.007553
16347         h1    612    ccc     H1  16347 0.11662300   1.008000   ; qtot 0.109070
16348         h1    612    ccc     H2  16348 0.11526800   1.008000   ; qtot 0.224338
16349         c3    612    ccc     C3  16349 0.15592700  12.010000   ; qtot 0.380265
16350         c3    612    ccc     C4  16350 0.28383300  12.010000   ; qtot 0.664098
16351         c3    612    ccc     C5  16351 0.32403300  12.010000   ; qtot 0.988131
16352         h1    612    ccc     H3  16352 0.13386900   1.008000   ; qtot 1.122000
16353         h1    612    ccc     H4  16353 0.10146700   1.008000   ; qtot 1.223467
16354         h2    612    ccc     H5  16354 0.10960400   1.008000   ; qtot 1.333071
16355         os    612    ccc     O1  16355 -0.28650000  16.000000   ; qtot 1.046571
16356         oh    612    ccc     O2  16356 -0.86012500  16.000000   ; qtot 0.186446
16357         oh    612    ccc     O3  16357 -0.83772800  16.000000   ; qtot -0.651282
16358         oh    612    ccc     O4  16358 -0.77449700  16.000000   ; qtot -1.425779
16359         c3    612    ccc     C6  16359 0.37576500  12.010000   ; qtot -1.050014
16360         ho    612    ccc     H6  16360 0.53656000   1.008000   ; qtot -0.513454
16361         ho    612    ccc     H7  16361 0.49492100   1.008000   ; qtot -0.018533
16362         ho    612    ccc     H8  16362 0.51297200   1.008000   ; qtot 0.494439
16363         h1    612    ccc     H9  16363 0.05653400   1.008000   ; qtot 0.550973
16364         h1    612    ccc    H10  16364 0.05653400   1.008000   ; qtot 0.607507
16365         oh    612    ccc     O5  16365 -0.84113600  16.000000   ; qtot -0.233629
16366         ho    612    ccc    H11  16366 0.51201600   1.008000   ; qtot 0.278387
16367         os    612    ccc     O6  16367 -0.26013600  16.000000   ; qtot 0.018251
; residue  613 ccc rtp ccc q 0.0
16368         c3    613    ccc     C1  16368 -0.33178800  12.010000   ; qtot -0.313537
16369         c3    613    ccc     C2  16369 0.30606500  12.010000   ; qtot -0.007472
16370         h1    613    ccc     H1  16370 0.11662300   1.008000   ; qtot 0.109151
16371         h1    613    ccc     H2  16371 0.11526800   1.008000   ; qtot 0.224419
16372         c3    613    ccc     C3  16372 0.15592700  12.010000   ; qtot 0.380346
16373         c3    613    ccc     C4  16373 0.28383300  12.010000   ; qtot 0.664179
16374         c3    613    ccc     C5  16374 0.32403300  12.010000   ; qtot 0.988212
16375         h1    613    ccc     H3  16375 0.13386900   1.008000   ; qtot 1.122081
16376         h1    613    ccc     H4  16376 0.10146700   1.008000   ; qtot 1.223548
16377         h2    613    ccc     H5  16377 0.10960400   1.008000   ; qtot 1.333152
16378         os    613    ccc     O1  16378 -0.28650000  16.000000   ; qtot 1.046652
16379         oh    613    ccc     O2  16379 -0.86012500  16.000000   ; qtot 0.186527
16380         oh    613    ccc     O3  16380 -0.83772800  16.000000   ; qtot -0.651201
16381         oh    613    ccc     O4  16381 -0.77449700  16.000000   ; qtot -1.425698
16382         c3    613    ccc     C6  16382 0.37576500  12.010000   ; qtot -1.049933
16383         ho    613    ccc     H6  16383 0.53656000   1.008000   ; qtot -0.513373
16384         ho    613    ccc     H7  16384 0.49492100   1.008000   ; qtot -0.018452
16385         ho    613    ccc     H8  16385 0.51297200   1.008000   ; qtot 0.494520
16386         h1    613    ccc     H9  16386 0.05653400   1.008000   ; qtot 0.551054
16387         h1    613    ccc    H10  16387 0.05653400   1.008000   ; qtot 0.607588
16388         oh    613    ccc     O5  16388 -0.84113600  16.000000   ; qtot -0.233548
16389         ho    613    ccc    H11  16389 0.51201600   1.008000   ; qtot 0.278468
16390         os    613    ccc     O6  16390 -0.26013600  16.000000   ; qtot 0.018332
; residue  614 ccc rtp ccc q 0.0
16391         c3    614    ccc     C1  16391 -0.33178800  12.010000   ; qtot -0.313456
16392         c3    614    ccc     C2  16392 0.30606500  12.010000   ; qtot -0.007391
16393         h1    614    ccc     H1  16393 0.11662300   1.008000   ; qtot 0.109232
16394         h1    614    ccc     H2  16394 0.11526800   1.008000   ; qtot 0.224500
16395         c3    614    ccc     C3  16395 0.15592700  12.010000   ; qtot 0.380427
16396         c3    614    ccc     C4  16396 0.28383300  12.010000   ; qtot 0.664260
16397         c3    614    ccc     C5  16397 0.32403300  12.010000   ; qtot 0.988293
16398         h1    614    ccc     H3  16398 0.13386900   1.008000   ; qtot 1.122162
16399         h1    614    ccc     H4  16399 0.10146700   1.008000   ; qtot 1.223629
16400         h2    614    ccc     H5  16400 0.10960400   1.008000   ; qtot 1.333233
16401         os    614    ccc     O1  16401 -0.28650000  16.000000   ; qtot 1.046733
16402         oh    614    ccc     O2  16402 -0.86012500  16.000000   ; qtot 0.186608
16403         oh    614    ccc     O3  16403 -0.83772800  16.000000   ; qtot -0.651120
16404         oh    614    ccc     O4  16404 -0.77449700  16.000000   ; qtot -1.425617
16405         c3    614    ccc     C6  16405 0.37576500  12.010000   ; qtot -1.049852
16406         ho    614    ccc     H6  16406 0.53656000   1.008000   ; qtot -0.513292
16407         ho    614    ccc     H7  16407 0.49492100   1.008000   ; qtot -0.018371
16408         ho    614    ccc     H8  16408 0.51297200   1.008000   ; qtot 0.494601
16409         h1    614    ccc     H9  16409 0.05653400   1.008000   ; qtot 0.551135
16410         h1    614    ccc    H10  16410 0.05653400   1.008000   ; qtot 0.607669
16411         oh    614    ccc     O5  16411 -0.84113600  16.000000   ; qtot -0.233467
16412         ho    614    ccc    H11  16412 0.51201600   1.008000   ; qtot 0.278549
16413         os    614    ccc     O6  16413 -0.26013600  16.000000   ; qtot 0.018413
; residue  615 ccc rtp ccc q 0.0
16414         c3    615    ccc     C1  16414 -0.33178800  12.010000   ; qtot -0.313375
16415         c3    615    ccc     C2  16415 0.30606500  12.010000   ; qtot -0.007310
16416         h1    615    ccc     H1  16416 0.11662300   1.008000   ; qtot 0.109313
16417         h1    615    ccc     H2  16417 0.11526800   1.008000   ; qtot 0.224581
16418         c3    615    ccc     C3  16418 0.15592700  12.010000   ; qtot 0.380508
16419         c3    615    ccc     C4  16419 0.28383300  12.010000   ; qtot 0.664341
16420         c3    615    ccc     C5  16420 0.32403300  12.010000   ; qtot 0.988374
16421         h1    615    ccc     H3  16421 0.13386900   1.008000   ; qtot 1.122243
16422         h1    615    ccc     H4  16422 0.10146700   1.008000   ; qtot 1.223710
16423         h2    615    ccc     H5  16423 0.10960400   1.008000   ; qtot 1.333314
16424         os    615    ccc     O1  16424 -0.28650000  16.000000   ; qtot 1.046814
16425         oh    615    ccc     O2  16425 -0.86012500  16.000000   ; qtot 0.186689
16426         oh    615    ccc     O3  16426 -0.83772800  16.000000   ; qtot -0.651039
16427         oh    615    ccc     O4  16427 -0.77449700  16.000000   ; qtot -1.425536
16428         c3    615    ccc     C6  16428 0.37576500  12.010000   ; qtot -1.049771
16429         ho    615    ccc     H6  16429 0.53656000   1.008000   ; qtot -0.513211
16430         ho    615    ccc     H7  16430 0.49492100   1.008000   ; qtot -0.018290
16431         ho    615    ccc     H8  16431 0.51297200   1.008000   ; qtot 0.494682
16432         h1    615    ccc     H9  16432 0.05653400   1.008000   ; qtot 0.551216
16433         h1    615    ccc    H10  16433 0.05653400   1.008000   ; qtot 0.607750
16434         oh    615    ccc     O5  16434 -0.84113600  16.000000   ; qtot -0.233386
16435         ho    615    ccc    H11  16435 0.51201600   1.008000   ; qtot 0.278630
16436         os    615    ccc     O6  16436 -0.26013600  16.000000   ; qtot 0.018494
; residue  616 ccc rtp ccc q 0.0
16437         c3    616    ccc     C1  16437 -0.33178800  12.010000   ; qtot -0.313294
16438         c3    616    ccc     C2  16438 0.30606500  12.010000   ; qtot -0.007229
16439         h1    616    ccc     H1  16439 0.11662300   1.008000   ; qtot 0.109394
16440         h1    616    ccc     H2  16440 0.11526800   1.008000   ; qtot 0.224662
16441         c3    616    ccc     C3  16441 0.15592700  12.010000   ; qtot 0.380589
16442         c3    616    ccc     C4  16442 0.28383300  12.010000   ; qtot 0.664422
16443         c3    616    ccc     C5  16443 0.32403300  12.010000   ; qtot 0.988455
16444         h1    616    ccc     H3  16444 0.13386900   1.008000   ; qtot 1.122324
16445         h1    616    ccc     H4  16445 0.10146700   1.008000   ; qtot 1.223791
16446         h2    616    ccc     H5  16446 0.10960400   1.008000   ; qtot 1.333395
16447         os    616    ccc     O1  16447 -0.28650000  16.000000   ; qtot 1.046895
16448         oh    616    ccc     O2  16448 -0.86012500  16.000000   ; qtot 0.186770
16449         oh    616    ccc     O3  16449 -0.83772800  16.000000   ; qtot -0.650958
16450         oh    616    ccc     O4  16450 -0.77449700  16.000000   ; qtot -1.425455
16451         c3    616    ccc     C6  16451 0.37576500  12.010000   ; qtot -1.049690
16452         ho    616    ccc     H6  16452 0.53656000   1.008000   ; qtot -0.513130
16453         ho    616    ccc     H7  16453 0.49492100   1.008000   ; qtot -0.018209
16454         ho    616    ccc     H8  16454 0.51297200   1.008000   ; qtot 0.494763
16455         h1    616    ccc     H9  16455 0.05653400   1.008000   ; qtot 0.551297
16456         h1    616    ccc    H10  16456 0.05653400   1.008000   ; qtot 0.607831
16457         oh    616    ccc     O5  16457 -0.84113600  16.000000   ; qtot -0.233305
16458         ho    616    ccc    H11  16458 0.51201600   1.008000   ; qtot 0.278711
16459         os    616    ccc     O6  16459 -0.26013600  16.000000   ; qtot 0.018575
; residue  617 ccc rtp ccc q 0.0
16460         c3    617    ccc     C1  16460 -0.33178800  12.010000   ; qtot -0.313213
16461         c3    617    ccc     C2  16461 0.30606500  12.010000   ; qtot -0.007148
16462         h1    617    ccc     H1  16462 0.11662300   1.008000   ; qtot 0.109475
16463         h1    617    ccc     H2  16463 0.11526800   1.008000   ; qtot 0.224743
16464         c3    617    ccc     C3  16464 0.15592700  12.010000   ; qtot 0.380670
16465         c3    617    ccc     C4  16465 0.28383300  12.010000   ; qtot 0.664503
16466         c3    617    ccc     C5  16466 0.32403300  12.010000   ; qtot 0.988536
16467         h1    617    ccc     H3  16467 0.13386900   1.008000   ; qtot 1.122405
16468         h1    617    ccc     H4  16468 0.10146700   1.008000   ; qtot 1.223872
16469         h2    617    ccc     H5  16469 0.10960400   1.008000   ; qtot 1.333476
16470         os    617    ccc     O1  16470 -0.28650000  16.000000   ; qtot 1.046976
16471         oh    617    ccc     O2  16471 -0.86012500  16.000000   ; qtot 0.186851
16472         oh    617    ccc     O3  16472 -0.83772800  16.000000   ; qtot -0.650877
16473         oh    617    ccc     O4  16473 -0.77449700  16.000000   ; qtot -1.425374
16474         c3    617    ccc     C6  16474 0.37576500  12.010000   ; qtot -1.049609
16475         ho    617    ccc     H6  16475 0.53656000   1.008000   ; qtot -0.513049
16476         ho    617    ccc     H7  16476 0.49492100   1.008000   ; qtot -0.018128
16477         ho    617    ccc     H8  16477 0.51297200   1.008000   ; qtot 0.494844
16478         h1    617    ccc     H9  16478 0.05653400   1.008000   ; qtot 0.551378
16479         h1    617    ccc    H10  16479 0.05653400   1.008000   ; qtot 0.607912
16480         oh    617    ccc     O5  16480 -0.84113600  16.000000   ; qtot -0.233224
16481         ho    617    ccc    H11  16481 0.51201600   1.008000   ; qtot 0.278792
16482         os    617    ccc     O6  16482 -0.26013600  16.000000   ; qtot 0.018656
; residue  618 ccc rtp ccc q 0.0
16483         c3    618    ccc     C1  16483 -0.33178800  12.010000   ; qtot -0.313132
16484         c3    618    ccc     C2  16484 0.30606500  12.010000   ; qtot -0.007067
16485         h1    618    ccc     H1  16485 0.11662300   1.008000   ; qtot 0.109556
16486         h1    618    ccc     H2  16486 0.11526800   1.008000   ; qtot 0.224824
16487         c3    618    ccc     C3  16487 0.15592700  12.010000   ; qtot 0.380751
16488         c3    618    ccc     C4  16488 0.28383300  12.010000   ; qtot 0.664584
16489         c3    618    ccc     C5  16489 0.32403300  12.010000   ; qtot 0.988617
16490         h1    618    ccc     H3  16490 0.13386900   1.008000   ; qtot 1.122486
16491         h1    618    ccc     H4  16491 0.10146700   1.008000   ; qtot 1.223953
16492         h2    618    ccc     H5  16492 0.10960400   1.008000   ; qtot 1.333557
16493         os    618    ccc     O1  16493 -0.28650000  16.000000   ; qtot 1.047057
16494         oh    618    ccc     O2  16494 -0.86012500  16.000000   ; qtot 0.186932
16495         oh    618    ccc     O3  16495 -0.83772800  16.000000   ; qtot -0.650796
16496         oh    618    ccc     O4  16496 -0.77449700  16.000000   ; qtot -1.425293
16497         c3    618    ccc     C6  16497 0.37576500  12.010000   ; qtot -1.049528
16498         ho    618    ccc     H6  16498 0.53656000   1.008000   ; qtot -0.512968
16499         ho    618    ccc     H7  16499 0.49492100   1.008000   ; qtot -0.018047
16500         ho    618    ccc     H8  16500 0.51297200   1.008000   ; qtot 0.494925
16501         h1    618    ccc     H9  16501 0.05653400   1.008000   ; qtot 0.551459
16502         h1    618    ccc    H10  16502 0.05653400   1.008000   ; qtot 0.607993
16503         oh    618    ccc     O5  16503 -0.84113600  16.000000   ; qtot -0.233143
16504         ho    618    ccc    H11  16504 0.51201600   1.008000   ; qtot 0.278873
16505         os    618    ccc     O6  16505 -0.26013600  16.000000   ; qtot 0.018737
; residue  619 ccc rtp ccc q 0.0
16506         c3    619    ccc     C1  16506 -0.33178800  12.010000   ; qtot -0.313051
16507         c3    619    ccc     C2  16507 0.30606500  12.010000   ; qtot -0.006986
16508         h1    619    ccc     H1  16508 0.11662300   1.008000   ; qtot 0.109637
16509         h1    619    ccc     H2  16509 0.11526800   1.008000   ; qtot 0.224905
16510         c3    619    ccc     C3  16510 0.15592700  12.010000   ; qtot 0.380832
16511         c3    619    ccc     C4  16511 0.28383300  12.010000   ; qtot 0.664665
16512         c3    619    ccc     C5  16512 0.32403300  12.010000   ; qtot 0.988698
16513         h1    619    ccc     H3  16513 0.13386900   1.008000   ; qtot 1.122567
16514         h1    619    ccc     H4  16514 0.10146700   1.008000   ; qtot 1.224034
16515         h2    619    ccc     H5  16515 0.10960400   1.008000   ; qtot 1.333638
16516         os    619    ccc     O1  16516 -0.28650000  16.000000   ; qtot 1.047138
16517         oh    619    ccc     O2  16517 -0.86012500  16.000000   ; qtot 0.187013
16518         oh    619    ccc     O3  16518 -0.83772800  16.000000   ; qtot -0.650715
16519         oh    619    ccc     O4  16519 -0.77449700  16.000000   ; qtot -1.425212
16520         c3    619    ccc     C6  16520 0.37576500  12.010000   ; qtot -1.049447
16521         ho    619    ccc     H6  16521 0.53656000   1.008000   ; qtot -0.512887
16522         ho    619    ccc     H7  16522 0.49492100   1.008000   ; qtot -0.017966
16523         ho    619    ccc     H8  16523 0.51297200   1.008000   ; qtot 0.495006
16524         h1    619    ccc     H9  16524 0.05653400   1.008000   ; qtot 0.551540
16525         h1    619    ccc    H10  16525 0.05653400   1.008000   ; qtot 0.608074
16526         oh    619    ccc     O5  16526 -0.84113600  16.000000   ; qtot -0.233062
16527         ho    619    ccc    H11  16527 0.51201600   1.008000   ; qtot 0.278954
16528         os    619    ccc     O6  16528 -0.26013600  16.000000   ; qtot 0.018818
; residue  620 ccc rtp ccc q 0.0
16529         c3    620    ccc     C1  16529 -0.33178800  12.010000   ; qtot -0.312970
16530         c3    620    ccc     C2  16530 0.30606500  12.010000   ; qtot -0.006905
16531         h1    620    ccc     H1  16531 0.11662300   1.008000   ; qtot 0.109718
16532         h1    620    ccc     H2  16532 0.11526800   1.008000   ; qtot 0.224986
16533         c3    620    ccc     C3  16533 0.15592700  12.010000   ; qtot 0.380913
16534         c3    620    ccc     C4  16534 0.28383300  12.010000   ; qtot 0.664746
16535         c3    620    ccc     C5  16535 0.32403300  12.010000   ; qtot 0.988779
16536         h1    620    ccc     H3  16536 0.13386900   1.008000   ; qtot 1.122648
16537         h1    620    ccc     H4  16537 0.10146700   1.008000   ; qtot 1.224115
16538         h2    620    ccc     H5  16538 0.10960400   1.008000   ; qtot 1.333719
16539         os    620    ccc     O1  16539 -0.28650000  16.000000   ; qtot 1.047219
16540         oh    620    ccc     O2  16540 -0.86012500  16.000000   ; qtot 0.187094
16541         oh    620    ccc     O3  16541 -0.83772800  16.000000   ; qtot -0.650634
16542         oh    620    ccc     O4  16542 -0.77449700  16.000000   ; qtot -1.425131
16543         c3    620    ccc     C6  16543 0.37576500  12.010000   ; qtot -1.049366
16544         ho    620    ccc     H6  16544 0.53656000   1.008000   ; qtot -0.512806
16545         ho    620    ccc     H7  16545 0.49492100   1.008000   ; qtot -0.017885
16546         ho    620    ccc     H8  16546 0.51297200   1.008000   ; qtot 0.495087
16547         h1    620    ccc     H9  16547 0.05653400   1.008000   ; qtot 0.551621
16548         h1    620    ccc    H10  16548 0.05653400   1.008000   ; qtot 0.608155
16549         oh    620    ccc     O5  16549 -0.84113600  16.000000   ; qtot -0.232981
16550         ho    620    ccc    H11  16550 0.51201600   1.008000   ; qtot 0.279035
16551         os    620    ccc     O6  16551 -0.26013600  16.000000   ; qtot 0.018899
; residue  621 ccc rtp ccc q 0.0
16552         c3    621    ccc     C1  16552 -0.33178800  12.010000   ; qtot -0.312889
16553         c3    621    ccc     C2  16553 0.30606500  12.010000   ; qtot -0.006824
16554         h1    621    ccc     H1  16554 0.11662300   1.008000   ; qtot 0.109799
16555         h1    621    ccc     H2  16555 0.11526800   1.008000   ; qtot 0.225067
16556         c3    621    ccc     C3  16556 0.15592700  12.010000   ; qtot 0.380994
16557         c3    621    ccc     C4  16557 0.28383300  12.010000   ; qtot 0.664827
16558         c3    621    ccc     C5  16558 0.32403300  12.010000   ; qtot 0.988860
16559         h1    621    ccc     H3  16559 0.13386900   1.008000   ; qtot 1.122729
16560         h1    621    ccc     H4  16560 0.10146700   1.008000   ; qtot 1.224196
16561         h2    621    ccc     H5  16561 0.10960400   1.008000   ; qtot 1.333800
16562         os    621    ccc     O1  16562 -0.28650000  16.000000   ; qtot 1.047300
16563         oh    621    ccc     O2  16563 -0.86012500  16.000000   ; qtot 0.187175
16564         oh    621    ccc     O3  16564 -0.83772800  16.000000   ; qtot -0.650553
16565         oh    621    ccc     O4  16565 -0.77449700  16.000000   ; qtot -1.425050
16566         c3    621    ccc     C6  16566 0.37576500  12.010000   ; qtot -1.049285
16567         ho    621    ccc     H6  16567 0.53656000   1.008000   ; qtot -0.512725
16568         ho    621    ccc     H7  16568 0.49492100   1.008000   ; qtot -0.017804
16569         ho    621    ccc     H8  16569 0.51297200   1.008000   ; qtot 0.495168
16570         h1    621    ccc     H9  16570 0.05653400   1.008000   ; qtot 0.551702
16571         h1    621    ccc    H10  16571 0.05653400   1.008000   ; qtot 0.608236
16572         oh    621    ccc     O5  16572 -0.84113600  16.000000   ; qtot -0.232900
16573         ho    621    ccc    H11  16573 0.51201600   1.008000   ; qtot 0.279116
16574         os    621    ccc     O6  16574 -0.26013600  16.000000   ; qtot 0.018980
; residue  622 ccc rtp ccc q 0.0
16575         c3    622    ccc     C1  16575 -0.33178800  12.010000   ; qtot -0.312808
16576         c3    622    ccc     C2  16576 0.30606500  12.010000   ; qtot -0.006743
16577         h1    622    ccc     H1  16577 0.11662300   1.008000   ; qtot 0.109880
16578         h1    622    ccc     H2  16578 0.11526800   1.008000   ; qtot 0.225148
16579         c3    622    ccc     C3  16579 0.15592700  12.010000   ; qtot 0.381075
16580         c3    622    ccc     C4  16580 0.28383300  12.010000   ; qtot 0.664908
16581         c3    622    ccc     C5  16581 0.32403300  12.010000   ; qtot 0.988941
16582         h1    622    ccc     H3  16582 0.13386900   1.008000   ; qtot 1.122810
16583         h1    622    ccc     H4  16583 0.10146700   1.008000   ; qtot 1.224277
16584         h2    622    ccc     H5  16584 0.10960400   1.008000   ; qtot 1.333881
16585         os    622    ccc     O1  16585 -0.28650000  16.000000   ; qtot 1.047381
16586         oh    622    ccc     O2  16586 -0.86012500  16.000000   ; qtot 0.187256
16587         oh    622    ccc     O3  16587 -0.83772800  16.000000   ; qtot -0.650472
16588         oh    622    ccc     O4  16588 -0.77449700  16.000000   ; qtot -1.424969
16589         c3    622    ccc     C6  16589 0.37576500  12.010000   ; qtot -1.049204
16590         ho    622    ccc     H6  16590 0.53656000   1.008000   ; qtot -0.512644
16591         ho    622    ccc     H7  16591 0.49492100   1.008000   ; qtot -0.017723
16592         ho    622    ccc     H8  16592 0.51297200   1.008000   ; qtot 0.495249
16593         h1    622    ccc     H9  16593 0.05653400   1.008000   ; qtot 0.551783
16594         h1    622    ccc    H10  16594 0.05653400   1.008000   ; qtot 0.608317
16595         oh    622    ccc     O5  16595 -0.84113600  16.000000   ; qtot -0.232819
16596         ho    622    ccc    H11  16596 0.51201600   1.008000   ; qtot 0.279197
16597         os    622    ccc     O6  16597 -0.26013600  16.000000   ; qtot 0.019061
; residue  623 ccc rtp ccc q 0.0
16598         c3    623    ccc     C1  16598 -0.33178800  12.010000   ; qtot -0.312727
16599         c3    623    ccc     C2  16599 0.30606500  12.010000   ; qtot -0.006662
16600         h1    623    ccc     H1  16600 0.11662300   1.008000   ; qtot 0.109961
16601         h1    623    ccc     H2  16601 0.11526800   1.008000   ; qtot 0.225229
16602         c3    623    ccc     C3  16602 0.15592700  12.010000   ; qtot 0.381156
16603         c3    623    ccc     C4  16603 0.28383300  12.010000   ; qtot 0.664989
16604         c3    623    ccc     C5  16604 0.32403300  12.010000   ; qtot 0.989022
16605         h1    623    ccc     H3  16605 0.13386900   1.008000   ; qtot 1.122891
16606         h1    623    ccc     H4  16606 0.10146700   1.008000   ; qtot 1.224358
16607         h2    623    ccc     H5  16607 0.10960400   1.008000   ; qtot 1.333962
16608         os    623    ccc     O1  16608 -0.28650000  16.000000   ; qtot 1.047462
16609         oh    623    ccc     O2  16609 -0.86012500  16.000000   ; qtot 0.187337
16610         oh    623    ccc     O3  16610 -0.83772800  16.000000   ; qtot -0.650391
16611         oh    623    ccc     O4  16611 -0.77449700  16.000000   ; qtot -1.424888
16612         c3    623    ccc     C6  16612 0.37576500  12.010000   ; qtot -1.049123
16613         ho    623    ccc     H6  16613 0.53656000   1.008000   ; qtot -0.512563
16614         ho    623    ccc     H7  16614 0.49492100   1.008000   ; qtot -0.017642
16615         ho    623    ccc     H8  16615 0.51297200   1.008000   ; qtot 0.495330
16616         h1    623    ccc     H9  16616 0.05653400   1.008000   ; qtot 0.551864
16617         h1    623    ccc    H10  16617 0.05653400   1.008000   ; qtot 0.608398
16618         oh    623    ccc     O5  16618 -0.84113600  16.000000   ; qtot -0.232738
16619         ho    623    ccc    H11  16619 0.51201600   1.008000   ; qtot 0.279278
16620         os    623    ccc     O6  16620 -0.26013600  16.000000   ; qtot 0.019142
; residue  624 ccc rtp ccc q 0.0
16621         c3    624    ccc     C1  16621 -0.33178800  12.010000   ; qtot -0.312646
16622         c3    624    ccc     C2  16622 0.30606500  12.010000   ; qtot -0.006581
16623         h1    624    ccc     H1  16623 0.11662300   1.008000   ; qtot 0.110042
16624         h1    624    ccc     H2  16624 0.11526800   1.008000   ; qtot 0.225310
16625         c3    624    ccc     C3  16625 0.15592700  12.010000   ; qtot 0.381237
16626         c3    624    ccc     C4  16626 0.28383300  12.010000   ; qtot 0.665070
16627         c3    624    ccc     C5  16627 0.32403300  12.010000   ; qtot 0.989103
16628         h1    624    ccc     H3  16628 0.13386900   1.008000   ; qtot 1.122972
16629         h1    624    ccc     H4  16629 0.10146700   1.008000   ; qtot 1.224439
16630         h2    624    ccc     H5  16630 0.10960400   1.008000   ; qtot 1.334043
16631         os    624    ccc     O1  16631 -0.28650000  16.000000   ; qtot 1.047543
16632         oh    624    ccc     O2  16632 -0.86012500  16.000000   ; qtot 0.187418
16633         oh    624    ccc     O3  16633 -0.83772800  16.000000   ; qtot -0.650310
16634         oh    624    ccc     O4  16634 -0.77449700  16.000000   ; qtot -1.424807
16635         c3    624    ccc     C6  16635 0.37576500  12.010000   ; qtot -1.049042
16636         ho    624    ccc     H6  16636 0.53656000   1.008000   ; qtot -0.512482
16637         ho    624    ccc     H7  16637 0.49492100   1.008000   ; qtot -0.017561
16638         ho    624    ccc     H8  16638 0.51297200   1.008000   ; qtot 0.495411
16639         h1    624    ccc     H9  16639 0.05653400   1.008000   ; qtot 0.551945
16640         h1    624    ccc    H10  16640 0.05653400   1.008000   ; qtot 0.608479
16641         oh    624    ccc     O5  16641 -0.84113600  16.000000   ; qtot -0.232657
16642         ho    624    ccc    H11  16642 0.51201600   1.008000   ; qtot 0.279359
16643         os    624    ccc     O6  16643 -0.26013600  16.000000   ; qtot 0.019223
; residue  625 ccc rtp ccc q 0.0
16644         c3    625    ccc     C1  16644 -0.33178800  12.010000   ; qtot -0.312565
16645         c3    625    ccc     C2  16645 0.30606500  12.010000   ; qtot -0.006500
16646         h1    625    ccc     H1  16646 0.11662300   1.008000   ; qtot 0.110123
16647         h1    625    ccc     H2  16647 0.11526800   1.008000   ; qtot 0.225391
16648         c3    625    ccc     C3  16648 0.15592700  12.010000   ; qtot 0.381318
16649         c3    625    ccc     C4  16649 0.28383300  12.010000   ; qtot 0.665151
16650         c3    625    ccc     C5  16650 0.32403300  12.010000   ; qtot 0.989184
16651         h1    625    ccc     H3  16651 0.13386900   1.008000   ; qtot 1.123053
16652         h1    625    ccc     H4  16652 0.10146700   1.008000   ; qtot 1.224520
16653         h2    625    ccc     H5  16653 0.10960400   1.008000   ; qtot 1.334124
16654         os    625    ccc     O1  16654 -0.28650000  16.000000   ; qtot 1.047624
16655         oh    625    ccc     O2  16655 -0.86012500  16.000000   ; qtot 0.187499
16656         oh    625    ccc     O3  16656 -0.83772800  16.000000   ; qtot -0.650229
16657         oh    625    ccc     O4  16657 -0.77449700  16.000000   ; qtot -1.424726
16658         c3    625    ccc     C6  16658 0.37576500  12.010000   ; qtot -1.048961
16659         ho    625    ccc     H6  16659 0.53656000   1.008000   ; qtot -0.512401
16660         ho    625    ccc     H7  16660 0.49492100   1.008000   ; qtot -0.017480
16661         ho    625    ccc     H8  16661 0.51297200   1.008000   ; qtot 0.495492
16662         h1    625    ccc     H9  16662 0.05653400   1.008000   ; qtot 0.552026
16663         h1    625    ccc    H10  16663 0.05653400   1.008000   ; qtot 0.608560
16664         oh    625    ccc     O5  16664 -0.84113600  16.000000   ; qtot -0.232576
16665         ho    625    ccc    H11  16665 0.51201600   1.008000   ; qtot 0.279440
16666         os    625    ccc     O6  16666 -0.26013600  16.000000   ; qtot 0.019304
; residue  626 ccc rtp ccc q 0.0
16667         c3    626    ccc     C1  16667 -0.33178800  12.010000   ; qtot -0.312484
16668         c3    626    ccc     C2  16668 0.30606500  12.010000   ; qtot -0.006419
16669         h1    626    ccc     H1  16669 0.11662300   1.008000   ; qtot 0.110204
16670         h1    626    ccc     H2  16670 0.11526800   1.008000   ; qtot 0.225472
16671         c3    626    ccc     C3  16671 0.15592700  12.010000   ; qtot 0.381399
16672         c3    626    ccc     C4  16672 0.28383300  12.010000   ; qtot 0.665232
16673         c3    626    ccc     C5  16673 0.32403300  12.010000   ; qtot 0.989265
16674         h1    626    ccc     H3  16674 0.13386900   1.008000   ; qtot 1.123134
16675         h1    626    ccc     H4  16675 0.10146700   1.008000   ; qtot 1.224601
16676         h2    626    ccc     H5  16676 0.10960400   1.008000   ; qtot 1.334205
16677         os    626    ccc     O1  16677 -0.28650000  16.000000   ; qtot 1.047705
16678         oh    626    ccc     O2  16678 -0.86012500  16.000000   ; qtot 0.187580
16679         oh    626    ccc     O3  16679 -0.83772800  16.000000   ; qtot -0.650148
16680         oh    626    ccc     O4  16680 -0.77449700  16.000000   ; qtot -1.424645
16681         c3    626    ccc     C6  16681 0.37576500  12.010000   ; qtot -1.048880
16682         ho    626    ccc     H6  16682 0.53656000   1.008000   ; qtot -0.512320
16683         ho    626    ccc     H7  16683 0.49492100   1.008000   ; qtot -0.017399
16684         ho    626    ccc     H8  16684 0.51297200   1.008000   ; qtot 0.495573
16685         h1    626    ccc     H9  16685 0.05653400   1.008000   ; qtot 0.552107
16686         h1    626    ccc    H10  16686 0.05653400   1.008000   ; qtot 0.608641
16687         oh    626    ccc     O5  16687 -0.84113600  16.000000   ; qtot -0.232495
16688         ho    626    ccc    H11  16688 0.51201600   1.008000   ; qtot 0.279521
16689         os    626    ccc     O6  16689 -0.26013600  16.000000   ; qtot 0.019385
; residue  627 ccc rtp ccc q 0.0
16690         c3    627    ccc     C1  16690 -0.33178800  12.010000   ; qtot -0.312403
16691         c3    627    ccc     C2  16691 0.30606500  12.010000   ; qtot -0.006338
16692         h1    627    ccc     H1  16692 0.11662300   1.008000   ; qtot 0.110285
16693         h1    627    ccc     H2  16693 0.11526800   1.008000   ; qtot 0.225553
16694         c3    627    ccc     C3  16694 0.15592700  12.010000   ; qtot 0.381480
16695         c3    627    ccc     C4  16695 0.28383300  12.010000   ; qtot 0.665313
16696         c3    627    ccc     C5  16696 0.32403300  12.010000   ; qtot 0.989346
16697         h1    627    ccc     H3  16697 0.13386900   1.008000   ; qtot 1.123215
16698         h1    627    ccc     H4  16698 0.10146700   1.008000   ; qtot 1.224682
16699         h2    627    ccc     H5  16699 0.10960400   1.008000   ; qtot 1.334286
16700         os    627    ccc     O1  16700 -0.28650000  16.000000   ; qtot 1.047786
16701         oh    627    ccc     O2  16701 -0.86012500  16.000000   ; qtot 0.187661
16702         oh    627    ccc     O3  16702 -0.83772800  16.000000   ; qtot -0.650067
16703         oh    627    ccc     O4  16703 -0.77449700  16.000000   ; qtot -1.424564
16704         c3    627    ccc     C6  16704 0.37576500  12.010000   ; qtot -1.048799
16705         ho    627    ccc     H6  16705 0.53656000   1.008000   ; qtot -0.512239
16706         ho    627    ccc     H7  16706 0.49492100   1.008000   ; qtot -0.017318
16707         ho    627    ccc     H8  16707 0.51297200   1.008000   ; qtot 0.495654
16708         h1    627    ccc     H9  16708 0.05653400   1.008000   ; qtot 0.552188
16709         h1    627    ccc    H10  16709 0.05653400   1.008000   ; qtot 0.608722
16710         oh    627    ccc     O5  16710 -0.84113600  16.000000   ; qtot -0.232414
16711         ho    627    ccc    H11  16711 0.51201600   1.008000   ; qtot 0.279602
16712         os    627    ccc     O6  16712 -0.26013600  16.000000   ; qtot 0.019466
; residue  628 ccc rtp ccc q 0.0
16713         c3    628    ccc     C1  16713 -0.33178800  12.010000   ; qtot -0.312322
16714         c3    628    ccc     C2  16714 0.30606500  12.010000   ; qtot -0.006257
16715         h1    628    ccc     H1  16715 0.11662300   1.008000   ; qtot 0.110366
16716         h1    628    ccc     H2  16716 0.11526800   1.008000   ; qtot 0.225634
16717         c3    628    ccc     C3  16717 0.15592700  12.010000   ; qtot 0.381561
16718         c3    628    ccc     C4  16718 0.28383300  12.010000   ; qtot 0.665394
16719         c3    628    ccc     C5  16719 0.32403300  12.010000   ; qtot 0.989427
16720         h1    628    ccc     H3  16720 0.13386900   1.008000   ; qtot 1.123296
16721         h1    628    ccc     H4  16721 0.10146700   1.008000   ; qtot 1.224763
16722         h2    628    ccc     H5  16722 0.10960400   1.008000   ; qtot 1.334367
16723         os    628    ccc     O1  16723 -0.28650000  16.000000   ; qtot 1.047867
16724         oh    628    ccc     O2  16724 -0.86012500  16.000000   ; qtot 0.187742
16725         oh    628    ccc     O3  16725 -0.83772800  16.000000   ; qtot -0.649986
16726         oh    628    ccc     O4  16726 -0.77449700  16.000000   ; qtot -1.424483
16727         c3    628    ccc     C6  16727 0.37576500  12.010000   ; qtot -1.048718
16728         ho    628    ccc     H6  16728 0.53656000   1.008000   ; qtot -0.512158
16729         ho    628    ccc     H7  16729 0.49492100   1.008000   ; qtot -0.017237
16730         ho    628    ccc     H8  16730 0.51297200   1.008000   ; qtot 0.495735
16731         h1    628    ccc     H9  16731 0.05653400   1.008000   ; qtot 0.552269
16732         h1    628    ccc    H10  16732 0.05653400   1.008000   ; qtot 0.608803
16733         oh    628    ccc     O5  16733 -0.84113600  16.000000   ; qtot -0.232333
16734         ho    628    ccc    H11  16734 0.51201600   1.008000   ; qtot 0.279683
16735         os    628    ccc     O6  16735 -0.26013600  16.000000   ; qtot 0.019547
; residue  629 ccc rtp ccc q 0.0
16736         c3    629    ccc     C1  16736 -0.33178800  12.010000   ; qtot -0.312241
16737         c3    629    ccc     C2  16737 0.30606500  12.010000   ; qtot -0.006176
16738         h1    629    ccc     H1  16738 0.11662300   1.008000   ; qtot 0.110447
16739         h1    629    ccc     H2  16739 0.11526800   1.008000   ; qtot 0.225715
16740         c3    629    ccc     C3  16740 0.15592700  12.010000   ; qtot 0.381642
16741         c3    629    ccc     C4  16741 0.28383300  12.010000   ; qtot 0.665475
16742         c3    629    ccc     C5  16742 0.32403300  12.010000   ; qtot 0.989508
16743         h1    629    ccc     H3  16743 0.13386900   1.008000   ; qtot 1.123377
16744         h1    629    ccc     H4  16744 0.10146700   1.008000   ; qtot 1.224844
16745         h2    629    ccc     H5  16745 0.10960400   1.008000   ; qtot 1.334448
16746         os    629    ccc     O1  16746 -0.28650000  16.000000   ; qtot 1.047948
16747         oh    629    ccc     O2  16747 -0.86012500  16.000000   ; qtot 0.187823
16748         oh    629    ccc     O3  16748 -0.83772800  16.000000   ; qtot -0.649905
16749         oh    629    ccc     O4  16749 -0.77449700  16.000000   ; qtot -1.424402
16750         c3    629    ccc     C6  16750 0.37576500  12.010000   ; qtot -1.048637
16751         ho    629    ccc     H6  16751 0.53656000   1.008000   ; qtot -0.512077
16752         ho    629    ccc     H7  16752 0.49492100   1.008000   ; qtot -0.017156
16753         ho    629    ccc     H8  16753 0.51297200   1.008000   ; qtot 0.495816
16754         h1    629    ccc     H9  16754 0.05653400   1.008000   ; qtot 0.552350
16755         h1    629    ccc    H10  16755 0.05653400   1.008000   ; qtot 0.608884
16756         oh    629    ccc     O5  16756 -0.84113600  16.000000   ; qtot -0.232252
16757         ho    629    ccc    H11  16757 0.51201600   1.008000   ; qtot 0.279764
16758         os    629    ccc     O6  16758 -0.26013600  16.000000   ; qtot 0.019628
; residue  630 ccc rtp ccc q 0.0
16759         c3    630    ccc     C1  16759 -0.33178800  12.010000   ; qtot -0.312160
16760         c3    630    ccc     C2  16760 0.30606500  12.010000   ; qtot -0.006095
16761         h1    630    ccc     H1  16761 0.11662300   1.008000   ; qtot 0.110528
16762         h1    630    ccc     H2  16762 0.11526800   1.008000   ; qtot 0.225796
16763         c3    630    ccc     C3  16763 0.15592700  12.010000   ; qtot 0.381723
16764         c3    630    ccc     C4  16764 0.28383300  12.010000   ; qtot 0.665556
16765         c3    630    ccc     C5  16765 0.32403300  12.010000   ; qtot 0.989589
16766         h1    630    ccc     H3  16766 0.13386900   1.008000   ; qtot 1.123458
16767         h1    630    ccc     H4  16767 0.10146700   1.008000   ; qtot 1.224925
16768         h2    630    ccc     H5  16768 0.10960400   1.008000   ; qtot 1.334529
16769         os    630    ccc     O1  16769 -0.28650000  16.000000   ; qtot 1.048029
16770         oh    630    ccc     O2  16770 -0.86012500  16.000000   ; qtot 0.187904
16771         oh    630    ccc     O3  16771 -0.83772800  16.000000   ; qtot -0.649824
16772         oh    630    ccc     O4  16772 -0.77449700  16.000000   ; qtot -1.424321
16773         c3    630    ccc     C6  16773 0.37576500  12.010000   ; qtot -1.048556
16774         ho    630    ccc     H6  16774 0.53656000   1.008000   ; qtot -0.511996
16775         ho    630    ccc     H7  16775 0.49492100   1.008000   ; qtot -0.017075
16776         ho    630    ccc     H8  16776 0.51297200   1.008000   ; qtot 0.495897
16777         h1    630    ccc     H9  16777 0.05653400   1.008000   ; qtot 0.552431
16778         h1    630    ccc    H10  16778 0.05653400   1.008000   ; qtot 0.608965
16779         oh    630    ccc     O5  16779 -0.84113600  16.000000   ; qtot -0.232171
16780         ho    630    ccc    H11  16780 0.51201600   1.008000   ; qtot 0.279845
16781         os    630    ccc     O6  16781 -0.26013600  16.000000   ; qtot 0.019709
; residue  631 ccc rtp ccc q 0.0
16782         c3    631    ccc     C1  16782 -0.33178800  12.010000   ; qtot -0.312079
16783         c3    631    ccc     C2  16783 0.30606500  12.010000   ; qtot -0.006014
16784         h1    631    ccc     H1  16784 0.11662300   1.008000   ; qtot 0.110609
16785         h1    631    ccc     H2  16785 0.11526800   1.008000   ; qtot 0.225877
16786         c3    631    ccc     C3  16786 0.15592700  12.010000   ; qtot 0.381804
16787         c3    631    ccc     C4  16787 0.28383300  12.010000   ; qtot 0.665637
16788         c3    631    ccc     C5  16788 0.32403300  12.010000   ; qtot 0.989670
16789         h1    631    ccc     H3  16789 0.13386900   1.008000   ; qtot 1.123539
16790         h1    631    ccc     H4  16790 0.10146700   1.008000   ; qtot 1.225006
16791         h2    631    ccc     H5  16791 0.10960400   1.008000   ; qtot 1.334610
16792         os    631    ccc     O1  16792 -0.28650000  16.000000   ; qtot 1.048110
16793         oh    631    ccc     O2  16793 -0.86012500  16.000000   ; qtot 0.187985
16794         oh    631    ccc     O3  16794 -0.83772800  16.000000   ; qtot -0.649743
16795         oh    631    ccc     O4  16795 -0.77449700  16.000000   ; qtot -1.424240
16796         c3    631    ccc     C6  16796 0.37576500  12.010000   ; qtot -1.048475
16797         ho    631    ccc     H6  16797 0.53656000   1.008000   ; qtot -0.511915
16798         ho    631    ccc     H7  16798 0.49492100   1.008000   ; qtot -0.016994
16799         ho    631    ccc     H8  16799 0.51297200   1.008000   ; qtot 0.495978
16800         h1    631    ccc     H9  16800 0.05653400   1.008000   ; qtot 0.552512
16801         h1    631    ccc    H10  16801 0.05653400   1.008000   ; qtot 0.609046
16802         oh    631    ccc     O5  16802 -0.84113600  16.000000   ; qtot -0.232090
16803         ho    631    ccc    H11  16803 0.51201600   1.008000   ; qtot 0.279926
16804         os    631    ccc     O6  16804 -0.26013600  16.000000   ; qtot 0.019790
; residue  632 ccc rtp ccc q 0.0
16805         c3    632    ccc     C1  16805 -0.33178800  12.010000   ; qtot -0.311998
16806         c3    632    ccc     C2  16806 0.30606500  12.010000   ; qtot -0.005933
16807         h1    632    ccc     H1  16807 0.11662300   1.008000   ; qtot 0.110690
16808         h1    632    ccc     H2  16808 0.11526800   1.008000   ; qtot 0.225958
16809         c3    632    ccc     C3  16809 0.15592700  12.010000   ; qtot 0.381885
16810         c3    632    ccc     C4  16810 0.28383300  12.010000   ; qtot 0.665718
16811         c3    632    ccc     C5  16811 0.32403300  12.010000   ; qtot 0.989751
16812         h1    632    ccc     H3  16812 0.13386900   1.008000   ; qtot 1.123620
16813         h1    632    ccc     H4  16813 0.10146700   1.008000   ; qtot 1.225087
16814         h2    632    ccc     H5  16814 0.10960400   1.008000   ; qtot 1.334691
16815         os    632    ccc     O1  16815 -0.28650000  16.000000   ; qtot 1.048191
16816         oh    632    ccc     O2  16816 -0.86012500  16.000000   ; qtot 0.188066
16817         oh    632    ccc     O3  16817 -0.83772800  16.000000   ; qtot -0.649662
16818         oh    632    ccc     O4  16818 -0.77449700  16.000000   ; qtot -1.424159
16819         c3    632    ccc     C6  16819 0.37576500  12.010000   ; qtot -1.048394
16820         ho    632    ccc     H6  16820 0.53656000   1.008000   ; qtot -0.511834
16821         ho    632    ccc     H7  16821 0.49492100   1.008000   ; qtot -0.016913
16822         ho    632    ccc     H8  16822 0.51297200   1.008000   ; qtot 0.496059
16823         h1    632    ccc     H9  16823 0.05653400   1.008000   ; qtot 0.552593
16824         h1    632    ccc    H10  16824 0.05653400   1.008000   ; qtot 0.609127
16825         oh    632    ccc     O5  16825 -0.84113600  16.000000   ; qtot -0.232009
16826         ho    632    ccc    H11  16826 0.51201600   1.008000   ; qtot 0.280007
16827         os    632    ccc     O6  16827 -0.26013600  16.000000   ; qtot 0.019871
; residue  633 ccc rtp ccc q 0.0
16828         c3    633    ccc     C1  16828 -0.33178800  12.010000   ; qtot -0.311917
16829         c3    633    ccc     C2  16829 0.30606500  12.010000   ; qtot -0.005852
16830         h1    633    ccc     H1  16830 0.11662300   1.008000   ; qtot 0.110771
16831         h1    633    ccc     H2  16831 0.11526800   1.008000   ; qtot 0.226039
16832         c3    633    ccc     C3  16832 0.15592700  12.010000   ; qtot 0.381966
16833         c3    633    ccc     C4  16833 0.28383300  12.010000   ; qtot 0.665799
16834         c3    633    ccc     C5  16834 0.32403300  12.010000   ; qtot 0.989832
16835         h1    633    ccc     H3  16835 0.13386900   1.008000   ; qtot 1.123701
16836         h1    633    ccc     H4  16836 0.10146700   1.008000   ; qtot 1.225168
16837         h2    633    ccc     H5  16837 0.10960400   1.008000   ; qtot 1.334772
16838         os    633    ccc     O1  16838 -0.28650000  16.000000   ; qtot 1.048272
16839         oh    633    ccc     O2  16839 -0.86012500  16.000000   ; qtot 0.188147
16840         oh    633    ccc     O3  16840 -0.83772800  16.000000   ; qtot -0.649581
16841         oh    633    ccc     O4  16841 -0.77449700  16.000000   ; qtot -1.424078
16842         c3    633    ccc     C6  16842 0.37576500  12.010000   ; qtot -1.048313
16843         ho    633    ccc     H6  16843 0.53656000   1.008000   ; qtot -0.511753
16844         ho    633    ccc     H7  16844 0.49492100   1.008000   ; qtot -0.016832
16845         ho    633    ccc     H8  16845 0.51297200   1.008000   ; qtot 0.496140
16846         h1    633    ccc     H9  16846 0.05653400   1.008000   ; qtot 0.552674
16847         h1    633    ccc    H10  16847 0.05653400   1.008000   ; qtot 0.609208
16848         oh    633    ccc     O5  16848 -0.84113600  16.000000   ; qtot -0.231928
16849         ho    633    ccc    H11  16849 0.51201600   1.008000   ; qtot 0.280088
16850         os    633    ccc     O6  16850 -0.26013600  16.000000   ; qtot 0.019952
; residue  634 ccc rtp ccc q 0.0
16851         c3    634    ccc     C1  16851 -0.33178800  12.010000   ; qtot -0.311836
16852         c3    634    ccc     C2  16852 0.30606500  12.010000   ; qtot -0.005771
16853         h1    634    ccc     H1  16853 0.11662300   1.008000   ; qtot 0.110852
16854         h1    634    ccc     H2  16854 0.11526800   1.008000   ; qtot 0.226120
16855         c3    634    ccc     C3  16855 0.15592700  12.010000   ; qtot 0.382047
16856         c3    634    ccc     C4  16856 0.28383300  12.010000   ; qtot 0.665880
16857         c3    634    ccc     C5  16857 0.32403300  12.010000   ; qtot 0.989913
16858         h1    634    ccc     H3  16858 0.13386900   1.008000   ; qtot 1.123782
16859         h1    634    ccc     H4  16859 0.10146700   1.008000   ; qtot 1.225249
16860         h2    634    ccc     H5  16860 0.10960400   1.008000   ; qtot 1.334853
16861         os    634    ccc     O1  16861 -0.28650000  16.000000   ; qtot 1.048353
16862         oh    634    ccc     O2  16862 -0.86012500  16.000000   ; qtot 0.188228
16863         oh    634    ccc     O3  16863 -0.83772800  16.000000   ; qtot -0.649500
16864         oh    634    ccc     O4  16864 -0.77449700  16.000000   ; qtot -1.423997
16865         c3    634    ccc     C6  16865 0.37576500  12.010000   ; qtot -1.048232
16866         ho    634    ccc     H6  16866 0.53656000   1.008000   ; qtot -0.511672
16867         ho    634    ccc     H7  16867 0.49492100   1.008000   ; qtot -0.016751
16868         ho    634    ccc     H8  16868 0.51297200   1.008000   ; qtot 0.496221
16869         h1    634    ccc     H9  16869 0.05653400   1.008000   ; qtot 0.552755
16870         h1    634    ccc    H10  16870 0.05653400   1.008000   ; qtot 0.609289
16871         oh    634    ccc     O5  16871 -0.84113600  16.000000   ; qtot -0.231847
16872         ho    634    ccc    H11  16872 0.51201600   1.008000   ; qtot 0.280169
16873         os    634    ccc     O6  16873 -0.26013600  16.000000   ; qtot 0.020033
; residue  635 ccc rtp ccc q 0.0
16874         c3    635    ccc     C1  16874 -0.33178800  12.010000   ; qtot -0.311755
16875         c3    635    ccc     C2  16875 0.30606500  12.010000   ; qtot -0.005690
16876         h1    635    ccc     H1  16876 0.11662300   1.008000   ; qtot 0.110933
16877         h1    635    ccc     H2  16877 0.11526800   1.008000   ; qtot 0.226201
16878         c3    635    ccc     C3  16878 0.15592700  12.010000   ; qtot 0.382128
16879         c3    635    ccc     C4  16879 0.28383300  12.010000   ; qtot 0.665961
16880         c3    635    ccc     C5  16880 0.32403300  12.010000   ; qtot 0.989994
16881         h1    635    ccc     H3  16881 0.13386900   1.008000   ; qtot 1.123863
16882         h1    635    ccc     H4  16882 0.10146700   1.008000   ; qtot 1.225330
16883         h2    635    ccc     H5  16883 0.10960400   1.008000   ; qtot 1.334934
16884         os    635    ccc     O1  16884 -0.28650000  16.000000   ; qtot 1.048434
16885         oh    635    ccc     O2  16885 -0.86012500  16.000000   ; qtot 0.188309
16886         oh    635    ccc     O3  16886 -0.83772800  16.000000   ; qtot -0.649419
16887         oh    635    ccc     O4  16887 -0.77449700  16.000000   ; qtot -1.423916
16888         c3    635    ccc     C6  16888 0.37576500  12.010000   ; qtot -1.048151
16889         ho    635    ccc     H6  16889 0.53656000   1.008000   ; qtot -0.511591
16890         ho    635    ccc     H7  16890 0.49492100   1.008000   ; qtot -0.016670
16891         ho    635    ccc     H8  16891 0.51297200   1.008000   ; qtot 0.496302
16892         h1    635    ccc     H9  16892 0.05653400   1.008000   ; qtot 0.552836
16893         h1    635    ccc    H10  16893 0.05653400   1.008000   ; qtot 0.609370
16894         oh    635    ccc     O5  16894 -0.84113600  16.000000   ; qtot -0.231766
16895         ho    635    ccc    H11  16895 0.51201600   1.008000   ; qtot 0.280250
16896         os    635    ccc     O6  16896 -0.26013600  16.000000   ; qtot 0.020114
; residue  636 ccc rtp ccc q 0.0
16897         c3    636    ccc     C1  16897 -0.33178800  12.010000   ; qtot -0.311674
16898         c3    636    ccc     C2  16898 0.30606500  12.010000   ; qtot -0.005609
16899         h1    636    ccc     H1  16899 0.11662300   1.008000   ; qtot 0.111014
16900         h1    636    ccc     H2  16900 0.11526800   1.008000   ; qtot 0.226282
16901         c3    636    ccc     C3  16901 0.15592700  12.010000   ; qtot 0.382209
16902         c3    636    ccc     C4  16902 0.28383300  12.010000   ; qtot 0.666042
16903         c3    636    ccc     C5  16903 0.32403300  12.010000   ; qtot 0.990075
16904         h1    636    ccc     H3  16904 0.13386900   1.008000   ; qtot 1.123944
16905         h1    636    ccc     H4  16905 0.10146700   1.008000   ; qtot 1.225411
16906         h2    636    ccc     H5  16906 0.10960400   1.008000   ; qtot 1.335015
16907         os    636    ccc     O1  16907 -0.28650000  16.000000   ; qtot 1.048515
16908         oh    636    ccc     O2  16908 -0.86012500  16.000000   ; qtot 0.188390
16909         oh    636    ccc     O3  16909 -0.83772800  16.000000   ; qtot -0.649338
16910         oh    636    ccc     O4  16910 -0.77449700  16.000000   ; qtot -1.423835
16911         c3    636    ccc     C6  16911 0.37576500  12.010000   ; qtot -1.048070
16912         ho    636    ccc     H6  16912 0.53656000   1.008000   ; qtot -0.511510
16913         ho    636    ccc     H7  16913 0.49492100   1.008000   ; qtot -0.016589
16914         ho    636    ccc     H8  16914 0.51297200   1.008000   ; qtot 0.496383
16915         h1    636    ccc     H9  16915 0.05653400   1.008000   ; qtot 0.552917
16916         h1    636    ccc    H10  16916 0.05653400   1.008000   ; qtot 0.609451
16917         oh    636    ccc     O5  16917 -0.84113600  16.000000   ; qtot -0.231685
16918         ho    636    ccc    H11  16918 0.51201600   1.008000   ; qtot 0.280331
16919         os    636    ccc     O6  16919 -0.26013600  16.000000   ; qtot 0.020195
; residue  637 ccc rtp ccc q 0.0
16920         c3    637    ccc     C1  16920 -0.33178800  12.010000   ; qtot -0.311593
16921         c3    637    ccc     C2  16921 0.30606500  12.010000   ; qtot -0.005528
16922         h1    637    ccc     H1  16922 0.11662300   1.008000   ; qtot 0.111095
16923         h1    637    ccc     H2  16923 0.11526800   1.008000   ; qtot 0.226363
16924         c3    637    ccc     C3  16924 0.15592700  12.010000   ; qtot 0.382290
16925         c3    637    ccc     C4  16925 0.28383300  12.010000   ; qtot 0.666123
16926         c3    637    ccc     C5  16926 0.32403300  12.010000   ; qtot 0.990156
16927         h1    637    ccc     H3  16927 0.13386900   1.008000   ; qtot 1.124025
16928         h1    637    ccc     H4  16928 0.10146700   1.008000   ; qtot 1.225492
16929         h2    637    ccc     H5  16929 0.10960400   1.008000   ; qtot 1.335096
16930         os    637    ccc     O1  16930 -0.28650000  16.000000   ; qtot 1.048596
16931         oh    637    ccc     O2  16931 -0.86012500  16.000000   ; qtot 0.188471
16932         oh    637    ccc     O3  16932 -0.83772800  16.000000   ; qtot -0.649257
16933         oh    637    ccc     O4  16933 -0.77449700  16.000000   ; qtot -1.423754
16934         c3    637    ccc     C6  16934 0.37576500  12.010000   ; qtot -1.047989
16935         ho    637    ccc     H6  16935 0.53656000   1.008000   ; qtot -0.511429
16936         ho    637    ccc     H7  16936 0.49492100   1.008000   ; qtot -0.016508
16937         ho    637    ccc     H8  16937 0.51297200   1.008000   ; qtot 0.496464
16938         h1    637    ccc     H9  16938 0.05653400   1.008000   ; qtot 0.552998
16939         h1    637    ccc    H10  16939 0.05653400   1.008000   ; qtot 0.609532
16940         oh    637    ccc     O5  16940 -0.84113600  16.000000   ; qtot -0.231604
16941         ho    637    ccc    H11  16941 0.51201600   1.008000   ; qtot 0.280412
16942         os    637    ccc     O6  16942 -0.26013600  16.000000   ; qtot 0.020276
; residue  638 ccc rtp ccc q 0.0
16943         c3    638    ccc     C1  16943 -0.33178800  12.010000   ; qtot -0.311512
16944         c3    638    ccc     C2  16944 0.30606500  12.010000   ; qtot -0.005447
16945         h1    638    ccc     H1  16945 0.11662300   1.008000   ; qtot 0.111176
16946         h1    638    ccc     H2  16946 0.11526800   1.008000   ; qtot 0.226444
16947         c3    638    ccc     C3  16947 0.15592700  12.010000   ; qtot 0.382371
16948         c3    638    ccc     C4  16948 0.28383300  12.010000   ; qtot 0.666204
16949         c3    638    ccc     C5  16949 0.32403300  12.010000   ; qtot 0.990237
16950         h1    638    ccc     H3  16950 0.13386900   1.008000   ; qtot 1.124106
16951         h1    638    ccc     H4  16951 0.10146700   1.008000   ; qtot 1.225573
16952         h2    638    ccc     H5  16952 0.10960400   1.008000   ; qtot 1.335177
16953         os    638    ccc     O1  16953 -0.28650000  16.000000   ; qtot 1.048677
16954         oh    638    ccc     O2  16954 -0.86012500  16.000000   ; qtot 0.188552
16955         oh    638    ccc     O3  16955 -0.83772800  16.000000   ; qtot -0.649176
16956         oh    638    ccc     O4  16956 -0.77449700  16.000000   ; qtot -1.423673
16957         c3    638    ccc     C6  16957 0.37576500  12.010000   ; qtot -1.047908
16958         ho    638    ccc     H6  16958 0.53656000   1.008000   ; qtot -0.511348
16959         ho    638    ccc     H7  16959 0.49492100   1.008000   ; qtot -0.016427
16960         ho    638    ccc     H8  16960 0.51297200   1.008000   ; qtot 0.496545
16961         h1    638    ccc     H9  16961 0.05653400   1.008000   ; qtot 0.553079
16962         h1    638    ccc    H10  16962 0.05653400   1.008000   ; qtot 0.609613
16963         oh    638    ccc     O5  16963 -0.84113600  16.000000   ; qtot -0.231523
16964         ho    638    ccc    H11  16964 0.51201600   1.008000   ; qtot 0.280493
16965         os    638    ccc     O6  16965 -0.26013600  16.000000   ; qtot 0.020357
; residue  639 ccc rtp ccc q 0.0
16966         c3    639    ccc     C1  16966 -0.33178800  12.010000   ; qtot -0.311431
16967         c3    639    ccc     C2  16967 0.30606500  12.010000   ; qtot -0.005366
16968         h1    639    ccc     H1  16968 0.11662300   1.008000   ; qtot 0.111257
16969         h1    639    ccc     H2  16969 0.11526800   1.008000   ; qtot 0.226525
16970         c3    639    ccc     C3  16970 0.15592700  12.010000   ; qtot 0.382452
16971         c3    639    ccc     C4  16971 0.28383300  12.010000   ; qtot 0.666285
16972         c3    639    ccc     C5  16972 0.32403300  12.010000   ; qtot 0.990318
16973         h1    639    ccc     H3  16973 0.13386900   1.008000   ; qtot 1.124187
16974         h1    639    ccc     H4  16974 0.10146700   1.008000   ; qtot 1.225654
16975         h2    639    ccc     H5  16975 0.10960400   1.008000   ; qtot 1.335258
16976         os    639    ccc     O1  16976 -0.28650000  16.000000   ; qtot 1.048758
16977         oh    639    ccc     O2  16977 -0.86012500  16.000000   ; qtot 0.188633
16978         oh    639    ccc     O3  16978 -0.83772800  16.000000   ; qtot -0.649095
16979         oh    639    ccc     O4  16979 -0.77449700  16.000000   ; qtot -1.423592
16980         c3    639    ccc     C6  16980 0.37576500  12.010000   ; qtot -1.047827
16981         ho    639    ccc     H6  16981 0.53656000   1.008000   ; qtot -0.511267
16982         ho    639    ccc     H7  16982 0.49492100   1.008000   ; qtot -0.016346
16983         ho    639    ccc     H8  16983 0.51297200   1.008000   ; qtot 0.496626
16984         h1    639    ccc     H9  16984 0.05653400   1.008000   ; qtot 0.553160
16985         h1    639    ccc    H10  16985 0.05653400   1.008000   ; qtot 0.609694
16986         oh    639    ccc     O5  16986 -0.84113600  16.000000   ; qtot -0.231442
16987         ho    639    ccc    H11  16987 0.51201600   1.008000   ; qtot 0.280574
16988         os    639    ccc     O6  16988 -0.26013600  16.000000   ; qtot 0.020438
; residue  640 ccc rtp ccc q 0.0
16989         c3    640    ccc     C1  16989 -0.33178800  12.010000   ; qtot -0.311350
16990         c3    640    ccc     C2  16990 0.30606500  12.010000   ; qtot -0.005285
16991         h1    640    ccc     H1  16991 0.11662300   1.008000   ; qtot 0.111338
16992         h1    640    ccc     H2  16992 0.11526800   1.008000   ; qtot 0.226606
16993         c3    640    ccc     C3  16993 0.15592700  12.010000   ; qtot 0.382533
16994         c3    640    ccc     C4  16994 0.28383300  12.010000   ; qtot 0.666366
16995         c3    640    ccc     C5  16995 0.32403300  12.010000   ; qtot 0.990399
16996         h1    640    ccc     H3  16996 0.13386900   1.008000   ; qtot 1.124268
16997         h1    640    ccc     H4  16997 0.10146700   1.008000   ; qtot 1.225735
16998         h2    640    ccc     H5  16998 0.10960400   1.008000   ; qtot 1.335339
16999         os    640    ccc     O1  16999 -0.28650000  16.000000   ; qtot 1.048839
17000         oh    640    ccc     O2  17000 -0.86012500  16.000000   ; qtot 0.188714
17001         oh    640    ccc     O3  17001 -0.83772800  16.000000   ; qtot -0.649014
17002         oh    640    ccc     O4  17002 -0.77449700  16.000000   ; qtot -1.423511
17003         c3    640    ccc     C6  17003 0.37576500  12.010000   ; qtot -1.047746
17004         ho    640    ccc     H6  17004 0.53656000   1.008000   ; qtot -0.511186
17005         ho    640    ccc     H7  17005 0.49492100   1.008000   ; qtot -0.016265
17006         ho    640    ccc     H8  17006 0.51297200   1.008000   ; qtot 0.496707
17007         h1    640    ccc     H9  17007 0.05653400   1.008000   ; qtot 0.553241
17008         h1    640    ccc    H10  17008 0.05653400   1.008000   ; qtot 0.609775
17009         oh    640    ccc     O5  17009 -0.84113600  16.000000   ; qtot -0.231361
17010         ho    640    ccc    H11  17010 0.51201600   1.008000   ; qtot 0.280655
17011         os    640    ccc     O6  17011 -0.26013600  16.000000   ; qtot 0.020519
; residue  641 ccc rtp ccc q 0.0
17012         c3    641    ccc     C1  17012 -0.33178800  12.010000   ; qtot -0.311269
17013         c3    641    ccc     C2  17013 0.30606500  12.010000   ; qtot -0.005204
17014         h1    641    ccc     H1  17014 0.11662300   1.008000   ; qtot 0.111419
17015         h1    641    ccc     H2  17015 0.11526800   1.008000   ; qtot 0.226687
17016         c3    641    ccc     C3  17016 0.15592700  12.010000   ; qtot 0.382614
17017         c3    641    ccc     C4  17017 0.28383300  12.010000   ; qtot 0.666447
17018         c3    641    ccc     C5  17018 0.32403300  12.010000   ; qtot 0.990480
17019         h1    641    ccc     H3  17019 0.13386900   1.008000   ; qtot 1.124349
17020         h1    641    ccc     H4  17020 0.10146700   1.008000   ; qtot 1.225816
17021         h2    641    ccc     H5  17021 0.10960400   1.008000   ; qtot 1.335420
17022         os    641    ccc     O1  17022 -0.28650000  16.000000   ; qtot 1.048920
17023         oh    641    ccc     O2  17023 -0.86012500  16.000000   ; qtot 0.188795
17024         oh    641    ccc     O3  17024 -0.83772800  16.000000   ; qtot -0.648933
17025         oh    641    ccc     O4  17025 -0.77449700  16.000000   ; qtot -1.423430
17026         c3    641    ccc     C6  17026 0.37576500  12.010000   ; qtot -1.047665
17027         ho    641    ccc     H6  17027 0.53656000   1.008000   ; qtot -0.511105
17028         ho    641    ccc     H7  17028 0.49492100   1.008000   ; qtot -0.016184
17029         ho    641    ccc     H8  17029 0.51297200   1.008000   ; qtot 0.496788
17030         h1    641    ccc     H9  17030 0.05653400   1.008000   ; qtot 0.553322
17031         h1    641    ccc    H10  17031 0.05653400   1.008000   ; qtot 0.609856
17032         oh    641    ccc     O5  17032 -0.84113600  16.000000   ; qtot -0.231280
17033         ho    641    ccc    H11  17033 0.51201600   1.008000   ; qtot 0.280736
17034         os    641    ccc     O6  17034 -0.26013600  16.000000   ; qtot 0.020600
; residue  642 ccc rtp ccc q 0.0
17035         c3    642    ccc     C1  17035 -0.33178800  12.010000   ; qtot -0.311188
17036         c3    642    ccc     C2  17036 0.30606500  12.010000   ; qtot -0.005123
17037         h1    642    ccc     H1  17037 0.11662300   1.008000   ; qtot 0.111500
17038         h1    642    ccc     H2  17038 0.11526800   1.008000   ; qtot 0.226768
17039         c3    642    ccc     C3  17039 0.15592700  12.010000   ; qtot 0.382695
17040         c3    642    ccc     C4  17040 0.28383300  12.010000   ; qtot 0.666528
17041         c3    642    ccc     C5  17041 0.32403300  12.010000   ; qtot 0.990561
17042         h1    642    ccc     H3  17042 0.13386900   1.008000   ; qtot 1.124430
17043         h1    642    ccc     H4  17043 0.10146700   1.008000   ; qtot 1.225897
17044         h2    642    ccc     H5  17044 0.10960400   1.008000   ; qtot 1.335501
17045         os    642    ccc     O1  17045 -0.28650000  16.000000   ; qtot 1.049001
17046         oh    642    ccc     O2  17046 -0.86012500  16.000000   ; qtot 0.188876
17047         oh    642    ccc     O3  17047 -0.83772800  16.000000   ; qtot -0.648852
17048         oh    642    ccc     O4  17048 -0.77449700  16.000000   ; qtot -1.423349
17049         c3    642    ccc     C6  17049 0.37576500  12.010000   ; qtot -1.047584
17050         ho    642    ccc     H6  17050 0.53656000   1.008000   ; qtot -0.511024
17051         ho    642    ccc     H7  17051 0.49492100   1.008000   ; qtot -0.016103
17052         ho    642    ccc     H8  17052 0.51297200   1.008000   ; qtot 0.496869
17053         h1    642    ccc     H9  17053 0.05653400   1.008000   ; qtot 0.553403
17054         h1    642    ccc    H10  17054 0.05653400   1.008000   ; qtot 0.609937
17055         oh    642    ccc     O5  17055 -0.84113600  16.000000   ; qtot -0.231199
17056         ho    642    ccc    H11  17056 0.51201600   1.008000   ; qtot 0.280817
17057         os    642    ccc     O6  17057 -0.26013600  16.000000   ; qtot 0.020681
; residue  643 ccc rtp ccc q 0.0
17058         c3    643    ccc     C1  17058 -0.33178800  12.010000   ; qtot -0.311107
17059         c3    643    ccc     C2  17059 0.30606500  12.010000   ; qtot -0.005042
17060         h1    643    ccc     H1  17060 0.11662300   1.008000   ; qtot 0.111581
17061         h1    643    ccc     H2  17061 0.11526800   1.008000   ; qtot 0.226849
17062         c3    643    ccc     C3  17062 0.15592700  12.010000   ; qtot 0.382776
17063         c3    643    ccc     C4  17063 0.28383300  12.010000   ; qtot 0.666609
17064         c3    643    ccc     C5  17064 0.32403300  12.010000   ; qtot 0.990642
17065         h1    643    ccc     H3  17065 0.13386900   1.008000   ; qtot 1.124511
17066         h1    643    ccc     H4  17066 0.10146700   1.008000   ; qtot 1.225978
17067         h2    643    ccc     H5  17067 0.10960400   1.008000   ; qtot 1.335582
17068         os    643    ccc     O1  17068 -0.28650000  16.000000   ; qtot 1.049082
17069         oh    643    ccc     O2  17069 -0.86012500  16.000000   ; qtot 0.188957
17070         oh    643    ccc     O3  17070 -0.83772800  16.000000   ; qtot -0.648771
17071         oh    643    ccc     O4  17071 -0.77449700  16.000000   ; qtot -1.423268
17072         c3    643    ccc     C6  17072 0.37576500  12.010000   ; qtot -1.047503
17073         ho    643    ccc     H6  17073 0.53656000   1.008000   ; qtot -0.510943
17074         ho    643    ccc     H7  17074 0.49492100   1.008000   ; qtot -0.016022
17075         ho    643    ccc     H8  17075 0.51297200   1.008000   ; qtot 0.496950
17076         h1    643    ccc     H9  17076 0.05653400   1.008000   ; qtot 0.553484
17077         h1    643    ccc    H10  17077 0.05653400   1.008000   ; qtot 0.610018
17078         oh    643    ccc     O5  17078 -0.84113600  16.000000   ; qtot -0.231118
17079         ho    643    ccc    H11  17079 0.51201600   1.008000   ; qtot 0.280898
17080         os    643    ccc     O6  17080 -0.26013600  16.000000   ; qtot 0.020762
; residue  644 ccc rtp ccc q 0.0
17081         c3    644    ccc     C1  17081 -0.33178800  12.010000   ; qtot -0.311026
17082         c3    644    ccc     C2  17082 0.30606500  12.010000   ; qtot -0.004961
17083         h1    644    ccc     H1  17083 0.11662300   1.008000   ; qtot 0.111662
17084         h1    644    ccc     H2  17084 0.11526800   1.008000   ; qtot 0.226930
17085         c3    644    ccc     C3  17085 0.15592700  12.010000   ; qtot 0.382857
17086         c3    644    ccc     C4  17086 0.28383300  12.010000   ; qtot 0.666690
17087         c3    644    ccc     C5  17087 0.32403300  12.010000   ; qtot 0.990723
17088         h1    644    ccc     H3  17088 0.13386900   1.008000   ; qtot 1.124592
17089         h1    644    ccc     H4  17089 0.10146700   1.008000   ; qtot 1.226059
17090         h2    644    ccc     H5  17090 0.10960400   1.008000   ; qtot 1.335663
17091         os    644    ccc     O1  17091 -0.28650000  16.000000   ; qtot 1.049163
17092         oh    644    ccc     O2  17092 -0.86012500  16.000000   ; qtot 0.189038
17093         oh    644    ccc     O3  17093 -0.83772800  16.000000   ; qtot -0.648690
17094         oh    644    ccc     O4  17094 -0.77449700  16.000000   ; qtot -1.423187
17095         c3    644    ccc     C6  17095 0.37576500  12.010000   ; qtot -1.047422
17096         ho    644    ccc     H6  17096 0.53656000   1.008000   ; qtot -0.510862
17097         ho    644    ccc     H7  17097 0.49492100   1.008000   ; qtot -0.015941
17098         ho    644    ccc     H8  17098 0.51297200   1.008000   ; qtot 0.497031
17099         h1    644    ccc     H9  17099 0.05653400   1.008000   ; qtot 0.553565
17100         h1    644    ccc    H10  17100 0.05653400   1.008000   ; qtot 0.610099
17101         oh    644    ccc     O5  17101 -0.84113600  16.000000   ; qtot -0.231037
17102         ho    644    ccc    H11  17102 0.51201600   1.008000   ; qtot 0.280979
17103         os    644    ccc     O6  17103 -0.26013600  16.000000   ; qtot 0.020843
; residue  645 ccc rtp ccc q 0.0
17104         c3    645    ccc     C1  17104 -0.33178800  12.010000   ; qtot -0.310945
17105         c3    645    ccc     C2  17105 0.30606500  12.010000   ; qtot -0.004880
17106         h1    645    ccc     H1  17106 0.11662300   1.008000   ; qtot 0.111743
17107         h1    645    ccc     H2  17107 0.11526800   1.008000   ; qtot 0.227011
17108         c3    645    ccc     C3  17108 0.15592700  12.010000   ; qtot 0.382938
17109         c3    645    ccc     C4  17109 0.28383300  12.010000   ; qtot 0.666771
17110         c3    645    ccc     C5  17110 0.32403300  12.010000   ; qtot 0.990804
17111         h1    645    ccc     H3  17111 0.13386900   1.008000   ; qtot 1.124673
17112         h1    645    ccc     H4  17112 0.10146700   1.008000   ; qtot 1.226140
17113         h2    645    ccc     H5  17113 0.10960400   1.008000   ; qtot 1.335744
17114         os    645    ccc     O1  17114 -0.28650000  16.000000   ; qtot 1.049244
17115         oh    645    ccc     O2  17115 -0.86012500  16.000000   ; qtot 0.189119
17116         oh    645    ccc     O3  17116 -0.83772800  16.000000   ; qtot -0.648609
17117         oh    645    ccc     O4  17117 -0.77449700  16.000000   ; qtot -1.423106
17118         c3    645    ccc     C6  17118 0.37576500  12.010000   ; qtot -1.047341
17119         ho    645    ccc     H6  17119 0.53656000   1.008000   ; qtot -0.510781
17120         ho    645    ccc     H7  17120 0.49492100   1.008000   ; qtot -0.015860
17121         ho    645    ccc     H8  17121 0.51297200   1.008000   ; qtot 0.497112
17122         h1    645    ccc     H9  17122 0.05653400   1.008000   ; qtot 0.553646
17123         h1    645    ccc    H10  17123 0.05653400   1.008000   ; qtot 0.610180
17124         oh    645    ccc     O5  17124 -0.84113600  16.000000   ; qtot -0.230956
17125         ho    645    ccc    H11  17125 0.51201600   1.008000   ; qtot 0.281060
17126         os    645    ccc     O6  17126 -0.26013600  16.000000   ; qtot 0.020924
; residue  646 ccc rtp ccc q 0.0
17127         c3    646    ccc     C1  17127 -0.33178800  12.010000   ; qtot -0.310864
17128         c3    646    ccc     C2  17128 0.30606500  12.010000   ; qtot -0.004799
17129         h1    646    ccc     H1  17129 0.11662300   1.008000   ; qtot 0.111824
17130         h1    646    ccc     H2  17130 0.11526800   1.008000   ; qtot 0.227092
17131         c3    646    ccc     C3  17131 0.15592700  12.010000   ; qtot 0.383019
17132         c3    646    ccc     C4  17132 0.28383300  12.010000   ; qtot 0.666852
17133         c3    646    ccc     C5  17133 0.32403300  12.010000   ; qtot 0.990885
17134         h1    646    ccc     H3  17134 0.13386900   1.008000   ; qtot 1.124754
17135         h1    646    ccc     H4  17135 0.10146700   1.008000   ; qtot 1.226221
17136         h2    646    ccc     H5  17136 0.10960400   1.008000   ; qtot 1.335825
17137         os    646    ccc     O1  17137 -0.28650000  16.000000   ; qtot 1.049325
17138         oh    646    ccc     O2  17138 -0.86012500  16.000000   ; qtot 0.189200
17139         oh    646    ccc     O3  17139 -0.83772800  16.000000   ; qtot -0.648528
17140         oh    646    ccc     O4  17140 -0.77449700  16.000000   ; qtot -1.423025
17141         c3    646    ccc     C6  17141 0.37576500  12.010000   ; qtot -1.047260
17142         ho    646    ccc     H6  17142 0.53656000   1.008000   ; qtot -0.510700
17143         ho    646    ccc     H7  17143 0.49492100   1.008000   ; qtot -0.015779
17144         ho    646    ccc     H8  17144 0.51297200   1.008000   ; qtot 0.497193
17145         h1    646    ccc     H9  17145 0.05653400   1.008000   ; qtot 0.553727
17146         h1    646    ccc    H10  17146 0.05653400   1.008000   ; qtot 0.610261
17147         oh    646    ccc     O5  17147 -0.84113600  16.000000   ; qtot -0.230875
17148         ho    646    ccc    H11  17148 0.51201600   1.008000   ; qtot 0.281141
17149         os    646    ccc     O6  17149 -0.26013600  16.000000   ; qtot 0.021005
; residue  647 ccc rtp ccc q 0.0
17150         c3    647    ccc     C1  17150 -0.33178800  12.010000   ; qtot -0.310783
17151         c3    647    ccc     C2  17151 0.30606500  12.010000   ; qtot -0.004718
17152         h1    647    ccc     H1  17152 0.11662300   1.008000   ; qtot 0.111905
17153         h1    647    ccc     H2  17153 0.11526800   1.008000   ; qtot 0.227173
17154         c3    647    ccc     C3  17154 0.15592700  12.010000   ; qtot 0.383100
17155         c3    647    ccc     C4  17155 0.28383300  12.010000   ; qtot 0.666933
17156         c3    647    ccc     C5  17156 0.32403300  12.010000   ; qtot 0.990966
17157         h1    647    ccc     H3  17157 0.13386900   1.008000   ; qtot 1.124835
17158         h1    647    ccc     H4  17158 0.10146700   1.008000   ; qtot 1.226302
17159         h2    647    ccc     H5  17159 0.10960400   1.008000   ; qtot 1.335906
17160         os    647    ccc     O1  17160 -0.28650000  16.000000   ; qtot 1.049406
17161         oh    647    ccc     O2  17161 -0.86012500  16.000000   ; qtot 0.189281
17162         oh    647    ccc     O3  17162 -0.83772800  16.000000   ; qtot -0.648447
17163         oh    647    ccc     O4  17163 -0.77449700  16.000000   ; qtot -1.422944
17164         c3    647    ccc     C6  17164 0.37576500  12.010000   ; qtot -1.047179
17165         ho    647    ccc     H6  17165 0.53656000   1.008000   ; qtot -0.510619
17166         ho    647    ccc     H7  17166 0.49492100   1.008000   ; qtot -0.015698
17167         ho    647    ccc     H8  17167 0.51297200   1.008000   ; qtot 0.497274
17168         h1    647    ccc     H9  17168 0.05653400   1.008000   ; qtot 0.553808
17169         h1    647    ccc    H10  17169 0.05653400   1.008000   ; qtot 0.610342
17170         oh    647    ccc     O5  17170 -0.84113600  16.000000   ; qtot -0.230794
17171         ho    647    ccc    H11  17171 0.51201600   1.008000   ; qtot 0.281222
17172         os    647    ccc     O6  17172 -0.26013600  16.000000   ; qtot 0.021086
; residue  648 ccc rtp ccc q 0.0
17173         c3    648    ccc     C1  17173 -0.33178800  12.010000   ; qtot -0.310702
17174         c3    648    ccc     C2  17174 0.30606500  12.010000   ; qtot -0.004637
17175         h1    648    ccc     H1  17175 0.11662300   1.008000   ; qtot 0.111986
17176         h1    648    ccc     H2  17176 0.11526800   1.008000   ; qtot 0.227254
17177         c3    648    ccc     C3  17177 0.15592700  12.010000   ; qtot 0.383181
17178         c3    648    ccc     C4  17178 0.28383300  12.010000   ; qtot 0.667014
17179         c3    648    ccc     C5  17179 0.32403300  12.010000   ; qtot 0.991047
17180         h1    648    ccc     H3  17180 0.13386900   1.008000   ; qtot 1.124916
17181         h1    648    ccc     H4  17181 0.10146700   1.008000   ; qtot 1.226383
17182         h2    648    ccc     H5  17182 0.10960400   1.008000   ; qtot 1.335987
17183         os    648    ccc     O1  17183 -0.28650000  16.000000   ; qtot 1.049487
17184         oh    648    ccc     O2  17184 -0.86012500  16.000000   ; qtot 0.189362
17185         oh    648    ccc     O3  17185 -0.83772800  16.000000   ; qtot -0.648366
17186         oh    648    ccc     O4  17186 -0.77449700  16.000000   ; qtot -1.422863
17187         c3    648    ccc     C6  17187 0.37576500  12.010000   ; qtot -1.047098
17188         ho    648    ccc     H6  17188 0.53656000   1.008000   ; qtot -0.510538
17189         ho    648    ccc     H7  17189 0.49492100   1.008000   ; qtot -0.015617
17190         ho    648    ccc     H8  17190 0.51297200   1.008000   ; qtot 0.497355
17191         h1    648    ccc     H9  17191 0.05653400   1.008000   ; qtot 0.553889
17192         h1    648    ccc    H10  17192 0.05653400   1.008000   ; qtot 0.610423
17193         oh    648    ccc     O5  17193 -0.84113600  16.000000   ; qtot -0.230713
17194         ho    648    ccc    H11  17194 0.51201600   1.008000   ; qtot 0.281303
17195         os    648    ccc     O6  17195 -0.26013600  16.000000   ; qtot 0.021167
; residue  649 ccc rtp ccc q 0.0
17196         c3    649    ccc     C1  17196 -0.33178800  12.010000   ; qtot -0.310621
17197         c3    649    ccc     C2  17197 0.30606500  12.010000   ; qtot -0.004556
17198         h1    649    ccc     H1  17198 0.11662300   1.008000   ; qtot 0.112067
17199         h1    649    ccc     H2  17199 0.11526800   1.008000   ; qtot 0.227335
17200         c3    649    ccc     C3  17200 0.15592700  12.010000   ; qtot 0.383262
17201         c3    649    ccc     C4  17201 0.28383300  12.010000   ; qtot 0.667095
17202         c3    649    ccc     C5  17202 0.32403300  12.010000   ; qtot 0.991128
17203         h1    649    ccc     H3  17203 0.13386900   1.008000   ; qtot 1.124997
17204         h1    649    ccc     H4  17204 0.10146700   1.008000   ; qtot 1.226464
17205         h2    649    ccc     H5  17205 0.10960400   1.008000   ; qtot 1.336068
17206         os    649    ccc     O1  17206 -0.28650000  16.000000   ; qtot 1.049568
17207         oh    649    ccc     O2  17207 -0.86012500  16.000000   ; qtot 0.189443
17208         oh    649    ccc     O3  17208 -0.83772800  16.000000   ; qtot -0.648285
17209         oh    649    ccc     O4  17209 -0.77449700  16.000000   ; qtot -1.422782
17210         c3    649    ccc     C6  17210 0.37576500  12.010000   ; qtot -1.047017
17211         ho    649    ccc     H6  17211 0.53656000   1.008000   ; qtot -0.510457
17212         ho    649    ccc     H7  17212 0.49492100   1.008000   ; qtot -0.015536
17213         ho    649    ccc     H8  17213 0.51297200   1.008000   ; qtot 0.497436
17214         h1    649    ccc     H9  17214 0.05653400   1.008000   ; qtot 0.553970
17215         h1    649    ccc    H10  17215 0.05653400   1.008000   ; qtot 0.610504
17216         oh    649    ccc     O5  17216 -0.84113600  16.000000   ; qtot -0.230632
17217         ho    649    ccc    H11  17217 0.51201600   1.008000   ; qtot 0.281384
17218         os    649    ccc     O6  17218 -0.26013600  16.000000   ; qtot 0.021248
; residue  650 ccc rtp ccc q 0.0
17219         c3    650    ccc     C1  17219 -0.33178800  12.010000   ; qtot -0.310540
17220         c3    650    ccc     C2  17220 0.30606500  12.010000   ; qtot -0.004475
17221         h1    650    ccc     H1  17221 0.11662300   1.008000   ; qtot 0.112148
17222         h1    650    ccc     H2  17222 0.11526800   1.008000   ; qtot 0.227416
17223         c3    650    ccc     C3  17223 0.15592700  12.010000   ; qtot 0.383343
17224         c3    650    ccc     C4  17224 0.28383300  12.010000   ; qtot 0.667176
17225         c3    650    ccc     C5  17225 0.32403300  12.010000   ; qtot 0.991209
17226         h1    650    ccc     H3  17226 0.13386900   1.008000   ; qtot 1.125078
17227         h1    650    ccc     H4  17227 0.10146700   1.008000   ; qtot 1.226545
17228         h2    650    ccc     H5  17228 0.10960400   1.008000   ; qtot 1.336149
17229         os    650    ccc     O1  17229 -0.28650000  16.000000   ; qtot 1.049649
17230         oh    650    ccc     O2  17230 -0.86012500  16.000000   ; qtot 0.189524
17231         oh    650    ccc     O3  17231 -0.83772800  16.000000   ; qtot -0.648204
17232         oh    650    ccc     O4  17232 -0.77449700  16.000000   ; qtot -1.422701
17233         c3    650    ccc     C6  17233 0.37576500  12.010000   ; qtot -1.046936
17234         ho    650    ccc     H6  17234 0.53656000   1.008000   ; qtot -0.510376
17235         ho    650    ccc     H7  17235 0.49492100   1.008000   ; qtot -0.015455
17236         ho    650    ccc     H8  17236 0.51297200   1.008000   ; qtot 0.497517
17237         h1    650    ccc     H9  17237 0.05653400   1.008000   ; qtot 0.554051
17238         h1    650    ccc    H10  17238 0.05653400   1.008000   ; qtot 0.610585
17239         oh    650    ccc     O5  17239 -0.84113600  16.000000   ; qtot -0.230551
17240         ho    650    ccc    H11  17240 0.51201600   1.008000   ; qtot 0.281465
17241         os    650    ccc     O6  17241 -0.26013600  16.000000   ; qtot 0.021329
; residue  651 ccc rtp ccc q 0.0
17242         c3    651    ccc     C1  17242 -0.33178800  12.010000   ; qtot -0.310459
17243         c3    651    ccc     C2  17243 0.30606500  12.010000   ; qtot -0.004394
17244         h1    651    ccc     H1  17244 0.11662300   1.008000   ; qtot 0.112229
17245         h1    651    ccc     H2  17245 0.11526800   1.008000   ; qtot 0.227497
17246         c3    651    ccc     C3  17246 0.15592700  12.010000   ; qtot 0.383424
17247         c3    651    ccc     C4  17247 0.28383300  12.010000   ; qtot 0.667257
17248         c3    651    ccc     C5  17248 0.32403300  12.010000   ; qtot 0.991290
17249         h1    651    ccc     H3  17249 0.13386900   1.008000   ; qtot 1.125159
17250         h1    651    ccc     H4  17250 0.10146700   1.008000   ; qtot 1.226626
17251         h2    651    ccc     H5  17251 0.10960400   1.008000   ; qtot 1.336230
17252         os    651    ccc     O1  17252 -0.28650000  16.000000   ; qtot 1.049730
17253         oh    651    ccc     O2  17253 -0.86012500  16.000000   ; qtot 0.189605
17254         oh    651    ccc     O3  17254 -0.83772800  16.000000   ; qtot -0.648123
17255         oh    651    ccc     O4  17255 -0.77449700  16.000000   ; qtot -1.422620
17256         c3    651    ccc     C6  17256 0.37576500  12.010000   ; qtot -1.046855
17257         ho    651    ccc     H6  17257 0.53656000   1.008000   ; qtot -0.510295
17258         ho    651    ccc     H7  17258 0.49492100   1.008000   ; qtot -0.015374
17259         ho    651    ccc     H8  17259 0.51297200   1.008000   ; qtot 0.497598
17260         h1    651    ccc     H9  17260 0.05653400   1.008000   ; qtot 0.554132
17261         h1    651    ccc    H10  17261 0.05653400   1.008000   ; qtot 0.610666
17262         oh    651    ccc     O5  17262 -0.84113600  16.000000   ; qtot -0.230470
17263         ho    651    ccc    H11  17263 0.51201600   1.008000   ; qtot 0.281546
17264         os    651    ccc     O6  17264 -0.26013600  16.000000   ; qtot 0.021410
; residue  652 ccc rtp ccc q 0.0
17265         c3    652    ccc     C1  17265 -0.33178800  12.010000   ; qtot -0.310378
17266         c3    652    ccc     C2  17266 0.30606500  12.010000   ; qtot -0.004313
17267         h1    652    ccc     H1  17267 0.11662300   1.008000   ; qtot 0.112310
17268         h1    652    ccc     H2  17268 0.11526800   1.008000   ; qtot 0.227578
17269         c3    652    ccc     C3  17269 0.15592700  12.010000   ; qtot 0.383505
17270         c3    652    ccc     C4  17270 0.28383300  12.010000   ; qtot 0.667338
17271         c3    652    ccc     C5  17271 0.32403300  12.010000   ; qtot 0.991371
17272         h1    652    ccc     H3  17272 0.13386900   1.008000   ; qtot 1.125240
17273         h1    652    ccc     H4  17273 0.10146700   1.008000   ; qtot 1.226707
17274         h2    652    ccc     H5  17274 0.10960400   1.008000   ; qtot 1.336311
17275         os    652    ccc     O1  17275 -0.28650000  16.000000   ; qtot 1.049811
17276         oh    652    ccc     O2  17276 -0.86012500  16.000000   ; qtot 0.189686
17277         oh    652    ccc     O3  17277 -0.83772800  16.000000   ; qtot -0.648042
17278         oh    652    ccc     O4  17278 -0.77449700  16.000000   ; qtot -1.422539
17279         c3    652    ccc     C6  17279 0.37576500  12.010000   ; qtot -1.046774
17280         ho    652    ccc     H6  17280 0.53656000   1.008000   ; qtot -0.510214
17281         ho    652    ccc     H7  17281 0.49492100   1.008000   ; qtot -0.015293
17282         ho    652    ccc     H8  17282 0.51297200   1.008000   ; qtot 0.497679
17283         h1    652    ccc     H9  17283 0.05653400   1.008000   ; qtot 0.554213
17284         h1    652    ccc    H10  17284 0.05653400   1.008000   ; qtot 0.610747
17285         oh    652    ccc     O5  17285 -0.84113600  16.000000   ; qtot -0.230388
17286         ho    652    ccc    H11  17286 0.51201600   1.008000   ; qtot 0.281628
17287         os    652    ccc     O6  17287 -0.26013600  16.000000   ; qtot 0.021492
; residue  653 ccc rtp ccc q 0.0
17288         c3    653    ccc     C1  17288 -0.33178800  12.010000   ; qtot -0.310296
17289         c3    653    ccc     C2  17289 0.30606500  12.010000   ; qtot -0.004231
17290         h1    653    ccc     H1  17290 0.11662300   1.008000   ; qtot 0.112392
17291         h1    653    ccc     H2  17291 0.11526800   1.008000   ; qtot 0.227660
17292         c3    653    ccc     C3  17292 0.15592700  12.010000   ; qtot 0.383587
17293         c3    653    ccc     C4  17293 0.28383300  12.010000   ; qtot 0.667420
17294         c3    653    ccc     C5  17294 0.32403300  12.010000   ; qtot 0.991453
17295         h1    653    ccc     H3  17295 0.13386900   1.008000   ; qtot 1.125322
17296         h1    653    ccc     H4  17296 0.10146700   1.008000   ; qtot 1.226789
17297         h2    653    ccc     H5  17297 0.10960400   1.008000   ; qtot 1.336393
17298         os    653    ccc     O1  17298 -0.28650000  16.000000   ; qtot 1.049893
17299         oh    653    ccc     O2  17299 -0.86012500  16.000000   ; qtot 0.189768
17300         oh    653    ccc     O3  17300 -0.83772800  16.000000   ; qtot -0.647960
17301         oh    653    ccc     O4  17301 -0.77449700  16.000000   ; qtot -1.422457
17302         c3    653    ccc     C6  17302 0.37576500  12.010000   ; qtot -1.046692
17303         ho    653    ccc     H6  17303 0.53656000   1.008000   ; qtot -0.510132
17304         ho    653    ccc     H7  17304 0.49492100   1.008000   ; qtot -0.015211
17305         ho    653    ccc     H8  17305 0.51297200   1.008000   ; qtot 0.497761
17306         h1    653    ccc     H9  17306 0.05653400   1.008000   ; qtot 0.554295
17307         h1    653    ccc    H10  17307 0.05653400   1.008000   ; qtot 0.610829
17308         oh    653    ccc     O5  17308 -0.84113600  16.000000   ; qtot -0.230307
17309         ho    653    ccc    H11  17309 0.51201600   1.008000   ; qtot 0.281709
17310         os    653    ccc     O6  17310 -0.26013600  16.000000   ; qtot 0.021573
; residue  654 ccc rtp ccc q 0.0
17311         c3    654    ccc     C1  17311 -0.33178800  12.010000   ; qtot -0.310215
17312         c3    654    ccc     C2  17312 0.30606500  12.010000   ; qtot -0.004150
17313         h1    654    ccc     H1  17313 0.11662300   1.008000   ; qtot 0.112473
17314         h1    654    ccc     H2  17314 0.11526800   1.008000   ; qtot 0.227741
17315         c3    654    ccc     C3  17315 0.15592700  12.010000   ; qtot 0.383668
17316         c3    654    ccc     C4  17316 0.28383300  12.010000   ; qtot 0.667501
17317         c3    654    ccc     C5  17317 0.32403300  12.010000   ; qtot 0.991534
17318         h1    654    ccc     H3  17318 0.13386900   1.008000   ; qtot 1.125403
17319         h1    654    ccc     H4  17319 0.10146700   1.008000   ; qtot 1.226870
17320         h2    654    ccc     H5  17320 0.10960400   1.008000   ; qtot 1.336474
17321         os    654    ccc     O1  17321 -0.28650000  16.000000   ; qtot 1.049974
17322         oh    654    ccc     O2  17322 -0.86012500  16.000000   ; qtot 0.189849
17323         oh    654    ccc     O3  17323 -0.83772800  16.000000   ; qtot -0.647879
17324         oh    654    ccc     O4  17324 -0.77449700  16.000000   ; qtot -1.422376
17325         c3    654    ccc     C6  17325 0.37576500  12.010000   ; qtot -1.046611
17326         ho    654    ccc     H6  17326 0.53656000   1.008000   ; qtot -0.510051
17327         ho    654    ccc     H7  17327 0.49492100   1.008000   ; qtot -0.015130
17328         ho    654    ccc     H8  17328 0.51297200   1.008000   ; qtot 0.497842
17329         h1    654    ccc     H9  17329 0.05653400   1.008000   ; qtot 0.554376
17330         h1    654    ccc    H10  17330 0.05653400   1.008000   ; qtot 0.610910
17331         oh    654    ccc     O5  17331 -0.84113600  16.000000   ; qtot -0.230226
17332         ho    654    ccc    H11  17332 0.51201600   1.008000   ; qtot 0.281790
17333         os    654    ccc     O6  17333 -0.26013600  16.000000   ; qtot 0.021654
; residue  655 ccc rtp ccc q 0.0
17334         c3    655    ccc     C1  17334 -0.33178800  12.010000   ; qtot -0.310134
17335         c3    655    ccc     C2  17335 0.30606500  12.010000   ; qtot -0.004069
17336         h1    655    ccc     H1  17336 0.11662300   1.008000   ; qtot 0.112554
17337         h1    655    ccc     H2  17337 0.11526800   1.008000   ; qtot 0.227822
17338         c3    655    ccc     C3  17338 0.15592700  12.010000   ; qtot 0.383749
17339         c3    655    ccc     C4  17339 0.28383300  12.010000   ; qtot 0.667582
17340         c3    655    ccc     C5  17340 0.32403300  12.010000   ; qtot 0.991615
17341         h1    655    ccc     H3  17341 0.13386900   1.008000   ; qtot 1.125484
17342         h1    655    ccc     H4  17342 0.10146700   1.008000   ; qtot 1.226951
17343         h2    655    ccc     H5  17343 0.10960400   1.008000   ; qtot 1.336555
17344         os    655    ccc     O1  17344 -0.28650000  16.000000   ; qtot 1.050055
17345         oh    655    ccc     O2  17345 -0.86012500  16.000000   ; qtot 0.189930
17346         oh    655    ccc     O3  17346 -0.83772800  16.000000   ; qtot -0.647798
17347         oh    655    ccc     O4  17347 -0.77449700  16.000000   ; qtot -1.422295
17348         c3    655    ccc     C6  17348 0.37576500  12.010000   ; qtot -1.046530
17349         ho    655    ccc     H6  17349 0.53656000   1.008000   ; qtot -0.509970
17350         ho    655    ccc     H7  17350 0.49492100   1.008000   ; qtot -0.015049
17351         ho    655    ccc     H8  17351 0.51297200   1.008000   ; qtot 0.497923
17352         h1    655    ccc     H9  17352 0.05653400   1.008000   ; qtot 0.554457
17353         h1    655    ccc    H10  17353 0.05653400   1.008000   ; qtot 0.610991
17354         oh    655    ccc     O5  17354 -0.84113600  16.000000   ; qtot -0.230145
17355         ho    655    ccc    H11  17355 0.51201600   1.008000   ; qtot 0.281871
17356         os    655    ccc     O6  17356 -0.26013600  16.000000   ; qtot 0.021735
; residue  656 ccc rtp ccc q 0.0
17357         c3    656    ccc     C1  17357 -0.33178800  12.010000   ; qtot -0.310053
17358         c3    656    ccc     C2  17358 0.30606500  12.010000   ; qtot -0.003988
17359         h1    656    ccc     H1  17359 0.11662300   1.008000   ; qtot 0.112635
17360         h1    656    ccc     H2  17360 0.11526800   1.008000   ; qtot 0.227903
17361         c3    656    ccc     C3  17361 0.15592700  12.010000   ; qtot 0.383830
17362         c3    656    ccc     C4  17362 0.28383300  12.010000   ; qtot 0.667663
17363         c3    656    ccc     C5  17363 0.32403300  12.010000   ; qtot 0.991696
17364         h1    656    ccc     H3  17364 0.13386900   1.008000   ; qtot 1.125565
17365         h1    656    ccc     H4  17365 0.10146700   1.008000   ; qtot 1.227032
17366         h2    656    ccc     H5  17366 0.10960400   1.008000   ; qtot 1.336636
17367         os    656    ccc     O1  17367 -0.28650000  16.000000   ; qtot 1.050136
17368         oh    656    ccc     O2  17368 -0.86012500  16.000000   ; qtot 0.190011
17369         oh    656    ccc     O3  17369 -0.83772800  16.000000   ; qtot -0.647717
17370         oh    656    ccc     O4  17370 -0.77449700  16.000000   ; qtot -1.422214
17371         c3    656    ccc     C6  17371 0.37576500  12.010000   ; qtot -1.046449
17372         ho    656    ccc     H6  17372 0.53656000   1.008000   ; qtot -0.509889
17373         ho    656    ccc     H7  17373 0.49492100   1.008000   ; qtot -0.014968
17374         ho    656    ccc     H8  17374 0.51297200   1.008000   ; qtot 0.498004
17375         h1    656    ccc     H9  17375 0.05653400   1.008000   ; qtot 0.554538
17376         h1    656    ccc    H10  17376 0.05653400   1.008000   ; qtot 0.611072
17377         oh    656    ccc     O5  17377 -0.84113600  16.000000   ; qtot -0.230064
17378         ho    656    ccc    H11  17378 0.51201600   1.008000   ; qtot 0.281952
17379         os    656    ccc     O6  17379 -0.26013600  16.000000   ; qtot 0.021816
; residue  657 ccc rtp ccc q 0.0
17380         c3    657    ccc     C1  17380 -0.33178800  12.010000   ; qtot -0.309972
17381         c3    657    ccc     C2  17381 0.30606500  12.010000   ; qtot -0.003907
17382         h1    657    ccc     H1  17382 0.11662300   1.008000   ; qtot 0.112716
17383         h1    657    ccc     H2  17383 0.11526800   1.008000   ; qtot 0.227984
17384         c3    657    ccc     C3  17384 0.15592700  12.010000   ; qtot 0.383911
17385         c3    657    ccc     C4  17385 0.28383300  12.010000   ; qtot 0.667744
17386         c3    657    ccc     C5  17386 0.32403300  12.010000   ; qtot 0.991777
17387         h1    657    ccc     H3  17387 0.13386900   1.008000   ; qtot 1.125646
17388         h1    657    ccc     H4  17388 0.10146700   1.008000   ; qtot 1.227113
17389         h2    657    ccc     H5  17389 0.10960400   1.008000   ; qtot 1.336717
17390         os    657    ccc     O1  17390 -0.28650000  16.000000   ; qtot 1.050217
17391         oh    657    ccc     O2  17391 -0.86012500  16.000000   ; qtot 0.190092
17392         oh    657    ccc     O3  17392 -0.83772800  16.000000   ; qtot -0.647636
17393         oh    657    ccc     O4  17393 -0.77449700  16.000000   ; qtot -1.422133
17394         c3    657    ccc     C6  17394 0.37576500  12.010000   ; qtot -1.046368
17395         ho    657    ccc     H6  17395 0.53656000   1.008000   ; qtot -0.509808
17396         ho    657    ccc     H7  17396 0.49492100   1.008000   ; qtot -0.014887
17397         ho    657    ccc     H8  17397 0.51297200   1.008000   ; qtot 0.498085
17398         h1    657    ccc     H9  17398 0.05653400   1.008000   ; qtot 0.554619
17399         h1    657    ccc    H10  17399 0.05653400   1.008000   ; qtot 0.611153
17400         oh    657    ccc     O5  17400 -0.84113600  16.000000   ; qtot -0.229983
17401         ho    657    ccc    H11  17401 0.51201600   1.008000   ; qtot 0.282033
17402         os    657    ccc     O6  17402 -0.26013600  16.000000   ; qtot 0.021897
; residue  658 ccc rtp ccc q 0.0
17403         c3    658    ccc     C1  17403 -0.33178800  12.010000   ; qtot -0.309891
17404         c3    658    ccc     C2  17404 0.30606500  12.010000   ; qtot -0.003826
17405         h1    658    ccc     H1  17405 0.11662300   1.008000   ; qtot 0.112797
17406         h1    658    ccc     H2  17406 0.11526800   1.008000   ; qtot 0.228065
17407         c3    658    ccc     C3  17407 0.15592700  12.010000   ; qtot 0.383992
17408         c3    658    ccc     C4  17408 0.28383300  12.010000   ; qtot 0.667825
17409         c3    658    ccc     C5  17409 0.32403300  12.010000   ; qtot 0.991858
17410         h1    658    ccc     H3  17410 0.13386900   1.008000   ; qtot 1.125727
17411         h1    658    ccc     H4  17411 0.10146700   1.008000   ; qtot 1.227194
17412         h2    658    ccc     H5  17412 0.10960400   1.008000   ; qtot 1.336798
17413         os    658    ccc     O1  17413 -0.28650000  16.000000   ; qtot 1.050298
17414         oh    658    ccc     O2  17414 -0.86012500  16.000000   ; qtot 0.190173
17415         oh    658    ccc     O3  17415 -0.83772800  16.000000   ; qtot -0.647555
17416         oh    658    ccc     O4  17416 -0.77449700  16.000000   ; qtot -1.422052
17417         c3    658    ccc     C6  17417 0.37576500  12.010000   ; qtot -1.046287
17418         ho    658    ccc     H6  17418 0.53656000   1.008000   ; qtot -0.509727
17419         ho    658    ccc     H7  17419 0.49492100   1.008000   ; qtot -0.014806
17420         ho    658    ccc     H8  17420 0.51297200   1.008000   ; qtot 0.498166
17421         h1    658    ccc     H9  17421 0.05653400   1.008000   ; qtot 0.554700
17422         h1    658    ccc    H10  17422 0.05653400   1.008000   ; qtot 0.611234
17423         oh    658    ccc     O5  17423 -0.84113600  16.000000   ; qtot -0.229902
17424         ho    658    ccc    H11  17424 0.51201600   1.008000   ; qtot 0.282114
17425         os    658    ccc     O6  17425 -0.26013600  16.000000   ; qtot 0.021978
; residue  659 ccc rtp ccc q 0.0
17426         c3    659    ccc     C1  17426 -0.33178800  12.010000   ; qtot -0.309810
17427         c3    659    ccc     C2  17427 0.30606500  12.010000   ; qtot -0.003745
17428         h1    659    ccc     H1  17428 0.11662300   1.008000   ; qtot 0.112878
17429         h1    659    ccc     H2  17429 0.11526800   1.008000   ; qtot 0.228146
17430         c3    659    ccc     C3  17430 0.15592700  12.010000   ; qtot 0.384073
17431         c3    659    ccc     C4  17431 0.28383300  12.010000   ; qtot 0.667906
17432         c3    659    ccc     C5  17432 0.32403300  12.010000   ; qtot 0.991939
17433         h1    659    ccc     H3  17433 0.13386900   1.008000   ; qtot 1.125808
17434         h1    659    ccc     H4  17434 0.10146700   1.008000   ; qtot 1.227275
17435         h2    659    ccc     H5  17435 0.10960400   1.008000   ; qtot 1.336879
17436         os    659    ccc     O1  17436 -0.28650000  16.000000   ; qtot 1.050379
17437         oh    659    ccc     O2  17437 -0.86012500  16.000000   ; qtot 0.190254
17438         oh    659    ccc     O3  17438 -0.83772800  16.000000   ; qtot -0.647474
17439         oh    659    ccc     O4  17439 -0.77449700  16.000000   ; qtot -1.421971
17440         c3    659    ccc     C6  17440 0.37576500  12.010000   ; qtot -1.046206
17441         ho    659    ccc     H6  17441 0.53656000   1.008000   ; qtot -0.509646
17442         ho    659    ccc     H7  17442 0.49492100   1.008000   ; qtot -0.014725
17443         ho    659    ccc     H8  17443 0.51297200   1.008000   ; qtot 0.498247
17444         h1    659    ccc     H9  17444 0.05653400   1.008000   ; qtot 0.554781
17445         h1    659    ccc    H10  17445 0.05653400   1.008000   ; qtot 0.611315
17446         oh    659    ccc     O5  17446 -0.84113600  16.000000   ; qtot -0.229821
17447         ho    659    ccc    H11  17447 0.51201600   1.008000   ; qtot 0.282195
17448         os    659    ccc     O6  17448 -0.26013600  16.000000   ; qtot 0.022059
; residue  660 ccc rtp ccc q 0.0
17449         c3    660    ccc     C1  17449 -0.33178800  12.010000   ; qtot -0.309729
17450         c3    660    ccc     C2  17450 0.30606500  12.010000   ; qtot -0.003664
17451         h1    660    ccc     H1  17451 0.11662300   1.008000   ; qtot 0.112959
17452         h1    660    ccc     H2  17452 0.11526800   1.008000   ; qtot 0.228227
17453         c3    660    ccc     C3  17453 0.15592700  12.010000   ; qtot 0.384154
17454         c3    660    ccc     C4  17454 0.28383300  12.010000   ; qtot 0.667987
17455         c3    660    ccc     C5  17455 0.32403300  12.010000   ; qtot 0.992020
17456         h1    660    ccc     H3  17456 0.13386900   1.008000   ; qtot 1.125889
17457         h1    660    ccc     H4  17457 0.10146700   1.008000   ; qtot 1.227356
17458         h2    660    ccc     H5  17458 0.10960400   1.008000   ; qtot 1.336960
17459         os    660    ccc     O1  17459 -0.28650000  16.000000   ; qtot 1.050460
17460         oh    660    ccc     O2  17460 -0.86012500  16.000000   ; qtot 0.190335
17461         oh    660    ccc     O3  17461 -0.83772800  16.000000   ; qtot -0.647393
17462         oh    660    ccc     O4  17462 -0.77449700  16.000000   ; qtot -1.421890
17463         c3    660    ccc     C6  17463 0.37576500  12.010000   ; qtot -1.046125
17464         ho    660    ccc     H6  17464 0.53656000   1.008000   ; qtot -0.509565
17465         ho    660    ccc     H7  17465 0.49492100   1.008000   ; qtot -0.014644
17466         ho    660    ccc     H8  17466 0.51297200   1.008000   ; qtot 0.498328
17467         h1    660    ccc     H9  17467 0.05653400   1.008000   ; qtot 0.554862
17468         h1    660    ccc    H10  17468 0.05653400   1.008000   ; qtot 0.611396
17469         oh    660    ccc     O5  17469 -0.84113600  16.000000   ; qtot -0.229740
17470         ho    660    ccc    H11  17470 0.51201600   1.008000   ; qtot 0.282276
17471         os    660    ccc     O6  17471 -0.26013600  16.000000   ; qtot 0.022140
; residue  661 ccc rtp ccc q 0.0
17472         c3    661    ccc     C1  17472 -0.33178800  12.010000   ; qtot -0.309648
17473         c3    661    ccc     C2  17473 0.30606500  12.010000   ; qtot -0.003583
17474         h1    661    ccc     H1  17474 0.11662300   1.008000   ; qtot 0.113040
17475         h1    661    ccc     H2  17475 0.11526800   1.008000   ; qtot 0.228308
17476         c3    661    ccc     C3  17476 0.15592700  12.010000   ; qtot 0.384235
17477         c3    661    ccc     C4  17477 0.28383300  12.010000   ; qtot 0.668068
17478         c3    661    ccc     C5  17478 0.32403300  12.010000   ; qtot 0.992101
17479         h1    661    ccc     H3  17479 0.13386900   1.008000   ; qtot 1.125970
17480         h1    661    ccc     H4  17480 0.10146700   1.008000   ; qtot 1.227437
17481         h2    661    ccc     H5  17481 0.10960400   1.008000   ; qtot 1.337041
17482         os    661    ccc     O1  17482 -0.28650000  16.000000   ; qtot 1.050541
17483         oh    661    ccc     O2  17483 -0.86012500  16.000000   ; qtot 0.190416
17484         oh    661    ccc     O3  17484 -0.83772800  16.000000   ; qtot -0.647312
17485         oh    661    ccc     O4  17485 -0.77449700  16.000000   ; qtot -1.421809
17486         c3    661    ccc     C6  17486 0.37576500  12.010000   ; qtot -1.046044
17487         ho    661    ccc     H6  17487 0.53656000   1.008000   ; qtot -0.509484
17488         ho    661    ccc     H7  17488 0.49492100   1.008000   ; qtot -0.014563
17489         ho    661    ccc     H8  17489 0.51297200   1.008000   ; qtot 0.498409
17490         h1    661    ccc     H9  17490 0.05653400   1.008000   ; qtot 0.554943
17491         h1    661    ccc    H10  17491 0.05653400   1.008000   ; qtot 0.611477
17492         oh    661    ccc     O5  17492 -0.84113600  16.000000   ; qtot -0.229659
17493         ho    661    ccc    H11  17493 0.51201600   1.008000   ; qtot 0.282357
17494         os    661    ccc     O6  17494 -0.26013600  16.000000   ; qtot 0.022221
; residue  662 ccc rtp ccc q 0.0
17495         c3    662    ccc     C1  17495 -0.33178800  12.010000   ; qtot -0.309567
17496         c3    662    ccc     C2  17496 0.30606500  12.010000   ; qtot -0.003502
17497         h1    662    ccc     H1  17497 0.11662300   1.008000   ; qtot 0.113121
17498         h1    662    ccc     H2  17498 0.11526800   1.008000   ; qtot 0.228389
17499         c3    662    ccc     C3  17499 0.15592700  12.010000   ; qtot 0.384316
17500         c3    662    ccc     C4  17500 0.28383300  12.010000   ; qtot 0.668149
17501         c3    662    ccc     C5  17501 0.32403300  12.010000   ; qtot 0.992182
17502         h1    662    ccc     H3  17502 0.13386900   1.008000   ; qtot 1.126051
17503         h1    662    ccc     H4  17503 0.10146700   1.008000   ; qtot 1.227518
17504         h2    662    ccc     H5  17504 0.10960400   1.008000   ; qtot 1.337122
17505         os    662    ccc     O1  17505 -0.28650000  16.000000   ; qtot 1.050622
17506         oh    662    ccc     O2  17506 -0.86012500  16.000000   ; qtot 0.190497
17507         oh    662    ccc     O3  17507 -0.83772800  16.000000   ; qtot -0.647231
17508         oh    662    ccc     O4  17508 -0.77449700  16.000000   ; qtot -1.421728
17509         c3    662    ccc     C6  17509 0.37576500  12.010000   ; qtot -1.045963
17510         ho    662    ccc     H6  17510 0.53656000   1.008000   ; qtot -0.509403
17511         ho    662    ccc     H7  17511 0.49492100   1.008000   ; qtot -0.014482
17512         ho    662    ccc     H8  17512 0.51297200   1.008000   ; qtot 0.498490
17513         h1    662    ccc     H9  17513 0.05653400   1.008000   ; qtot 0.555024
17514         h1    662    ccc    H10  17514 0.05653400   1.008000   ; qtot 0.611558
17515         oh    662    ccc     O5  17515 -0.84113600  16.000000   ; qtot -0.229578
17516         ho    662    ccc    H11  17516 0.51201600   1.008000   ; qtot 0.282438
17517         os    662    ccc     O6  17517 -0.26013600  16.000000   ; qtot 0.022302
; residue  663 ccc rtp ccc q 0.0
17518         c3    663    ccc     C1  17518 -0.33178800  12.010000   ; qtot -0.309486
17519         c3    663    ccc     C2  17519 0.30606500  12.010000   ; qtot -0.003421
17520         h1    663    ccc     H1  17520 0.11662300   1.008000   ; qtot 0.113202
17521         h1    663    ccc     H2  17521 0.11526800   1.008000   ; qtot 0.228470
17522         c3    663    ccc     C3  17522 0.15592700  12.010000   ; qtot 0.384397
17523         c3    663    ccc     C4  17523 0.28383300  12.010000   ; qtot 0.668230
17524         c3    663    ccc     C5  17524 0.32403300  12.010000   ; qtot 0.992263
17525         h1    663    ccc     H3  17525 0.13386900   1.008000   ; qtot 1.126132
17526         h1    663    ccc     H4  17526 0.10146700   1.008000   ; qtot 1.227599
17527         h2    663    ccc     H5  17527 0.10960400   1.008000   ; qtot 1.337203
17528         os    663    ccc     O1  17528 -0.28650000  16.000000   ; qtot 1.050703
17529         oh    663    ccc     O2  17529 -0.86012500  16.000000   ; qtot 0.190578
17530         oh    663    ccc     O3  17530 -0.83772800  16.000000   ; qtot -0.647150
17531         oh    663    ccc     O4  17531 -0.77449700  16.000000   ; qtot -1.421647
17532         c3    663    ccc     C6  17532 0.37576500  12.010000   ; qtot -1.045882
17533         ho    663    ccc     H6  17533 0.53656000   1.008000   ; qtot -0.509322
17534         ho    663    ccc     H7  17534 0.49492100   1.008000   ; qtot -0.014401
17535         ho    663    ccc     H8  17535 0.51297200   1.008000   ; qtot 0.498571
17536         h1    663    ccc     H9  17536 0.05653400   1.008000   ; qtot 0.555105
17537         h1    663    ccc    H10  17537 0.05653400   1.008000   ; qtot 0.611639
17538         oh    663    ccc     O5  17538 -0.84113600  16.000000   ; qtot -0.229497
17539         ho    663    ccc    H11  17539 0.51201600   1.008000   ; qtot 0.282519
17540         os    663    ccc     O6  17540 -0.26013600  16.000000   ; qtot 0.022383
; residue  664 ccc rtp ccc q 0.0
17541         c3    664    ccc     C1  17541 -0.33178800  12.010000   ; qtot -0.309405
17542         c3    664    ccc     C2  17542 0.30606500  12.010000   ; qtot -0.003340
17543         h1    664    ccc     H1  17543 0.11662300   1.008000   ; qtot 0.113283
17544         h1    664    ccc     H2  17544 0.11526800   1.008000   ; qtot 0.228551
17545         c3    664    ccc     C3  17545 0.15592700  12.010000   ; qtot 0.384478
17546         c3    664    ccc     C4  17546 0.28383300  12.010000   ; qtot 0.668311
17547         c3    664    ccc     C5  17547 0.32403300  12.010000   ; qtot 0.992344
17548         h1    664    ccc     H3  17548 0.13386900   1.008000   ; qtot 1.126213
17549         h1    664    ccc     H4  17549 0.10146700   1.008000   ; qtot 1.227680
17550         h2    664    ccc     H5  17550 0.10960400   1.008000   ; qtot 1.337284
17551         os    664    ccc     O1  17551 -0.28650000  16.000000   ; qtot 1.050784
17552         oh    664    ccc     O2  17552 -0.86012500  16.000000   ; qtot 0.190659
17553         oh    664    ccc     O3  17553 -0.83772800  16.000000   ; qtot -0.647069
17554         oh    664    ccc     O4  17554 -0.77449700  16.000000   ; qtot -1.421566
17555         c3    664    ccc     C6  17555 0.37576500  12.010000   ; qtot -1.045801
17556         ho    664    ccc     H6  17556 0.53656000   1.008000   ; qtot -0.509241
17557         ho    664    ccc     H7  17557 0.49492100   1.008000   ; qtot -0.014320
17558         ho    664    ccc     H8  17558 0.51297200   1.008000   ; qtot 0.498652
17559         h1    664    ccc     H9  17559 0.05653400   1.008000   ; qtot 0.555186
17560         h1    664    ccc    H10  17560 0.05653400   1.008000   ; qtot 0.611720
17561         oh    664    ccc     O5  17561 -0.84113600  16.000000   ; qtot -0.229416
17562         ho    664    ccc    H11  17562 0.51201600   1.008000   ; qtot 0.282600
17563         os    664    ccc     O6  17563 -0.26013600  16.000000   ; qtot 0.022464
; residue  665 ccc rtp ccc q 0.0
17564         c3    665    ccc     C1  17564 -0.33178800  12.010000   ; qtot -0.309324
17565         c3    665    ccc     C2  17565 0.30606500  12.010000   ; qtot -0.003259
17566         h1    665    ccc     H1  17566 0.11662300   1.008000   ; qtot 0.113364
17567         h1    665    ccc     H2  17567 0.11526800   1.008000   ; qtot 0.228632
17568         c3    665    ccc     C3  17568 0.15592700  12.010000   ; qtot 0.384559
17569         c3    665    ccc     C4  17569 0.28383300  12.010000   ; qtot 0.668392
17570         c3    665    ccc     C5  17570 0.32403300  12.010000   ; qtot 0.992425
17571         h1    665    ccc     H3  17571 0.13386900   1.008000   ; qtot 1.126294
17572         h1    665    ccc     H4  17572 0.10146700   1.008000   ; qtot 1.227761
17573         h2    665    ccc     H5  17573 0.10960400   1.008000   ; qtot 1.337365
17574         os    665    ccc     O1  17574 -0.28650000  16.000000   ; qtot 1.050865
17575         oh    665    ccc     O2  17575 -0.86012500  16.000000   ; qtot 0.190740
17576         oh    665    ccc     O3  17576 -0.83772800  16.000000   ; qtot -0.646988
17577         oh    665    ccc     O4  17577 -0.77449700  16.000000   ; qtot -1.421485
17578         c3    665    ccc     C6  17578 0.37576500  12.010000   ; qtot -1.045720
17579         ho    665    ccc     H6  17579 0.53656000   1.008000   ; qtot -0.509160
17580         ho    665    ccc     H7  17580 0.49492100   1.008000   ; qtot -0.014239
17581         ho    665    ccc     H8  17581 0.51297200   1.008000   ; qtot 0.498733
17582         h1    665    ccc     H9  17582 0.05653400   1.008000   ; qtot 0.555267
17583         h1    665    ccc    H10  17583 0.05653400   1.008000   ; qtot 0.611801
17584         oh    665    ccc     O5  17584 -0.84113600  16.000000   ; qtot -0.229335
17585         ho    665    ccc    H11  17585 0.51201600   1.008000   ; qtot 0.282681
17586         os    665    ccc     O6  17586 -0.26013600  16.000000   ; qtot 0.022545
; residue  666 ccc rtp ccc q 0.0
17587         c3    666    ccc     C1  17587 -0.33178800  12.010000   ; qtot -0.309243
17588         c3    666    ccc     C2  17588 0.30606500  12.010000   ; qtot -0.003178
17589         h1    666    ccc     H1  17589 0.11662300   1.008000   ; qtot 0.113445
17590         h1    666    ccc     H2  17590 0.11526800   1.008000   ; qtot 0.228713
17591         c3    666    ccc     C3  17591 0.15592700  12.010000   ; qtot 0.384640
17592         c3    666    ccc     C4  17592 0.28383300  12.010000   ; qtot 0.668473
17593         c3    666    ccc     C5  17593 0.32403300  12.010000   ; qtot 0.992506
17594         h1    666    ccc     H3  17594 0.13386900   1.008000   ; qtot 1.126375
17595         h1    666    ccc     H4  17595 0.10146700   1.008000   ; qtot 1.227842
17596         h2    666    ccc     H5  17596 0.10960400   1.008000   ; qtot 1.337446
17597         os    666    ccc     O1  17597 -0.28650000  16.000000   ; qtot 1.050946
17598         oh    666    ccc     O2  17598 -0.86012500  16.000000   ; qtot 0.190821
17599         oh    666    ccc     O3  17599 -0.83772800  16.000000   ; qtot -0.646907
17600         oh    666    ccc     O4  17600 -0.77449700  16.000000   ; qtot -1.421404
17601         c3    666    ccc     C6  17601 0.37576500  12.010000   ; qtot -1.045639
17602         ho    666    ccc     H6  17602 0.53656000   1.008000   ; qtot -0.509079
17603         ho    666    ccc     H7  17603 0.49492100   1.008000   ; qtot -0.014158
17604         ho    666    ccc     H8  17604 0.51297200   1.008000   ; qtot 0.498814
17605         h1    666    ccc     H9  17605 0.05653400   1.008000   ; qtot 0.555348
17606         h1    666    ccc    H10  17606 0.05653400   1.008000   ; qtot 0.611882
17607         oh    666    ccc     O5  17607 -0.84113600  16.000000   ; qtot -0.229254
17608         ho    666    ccc    H11  17608 0.51201600   1.008000   ; qtot 0.282762
17609         os    666    ccc     O6  17609 -0.26013600  16.000000   ; qtot 0.022626
; residue  667 ccc rtp ccc q 0.0
17610         c3    667    ccc     C1  17610 -0.33178800  12.010000   ; qtot -0.309162
17611         c3    667    ccc     C2  17611 0.30606500  12.010000   ; qtot -0.003097
17612         h1    667    ccc     H1  17612 0.11662300   1.008000   ; qtot 0.113526
17613         h1    667    ccc     H2  17613 0.11526800   1.008000   ; qtot 0.228794
17614         c3    667    ccc     C3  17614 0.15592700  12.010000   ; qtot 0.384721
17615         c3    667    ccc     C4  17615 0.28383300  12.010000   ; qtot 0.668554
17616         c3    667    ccc     C5  17616 0.32403300  12.010000   ; qtot 0.992587
17617         h1    667    ccc     H3  17617 0.13386900   1.008000   ; qtot 1.126456
17618         h1    667    ccc     H4  17618 0.10146700   1.008000   ; qtot 1.227923
17619         h2    667    ccc     H5  17619 0.10960400   1.008000   ; qtot 1.337527
17620         os    667    ccc     O1  17620 -0.28650000  16.000000   ; qtot 1.051027
17621         oh    667    ccc     O2  17621 -0.86012500  16.000000   ; qtot 0.190902
17622         oh    667    ccc     O3  17622 -0.83772800  16.000000   ; qtot -0.646826
17623         oh    667    ccc     O4  17623 -0.77449700  16.000000   ; qtot -1.421323
17624         c3    667    ccc     C6  17624 0.37576500  12.010000   ; qtot -1.045558
17625         ho    667    ccc     H6  17625 0.53656000   1.008000   ; qtot -0.508998
17626         ho    667    ccc     H7  17626 0.49492100   1.008000   ; qtot -0.014077
17627         ho    667    ccc     H8  17627 0.51297200   1.008000   ; qtot 0.498895
17628         h1    667    ccc     H9  17628 0.05653400   1.008000   ; qtot 0.555429
17629         h1    667    ccc    H10  17629 0.05653400   1.008000   ; qtot 0.611963
17630         oh    667    ccc     O5  17630 -0.84113600  16.000000   ; qtot -0.229173
17631         ho    667    ccc    H11  17631 0.51201600   1.008000   ; qtot 0.282843
17632         os    667    ccc     O6  17632 -0.26013600  16.000000   ; qtot 0.022707
; residue  668 ccc rtp ccc q 0.0
17633         c3    668    ccc     C1  17633 -0.33178800  12.010000   ; qtot -0.309081
17634         c3    668    ccc     C2  17634 0.30606500  12.010000   ; qtot -0.003016
17635         h1    668    ccc     H1  17635 0.11662300   1.008000   ; qtot 0.113607
17636         h1    668    ccc     H2  17636 0.11526800   1.008000   ; qtot 0.228875
17637         c3    668    ccc     C3  17637 0.15592700  12.010000   ; qtot 0.384802
17638         c3    668    ccc     C4  17638 0.28383300  12.010000   ; qtot 0.668635
17639         c3    668    ccc     C5  17639 0.32403300  12.010000   ; qtot 0.992668
17640         h1    668    ccc     H3  17640 0.13386900   1.008000   ; qtot 1.126537
17641         h1    668    ccc     H4  17641 0.10146700   1.008000   ; qtot 1.228004
17642         h2    668    ccc     H5  17642 0.10960400   1.008000   ; qtot 1.337608
17643         os    668    ccc     O1  17643 -0.28650000  16.000000   ; qtot 1.051108
17644         oh    668    ccc     O2  17644 -0.86012500  16.000000   ; qtot 0.190983
17645         oh    668    ccc     O3  17645 -0.83772800  16.000000   ; qtot -0.646745
17646         oh    668    ccc     O4  17646 -0.77449700  16.000000   ; qtot -1.421242
17647         c3    668    ccc     C6  17647 0.37576500  12.010000   ; qtot -1.045477
17648         ho    668    ccc     H6  17648 0.53656000   1.008000   ; qtot -0.508917
17649         ho    668    ccc     H7  17649 0.49492100   1.008000   ; qtot -0.013996
17650         ho    668    ccc     H8  17650 0.51297200   1.008000   ; qtot 0.498976
17651         h1    668    ccc     H9  17651 0.05653400   1.008000   ; qtot 0.555510
17652         h1    668    ccc    H10  17652 0.05653400   1.008000   ; qtot 0.612044
17653         oh    668    ccc     O5  17653 -0.84113600  16.000000   ; qtot -0.229092
17654         ho    668    ccc    H11  17654 0.51201600   1.008000   ; qtot 0.282924
17655         os    668    ccc     O6  17655 -0.26013600  16.000000   ; qtot 0.022788
; residue  669 ccc rtp ccc q 0.0
17656         c3    669    ccc     C1  17656 -0.33178800  12.010000   ; qtot -0.309000
17657         c3    669    ccc     C2  17657 0.30606500  12.010000   ; qtot -0.002935
17658         h1    669    ccc     H1  17658 0.11662300   1.008000   ; qtot 0.113688
17659         h1    669    ccc     H2  17659 0.11526800   1.008000   ; qtot 0.228956
17660         c3    669    ccc     C3  17660 0.15592700  12.010000   ; qtot 0.384883
17661         c3    669    ccc     C4  17661 0.28383300  12.010000   ; qtot 0.668716
17662         c3    669    ccc     C5  17662 0.32403300  12.010000   ; qtot 0.992749
17663         h1    669    ccc     H3  17663 0.13386900   1.008000   ; qtot 1.126618
17664         h1    669    ccc     H4  17664 0.10146700   1.008000   ; qtot 1.228085
17665         h2    669    ccc     H5  17665 0.10960400   1.008000   ; qtot 1.337689
17666         os    669    ccc     O1  17666 -0.28650000  16.000000   ; qtot 1.051189
17667         oh    669    ccc     O2  17667 -0.86012500  16.000000   ; qtot 0.191064
17668         oh    669    ccc     O3  17668 -0.83772800  16.000000   ; qtot -0.646664
17669         oh    669    ccc     O4  17669 -0.77449700  16.000000   ; qtot -1.421161
17670         c3    669    ccc     C6  17670 0.37576500  12.010000   ; qtot -1.045396
17671         ho    669    ccc     H6  17671 0.53656000   1.008000   ; qtot -0.508836
17672         ho    669    ccc     H7  17672 0.49492100   1.008000   ; qtot -0.013915
17673         ho    669    ccc     H8  17673 0.51297200   1.008000   ; qtot 0.499057
17674         h1    669    ccc     H9  17674 0.05653400   1.008000   ; qtot 0.555591
17675         h1    669    ccc    H10  17675 0.05653400   1.008000   ; qtot 0.612125
17676         oh    669    ccc     O5  17676 -0.84113600  16.000000   ; qtot -0.229011
17677         ho    669    ccc    H11  17677 0.51201600   1.008000   ; qtot 0.283005
17678         os    669    ccc     O6  17678 -0.26013600  16.000000   ; qtot 0.022869
; residue  670 ccc rtp ccc q 0.0
17679         c3    670    ccc     C1  17679 -0.33178800  12.010000   ; qtot -0.308919
17680         c3    670    ccc     C2  17680 0.30606500  12.010000   ; qtot -0.002854
17681         h1    670    ccc     H1  17681 0.11662300   1.008000   ; qtot 0.113769
17682         h1    670    ccc     H2  17682 0.11526800   1.008000   ; qtot 0.229037
17683         c3    670    ccc     C3  17683 0.15592700  12.010000   ; qtot 0.384964
17684         c3    670    ccc     C4  17684 0.28383300  12.010000   ; qtot 0.668797
17685         c3    670    ccc     C5  17685 0.32403300  12.010000   ; qtot 0.992830
17686         h1    670    ccc     H3  17686 0.13386900   1.008000   ; qtot 1.126699
17687         h1    670    ccc     H4  17687 0.10146700   1.008000   ; qtot 1.228166
17688         h2    670    ccc     H5  17688 0.10960400   1.008000   ; qtot 1.337770
17689         os    670    ccc     O1  17689 -0.28650000  16.000000   ; qtot 1.051270
17690         oh    670    ccc     O2  17690 -0.86012500  16.000000   ; qtot 0.191145
17691         oh    670    ccc     O3  17691 -0.83772800  16.000000   ; qtot -0.646583
17692         oh    670    ccc     O4  17692 -0.77449700  16.000000   ; qtot -1.421080
17693         c3    670    ccc     C6  17693 0.37576500  12.010000   ; qtot -1.045315
17694         ho    670    ccc     H6  17694 0.53656000   1.008000   ; qtot -0.508755
17695         ho    670    ccc     H7  17695 0.49492100   1.008000   ; qtot -0.013834
17696         ho    670    ccc     H8  17696 0.51297200   1.008000   ; qtot 0.499138
17697         h1    670    ccc     H9  17697 0.05653400   1.008000   ; qtot 0.555672
17698         h1    670    ccc    H10  17698 0.05653400   1.008000   ; qtot 0.612206
17699         oh    670    ccc     O5  17699 -0.84113600  16.000000   ; qtot -0.228930
17700         ho    670    ccc    H11  17700 0.51201600   1.008000   ; qtot 0.283086
17701         os    670    ccc     O6  17701 -0.26013600  16.000000   ; qtot 0.022950
; residue  671 ccc rtp ccc q 0.0
17702         c3    671    ccc     C1  17702 -0.33178800  12.010000   ; qtot -0.308838
17703         c3    671    ccc     C2  17703 0.30606500  12.010000   ; qtot -0.002773
17704         h1    671    ccc     H1  17704 0.11662300   1.008000   ; qtot 0.113850
17705         h1    671    ccc     H2  17705 0.11526800   1.008000   ; qtot 0.229118
17706         c3    671    ccc     C3  17706 0.15592700  12.010000   ; qtot 0.385045
17707         c3    671    ccc     C4  17707 0.28383300  12.010000   ; qtot 0.668878
17708         c3    671    ccc     C5  17708 0.32403300  12.010000   ; qtot 0.992911
17709         h1    671    ccc     H3  17709 0.13386900   1.008000   ; qtot 1.126780
17710         h1    671    ccc     H4  17710 0.10146700   1.008000   ; qtot 1.228247
17711         h2    671    ccc     H5  17711 0.10960400   1.008000   ; qtot 1.337851
17712         os    671    ccc     O1  17712 -0.28650000  16.000000   ; qtot 1.051351
17713         oh    671    ccc     O2  17713 -0.86012500  16.000000   ; qtot 0.191226
17714         oh    671    ccc     O3  17714 -0.83772800  16.000000   ; qtot -0.646502
17715         oh    671    ccc     O4  17715 -0.77449700  16.000000   ; qtot -1.420999
17716         c3    671    ccc     C6  17716 0.37576500  12.010000   ; qtot -1.045234
17717         ho    671    ccc     H6  17717 0.53656000   1.008000   ; qtot -0.508674
17718         ho    671    ccc     H7  17718 0.49492100   1.008000   ; qtot -0.013753
17719         ho    671    ccc     H8  17719 0.51297200   1.008000   ; qtot 0.499219
17720         h1    671    ccc     H9  17720 0.05653400   1.008000   ; qtot 0.555753
17721         h1    671    ccc    H10  17721 0.05653400   1.008000   ; qtot 0.612287
17722         oh    671    ccc     O5  17722 -0.84113600  16.000000   ; qtot -0.228849
17723         ho    671    ccc    H11  17723 0.51201600   1.008000   ; qtot 0.283167
17724         os    671    ccc     O6  17724 -0.26013600  16.000000   ; qtot 0.023031
; residue  672 ccc rtp ccc q 0.0
17725         c3    672    ccc     C1  17725 -0.33178800  12.010000   ; qtot -0.308757
17726         c3    672    ccc     C2  17726 0.30606500  12.010000   ; qtot -0.002692
17727         h1    672    ccc     H1  17727 0.11662300   1.008000   ; qtot 0.113931
17728         h1    672    ccc     H2  17728 0.11526800   1.008000   ; qtot 0.229199
17729         c3    672    ccc     C3  17729 0.15592700  12.010000   ; qtot 0.385126
17730         c3    672    ccc     C4  17730 0.28383300  12.010000   ; qtot 0.668959
17731         c3    672    ccc     C5  17731 0.32403300  12.010000   ; qtot 0.992992
17732         h1    672    ccc     H3  17732 0.13386900   1.008000   ; qtot 1.126861
17733         h1    672    ccc     H4  17733 0.10146700   1.008000   ; qtot 1.228328
17734         h2    672    ccc     H5  17734 0.10960400   1.008000   ; qtot 1.337932
17735         os    672    ccc     O1  17735 -0.28650000  16.000000   ; qtot 1.051432
17736         oh    672    ccc     O2  17736 -0.86012500  16.000000   ; qtot 0.191307
17737         oh    672    ccc     O3  17737 -0.83772800  16.000000   ; qtot -0.646421
17738         oh    672    ccc     O4  17738 -0.77449700  16.000000   ; qtot -1.420918
17739         c3    672    ccc     C6  17739 0.37576500  12.010000   ; qtot -1.045153
17740         ho    672    ccc     H6  17740 0.53656000   1.008000   ; qtot -0.508593
17741         ho    672    ccc     H7  17741 0.49492100   1.008000   ; qtot -0.013672
17742         ho    672    ccc     H8  17742 0.51297200   1.008000   ; qtot 0.499300
17743         h1    672    ccc     H9  17743 0.05653400   1.008000   ; qtot 0.555834
17744         h1    672    ccc    H10  17744 0.05653400   1.008000   ; qtot 0.612368
17745         oh    672    ccc     O5  17745 -0.84113600  16.000000   ; qtot -0.228768
17746         ho    672    ccc    H11  17746 0.51201600   1.008000   ; qtot 0.283248
17747         os    672    ccc     O6  17747 -0.26013600  16.000000   ; qtot 0.023112
; residue  673 ccc rtp ccc q 0.0
17748         c3    673    ccc     C1  17748 -0.33178800  12.010000   ; qtot -0.308676
17749         c3    673    ccc     C2  17749 0.30606500  12.010000   ; qtot -0.002611
17750         h1    673    ccc     H1  17750 0.11662300   1.008000   ; qtot 0.114012
17751         h1    673    ccc     H2  17751 0.11526800   1.008000   ; qtot 0.229280
17752         c3    673    ccc     C3  17752 0.15592700  12.010000   ; qtot 0.385207
17753         c3    673    ccc     C4  17753 0.28383300  12.010000   ; qtot 0.669040
17754         c3    673    ccc     C5  17754 0.32403300  12.010000   ; qtot 0.993073
17755         h1    673    ccc     H3  17755 0.13386900   1.008000   ; qtot 1.126942
17756         h1    673    ccc     H4  17756 0.10146700   1.008000   ; qtot 1.228409
17757         h2    673    ccc     H5  17757 0.10960400   1.008000   ; qtot 1.338013
17758         os    673    ccc     O1  17758 -0.28650000  16.000000   ; qtot 1.051513
17759         oh    673    ccc     O2  17759 -0.86012500  16.000000   ; qtot 0.191388
17760         oh    673    ccc     O3  17760 -0.83772800  16.000000   ; qtot -0.646340
17761         oh    673    ccc     O4  17761 -0.77449700  16.000000   ; qtot -1.420837
17762         c3    673    ccc     C6  17762 0.37576500  12.010000   ; qtot -1.045072
17763         ho    673    ccc     H6  17763 0.53656000   1.008000   ; qtot -0.508512
17764         ho    673    ccc     H7  17764 0.49492100   1.008000   ; qtot -0.013591
17765         ho    673    ccc     H8  17765 0.51297200   1.008000   ; qtot 0.499381
17766         h1    673    ccc     H9  17766 0.05653400   1.008000   ; qtot 0.555915
17767         h1    673    ccc    H10  17767 0.05653400   1.008000   ; qtot 0.612449
17768         oh    673    ccc     O5  17768 -0.84113600  16.000000   ; qtot -0.228687
17769         ho    673    ccc    H11  17769 0.51201600   1.008000   ; qtot 0.283329
17770         os    673    ccc     O6  17770 -0.26013600  16.000000   ; qtot 0.023193
; residue  674 ccc rtp ccc q 0.0
17771         c3    674    ccc     C1  17771 -0.33178800  12.010000   ; qtot -0.308595
17772         c3    674    ccc     C2  17772 0.30606500  12.010000   ; qtot -0.002530
17773         h1    674    ccc     H1  17773 0.11662300   1.008000   ; qtot 0.114093
17774         h1    674    ccc     H2  17774 0.11526800   1.008000   ; qtot 0.229361
17775         c3    674    ccc     C3  17775 0.15592700  12.010000   ; qtot 0.385288
17776         c3    674    ccc     C4  17776 0.28383300  12.010000   ; qtot 0.669121
17777         c3    674    ccc     C5  17777 0.32403300  12.010000   ; qtot 0.993154
17778         h1    674    ccc     H3  17778 0.13386900   1.008000   ; qtot 1.127023
17779         h1    674    ccc     H4  17779 0.10146700   1.008000   ; qtot 1.228490
17780         h2    674    ccc     H5  17780 0.10960400   1.008000   ; qtot 1.338094
17781         os    674    ccc     O1  17781 -0.28650000  16.000000   ; qtot 1.051594
17782         oh    674    ccc     O2  17782 -0.86012500  16.000000   ; qtot 0.191469
17783         oh    674    ccc     O3  17783 -0.83772800  16.000000   ; qtot -0.646259
17784         oh    674    ccc     O4  17784 -0.77449700  16.000000   ; qtot -1.420756
17785         c3    674    ccc     C6  17785 0.37576500  12.010000   ; qtot -1.044991
17786         ho    674    ccc     H6  17786 0.53656000   1.008000   ; qtot -0.508431
17787         ho    674    ccc     H7  17787 0.49492100   1.008000   ; qtot -0.013510
17788         ho    674    ccc     H8  17788 0.51297200   1.008000   ; qtot 0.499462
17789         h1    674    ccc     H9  17789 0.05653400   1.008000   ; qtot 0.555996
17790         h1    674    ccc    H10  17790 0.05653400   1.008000   ; qtot 0.612530
17791         oh    674    ccc     O5  17791 -0.84113600  16.000000   ; qtot -0.228606
17792         ho    674    ccc    H11  17792 0.51201600   1.008000   ; qtot 0.283410
17793         os    674    ccc     O6  17793 -0.26013600  16.000000   ; qtot 0.023274
; residue  675 ccc rtp ccc q 0.0
17794         c3    675    ccc     C1  17794 -0.33178800  12.010000   ; qtot -0.308514
17795         c3    675    ccc     C2  17795 0.30606500  12.010000   ; qtot -0.002449
17796         h1    675    ccc     H1  17796 0.11662300   1.008000   ; qtot 0.114174
17797         h1    675    ccc     H2  17797 0.11526800   1.008000   ; qtot 0.229442
17798         c3    675    ccc     C3  17798 0.15592700  12.010000   ; qtot 0.385369
17799         c3    675    ccc     C4  17799 0.28383300  12.010000   ; qtot 0.669202
17800         c3    675    ccc     C5  17800 0.32403300  12.010000   ; qtot 0.993235
17801         h1    675    ccc     H3  17801 0.13386900   1.008000   ; qtot 1.127104
17802         h1    675    ccc     H4  17802 0.10146700   1.008000   ; qtot 1.228571
17803         h2    675    ccc     H5  17803 0.10960400   1.008000   ; qtot 1.338175
17804         os    675    ccc     O1  17804 -0.28650000  16.000000   ; qtot 1.051675
17805         oh    675    ccc     O2  17805 -0.86012500  16.000000   ; qtot 0.191550
17806         oh    675    ccc     O3  17806 -0.83772800  16.000000   ; qtot -0.646178
17807         oh    675    ccc     O4  17807 -0.77449700  16.000000   ; qtot -1.420675
17808         c3    675    ccc     C6  17808 0.37576500  12.010000   ; qtot -1.044910
17809         ho    675    ccc     H6  17809 0.53656000   1.008000   ; qtot -0.508350
17810         ho    675    ccc     H7  17810 0.49492100   1.008000   ; qtot -0.013429
17811         ho    675    ccc     H8  17811 0.51297200   1.008000   ; qtot 0.499543
17812         h1    675    ccc     H9  17812 0.05653400   1.008000   ; qtot 0.556077
17813         h1    675    ccc    H10  17813 0.05653400   1.008000   ; qtot 0.612611
17814         oh    675    ccc     O5  17814 -0.84113600  16.000000   ; qtot -0.228525
17815         ho    675    ccc    H11  17815 0.51201600   1.008000   ; qtot 0.283491
17816         os    675    ccc     O6  17816 -0.26013600  16.000000   ; qtot 0.023355
; residue  676 ccc rtp ccc q 0.0
17817         c3    676    ccc     C1  17817 -0.33178800  12.010000   ; qtot -0.308433
17818         c3    676    ccc     C2  17818 0.30606500  12.010000   ; qtot -0.002368
17819         h1    676    ccc     H1  17819 0.11662300   1.008000   ; qtot 0.114255
17820         h1    676    ccc     H2  17820 0.11526800   1.008000   ; qtot 0.229523
17821         c3    676    ccc     C3  17821 0.15592700  12.010000   ; qtot 0.385450
17822         c3    676    ccc     C4  17822 0.28383300  12.010000   ; qtot 0.669283
17823         c3    676    ccc     C5  17823 0.32403300  12.010000   ; qtot 0.993316
17824         h1    676    ccc     H3  17824 0.13386900   1.008000   ; qtot 1.127185
17825         h1    676    ccc     H4  17825 0.10146700   1.008000   ; qtot 1.228652
17826         h2    676    ccc     H5  17826 0.10960400   1.008000   ; qtot 1.338256
17827         os    676    ccc     O1  17827 -0.28650000  16.000000   ; qtot 1.051756
17828         oh    676    ccc     O2  17828 -0.86012500  16.000000   ; qtot 0.191631
17829         oh    676    ccc     O3  17829 -0.83772800  16.000000   ; qtot -0.646097
17830         oh    676    ccc     O4  17830 -0.77449700  16.000000   ; qtot -1.420594
17831         c3    676    ccc     C6  17831 0.37576500  12.010000   ; qtot -1.044829
17832         ho    676    ccc     H6  17832 0.53656000   1.008000   ; qtot -0.508269
17833         ho    676    ccc     H7  17833 0.49492100   1.008000   ; qtot -0.013348
17834         ho    676    ccc     H8  17834 0.51297200   1.008000   ; qtot 0.499624
17835         h1    676    ccc     H9  17835 0.05653400   1.008000   ; qtot 0.556158
17836         h1    676    ccc    H10  17836 0.05653400   1.008000   ; qtot 0.612692
17837         oh    676    ccc     O5  17837 -0.84113600  16.000000   ; qtot -0.228444
17838         ho    676    ccc    H11  17838 0.51201600   1.008000   ; qtot 0.283572
17839         os    676    ccc     O6  17839 -0.26013600  16.000000   ; qtot 0.023436
; residue  677 ccc rtp ccc q 0.0
17840         c3    677    ccc     C1  17840 -0.33178800  12.010000   ; qtot -0.308352
17841         c3    677    ccc     C2  17841 0.30606500  12.010000   ; qtot -0.002287
17842         h1    677    ccc     H1  17842 0.11662300   1.008000   ; qtot 0.114336
17843         h1    677    ccc     H2  17843 0.11526800   1.008000   ; qtot 0.229604
17844         c3    677    ccc     C3  17844 0.15592700  12.010000   ; qtot 0.385531
17845         c3    677    ccc     C4  17845 0.28383300  12.010000   ; qtot 0.669364
17846         c3    677    ccc     C5  17846 0.32403300  12.010000   ; qtot 0.993397
17847         h1    677    ccc     H3  17847 0.13386900   1.008000   ; qtot 1.127266
17848         h1    677    ccc     H4  17848 0.10146700   1.008000   ; qtot 1.228733
17849         h2    677    ccc     H5  17849 0.10960400   1.008000   ; qtot 1.338337
17850         os    677    ccc     O1  17850 -0.28650000  16.000000   ; qtot 1.051837
17851         oh    677    ccc     O2  17851 -0.86012500  16.000000   ; qtot 0.191712
17852         oh    677    ccc     O3  17852 -0.83772800  16.000000   ; qtot -0.646016
17853         oh    677    ccc     O4  17853 -0.77449700  16.000000   ; qtot -1.420513
17854         c3    677    ccc     C6  17854 0.37576500  12.010000   ; qtot -1.044748
17855         ho    677    ccc     H6  17855 0.53656000   1.008000   ; qtot -0.508188
17856         ho    677    ccc     H7  17856 0.49492100   1.008000   ; qtot -0.013267
17857         ho    677    ccc     H8  17857 0.51297200   1.008000   ; qtot 0.499705
17858         h1    677    ccc     H9  17858 0.05653400   1.008000   ; qtot 0.556239
17859         h1    677    ccc    H10  17859 0.05653400   1.008000   ; qtot 0.612773
17860         oh    677    ccc     O5  17860 -0.84113600  16.000000   ; qtot -0.228363
17861         ho    677    ccc    H11  17861 0.51201600   1.008000   ; qtot 0.283653
17862         os    677    ccc     O6  17862 -0.26013600  16.000000   ; qtot 0.023517
; residue  678 ccc rtp ccc q 0.0
17863         c3    678    ccc     C1  17863 -0.33178800  12.010000   ; qtot -0.308271
17864         c3    678    ccc     C2  17864 0.30606500  12.010000   ; qtot -0.002206
17865         h1    678    ccc     H1  17865 0.11662300   1.008000   ; qtot 0.114417
17866         h1    678    ccc     H2  17866 0.11526800   1.008000   ; qtot 0.229685
17867         c3    678    ccc     C3  17867 0.15592700  12.010000   ; qtot 0.385612
17868         c3    678    ccc     C4  17868 0.28383300  12.010000   ; qtot 0.669445
17869         c3    678    ccc     C5  17869 0.32403300  12.010000   ; qtot 0.993478
17870         h1    678    ccc     H3  17870 0.13386900   1.008000   ; qtot 1.127347
17871         h1    678    ccc     H4  17871 0.10146700   1.008000   ; qtot 1.228814
17872         h2    678    ccc     H5  17872 0.10960400   1.008000   ; qtot 1.338418
17873         os    678    ccc     O1  17873 -0.28650000  16.000000   ; qtot 1.051918
17874         oh    678    ccc     O2  17874 -0.86012500  16.000000   ; qtot 0.191793
17875         oh    678    ccc     O3  17875 -0.83772800  16.000000   ; qtot -0.645935
17876         oh    678    ccc     O4  17876 -0.77449700  16.000000   ; qtot -1.420432
17877         c3    678    ccc     C6  17877 0.37576500  12.010000   ; qtot -1.044667
17878         ho    678    ccc     H6  17878 0.53656000   1.008000   ; qtot -0.508107
17879         ho    678    ccc     H7  17879 0.49492100   1.008000   ; qtot -0.013186
17880         ho    678    ccc     H8  17880 0.51297200   1.008000   ; qtot 0.499786
17881         h1    678    ccc     H9  17881 0.05653400   1.008000   ; qtot 0.556320
17882         h1    678    ccc    H10  17882 0.05653400   1.008000   ; qtot 0.612854
17883         oh    678    ccc     O5  17883 -0.84113600  16.000000   ; qtot -0.228282
17884         ho    678    ccc    H11  17884 0.51201600   1.008000   ; qtot 0.283734
17885         os    678    ccc     O6  17885 -0.26013600  16.000000   ; qtot 0.023598
; residue  679 ccc rtp ccc q 0.0
17886         c3    679    ccc     C1  17886 -0.33178800  12.010000   ; qtot -0.308190
17887         c3    679    ccc     C2  17887 0.30606500  12.010000   ; qtot -0.002125
17888         h1    679    ccc     H1  17888 0.11662300   1.008000   ; qtot 0.114498
17889         h1    679    ccc     H2  17889 0.11526800   1.008000   ; qtot 0.229766
17890         c3    679    ccc     C3  17890 0.15592700  12.010000   ; qtot 0.385693
17891         c3    679    ccc     C4  17891 0.28383300  12.010000   ; qtot 0.669526
17892         c3    679    ccc     C5  17892 0.32403300  12.010000   ; qtot 0.993559
17893         h1    679    ccc     H3  17893 0.13386900   1.008000   ; qtot 1.127428
17894         h1    679    ccc     H4  17894 0.10146700   1.008000   ; qtot 1.228895
17895         h2    679    ccc     H5  17895 0.10960400   1.008000   ; qtot 1.338499
17896         os    679    ccc     O1  17896 -0.28650000  16.000000   ; qtot 1.051999
17897         oh    679    ccc     O2  17897 -0.86012500  16.000000   ; qtot 0.191874
17898         oh    679    ccc     O3  17898 -0.83772800  16.000000   ; qtot -0.645854
17899         oh    679    ccc     O4  17899 -0.77449700  16.000000   ; qtot -1.420351
17900         c3    679    ccc     C6  17900 0.37576500  12.010000   ; qtot -1.044586
17901         ho    679    ccc     H6  17901 0.53656000   1.008000   ; qtot -0.508026
17902         ho    679    ccc     H7  17902 0.49492100   1.008000   ; qtot -0.013105
17903         ho    679    ccc     H8  17903 0.51297200   1.008000   ; qtot 0.499867
17904         h1    679    ccc     H9  17904 0.05653400   1.008000   ; qtot 0.556401
17905         h1    679    ccc    H10  17905 0.05653400   1.008000   ; qtot 0.612935
17906         oh    679    ccc     O5  17906 -0.84113600  16.000000   ; qtot -0.228201
17907         ho    679    ccc    H11  17907 0.51201600   1.008000   ; qtot 0.283815
17908         os    679    ccc     O6  17908 -0.26013600  16.000000   ; qtot 0.023679
; residue  680 ccc rtp ccc q 0.0
17909         c3    680    ccc     C1  17909 -0.33178800  12.010000   ; qtot -0.308109
17910         c3    680    ccc     C2  17910 0.30606500  12.010000   ; qtot -0.002044
17911         h1    680    ccc     H1  17911 0.11662300   1.008000   ; qtot 0.114579
17912         h1    680    ccc     H2  17912 0.11526800   1.008000   ; qtot 0.229847
17913         c3    680    ccc     C3  17913 0.15592700  12.010000   ; qtot 0.385774
17914         c3    680    ccc     C4  17914 0.28383300  12.010000   ; qtot 0.669607
17915         c3    680    ccc     C5  17915 0.32403300  12.010000   ; qtot 0.993640
17916         h1    680    ccc     H3  17916 0.13386900   1.008000   ; qtot 1.127509
17917         h1    680    ccc     H4  17917 0.10146700   1.008000   ; qtot 1.228976
17918         h2    680    ccc     H5  17918 0.10960400   1.008000   ; qtot 1.338580
17919         os    680    ccc     O1  17919 -0.28650000  16.000000   ; qtot 1.052080
17920         oh    680    ccc     O2  17920 -0.86012500  16.000000   ; qtot 0.191955
17921         oh    680    ccc     O3  17921 -0.83772800  16.000000   ; qtot -0.645773
17922         oh    680    ccc     O4  17922 -0.77449700  16.000000   ; qtot -1.420270
17923         c3    680    ccc     C6  17923 0.37576500  12.010000   ; qtot -1.044505
17924         ho    680    ccc     H6  17924 0.53656000   1.008000   ; qtot -0.507945
17925         ho    680    ccc     H7  17925 0.49492100   1.008000   ; qtot -0.013024
17926         ho    680    ccc     H8  17926 0.51297200   1.008000   ; qtot 0.499948
17927         h1    680    ccc     H9  17927 0.05653400   1.008000   ; qtot 0.556482
17928         h1    680    ccc    H10  17928 0.05653400   1.008000   ; qtot 0.613016
17929         oh    680    ccc     O5  17929 -0.84113600  16.000000   ; qtot -0.228120
17930         ho    680    ccc    H11  17930 0.51201600   1.008000   ; qtot 0.283896
17931         os    680    ccc     O6  17931 -0.26013600  16.000000   ; qtot 0.023760
; residue  681 ccc rtp ccc q 0.0
17932         c3    681    ccc     C1  17932 -0.33178800  12.010000   ; qtot -0.308028
17933         c3    681    ccc     C2  17933 0.30606500  12.010000   ; qtot -0.001963
17934         h1    681    ccc     H1  17934 0.11662300   1.008000   ; qtot 0.114660
17935         h1    681    ccc     H2  17935 0.11526800   1.008000   ; qtot 0.229928
17936         c3    681    ccc     C3  17936 0.15592700  12.010000   ; qtot 0.385855
17937         c3    681    ccc     C4  17937 0.28383300  12.010000   ; qtot 0.669688
17938         c3    681    ccc     C5  17938 0.32403300  12.010000   ; qtot 0.993721
17939         h1    681    ccc     H3  17939 0.13386900   1.008000   ; qtot 1.127590
17940         h1    681    ccc     H4  17940 0.10146700   1.008000   ; qtot 1.229057
17941         h2    681    ccc     H5  17941 0.10960400   1.008000   ; qtot 1.338661
17942         os    681    ccc     O1  17942 -0.28650000  16.000000   ; qtot 1.052161
17943         oh    681    ccc     O2  17943 -0.86012500  16.000000   ; qtot 0.192036
17944         oh    681    ccc     O3  17944 -0.83772800  16.000000   ; qtot -0.645692
17945         oh    681    ccc     O4  17945 -0.77449700  16.000000   ; qtot -1.420189
17946         c3    681    ccc     C6  17946 0.37576500  12.010000   ; qtot -1.044424
17947         ho    681    ccc     H6  17947 0.53656000   1.008000   ; qtot -0.507864
17948         ho    681    ccc     H7  17948 0.49492100   1.008000   ; qtot -0.012943
17949         ho    681    ccc     H8  17949 0.51297200   1.008000   ; qtot 0.500029
17950         h1    681    ccc     H9  17950 0.05653400   1.008000   ; qtot 0.556563
17951         h1    681    ccc    H10  17951 0.05653400   1.008000   ; qtot 0.613097
17952         oh    681    ccc     O5  17952 -0.84113600  16.000000   ; qtot -0.228039
17953         ho    681    ccc    H11  17953 0.51201600   1.008000   ; qtot 0.283977
17954         os    681    ccc     O6  17954 -0.26013600  16.000000   ; qtot 0.023841
; residue  682 ccc rtp ccc q 0.0
17955         c3    682    ccc     C1  17955 -0.33178800  12.010000   ; qtot -0.307947
17956         c3    682    ccc     C2  17956 0.30606500  12.010000   ; qtot -0.001882
17957         h1    682    ccc     H1  17957 0.11662300   1.008000   ; qtot 0.114741
17958         h1    682    ccc     H2  17958 0.11526800   1.008000   ; qtot 0.230009
17959         c3    682    ccc     C3  17959 0.15592700  12.010000   ; qtot 0.385936
17960         c3    682    ccc     C4  17960 0.28383300  12.010000   ; qtot 0.669769
17961         c3    682    ccc     C5  17961 0.32403300  12.010000   ; qtot 0.993802
17962         h1    682    ccc     H3  17962 0.13386900   1.008000   ; qtot 1.127671
17963         h1    682    ccc     H4  17963 0.10146700   1.008000   ; qtot 1.229138
17964         h2    682    ccc     H5  17964 0.10960400   1.008000   ; qtot 1.338742
17965         os    682    ccc     O1  17965 -0.28650000  16.000000   ; qtot 1.052242
17966         oh    682    ccc     O2  17966 -0.86012500  16.000000   ; qtot 0.192117
17967         oh    682    ccc     O3  17967 -0.83772800  16.000000   ; qtot -0.645611
17968         oh    682    ccc     O4  17968 -0.77449700  16.000000   ; qtot -1.420108
17969         c3    682    ccc     C6  17969 0.37576500  12.010000   ; qtot -1.044343
17970         ho    682    ccc     H6  17970 0.53656000   1.008000   ; qtot -0.507783
17971         ho    682    ccc     H7  17971 0.49492100   1.008000   ; qtot -0.012862
17972         ho    682    ccc     H8  17972 0.51297200   1.008000   ; qtot 0.500110
17973         h1    682    ccc     H9  17973 0.05653400   1.008000   ; qtot 0.556644
17974         h1    682    ccc    H10  17974 0.05653400   1.008000   ; qtot 0.613178
17975         oh    682    ccc     O5  17975 -0.84113600  16.000000   ; qtot -0.227958
17976         ho    682    ccc    H11  17976 0.51201600   1.008000   ; qtot 0.284058
17977         os    682    ccc     O6  17977 -0.26013600  16.000000   ; qtot 0.023922
; residue  683 ccc rtp ccc q 0.0
17978         c3    683    ccc     C1  17978 -0.33178800  12.010000   ; qtot -0.307866
17979         c3    683    ccc     C2  17979 0.30606500  12.010000   ; qtot -0.001801
17980         h1    683    ccc     H1  17980 0.11662300   1.008000   ; qtot 0.114822
17981         h1    683    ccc     H2  17981 0.11526800   1.008000   ; qtot 0.230090
17982         c3    683    ccc     C3  17982 0.15592700  12.010000   ; qtot 0.386017
17983         c3    683    ccc     C4  17983 0.28383300  12.010000   ; qtot 0.669850
17984         c3    683    ccc     C5  17984 0.32403300  12.010000   ; qtot 0.993883
17985         h1    683    ccc     H3  17985 0.13386900   1.008000   ; qtot 1.127752
17986         h1    683    ccc     H4  17986 0.10146700   1.008000   ; qtot 1.229219
17987         h2    683    ccc     H5  17987 0.10960400   1.008000   ; qtot 1.338823
17988         os    683    ccc     O1  17988 -0.28650000  16.000000   ; qtot 1.052323
17989         oh    683    ccc     O2  17989 -0.86012500  16.000000   ; qtot 0.192198
17990         oh    683    ccc     O3  17990 -0.83772800  16.000000   ; qtot -0.645530
17991         oh    683    ccc     O4  17991 -0.77449700  16.000000   ; qtot -1.420027
17992         c3    683    ccc     C6  17992 0.37576500  12.010000   ; qtot -1.044262
17993         ho    683    ccc     H6  17993 0.53656000   1.008000   ; qtot -0.507702
17994         ho    683    ccc     H7  17994 0.49492100   1.008000   ; qtot -0.012781
17995         ho    683    ccc     H8  17995 0.51297200   1.008000   ; qtot 0.500191
17996         h1    683    ccc     H9  17996 0.05653400   1.008000   ; qtot 0.556725
17997         h1    683    ccc    H10  17997 0.05653400   1.008000   ; qtot 0.613259
17998         oh    683    ccc     O5  17998 -0.84113600  16.000000   ; qtot -0.227877
17999         ho    683    ccc    H11  17999 0.51201600   1.008000   ; qtot 0.284139
18000         os    683    ccc     O6  18000 -0.26013600  16.000000   ; qtot 0.024003
; residue  684 ccc rtp ccc q 0.0
18001         c3    684    ccc     C1  18001 -0.33178800  12.010000   ; qtot -0.307785
18002         c3    684    ccc     C2  18002 0.30606500  12.010000   ; qtot -0.001720
18003         h1    684    ccc     H1  18003 0.11662300   1.008000   ; qtot 0.114903
18004         h1    684    ccc     H2  18004 0.11526800   1.008000   ; qtot 0.230171
18005         c3    684    ccc     C3  18005 0.15592700  12.010000   ; qtot 0.386098
18006         c3    684    ccc     C4  18006 0.28383300  12.010000   ; qtot 0.669931
18007         c3    684    ccc     C5  18007 0.32403300  12.010000   ; qtot 0.993964
18008         h1    684    ccc     H3  18008 0.13386900   1.008000   ; qtot 1.127833
18009         h1    684    ccc     H4  18009 0.10146700   1.008000   ; qtot 1.229300
18010         h2    684    ccc     H5  18010 0.10960400   1.008000   ; qtot 1.338904
18011         os    684    ccc     O1  18011 -0.28650000  16.000000   ; qtot 1.052404
18012         oh    684    ccc     O2  18012 -0.86012500  16.000000   ; qtot 0.192279
18013         oh    684    ccc     O3  18013 -0.83772800  16.000000   ; qtot -0.645449
18014         oh    684    ccc     O4  18014 -0.77449700  16.000000   ; qtot -1.419946
18015         c3    684    ccc     C6  18015 0.37576500  12.010000   ; qtot -1.044181
18016         ho    684    ccc     H6  18016 0.53656000   1.008000   ; qtot -0.507621
18017         ho    684    ccc     H7  18017 0.49492100   1.008000   ; qtot -0.012700
18018         ho    684    ccc     H8  18018 0.51297200   1.008000   ; qtot 0.500272
18019         h1    684    ccc     H9  18019 0.05653400   1.008000   ; qtot 0.556806
18020         h1    684    ccc    H10  18020 0.05653400   1.008000   ; qtot 0.613340
18021         oh    684    ccc     O5  18021 -0.84113600  16.000000   ; qtot -0.227796
18022         ho    684    ccc    H11  18022 0.51201600   1.008000   ; qtot 0.284220
18023         os    684    ccc     O6  18023 -0.26013600  16.000000   ; qtot 0.024084
; residue  685 ccc rtp ccc q 0.0
18024         c3    685    ccc     C1  18024 -0.33178800  12.010000   ; qtot -0.307704
18025         c3    685    ccc     C2  18025 0.30606500  12.010000   ; qtot -0.001639
18026         h1    685    ccc     H1  18026 0.11662300   1.008000   ; qtot 0.114984
18027         h1    685    ccc     H2  18027 0.11526800   1.008000   ; qtot 0.230252
18028         c3    685    ccc     C3  18028 0.15592700  12.010000   ; qtot 0.386179
18029         c3    685    ccc     C4  18029 0.28383300  12.010000   ; qtot 0.670012
18030         c3    685    ccc     C5  18030 0.32403300  12.010000   ; qtot 0.994045
18031         h1    685    ccc     H3  18031 0.13386900   1.008000   ; qtot 1.127914
18032         h1    685    ccc     H4  18032 0.10146700   1.008000   ; qtot 1.229381
18033         h2    685    ccc     H5  18033 0.10960400   1.008000   ; qtot 1.338985
18034         os    685    ccc     O1  18034 -0.28650000  16.000000   ; qtot 1.052485
18035         oh    685    ccc     O2  18035 -0.86012500  16.000000   ; qtot 0.192360
18036         oh    685    ccc     O3  18036 -0.83772800  16.000000   ; qtot -0.645368
18037         oh    685    ccc     O4  18037 -0.77449700  16.000000   ; qtot -1.419865
18038         c3    685    ccc     C6  18038 0.37576500  12.010000   ; qtot -1.044100
18039         ho    685    ccc     H6  18039 0.53656000   1.008000   ; qtot -0.507540
18040         ho    685    ccc     H7  18040 0.49492100   1.008000   ; qtot -0.012619
18041         ho    685    ccc     H8  18041 0.51297200   1.008000   ; qtot 0.500353
18042         h1    685    ccc     H9  18042 0.05653400   1.008000   ; qtot 0.556887
18043         h1    685    ccc    H10  18043 0.05653400   1.008000   ; qtot 0.613421
18044         oh    685    ccc     O5  18044 -0.84113600  16.000000   ; qtot -0.227715
18045         ho    685    ccc    H11  18045 0.51201600   1.008000   ; qtot 0.284301
18046         os    685    ccc     O6  18046 -0.26013600  16.000000   ; qtot 0.024165
; residue  686 ccc rtp ccc q 0.0
18047         c3    686    ccc     C1  18047 -0.33178800  12.010000   ; qtot -0.307623
18048         c3    686    ccc     C2  18048 0.30606500  12.010000   ; qtot -0.001558
18049         h1    686    ccc     H1  18049 0.11662300   1.008000   ; qtot 0.115065
18050         h1    686    ccc     H2  18050 0.11526800   1.008000   ; qtot 0.230333
18051         c3    686    ccc     C3  18051 0.15592700  12.010000   ; qtot 0.386260
18052         c3    686    ccc     C4  18052 0.28383300  12.010000   ; qtot 0.670093
18053         c3    686    ccc     C5  18053 0.32403300  12.010000   ; qtot 0.994126
18054         h1    686    ccc     H3  18054 0.13386900   1.008000   ; qtot 1.127995
18055         h1    686    ccc     H4  18055 0.10146700   1.008000   ; qtot 1.229462
18056         h2    686    ccc     H5  18056 0.10960400   1.008000   ; qtot 1.339066
18057         os    686    ccc     O1  18057 -0.28650000  16.000000   ; qtot 1.052566
18058         oh    686    ccc     O2  18058 -0.86012500  16.000000   ; qtot 0.192441
18059         oh    686    ccc     O3  18059 -0.83772800  16.000000   ; qtot -0.645287
18060         oh    686    ccc     O4  18060 -0.77449700  16.000000   ; qtot -1.419784
18061         c3    686    ccc     C6  18061 0.37576500  12.010000   ; qtot -1.044019
18062         ho    686    ccc     H6  18062 0.53656000   1.008000   ; qtot -0.507459
18063         ho    686    ccc     H7  18063 0.49492100   1.008000   ; qtot -0.012538
18064         ho    686    ccc     H8  18064 0.51297200   1.008000   ; qtot 0.500434
18065         h1    686    ccc     H9  18065 0.05653400   1.008000   ; qtot 0.556968
18066         h1    686    ccc    H10  18066 0.05653400   1.008000   ; qtot 0.613502
18067         oh    686    ccc     O5  18067 -0.84113600  16.000000   ; qtot -0.227634
18068         ho    686    ccc    H11  18068 0.51201600   1.008000   ; qtot 0.284382
18069         os    686    ccc     O6  18069 -0.26013600  16.000000   ; qtot 0.024246
; residue  687 ccc rtp ccc q 0.0
18070         c3    687    ccc     C1  18070 -0.33178800  12.010000   ; qtot -0.307542
18071         c3    687    ccc     C2  18071 0.30606500  12.010000   ; qtot -0.001477
18072         h1    687    ccc     H1  18072 0.11662300   1.008000   ; qtot 0.115146
18073         h1    687    ccc     H2  18073 0.11526800   1.008000   ; qtot 0.230414
18074         c3    687    ccc     C3  18074 0.15592700  12.010000   ; qtot 0.386341
18075         c3    687    ccc     C4  18075 0.28383300  12.010000   ; qtot 0.670174
18076         c3    687    ccc     C5  18076 0.32403300  12.010000   ; qtot 0.994207
18077         h1    687    ccc     H3  18077 0.13386900   1.008000   ; qtot 1.128076
18078         h1    687    ccc     H4  18078 0.10146700   1.008000   ; qtot 1.229543
18079         h2    687    ccc     H5  18079 0.10960400   1.008000   ; qtot 1.339147
18080         os    687    ccc     O1  18080 -0.28650000  16.000000   ; qtot 1.052647
18081         oh    687    ccc     O2  18081 -0.86012500  16.000000   ; qtot 0.192522
18082         oh    687    ccc     O3  18082 -0.83772800  16.000000   ; qtot -0.645206
18083         oh    687    ccc     O4  18083 -0.77449700  16.000000   ; qtot -1.419703
18084         c3    687    ccc     C6  18084 0.37576500  12.010000   ; qtot -1.043938
18085         ho    687    ccc     H6  18085 0.53656000   1.008000   ; qtot -0.507378
18086         ho    687    ccc     H7  18086 0.49492100   1.008000   ; qtot -0.012457
18087         ho    687    ccc     H8  18087 0.51297200   1.008000   ; qtot 0.500515
18088         h1    687    ccc     H9  18088 0.05653400   1.008000   ; qtot 0.557049
18089         h1    687    ccc    H10  18089 0.05653400   1.008000   ; qtot 0.613583
18090         oh    687    ccc     O5  18090 -0.84113600  16.000000   ; qtot -0.227553
18091         ho    687    ccc    H11  18091 0.51201600   1.008000   ; qtot 0.284463
18092         os    687    ccc     O6  18092 -0.26013600  16.000000   ; qtot 0.024327
; residue  688 ccc rtp ccc q 0.0
18093         c3    688    ccc     C1  18093 -0.33178800  12.010000   ; qtot -0.307461
18094         c3    688    ccc     C2  18094 0.30606500  12.010000   ; qtot -0.001396
18095         h1    688    ccc     H1  18095 0.11662300   1.008000   ; qtot 0.115227
18096         h1    688    ccc     H2  18096 0.11526800   1.008000   ; qtot 0.230495
18097         c3    688    ccc     C3  18097 0.15592700  12.010000   ; qtot 0.386422
18098         c3    688    ccc     C4  18098 0.28383300  12.010000   ; qtot 0.670255
18099         c3    688    ccc     C5  18099 0.32403300  12.010000   ; qtot 0.994288
18100         h1    688    ccc     H3  18100 0.13386900   1.008000   ; qtot 1.128157
18101         h1    688    ccc     H4  18101 0.10146700   1.008000   ; qtot 1.229624
18102         h2    688    ccc     H5  18102 0.10960400   1.008000   ; qtot 1.339228
18103         os    688    ccc     O1  18103 -0.28650000  16.000000   ; qtot 1.052728
18104         oh    688    ccc     O2  18104 -0.86012500  16.000000   ; qtot 0.192603
18105         oh    688    ccc     O3  18105 -0.83772800  16.000000   ; qtot -0.645125
18106         oh    688    ccc     O4  18106 -0.77449700  16.000000   ; qtot -1.419622
18107         c3    688    ccc     C6  18107 0.37576500  12.010000   ; qtot -1.043857
18108         ho    688    ccc     H6  18108 0.53656000   1.008000   ; qtot -0.507297
18109         ho    688    ccc     H7  18109 0.49492100   1.008000   ; qtot -0.012376
18110         ho    688    ccc     H8  18110 0.51297200   1.008000   ; qtot 0.500596
18111         h1    688    ccc     H9  18111 0.05653400   1.008000   ; qtot 0.557130
18112         h1    688    ccc    H10  18112 0.05653400   1.008000   ; qtot 0.613664
18113         oh    688    ccc     O5  18113 -0.84113600  16.000000   ; qtot -0.227472
18114         ho    688    ccc    H11  18114 0.51201600   1.008000   ; qtot 0.284544
18115         os    688    ccc     O6  18115 -0.26013600  16.000000   ; qtot 0.024408
; residue  689 ccc rtp ccc q 0.0
18116         c3    689    ccc     C1  18116 -0.33178800  12.010000   ; qtot -0.307380
18117         c3    689    ccc     C2  18117 0.30606500  12.010000   ; qtot -0.001315
18118         h1    689    ccc     H1  18118 0.11662300   1.008000   ; qtot 0.115308
18119         h1    689    ccc     H2  18119 0.11526800   1.008000   ; qtot 0.230576
18120         c3    689    ccc     C3  18120 0.15592700  12.010000   ; qtot 0.386503
18121         c3    689    ccc     C4  18121 0.28383300  12.010000   ; qtot 0.670336
18122         c3    689    ccc     C5  18122 0.32403300  12.010000   ; qtot 0.994369
18123         h1    689    ccc     H3  18123 0.13386900   1.008000   ; qtot 1.128238
18124         h1    689    ccc     H4  18124 0.10146700   1.008000   ; qtot 1.229705
18125         h2    689    ccc     H5  18125 0.10960400   1.008000   ; qtot 1.339309
18126         os    689    ccc     O1  18126 -0.28650000  16.000000   ; qtot 1.052809
18127         oh    689    ccc     O2  18127 -0.86012500  16.000000   ; qtot 0.192684
18128         oh    689    ccc     O3  18128 -0.83772800  16.000000   ; qtot -0.645044
18129         oh    689    ccc     O4  18129 -0.77449700  16.000000   ; qtot -1.419541
18130         c3    689    ccc     C6  18130 0.37576500  12.010000   ; qtot -1.043776
18131         ho    689    ccc     H6  18131 0.53656000   1.008000   ; qtot -0.507216
18132         ho    689    ccc     H7  18132 0.49492100   1.008000   ; qtot -0.012295
18133         ho    689    ccc     H8  18133 0.51297200   1.008000   ; qtot 0.500677
18134         h1    689    ccc     H9  18134 0.05653400   1.008000   ; qtot 0.557211
18135         h1    689    ccc    H10  18135 0.05653400   1.008000   ; qtot 0.613745
18136         oh    689    ccc     O5  18136 -0.84113600  16.000000   ; qtot -0.227391
18137         ho    689    ccc    H11  18137 0.51201600   1.008000   ; qtot 0.284625
18138         os    689    ccc     O6  18138 -0.26013600  16.000000   ; qtot 0.024489
; residue  690 ccc rtp ccc q 0.0
18139         c3    690    ccc     C1  18139 -0.33178800  12.010000   ; qtot -0.307299
18140         c3    690    ccc     C2  18140 0.30606500  12.010000   ; qtot -0.001234
18141         h1    690    ccc     H1  18141 0.11662300   1.008000   ; qtot 0.115389
18142         h1    690    ccc     H2  18142 0.11526800   1.008000   ; qtot 0.230657
18143         c3    690    ccc     C3  18143 0.15592700  12.010000   ; qtot 0.386584
18144         c3    690    ccc     C4  18144 0.28383300  12.010000   ; qtot 0.670417
18145         c3    690    ccc     C5  18145 0.32403300  12.010000   ; qtot 0.994450
18146         h1    690    ccc     H3  18146 0.13386900   1.008000   ; qtot 1.128319
18147         h1    690    ccc     H4  18147 0.10146700   1.008000   ; qtot 1.229786
18148         h2    690    ccc     H5  18148 0.10960400   1.008000   ; qtot 1.339390
18149         os    690    ccc     O1  18149 -0.28650000  16.000000   ; qtot 1.052890
18150         oh    690    ccc     O2  18150 -0.86012500  16.000000   ; qtot 0.192765
18151         oh    690    ccc     O3  18151 -0.83772800  16.000000   ; qtot -0.644963
18152         oh    690    ccc     O4  18152 -0.77449700  16.000000   ; qtot -1.419460
18153         c3    690    ccc     C6  18153 0.37576500  12.010000   ; qtot -1.043695
18154         ho    690    ccc     H6  18154 0.53656000   1.008000   ; qtot -0.507135
18155         ho    690    ccc     H7  18155 0.49492100   1.008000   ; qtot -0.012214
18156         ho    690    ccc     H8  18156 0.51297200   1.008000   ; qtot 0.500758
18157         h1    690    ccc     H9  18157 0.05653400   1.008000   ; qtot 0.557292
18158         h1    690    ccc    H10  18158 0.05653400   1.008000   ; qtot 0.613826
18159         oh    690    ccc     O5  18159 -0.84113600  16.000000   ; qtot -0.227310
18160         ho    690    ccc    H11  18160 0.51201600   1.008000   ; qtot 0.284706
18161         os    690    ccc     O6  18161 -0.26013600  16.000000   ; qtot 0.024570
; residue  691 ccc rtp ccc q 0.0
18162         c3    691    ccc     C1  18162 -0.33178800  12.010000   ; qtot -0.307218
18163         c3    691    ccc     C2  18163 0.30606500  12.010000   ; qtot -0.001153
18164         h1    691    ccc     H1  18164 0.11662300   1.008000   ; qtot 0.115470
18165         h1    691    ccc     H2  18165 0.11526800   1.008000   ; qtot 0.230738
18166         c3    691    ccc     C3  18166 0.15592700  12.010000   ; qtot 0.386665
18167         c3    691    ccc     C4  18167 0.28383300  12.010000   ; qtot 0.670498
18168         c3    691    ccc     C5  18168 0.32403300  12.010000   ; qtot 0.994531
18169         h1    691    ccc     H3  18169 0.13386900   1.008000   ; qtot 1.128400
18170         h1    691    ccc     H4  18170 0.10146700   1.008000   ; qtot 1.229867
18171         h2    691    ccc     H5  18171 0.10960400   1.008000   ; qtot 1.339471
18172         os    691    ccc     O1  18172 -0.28650000  16.000000   ; qtot 1.052971
18173         oh    691    ccc     O2  18173 -0.86012500  16.000000   ; qtot 0.192846
18174         oh    691    ccc     O3  18174 -0.83772800  16.000000   ; qtot -0.644882
18175         oh    691    ccc     O4  18175 -0.77449700  16.000000   ; qtot -1.419379
18176         c3    691    ccc     C6  18176 0.37576500  12.010000   ; qtot -1.043614
18177         ho    691    ccc     H6  18177 0.53656000   1.008000   ; qtot -0.507054
18178         ho    691    ccc     H7  18178 0.49492100   1.008000   ; qtot -0.012133
18179         ho    691    ccc     H8  18179 0.51297200   1.008000   ; qtot 0.500839
18180         h1    691    ccc     H9  18180 0.05653400   1.008000   ; qtot 0.557373
18181         h1    691    ccc    H10  18181 0.05653400   1.008000   ; qtot 0.613907
18182         oh    691    ccc     O5  18182 -0.84113600  16.000000   ; qtot -0.227229
18183         ho    691    ccc    H11  18183 0.51201600   1.008000   ; qtot 0.284787
18184         os    691    ccc     O6  18184 -0.26013600  16.000000   ; qtot 0.024651
; residue  692 ccc rtp ccc q 0.0
18185         c3    692    ccc     C1  18185 -0.33178800  12.010000   ; qtot -0.307137
18186         c3    692    ccc     C2  18186 0.30606500  12.010000   ; qtot -0.001072
18187         h1    692    ccc     H1  18187 0.11662300   1.008000   ; qtot 0.115551
18188         h1    692    ccc     H2  18188 0.11526800   1.008000   ; qtot 0.230819
18189         c3    692    ccc     C3  18189 0.15592700  12.010000   ; qtot 0.386746
18190         c3    692    ccc     C4  18190 0.28383300  12.010000   ; qtot 0.670579
18191         c3    692    ccc     C5  18191 0.32403300  12.010000   ; qtot 0.994612
18192         h1    692    ccc     H3  18192 0.13386900   1.008000   ; qtot 1.128481
18193         h1    692    ccc     H4  18193 0.10146700   1.008000   ; qtot 1.229948
18194         h2    692    ccc     H5  18194 0.10960400   1.008000   ; qtot 1.339552
18195         os    692    ccc     O1  18195 -0.28650000  16.000000   ; qtot 1.053052
18196         oh    692    ccc     O2  18196 -0.86012500  16.000000   ; qtot 0.192927
18197         oh    692    ccc     O3  18197 -0.83772800  16.000000   ; qtot -0.644801
18198         oh    692    ccc     O4  18198 -0.77449700  16.000000   ; qtot -1.419298
18199         c3    692    ccc     C6  18199 0.37576500  12.010000   ; qtot -1.043533
18200         ho    692    ccc     H6  18200 0.53656000   1.008000   ; qtot -0.506973
18201         ho    692    ccc     H7  18201 0.49492100   1.008000   ; qtot -0.012052
18202         ho    692    ccc     H8  18202 0.51297200   1.008000   ; qtot 0.500920
18203         h1    692    ccc     H9  18203 0.05653400   1.008000   ; qtot 0.557454
18204         h1    692    ccc    H10  18204 0.05653400   1.008000   ; qtot 0.613988
18205         oh    692    ccc     O5  18205 -0.84113600  16.000000   ; qtot -0.227148
18206         ho    692    ccc    H11  18206 0.51201600   1.008000   ; qtot 0.284868
18207         os    692    ccc     O6  18207 -0.26013600  16.000000   ; qtot 0.024732
; residue  693 ccc rtp ccc q 0.0
18208         c3    693    ccc     C1  18208 -0.33178800  12.010000   ; qtot -0.307056
18209         c3    693    ccc     C2  18209 0.30606500  12.010000   ; qtot -0.000991
18210         h1    693    ccc     H1  18210 0.11662300   1.008000   ; qtot 0.115632
18211         h1    693    ccc     H2  18211 0.11526800   1.008000   ; qtot 0.230900
18212         c3    693    ccc     C3  18212 0.15592700  12.010000   ; qtot 0.386827
18213         c3    693    ccc     C4  18213 0.28383300  12.010000   ; qtot 0.670660
18214         c3    693    ccc     C5  18214 0.32403300  12.010000   ; qtot 0.994693
18215         h1    693    ccc     H3  18215 0.13386900   1.008000   ; qtot 1.128562
18216         h1    693    ccc     H4  18216 0.10146700   1.008000   ; qtot 1.230029
18217         h2    693    ccc     H5  18217 0.10960400   1.008000   ; qtot 1.339633
18218         os    693    ccc     O1  18218 -0.28650000  16.000000   ; qtot 1.053133
18219         oh    693    ccc     O2  18219 -0.86012500  16.000000   ; qtot 0.193008
18220         oh    693    ccc     O3  18220 -0.83772800  16.000000   ; qtot -0.644720
18221         oh    693    ccc     O4  18221 -0.77449700  16.000000   ; qtot -1.419217
18222         c3    693    ccc     C6  18222 0.37576500  12.010000   ; qtot -1.043452
18223         ho    693    ccc     H6  18223 0.53656000   1.008000   ; qtot -0.506892
18224         ho    693    ccc     H7  18224 0.49492100   1.008000   ; qtot -0.011971
18225         ho    693    ccc     H8  18225 0.51297200   1.008000   ; qtot 0.501001
18226         h1    693    ccc     H9  18226 0.05653400   1.008000   ; qtot 0.557535
18227         h1    693    ccc    H10  18227 0.05653400   1.008000   ; qtot 0.614069
18228         oh    693    ccc     O5  18228 -0.84113600  16.000000   ; qtot -0.227067
18229         ho    693    ccc    H11  18229 0.51201600   1.008000   ; qtot 0.284949
18230         os    693    ccc     O6  18230 -0.26013600  16.000000   ; qtot 0.024813
; residue  694 ccc rtp ccc q 0.0
18231         c3    694    ccc     C1  18231 -0.33178800  12.010000   ; qtot -0.306975
18232         c3    694    ccc     C2  18232 0.30606500  12.010000   ; qtot -0.000910
18233         h1    694    ccc     H1  18233 0.11662300   1.008000   ; qtot 0.115713
18234         h1    694    ccc     H2  18234 0.11526800   1.008000   ; qtot 0.230981
18235         c3    694    ccc     C3  18235 0.15592700  12.010000   ; qtot 0.386908
18236         c3    694    ccc     C4  18236 0.28383300  12.010000   ; qtot 0.670741
18237         c3    694    ccc     C5  18237 0.32403300  12.010000   ; qtot 0.994774
18238         h1    694    ccc     H3  18238 0.13386900   1.008000   ; qtot 1.128643
18239         h1    694    ccc     H4  18239 0.10146700   1.008000   ; qtot 1.230110
18240         h2    694    ccc     H5  18240 0.10960400   1.008000   ; qtot 1.339714
18241         os    694    ccc     O1  18241 -0.28650000  16.000000   ; qtot 1.053214
18242         oh    694    ccc     O2  18242 -0.86012500  16.000000   ; qtot 0.193089
18243         oh    694    ccc     O3  18243 -0.83772800  16.000000   ; qtot -0.644639
18244         oh    694    ccc     O4  18244 -0.77449700  16.000000   ; qtot -1.419136
18245         c3    694    ccc     C6  18245 0.37576500  12.010000   ; qtot -1.043371
18246         ho    694    ccc     H6  18246 0.53656000   1.008000   ; qtot -0.506811
18247         ho    694    ccc     H7  18247 0.49492100   1.008000   ; qtot -0.011890
18248         ho    694    ccc     H8  18248 0.51297200   1.008000   ; qtot 0.501082
18249         h1    694    ccc     H9  18249 0.05653400   1.008000   ; qtot 0.557616
18250         h1    694    ccc    H10  18250 0.05653400   1.008000   ; qtot 0.614150
18251         oh    694    ccc     O5  18251 -0.84113600  16.000000   ; qtot -0.226986
18252         ho    694    ccc    H11  18252 0.51201600   1.008000   ; qtot 0.285030
18253         os    694    ccc     O6  18253 -0.26013600  16.000000   ; qtot 0.024894
; residue  695 ccc rtp ccc q 0.0
18254         c3    695    ccc     C1  18254 -0.33178800  12.010000   ; qtot -0.306894
18255         c3    695    ccc     C2  18255 0.30606500  12.010000   ; qtot -0.000829
18256         h1    695    ccc     H1  18256 0.11662300   1.008000   ; qtot 0.115794
18257         h1    695    ccc     H2  18257 0.11526800   1.008000   ; qtot 0.231062
18258         c3    695    ccc     C3  18258 0.15592700  12.010000   ; qtot 0.386989
18259         c3    695    ccc     C4  18259 0.28383300  12.010000   ; qtot 0.670822
18260         c3    695    ccc     C5  18260 0.32403300  12.010000   ; qtot 0.994855
18261         h1    695    ccc     H3  18261 0.13386900   1.008000   ; qtot 1.128724
18262         h1    695    ccc     H4  18262 0.10146700   1.008000   ; qtot 1.230191
18263         h2    695    ccc     H5  18263 0.10960400   1.008000   ; qtot 1.339795
18264         os    695    ccc     O1  18264 -0.28650000  16.000000   ; qtot 1.053295
18265         oh    695    ccc     O2  18265 -0.86012500  16.000000   ; qtot 0.193170
18266         oh    695    ccc     O3  18266 -0.83772800  16.000000   ; qtot -0.644558
18267         oh    695    ccc     O4  18267 -0.77449700  16.000000   ; qtot -1.419055
18268         c3    695    ccc     C6  18268 0.37576500  12.010000   ; qtot -1.043290
18269         ho    695    ccc     H6  18269 0.53656000   1.008000   ; qtot -0.506730
18270         ho    695    ccc     H7  18270 0.49492100   1.008000   ; qtot -0.011809
18271         ho    695    ccc     H8  18271 0.51297200   1.008000   ; qtot 0.501163
18272         h1    695    ccc     H9  18272 0.05653400   1.008000   ; qtot 0.557697
18273         h1    695    ccc    H10  18273 0.05653400   1.008000   ; qtot 0.614231
18274         oh    695    ccc     O5  18274 -0.84113600  16.000000   ; qtot -0.226905
18275         ho    695    ccc    H11  18275 0.51201600   1.008000   ; qtot 0.285111
18276         os    695    ccc     O6  18276 -0.26013600  16.000000   ; qtot 0.024975
; residue  696 ccc rtp ccc q 0.0
18277         c3    696    ccc     C1  18277 -0.33178800  12.010000   ; qtot -0.306813
18278         c3    696    ccc     C2  18278 0.30606500  12.010000   ; qtot -0.000748
18279         h1    696    ccc     H1  18279 0.11662300   1.008000   ; qtot 0.115875
18280         h1    696    ccc     H2  18280 0.11526800   1.008000   ; qtot 0.231143
18281         c3    696    ccc     C3  18281 0.15592700  12.010000   ; qtot 0.387070
18282         c3    696    ccc     C4  18282 0.28383300  12.010000   ; qtot 0.670903
18283         c3    696    ccc     C5  18283 0.32403300  12.010000   ; qtot 0.994936
18284         h1    696    ccc     H3  18284 0.13386900   1.008000   ; qtot 1.128805
18285         h1    696    ccc     H4  18285 0.10146700   1.008000   ; qtot 1.230272
18286         h2    696    ccc     H5  18286 0.10960400   1.008000   ; qtot 1.339876
18287         os    696    ccc     O1  18287 -0.28650000  16.000000   ; qtot 1.053376
18288         oh    696    ccc     O2  18288 -0.86012500  16.000000   ; qtot 0.193251
18289         oh    696    ccc     O3  18289 -0.83772800  16.000000   ; qtot -0.644477
18290         oh    696    ccc     O4  18290 -0.77449700  16.000000   ; qtot -1.418974
18291         c3    696    ccc     C6  18291 0.37576500  12.010000   ; qtot -1.043209
18292         ho    696    ccc     H6  18292 0.53656000   1.008000   ; qtot -0.506649
18293         ho    696    ccc     H7  18293 0.49492100   1.008000   ; qtot -0.011728
18294         ho    696    ccc     H8  18294 0.51297200   1.008000   ; qtot 0.501244
18295         h1    696    ccc     H9  18295 0.05653400   1.008000   ; qtot 0.557778
18296         h1    696    ccc    H10  18296 0.05653400   1.008000   ; qtot 0.614312
18297         oh    696    ccc     O5  18297 -0.84113600  16.000000   ; qtot -0.226824
18298         ho    696    ccc    H11  18298 0.51201600   1.008000   ; qtot 0.285192
18299         os    696    ccc     O6  18299 -0.26013600  16.000000   ; qtot 0.025056
; residue  697 ccc rtp ccc q 0.0
18300         c3    697    ccc     C1  18300 -0.33178800  12.010000   ; qtot -0.306732
18301         c3    697    ccc     C2  18301 0.30606500  12.010000   ; qtot -0.000667
18302         h1    697    ccc     H1  18302 0.11662300   1.008000   ; qtot 0.115956
18303         h1    697    ccc     H2  18303 0.11526800   1.008000   ; qtot 0.231224
18304         c3    697    ccc     C3  18304 0.15592700  12.010000   ; qtot 0.387151
18305         c3    697    ccc     C4  18305 0.28383300  12.010000   ; qtot 0.670984
18306         c3    697    ccc     C5  18306 0.32403300  12.010000   ; qtot 0.995017
18307         h1    697    ccc     H3  18307 0.13386900   1.008000   ; qtot 1.128886
18308         h1    697    ccc     H4  18308 0.10146700   1.008000   ; qtot 1.230353
18309         h2    697    ccc     H5  18309 0.10960400   1.008000   ; qtot 1.339957
18310         os    697    ccc     O1  18310 -0.28650000  16.000000   ; qtot 1.053457
18311         oh    697    ccc     O2  18311 -0.86012500  16.000000   ; qtot 0.193332
18312         oh    697    ccc     O3  18312 -0.83772800  16.000000   ; qtot -0.644396
18313         oh    697    ccc     O4  18313 -0.77449700  16.000000   ; qtot -1.418893
18314         c3    697    ccc     C6  18314 0.37576500  12.010000   ; qtot -1.043128
18315         ho    697    ccc     H6  18315 0.53656000   1.008000   ; qtot -0.506568
18316         ho    697    ccc     H7  18316 0.49492100   1.008000   ; qtot -0.011647
18317         ho    697    ccc     H8  18317 0.51297200   1.008000   ; qtot 0.501325
18318         h1    697    ccc     H9  18318 0.05653400   1.008000   ; qtot 0.557859
18319         h1    697    ccc    H10  18319 0.05653400   1.008000   ; qtot 0.614393
18320         oh    697    ccc     O5  18320 -0.84113600  16.000000   ; qtot -0.226743
18321         ho    697    ccc    H11  18321 0.51201600   1.008000   ; qtot 0.285273
18322         os    697    ccc     O6  18322 -0.26013600  16.000000   ; qtot 0.025137
; residue  698 ccc rtp ccc q 0.0
18323         c3    698    ccc     C1  18323 -0.33178800  12.010000   ; qtot -0.306651
18324         c3    698    ccc     C2  18324 0.30606500  12.010000   ; qtot -0.000586
18325         h1    698    ccc     H1  18325 0.11662300   1.008000   ; qtot 0.116037
18326         h1    698    ccc     H2  18326 0.11526800   1.008000   ; qtot 0.231305
18327         c3    698    ccc     C3  18327 0.15592700  12.010000   ; qtot 0.387232
18328         c3    698    ccc     C4  18328 0.28383300  12.010000   ; qtot 0.671065
18329         c3    698    ccc     C5  18329 0.32403300  12.010000   ; qtot 0.995098
18330         h1    698    ccc     H3  18330 0.13386900   1.008000   ; qtot 1.128967
18331         h1    698    ccc     H4  18331 0.10146700   1.008000   ; qtot 1.230434
18332         h2    698    ccc     H5  18332 0.10960400   1.008000   ; qtot 1.340038
18333         os    698    ccc     O1  18333 -0.28650000  16.000000   ; qtot 1.053538
18334         oh    698    ccc     O2  18334 -0.86012500  16.000000   ; qtot 0.193413
18335         oh    698    ccc     O3  18335 -0.83772800  16.000000   ; qtot -0.644315
18336         oh    698    ccc     O4  18336 -0.77449700  16.000000   ; qtot -1.418812
18337         c3    698    ccc     C6  18337 0.37576500  12.010000   ; qtot -1.043047
18338         ho    698    ccc     H6  18338 0.53656000   1.008000   ; qtot -0.506487
18339         ho    698    ccc     H7  18339 0.49492100   1.008000   ; qtot -0.011566
18340         ho    698    ccc     H8  18340 0.51297200   1.008000   ; qtot 0.501406
18341         h1    698    ccc     H9  18341 0.05653400   1.008000   ; qtot 0.557940
18342         h1    698    ccc    H10  18342 0.05653400   1.008000   ; qtot 0.614474
18343         oh    698    ccc     O5  18343 -0.84113600  16.000000   ; qtot -0.226662
18344         ho    698    ccc    H11  18344 0.51201600   1.008000   ; qtot 0.285354
18345         os    698    ccc     O6  18345 -0.26013600  16.000000   ; qtot 0.025218
; residue  699 ccc rtp ccc q 0.0
18346         c3    699    ccc     C1  18346 -0.33178800  12.010000   ; qtot -0.306570
18347         c3    699    ccc     C2  18347 0.30606500  12.010000   ; qtot -0.000505
18348         h1    699    ccc     H1  18348 0.11662300   1.008000   ; qtot 0.116118
18349         h1    699    ccc     H2  18349 0.11526800   1.008000   ; qtot 0.231386
18350         c3    699    ccc     C3  18350 0.15592700  12.010000   ; qtot 0.387313
18351         c3    699    ccc     C4  18351 0.28383300  12.010000   ; qtot 0.671146
18352         c3    699    ccc     C5  18352 0.32403300  12.010000   ; qtot 0.995179
18353         h1    699    ccc     H3  18353 0.13386900   1.008000   ; qtot 1.129048
18354         h1    699    ccc     H4  18354 0.10146700   1.008000   ; qtot 1.230515
18355         h2    699    ccc     H5  18355 0.10960400   1.008000   ; qtot 1.340119
18356         os    699    ccc     O1  18356 -0.28650000  16.000000   ; qtot 1.053619
18357         oh    699    ccc     O2  18357 -0.86012500  16.000000   ; qtot 0.193494
18358         oh    699    ccc     O3  18358 -0.83772800  16.000000   ; qtot -0.644234
18359         oh    699    ccc     O4  18359 -0.77449700  16.000000   ; qtot -1.418731
18360         c3    699    ccc     C6  18360 0.37576500  12.010000   ; qtot -1.042966
18361         ho    699    ccc     H6  18361 0.53656000   1.008000   ; qtot -0.506406
18362         ho    699    ccc     H7  18362 0.49492100   1.008000   ; qtot -0.011485
18363         ho    699    ccc     H8  18363 0.51297200   1.008000   ; qtot 0.501487
18364         h1    699    ccc     H9  18364 0.05653400   1.008000   ; qtot 0.558021
18365         h1    699    ccc    H10  18365 0.05653400   1.008000   ; qtot 0.614555
18366         oh    699    ccc     O5  18366 -0.84113600  16.000000   ; qtot -0.226581
18367         ho    699    ccc    H11  18367 0.51201600   1.008000   ; qtot 0.285435
18368         os    699    ccc     O6  18368 -0.26013600  16.000000   ; qtot 0.025299
; residue  700 ccc rtp ccc q 0.0
18369         c3    700    ccc     C1  18369 -0.33178800  12.010000   ; qtot -0.306489
18370         c3    700    ccc     C2  18370 0.30606500  12.010000   ; qtot -0.000424
18371         h1    700    ccc     H1  18371 0.11662300   1.008000   ; qtot 0.116199
18372         h1    700    ccc     H2  18372 0.11526800   1.008000   ; qtot 0.231467
18373         c3    700    ccc     C3  18373 0.15592700  12.010000   ; qtot 0.387394
18374         c3    700    ccc     C4  18374 0.28383300  12.010000   ; qtot 0.671227
18375         c3    700    ccc     C5  18375 0.32403300  12.010000   ; qtot 0.995260
18376         h1    700    ccc     H3  18376 0.13386900   1.008000   ; qtot 1.129129
18377         h1    700    ccc     H4  18377 0.10146700   1.008000   ; qtot 1.230596
18378         h2    700    ccc     H5  18378 0.10960400   1.008000   ; qtot 1.340200
18379         os    700    ccc     O1  18379 -0.28650000  16.000000   ; qtot 1.053700
18380         oh    700    ccc     O2  18380 -0.86012500  16.000000   ; qtot 0.193575
18381         oh    700    ccc     O3  18381 -0.83772800  16.000000   ; qtot -0.644153
18382         oh    700    ccc     O4  18382 -0.77449700  16.000000   ; qtot -1.418650
18383         c3    700    ccc     C6  18383 0.37576500  12.010000   ; qtot -1.042885
18384         ho    700    ccc     H6  18384 0.53656000   1.008000   ; qtot -0.506325
18385         ho    700    ccc     H7  18385 0.49492100   1.008000   ; qtot -0.011404
18386         ho    700    ccc     H8  18386 0.51297200   1.008000   ; qtot 0.501568
18387         h1    700    ccc     H9  18387 0.05653400   1.008000   ; qtot 0.558102
18388         h1    700    ccc    H10  18388 0.05653400   1.008000   ; qtot 0.614636
18389         oh    700    ccc     O5  18389 -0.84113600  16.000000   ; qtot -0.226500
18390         ho    700    ccc    H11  18390 0.51201600   1.008000   ; qtot 0.285516
18391         os    700    ccc     O6  18391 -0.26013600  16.000000   ; qtot 0.025380
; residue  701 ccc rtp ccc q 0.0
18392         c3    701    ccc     C1  18392 -0.33178800  12.010000   ; qtot -0.306408
18393         c3    701    ccc     C2  18393 0.30606500  12.010000   ; qtot -0.000343
18394         h1    701    ccc     H1  18394 0.11662300   1.008000   ; qtot 0.116280
18395         h1    701    ccc     H2  18395 0.11526800   1.008000   ; qtot 0.231548
18396         c3    701    ccc     C3  18396 0.15592700  12.010000   ; qtot 0.387475
18397         c3    701    ccc     C4  18397 0.28383300  12.010000   ; qtot 0.671308
18398         c3    701    ccc     C5  18398 0.32403300  12.010000   ; qtot 0.995341
18399         h1    701    ccc     H3  18399 0.13386900   1.008000   ; qtot 1.129210
18400         h1    701    ccc     H4  18400 0.10146700   1.008000   ; qtot 1.230677
18401         h2    701    ccc     H5  18401 0.10960400   1.008000   ; qtot 1.340281
18402         os    701    ccc     O1  18402 -0.28650000  16.000000   ; qtot 1.053781
18403         oh    701    ccc     O2  18403 -0.86012500  16.000000   ; qtot 0.193656
18404         oh    701    ccc     O3  18404 -0.83772800  16.000000   ; qtot -0.644072
18405         oh    701    ccc     O4  18405 -0.77449700  16.000000   ; qtot -1.418569
18406         c3    701    ccc     C6  18406 0.37576500  12.010000   ; qtot -1.042804
18407         ho    701    ccc     H6  18407 0.53656000   1.008000   ; qtot -0.506244
18408         ho    701    ccc     H7  18408 0.49492100   1.008000   ; qtot -0.011323
18409         ho    701    ccc     H8  18409 0.51297200   1.008000   ; qtot 0.501649
18410         h1    701    ccc     H9  18410 0.05653400   1.008000   ; qtot 0.558183
18411         h1    701    ccc    H10  18411 0.05653400   1.008000   ; qtot 0.614717
18412         oh    701    ccc     O5  18412 -0.84113600  16.000000   ; qtot -0.226419
18413         ho    701    ccc    H11  18413 0.51201600   1.008000   ; qtot 0.285597
18414         os    701    ccc     O6  18414 -0.26013600  16.000000   ; qtot 0.025461
; residue  702 ccc rtp ccc q 0.0
18415         c3    702    ccc     C1  18415 -0.33178800  12.010000   ; qtot -0.306327
18416         c3    702    ccc     C2  18416 0.30606500  12.010000   ; qtot -0.000262
18417         h1    702    ccc     H1  18417 0.11662300   1.008000   ; qtot 0.116361
18418         h1    702    ccc     H2  18418 0.11526800   1.008000   ; qtot 0.231629
18419         c3    702    ccc     C3  18419 0.15592700  12.010000   ; qtot 0.387556
18420         c3    702    ccc     C4  18420 0.28383300  12.010000   ; qtot 0.671389
18421         c3    702    ccc     C5  18421 0.32403300  12.010000   ; qtot 0.995422
18422         h1    702    ccc     H3  18422 0.13386900   1.008000   ; qtot 1.129291
18423         h1    702    ccc     H4  18423 0.10146700   1.008000   ; qtot 1.230758
18424         h2    702    ccc     H5  18424 0.10960400   1.008000   ; qtot 1.340362
18425         os    702    ccc     O1  18425 -0.28650000  16.000000   ; qtot 1.053862
18426         oh    702    ccc     O2  18426 -0.86012500  16.000000   ; qtot 0.193737
18427         oh    702    ccc     O3  18427 -0.83772800  16.000000   ; qtot -0.643991
18428         oh    702    ccc     O4  18428 -0.77449700  16.000000   ; qtot -1.418488
18429         c3    702    ccc     C6  18429 0.37576500  12.010000   ; qtot -1.042723
18430         ho    702    ccc     H6  18430 0.53656000   1.008000   ; qtot -0.506163
18431         ho    702    ccc     H7  18431 0.49492100   1.008000   ; qtot -0.011242
18432         ho    702    ccc     H8  18432 0.51297200   1.008000   ; qtot 0.501730
18433         h1    702    ccc     H9  18433 0.05653400   1.008000   ; qtot 0.558264
18434         h1    702    ccc    H10  18434 0.05653400   1.008000   ; qtot 0.614798
18435         oh    702    ccc     O5  18435 -0.84113600  16.000000   ; qtot -0.226338
18436         ho    702    ccc    H11  18436 0.51201600   1.008000   ; qtot 0.285678
18437         os    702    ccc     O6  18437 -0.26013600  16.000000   ; qtot 0.025542
; residue  703 ccc rtp ccc q 0.0
18438         c3    703    ccc     C1  18438 -0.33178800  12.010000   ; qtot -0.306246
18439         c3    703    ccc     C2  18439 0.30606500  12.010000   ; qtot -0.000181
18440         h1    703    ccc     H1  18440 0.11662300   1.008000   ; qtot 0.116442
18441         h1    703    ccc     H2  18441 0.11526800   1.008000   ; qtot 0.231710
18442         c3    703    ccc     C3  18442 0.15592700  12.010000   ; qtot 0.387637
18443         c3    703    ccc     C4  18443 0.28383300  12.010000   ; qtot 0.671470
18444         c3    703    ccc     C5  18444 0.32403300  12.010000   ; qtot 0.995503
18445         h1    703    ccc     H3  18445 0.13386900   1.008000   ; qtot 1.129372
18446         h1    703    ccc     H4  18446 0.10146700   1.008000   ; qtot 1.230839
18447         h2    703    ccc     H5  18447 0.10960400   1.008000   ; qtot 1.340443
18448         os    703    ccc     O1  18448 -0.28650000  16.000000   ; qtot 1.053943
18449         oh    703    ccc     O2  18449 -0.86012500  16.000000   ; qtot 0.193818
18450         oh    703    ccc     O3  18450 -0.83772800  16.000000   ; qtot -0.643910
18451         oh    703    ccc     O4  18451 -0.77449700  16.000000   ; qtot -1.418407
18452         c3    703    ccc     C6  18452 0.37576500  12.010000   ; qtot -1.042642
18453         ho    703    ccc     H6  18453 0.53656000   1.008000   ; qtot -0.506082
18454         ho    703    ccc     H7  18454 0.49492100   1.008000   ; qtot -0.011161
18455         ho    703    ccc     H8  18455 0.51297200   1.008000   ; qtot 0.501811
18456         h1    703    ccc     H9  18456 0.05653400   1.008000   ; qtot 0.558345
18457         h1    703    ccc    H10  18457 0.05653400   1.008000   ; qtot 0.614879
18458         oh    703    ccc     O5  18458 -0.84113600  16.000000   ; qtot -0.226257
18459         ho    703    ccc    H11  18459 0.51201600   1.008000   ; qtot 0.285759
18460         os    703    ccc     O6  18460 -0.26013600  16.000000   ; qtot 0.025623
; residue  704 ccc rtp ccc q 0.0
18461         c3    704    ccc     C1  18461 -0.33178800  12.010000   ; qtot -0.306165
18462         c3    704    ccc     C2  18462 0.30606500  12.010000   ; qtot -0.000100
18463         h1    704    ccc     H1  18463 0.11662300   1.008000   ; qtot 0.116523
18464         h1    704    ccc     H2  18464 0.11526800   1.008000   ; qtot 0.231791
18465         c3    704    ccc     C3  18465 0.15592700  12.010000   ; qtot 0.387718
18466         c3    704    ccc     C4  18466 0.28383300  12.010000   ; qtot 0.671551
18467         c3    704    ccc     C5  18467 0.32403300  12.010000   ; qtot 0.995584
18468         h1    704    ccc     H3  18468 0.13386900   1.008000   ; qtot 1.129453
18469         h1    704    ccc     H4  18469 0.10146700   1.008000   ; qtot 1.230920
18470         h2    704    ccc     H5  18470 0.10960400   1.008000   ; qtot 1.340524
18471         os    704    ccc     O1  18471 -0.28650000  16.000000   ; qtot 1.054024
18472         oh    704    ccc     O2  18472 -0.86012500  16.000000   ; qtot 0.193899
18473         oh    704    ccc     O3  18473 -0.83772800  16.000000   ; qtot -0.643829
18474         oh    704    ccc     O4  18474 -0.77449700  16.000000   ; qtot -1.418326
18475         c3    704    ccc     C6  18475 0.37576500  12.010000   ; qtot -1.042561
18476         ho    704    ccc     H6  18476 0.53656000   1.008000   ; qtot -0.506001
18477         ho    704    ccc     H7  18477 0.49492100   1.008000   ; qtot -0.011080
18478         ho    704    ccc     H8  18478 0.51297200   1.008000   ; qtot 0.501892
18479         h1    704    ccc     H9  18479 0.05653400   1.008000   ; qtot 0.558426
18480         h1    704    ccc    H10  18480 0.05653400   1.008000   ; qtot 0.614960
18481         oh    704    ccc     O5  18481 -0.84113600  16.000000   ; qtot -0.226176
18482         ho    704    ccc    H11  18482 0.51201600   1.008000   ; qtot 0.285840
18483         os    704    ccc     O6  18483 -0.26013600  16.000000   ; qtot 0.025704
; residue  705 ccc rtp ccc q 0.0
18484         c3    705    ccc     C1  18484 -0.33178800  12.010000   ; qtot -0.306084
18485         c3    705    ccc     C2  18485 0.30606500  12.010000   ; qtot -0.000019
18486         h1    705    ccc     H1  18486 0.11662300   1.008000   ; qtot 0.116604
18487         h1    705    ccc     H2  18487 0.11526800   1.008000   ; qtot 0.231872
18488         c3    705    ccc     C3  18488 0.15592700  12.010000   ; qtot 0.387799
18489         c3    705    ccc     C4  18489 0.28383300  12.010000   ; qtot 0.671632
18490         c3    705    ccc     C5  18490 0.32403300  12.010000   ; qtot 0.995665
18491         h1    705    ccc     H3  18491 0.13386900   1.008000   ; qtot 1.129534
18492         h1    705    ccc     H4  18492 0.10146700   1.008000   ; qtot 1.231001
18493         h2    705    ccc     H5  18493 0.10960400   1.008000   ; qtot 1.340605
18494         os    705    ccc     O1  18494 -0.28650000  16.000000   ; qtot 1.054105
18495         oh    705    ccc     O2  18495 -0.86012500  16.000000   ; qtot 0.193980
18496         oh    705    ccc     O3  18496 -0.83772800  16.000000   ; qtot -0.643748
18497         oh    705    ccc     O4  18497 -0.77449700  16.000000   ; qtot -1.418245
18498         c3    705    ccc     C6  18498 0.37576500  12.010000   ; qtot -1.042480
18499         ho    705    ccc     H6  18499 0.53656000   1.008000   ; qtot -0.505920
18500         ho    705    ccc     H7  18500 0.49492100   1.008000   ; qtot -0.010999
18501         ho    705    ccc     H8  18501 0.51297200   1.008000   ; qtot 0.501973
18502         h1    705    ccc     H9  18502 0.05653400   1.008000   ; qtot 0.558507
18503         h1    705    ccc    H10  18503 0.05653400   1.008000   ; qtot 0.615041
18504         oh    705    ccc     O5  18504 -0.84113600  16.000000   ; qtot -0.226095
18505         ho    705    ccc    H11  18505 0.51201600   1.008000   ; qtot 0.285921
18506         os    705    ccc     O6  18506 -0.26013600  16.000000   ; qtot 0.025785
; residue  706 ccc rtp ccc q 0.0
18507         c3    706    ccc     C1  18507 -0.33178800  12.010000   ; qtot -0.306003
18508         c3    706    ccc     C2  18508 0.30606500  12.010000   ; qtot 0.000062
18509         h1    706    ccc     H1  18509 0.11662300   1.008000   ; qtot 0.116685
18510         h1    706    ccc     H2  18510 0.11526800   1.008000   ; qtot 0.231953
18511         c3    706    ccc     C3  18511 0.15592700  12.010000   ; qtot 0.387880
18512         c3    706    ccc     C4  18512 0.28383300  12.010000   ; qtot 0.671713
18513         c3    706    ccc     C5  18513 0.32403300  12.010000   ; qtot 0.995746
18514         h1    706    ccc     H3  18514 0.13386900   1.008000   ; qtot 1.129615
18515         h1    706    ccc     H4  18515 0.10146700   1.008000   ; qtot 1.231082
18516         h2    706    ccc     H5  18516 0.10960400   1.008000   ; qtot 1.340686
18517         os    706    ccc     O1  18517 -0.28650000  16.000000   ; qtot 1.054186
18518         oh    706    ccc     O2  18518 -0.86012500  16.000000   ; qtot 0.194061
18519         oh    706    ccc     O3  18519 -0.83772800  16.000000   ; qtot -0.643667
18520         oh    706    ccc     O4  18520 -0.77449700  16.000000   ; qtot -1.418164
18521         c3    706    ccc     C6  18521 0.37576500  12.010000   ; qtot -1.042399
18522         ho    706    ccc     H6  18522 0.53656000   1.008000   ; qtot -0.505839
18523         ho    706    ccc     H7  18523 0.49492100   1.008000   ; qtot -0.010918
18524         ho    706    ccc     H8  18524 0.51297200   1.008000   ; qtot 0.502054
18525         h1    706    ccc     H9  18525 0.05653400   1.008000   ; qtot 0.558588
18526         h1    706    ccc    H10  18526 0.05653400   1.008000   ; qtot 0.615122
18527         oh    706    ccc     O5  18527 -0.84113600  16.000000   ; qtot -0.226014
18528         ho    706    ccc    H11  18528 0.51201600   1.008000   ; qtot 0.286002
18529         os    706    ccc     O6  18529 -0.26013600  16.000000   ; qtot 0.025866
; residue  707 ccc rtp ccc q 0.0
18530         c3    707    ccc     C1  18530 -0.33178800  12.010000   ; qtot -0.305922
18531         c3    707    ccc     C2  18531 0.30606500  12.010000   ; qtot 0.000143
18532         h1    707    ccc     H1  18532 0.11662300   1.008000   ; qtot 0.116766
18533         h1    707    ccc     H2  18533 0.11526800   1.008000   ; qtot 0.232034
18534         c3    707    ccc     C3  18534 0.15592700  12.010000   ; qtot 0.387961
18535         c3    707    ccc     C4  18535 0.28383300  12.010000   ; qtot 0.671794
18536         c3    707    ccc     C5  18536 0.32403300  12.010000   ; qtot 0.995827
18537         h1    707    ccc     H3  18537 0.13386900   1.008000   ; qtot 1.129696
18538         h1    707    ccc     H4  18538 0.10146700   1.008000   ; qtot 1.231163
18539         h2    707    ccc     H5  18539 0.10960400   1.008000   ; qtot 1.340767
18540         os    707    ccc     O1  18540 -0.28650000  16.000000   ; qtot 1.054267
18541         oh    707    ccc     O2  18541 -0.86012500  16.000000   ; qtot 0.194142
18542         oh    707    ccc     O3  18542 -0.83772800  16.000000   ; qtot -0.643586
18543         oh    707    ccc     O4  18543 -0.77449700  16.000000   ; qtot -1.418083
18544         c3    707    ccc     C6  18544 0.37576500  12.010000   ; qtot -1.042318
18545         ho    707    ccc     H6  18545 0.53656000   1.008000   ; qtot -0.505758
18546         ho    707    ccc     H7  18546 0.49492100   1.008000   ; qtot -0.010837
18547         ho    707    ccc     H8  18547 0.51297200   1.008000   ; qtot 0.502135
18548         h1    707    ccc     H9  18548 0.05653400   1.008000   ; qtot 0.558669
18549         h1    707    ccc    H10  18549 0.05653400   1.008000   ; qtot 0.615203
18550         oh    707    ccc     O5  18550 -0.84113600  16.000000   ; qtot -0.225933
18551         ho    707    ccc    H11  18551 0.51201600   1.008000   ; qtot 0.286083
18552         os    707    ccc     O6  18552 -0.26013600  16.000000   ; qtot 0.025947
; residue  708 ccc rtp ccc q 0.0
18553         c3    708    ccc     C1  18553 -0.33178800  12.010000   ; qtot -0.305841
18554         c3    708    ccc     C2  18554 0.30606500  12.010000   ; qtot 0.000224
18555         h1    708    ccc     H1  18555 0.11662300   1.008000   ; qtot 0.116847
18556         h1    708    ccc     H2  18556 0.11526800   1.008000   ; qtot 0.232115
18557         c3    708    ccc     C3  18557 0.15592700  12.010000   ; qtot 0.388042
18558         c3    708    ccc     C4  18558 0.28383300  12.010000   ; qtot 0.671875
18559         c3    708    ccc     C5  18559 0.32403300  12.010000   ; qtot 0.995908
18560         h1    708    ccc     H3  18560 0.13386900   1.008000   ; qtot 1.129777
18561         h1    708    ccc     H4  18561 0.10146700   1.008000   ; qtot 1.231244
18562         h2    708    ccc     H5  18562 0.10960400   1.008000   ; qtot 1.340848
18563         os    708    ccc     O1  18563 -0.28650000  16.000000   ; qtot 1.054348
18564         oh    708    ccc     O2  18564 -0.86012500  16.000000   ; qtot 0.194223
18565         oh    708    ccc     O3  18565 -0.83772800  16.000000   ; qtot -0.643505
18566         oh    708    ccc     O4  18566 -0.77449700  16.000000   ; qtot -1.418002
18567         c3    708    ccc     C6  18567 0.37576500  12.010000   ; qtot -1.042237
18568         ho    708    ccc     H6  18568 0.53656000   1.008000   ; qtot -0.505677
18569         ho    708    ccc     H7  18569 0.49492100   1.008000   ; qtot -0.010756
18570         ho    708    ccc     H8  18570 0.51297200   1.008000   ; qtot 0.502216
18571         h1    708    ccc     H9  18571 0.05653400   1.008000   ; qtot 0.558750
18572         h1    708    ccc    H10  18572 0.05653400   1.008000   ; qtot 0.615284
18573         oh    708    ccc     O5  18573 -0.84113600  16.000000   ; qtot -0.225852
18574         ho    708    ccc    H11  18574 0.51201600   1.008000   ; qtot 0.286164
18575         os    708    ccc     O6  18575 -0.26013600  16.000000   ; qtot 0.026028
; residue  709 ccc rtp ccc q 0.0
18576         c3    709    ccc     C1  18576 -0.33178800  12.010000   ; qtot -0.305760
18577         c3    709    ccc     C2  18577 0.30606500  12.010000   ; qtot 0.000305
18578         h1    709    ccc     H1  18578 0.11662300   1.008000   ; qtot 0.116928
18579         h1    709    ccc     H2  18579 0.11526800   1.008000   ; qtot 0.232196
18580         c3    709    ccc     C3  18580 0.15592700  12.010000   ; qtot 0.388123
18581         c3    709    ccc     C4  18581 0.28383300  12.010000   ; qtot 0.671956
18582         c3    709    ccc     C5  18582 0.32403300  12.010000   ; qtot 0.995989
18583         h1    709    ccc     H3  18583 0.13386900   1.008000   ; qtot 1.129858
18584         h1    709    ccc     H4  18584 0.10146700   1.008000   ; qtot 1.231325
18585         h2    709    ccc     H5  18585 0.10960400   1.008000   ; qtot 1.340929
18586         os    709    ccc     O1  18586 -0.28650000  16.000000   ; qtot 1.054429
18587         oh    709    ccc     O2  18587 -0.86012500  16.000000   ; qtot 0.194304
18588         oh    709    ccc     O3  18588 -0.83772800  16.000000   ; qtot -0.643424
18589         oh    709    ccc     O4  18589 -0.77449700  16.000000   ; qtot -1.417921
18590         c3    709    ccc     C6  18590 0.37576500  12.010000   ; qtot -1.042156
18591         ho    709    ccc     H6  18591 0.53656000   1.008000   ; qtot -0.505596
18592         ho    709    ccc     H7  18592 0.49492100   1.008000   ; qtot -0.010675
18593         ho    709    ccc     H8  18593 0.51297200   1.008000   ; qtot 0.502297
18594         h1    709    ccc     H9  18594 0.05653400   1.008000   ; qtot 0.558831
18595         h1    709    ccc    H10  18595 0.05653400   1.008000   ; qtot 0.615365
18596         oh    709    ccc     O5  18596 -0.84113600  16.000000   ; qtot -0.225771
18597         ho    709    ccc    H11  18597 0.51201600   1.008000   ; qtot 0.286245
18598         os    709    ccc     O6  18598 -0.26013600  16.000000   ; qtot 0.026109
; residue  710 ccc rtp ccc q 0.0
18599         c3    710    ccc     C1  18599 -0.33178800  12.010000   ; qtot -0.305679
18600         c3    710    ccc     C2  18600 0.30606500  12.010000   ; qtot 0.000386
18601         h1    710    ccc     H1  18601 0.11662300   1.008000   ; qtot 0.117009
18602         h1    710    ccc     H2  18602 0.11526800   1.008000   ; qtot 0.232277
18603         c3    710    ccc     C3  18603 0.15592700  12.010000   ; qtot 0.388204
18604         c3    710    ccc     C4  18604 0.28383300  12.010000   ; qtot 0.672037
18605         c3    710    ccc     C5  18605 0.32403300  12.010000   ; qtot 0.996070
18606         h1    710    ccc     H3  18606 0.13386900   1.008000   ; qtot 1.129939
18607         h1    710    ccc     H4  18607 0.10146700   1.008000   ; qtot 1.231406
18608         h2    710    ccc     H5  18608 0.10960400   1.008000   ; qtot 1.341010
18609         os    710    ccc     O1  18609 -0.28650000  16.000000   ; qtot 1.054510
18610         oh    710    ccc     O2  18610 -0.86012500  16.000000   ; qtot 0.194385
18611         oh    710    ccc     O3  18611 -0.83772800  16.000000   ; qtot -0.643343
18612         oh    710    ccc     O4  18612 -0.77449700  16.000000   ; qtot -1.417840
18613         c3    710    ccc     C6  18613 0.37576500  12.010000   ; qtot -1.042075
18614         ho    710    ccc     H6  18614 0.53656000   1.008000   ; qtot -0.505515
18615         ho    710    ccc     H7  18615 0.49492100   1.008000   ; qtot -0.010594
18616         ho    710    ccc     H8  18616 0.51297200   1.008000   ; qtot 0.502378
18617         h1    710    ccc     H9  18617 0.05653400   1.008000   ; qtot 0.558912
18618         h1    710    ccc    H10  18618 0.05653400   1.008000   ; qtot 0.615446
18619         oh    710    ccc     O5  18619 -0.84113600  16.000000   ; qtot -0.225690
18620         ho    710    ccc    H11  18620 0.51201600   1.008000   ; qtot 0.286326
18621         os    710    ccc     O6  18621 -0.26013600  16.000000   ; qtot 0.026190
; residue  711 ccc rtp ccc q 0.0
18622         c3    711    ccc     C1  18622 -0.33178800  12.010000   ; qtot -0.305598
18623         c3    711    ccc     C2  18623 0.30606500  12.010000   ; qtot 0.000467
18624         h1    711    ccc     H1  18624 0.11662300   1.008000   ; qtot 0.117090
18625         h1    711    ccc     H2  18625 0.11526800   1.008000   ; qtot 0.232358
18626         c3    711    ccc     C3  18626 0.15592700  12.010000   ; qtot 0.388285
18627         c3    711    ccc     C4  18627 0.28383300  12.010000   ; qtot 0.672118
18628         c3    711    ccc     C5  18628 0.32403300  12.010000   ; qtot 0.996151
18629         h1    711    ccc     H3  18629 0.13386900   1.008000   ; qtot 1.130020
18630         h1    711    ccc     H4  18630 0.10146700   1.008000   ; qtot 1.231487
18631         h2    711    ccc     H5  18631 0.10960400   1.008000   ; qtot 1.341091
18632         os    711    ccc     O1  18632 -0.28650000  16.000000   ; qtot 1.054591
18633         oh    711    ccc     O2  18633 -0.86012500  16.000000   ; qtot 0.194466
18634         oh    711    ccc     O3  18634 -0.83772800  16.000000   ; qtot -0.643262
18635         oh    711    ccc     O4  18635 -0.77449700  16.000000   ; qtot -1.417759
18636         c3    711    ccc     C6  18636 0.37576500  12.010000   ; qtot -1.041994
18637         ho    711    ccc     H6  18637 0.53656000   1.008000   ; qtot -0.505434
18638         ho    711    ccc     H7  18638 0.49492100   1.008000   ; qtot -0.010513
18639         ho    711    ccc     H8  18639 0.51297200   1.008000   ; qtot 0.502459
18640         h1    711    ccc     H9  18640 0.05653400   1.008000   ; qtot 0.558993
18641         h1    711    ccc    H10  18641 0.05653400   1.008000   ; qtot 0.615527
18642         oh    711    ccc     O5  18642 -0.84113600  16.000000   ; qtot -0.225609
18643         ho    711    ccc    H11  18643 0.51201600   1.008000   ; qtot 0.286407
18644         os    711    ccc     O6  18644 -0.26013600  16.000000   ; qtot 0.026271
; residue  712 ccc rtp ccc q 0.0
18645         c3    712    ccc     C1  18645 -0.33178800  12.010000   ; qtot -0.305517
18646         c3    712    ccc     C2  18646 0.30606500  12.010000   ; qtot 0.000548
18647         h1    712    ccc     H1  18647 0.11662300   1.008000   ; qtot 0.117171
18648         h1    712    ccc     H2  18648 0.11526800   1.008000   ; qtot 0.232439
18649         c3    712    ccc     C3  18649 0.15592700  12.010000   ; qtot 0.388366
18650         c3    712    ccc     C4  18650 0.28383300  12.010000   ; qtot 0.672199
18651         c3    712    ccc     C5  18651 0.32403300  12.010000   ; qtot 0.996232
18652         h1    712    ccc     H3  18652 0.13386900   1.008000   ; qtot 1.130101
18653         h1    712    ccc     H4  18653 0.10146700   1.008000   ; qtot 1.231568
18654         h2    712    ccc     H5  18654 0.10960400   1.008000   ; qtot 1.341172
18655         os    712    ccc     O1  18655 -0.28650000  16.000000   ; qtot 1.054672
18656         oh    712    ccc     O2  18656 -0.86012500  16.000000   ; qtot 0.194547
18657         oh    712    ccc     O3  18657 -0.83772800  16.000000   ; qtot -0.643181
18658         oh    712    ccc     O4  18658 -0.77449700  16.000000   ; qtot -1.417678
18659         c3    712    ccc     C6  18659 0.37576500  12.010000   ; qtot -1.041913
18660         ho    712    ccc     H6  18660 0.53656000   1.008000   ; qtot -0.505353
18661         ho    712    ccc     H7  18661 0.49492100   1.008000   ; qtot -0.010432
18662         ho    712    ccc     H8  18662 0.51297200   1.008000   ; qtot 0.502540
18663         h1    712    ccc     H9  18663 0.05653400   1.008000   ; qtot 0.559074
18664         h1    712    ccc    H10  18664 0.05653400   1.008000   ; qtot 0.615608
18665         oh    712    ccc     O5  18665 -0.84113600  16.000000   ; qtot -0.225528
18666         ho    712    ccc    H11  18666 0.51201600   1.008000   ; qtot 0.286488
18667         os    712    ccc     O6  18667 -0.26013600  16.000000   ; qtot 0.026352
; residue  713 ccc rtp ccc q 0.0
18668         c3    713    ccc     C1  18668 -0.33178800  12.010000   ; qtot -0.305436
18669         c3    713    ccc     C2  18669 0.30606500  12.010000   ; qtot 0.000629
18670         h1    713    ccc     H1  18670 0.11662300   1.008000   ; qtot 0.117252
18671         h1    713    ccc     H2  18671 0.11526800   1.008000   ; qtot 0.232520
18672         c3    713    ccc     C3  18672 0.15592700  12.010000   ; qtot 0.388447
18673         c3    713    ccc     C4  18673 0.28383300  12.010000   ; qtot 0.672280
18674         c3    713    ccc     C5  18674 0.32403300  12.010000   ; qtot 0.996313
18675         h1    713    ccc     H3  18675 0.13386900   1.008000   ; qtot 1.130182
18676         h1    713    ccc     H4  18676 0.10146700   1.008000   ; qtot 1.231649
18677         h2    713    ccc     H5  18677 0.10960400   1.008000   ; qtot 1.341253
18678         os    713    ccc     O1  18678 -0.28650000  16.000000   ; qtot 1.054753
18679         oh    713    ccc     O2  18679 -0.86012500  16.000000   ; qtot 0.194628
18680         oh    713    ccc     O3  18680 -0.83772800  16.000000   ; qtot -0.643100
18681         oh    713    ccc     O4  18681 -0.77449700  16.000000   ; qtot -1.417597
18682         c3    713    ccc     C6  18682 0.37576500  12.010000   ; qtot -1.041832
18683         ho    713    ccc     H6  18683 0.53656000   1.008000   ; qtot -0.505272
18684         ho    713    ccc     H7  18684 0.49492100   1.008000   ; qtot -0.010351
18685         ho    713    ccc     H8  18685 0.51297200   1.008000   ; qtot 0.502621
18686         h1    713    ccc     H9  18686 0.05653400   1.008000   ; qtot 0.559155
18687         h1    713    ccc    H10  18687 0.05653400   1.008000   ; qtot 0.615689
18688         oh    713    ccc     O5  18688 -0.84113600  16.000000   ; qtot -0.225447
18689         ho    713    ccc    H11  18689 0.51201600   1.008000   ; qtot 0.286569
18690         os    713    ccc     O6  18690 -0.26013600  16.000000   ; qtot 0.026433
; residue  714 ccc rtp ccc q 0.0
18691         c3    714    ccc     C1  18691 -0.33178800  12.010000   ; qtot -0.305355
18692         c3    714    ccc     C2  18692 0.30606500  12.010000   ; qtot 0.000710
18693         h1    714    ccc     H1  18693 0.11662300   1.008000   ; qtot 0.117333
18694         h1    714    ccc     H2  18694 0.11526800   1.008000   ; qtot 0.232601
18695         c3    714    ccc     C3  18695 0.15592700  12.010000   ; qtot 0.388528
18696         c3    714    ccc     C4  18696 0.28383300  12.010000   ; qtot 0.672361
18697         c3    714    ccc     C5  18697 0.32403300  12.010000   ; qtot 0.996394
18698         h1    714    ccc     H3  18698 0.13386900   1.008000   ; qtot 1.130263
18699         h1    714    ccc     H4  18699 0.10146700   1.008000   ; qtot 1.231730
18700         h2    714    ccc     H5  18700 0.10960400   1.008000   ; qtot 1.341334
18701         os    714    ccc     O1  18701 -0.28650000  16.000000   ; qtot 1.054834
18702         oh    714    ccc     O2  18702 -0.86012500  16.000000   ; qtot 0.194709
18703         oh    714    ccc     O3  18703 -0.83772800  16.000000   ; qtot -0.643019
18704         oh    714    ccc     O4  18704 -0.77449700  16.000000   ; qtot -1.417516
18705         c3    714    ccc     C6  18705 0.37576500  12.010000   ; qtot -1.041751
18706         ho    714    ccc     H6  18706 0.53656000   1.008000   ; qtot -0.505191
18707         ho    714    ccc     H7  18707 0.49492100   1.008000   ; qtot -0.010270
18708         ho    714    ccc     H8  18708 0.51297200   1.008000   ; qtot 0.502702
18709         h1    714    ccc     H9  18709 0.05653400   1.008000   ; qtot 0.559236
18710         h1    714    ccc    H10  18710 0.05653400   1.008000   ; qtot 0.615770
18711         oh    714    ccc     O5  18711 -0.84113600  16.000000   ; qtot -0.225366
18712         ho    714    ccc    H11  18712 0.51201600   1.008000   ; qtot 0.286650
18713         os    714    ccc     O6  18713 -0.26013600  16.000000   ; qtot 0.026514
; residue  715 ccc rtp ccc q 0.0
18714         c3    715    ccc     C1  18714 -0.33178800  12.010000   ; qtot -0.305274
18715         c3    715    ccc     C2  18715 0.30606500  12.010000   ; qtot 0.000791
18716         h1    715    ccc     H1  18716 0.11662300   1.008000   ; qtot 0.117414
18717         h1    715    ccc     H2  18717 0.11526800   1.008000   ; qtot 0.232682
18718         c3    715    ccc     C3  18718 0.15592700  12.010000   ; qtot 0.388609
18719         c3    715    ccc     C4  18719 0.28383300  12.010000   ; qtot 0.672442
18720         c3    715    ccc     C5  18720 0.32403300  12.010000   ; qtot 0.996475
18721         h1    715    ccc     H3  18721 0.13386900   1.008000   ; qtot 1.130344
18722         h1    715    ccc     H4  18722 0.10146700   1.008000   ; qtot 1.231811
18723         h2    715    ccc     H5  18723 0.10960400   1.008000   ; qtot 1.341415
18724         os    715    ccc     O1  18724 -0.28650000  16.000000   ; qtot 1.054915
18725         oh    715    ccc     O2  18725 -0.86012500  16.000000   ; qtot 0.194790
18726         oh    715    ccc     O3  18726 -0.83772800  16.000000   ; qtot -0.642938
18727         oh    715    ccc     O4  18727 -0.77449700  16.000000   ; qtot -1.417435
18728         c3    715    ccc     C6  18728 0.37576500  12.010000   ; qtot -1.041670
18729         ho    715    ccc     H6  18729 0.53656000   1.008000   ; qtot -0.505110
18730         ho    715    ccc     H7  18730 0.49492100   1.008000   ; qtot -0.010189
18731         ho    715    ccc     H8  18731 0.51297200   1.008000   ; qtot 0.502783
18732         h1    715    ccc     H9  18732 0.05653400   1.008000   ; qtot 0.559317
18733         h1    715    ccc    H10  18733 0.05653400   1.008000   ; qtot 0.615851
18734         oh    715    ccc     O5  18734 -0.84113600  16.000000   ; qtot -0.225285
18735         ho    715    ccc    H11  18735 0.51201600   1.008000   ; qtot 0.286731
18736         os    715    ccc     O6  18736 -0.26013600  16.000000   ; qtot 0.026595
; residue  716 ccc rtp ccc q 0.0
18737         c3    716    ccc     C1  18737 -0.33178800  12.010000   ; qtot -0.305193
18738         c3    716    ccc     C2  18738 0.30606500  12.010000   ; qtot 0.000872
18739         h1    716    ccc     H1  18739 0.11662300   1.008000   ; qtot 0.117495
18740         h1    716    ccc     H2  18740 0.11526800   1.008000   ; qtot 0.232763
18741         c3    716    ccc     C3  18741 0.15592700  12.010000   ; qtot 0.388690
18742         c3    716    ccc     C4  18742 0.28383300  12.010000   ; qtot 0.672523
18743         c3    716    ccc     C5  18743 0.32403300  12.010000   ; qtot 0.996556
18744         h1    716    ccc     H3  18744 0.13386900   1.008000   ; qtot 1.130425
18745         h1    716    ccc     H4  18745 0.10146700   1.008000   ; qtot 1.231892
18746         h2    716    ccc     H5  18746 0.10960400   1.008000   ; qtot 1.341496
18747         os    716    ccc     O1  18747 -0.28650000  16.000000   ; qtot 1.054996
18748         oh    716    ccc     O2  18748 -0.86012500  16.000000   ; qtot 0.194871
18749         oh    716    ccc     O3  18749 -0.83772800  16.000000   ; qtot -0.642857
18750         oh    716    ccc     O4  18750 -0.77449700  16.000000   ; qtot -1.417354
18751         c3    716    ccc     C6  18751 0.37576500  12.010000   ; qtot -1.041589
18752         ho    716    ccc     H6  18752 0.53656000   1.008000   ; qtot -0.505029
18753         ho    716    ccc     H7  18753 0.49492100   1.008000   ; qtot -0.010108
18754         ho    716    ccc     H8  18754 0.51297200   1.008000   ; qtot 0.502864
18755         h1    716    ccc     H9  18755 0.05653400   1.008000   ; qtot 0.559398
18756         h1    716    ccc    H10  18756 0.05653400   1.008000   ; qtot 0.615932
18757         oh    716    ccc     O5  18757 -0.84113600  16.000000   ; qtot -0.225204
18758         ho    716    ccc    H11  18758 0.51201600   1.008000   ; qtot 0.286812
18759         os    716    ccc     O6  18759 -0.26013600  16.000000   ; qtot 0.026676
; residue  717 ccc rtp ccc q 0.0
18760         c3    717    ccc     C1  18760 -0.33178800  12.010000   ; qtot -0.305112
18761         c3    717    ccc     C2  18761 0.30606500  12.010000   ; qtot 0.000953
18762         h1    717    ccc     H1  18762 0.11662300   1.008000   ; qtot 0.117576
18763         h1    717    ccc     H2  18763 0.11526800   1.008000   ; qtot 0.232844
18764         c3    717    ccc     C3  18764 0.15592700  12.010000   ; qtot 0.388771
18765         c3    717    ccc     C4  18765 0.28383300  12.010000   ; qtot 0.672604
18766         c3    717    ccc     C5  18766 0.32403300  12.010000   ; qtot 0.996637
18767         h1    717    ccc     H3  18767 0.13386900   1.008000   ; qtot 1.130506
18768         h1    717    ccc     H4  18768 0.10146700   1.008000   ; qtot 1.231973
18769         h2    717    ccc     H5  18769 0.10960400   1.008000   ; qtot 1.341577
18770         os    717    ccc     O1  18770 -0.28650000  16.000000   ; qtot 1.055077
18771         oh    717    ccc     O2  18771 -0.86012500  16.000000   ; qtot 0.194952
18772         oh    717    ccc     O3  18772 -0.83772800  16.000000   ; qtot -0.642776
18773         oh    717    ccc     O4  18773 -0.77449700  16.000000   ; qtot -1.417273
18774         c3    717    ccc     C6  18774 0.37576500  12.010000   ; qtot -1.041508
18775         ho    717    ccc     H6  18775 0.53656000   1.008000   ; qtot -0.504948
18776         ho    717    ccc     H7  18776 0.49492100   1.008000   ; qtot -0.010027
18777         ho    717    ccc     H8  18777 0.51297200   1.008000   ; qtot 0.502945
18778         h1    717    ccc     H9  18778 0.05653400   1.008000   ; qtot 0.559479
18779         h1    717    ccc    H10  18779 0.05653400   1.008000   ; qtot 0.616013
18780         oh    717    ccc     O5  18780 -0.84113600  16.000000   ; qtot -0.225123
18781         ho    717    ccc    H11  18781 0.51201600   1.008000   ; qtot 0.286893
18782         os    717    ccc     O6  18782 -0.26013600  16.000000   ; qtot 0.026757
; residue  718 ccc rtp ccc q 0.0
18783         c3    718    ccc     C1  18783 -0.33178800  12.010000   ; qtot -0.305031
18784         c3    718    ccc     C2  18784 0.30606500  12.010000   ; qtot 0.001034
18785         h1    718    ccc     H1  18785 0.11662300   1.008000   ; qtot 0.117657
18786         h1    718    ccc     H2  18786 0.11526800   1.008000   ; qtot 0.232925
18787         c3    718    ccc     C3  18787 0.15592700  12.010000   ; qtot 0.388852
18788         c3    718    ccc     C4  18788 0.28383300  12.010000   ; qtot 0.672685
18789         c3    718    ccc     C5  18789 0.32403300  12.010000   ; qtot 0.996718
18790         h1    718    ccc     H3  18790 0.13386900   1.008000   ; qtot 1.130587
18791         h1    718    ccc     H4  18791 0.10146700   1.008000   ; qtot 1.232054
18792         h2    718    ccc     H5  18792 0.10960400   1.008000   ; qtot 1.341658
18793         os    718    ccc     O1  18793 -0.28650000  16.000000   ; qtot 1.055158
18794         oh    718    ccc     O2  18794 -0.86012500  16.000000   ; qtot 0.195033
18795         oh    718    ccc     O3  18795 -0.83772800  16.000000   ; qtot -0.642695
18796         oh    718    ccc     O4  18796 -0.77449700  16.000000   ; qtot -1.417192
18797         c3    718    ccc     C6  18797 0.37576500  12.010000   ; qtot -1.041427
18798         ho    718    ccc     H6  18798 0.53656000   1.008000   ; qtot -0.504867
18799         ho    718    ccc     H7  18799 0.49492100   1.008000   ; qtot -0.009946
18800         ho    718    ccc     H8  18800 0.51297200   1.008000   ; qtot 0.503026
18801         h1    718    ccc     H9  18801 0.05653400   1.008000   ; qtot 0.559560
18802         h1    718    ccc    H10  18802 0.05653400   1.008000   ; qtot 0.616094
18803         oh    718    ccc     O5  18803 -0.84113600  16.000000   ; qtot -0.225042
18804         ho    718    ccc    H11  18804 0.51201600   1.008000   ; qtot 0.286974
18805         os    718    ccc     O6  18805 -0.26013600  16.000000   ; qtot 0.026838
; residue  719 ccc rtp ccc q 0.0
18806         c3    719    ccc     C1  18806 -0.33178800  12.010000   ; qtot -0.304950
18807         c3    719    ccc     C2  18807 0.30606500  12.010000   ; qtot 0.001115
18808         h1    719    ccc     H1  18808 0.11662300   1.008000   ; qtot 0.117738
18809         h1    719    ccc     H2  18809 0.11526800   1.008000   ; qtot 0.233006
18810         c3    719    ccc     C3  18810 0.15592700  12.010000   ; qtot 0.388933
18811         c3    719    ccc     C4  18811 0.28383300  12.010000   ; qtot 0.672766
18812         c3    719    ccc     C5  18812 0.32403300  12.010000   ; qtot 0.996799
18813         h1    719    ccc     H3  18813 0.13386900   1.008000   ; qtot 1.130668
18814         h1    719    ccc     H4  18814 0.10146700   1.008000   ; qtot 1.232135
18815         h2    719    ccc     H5  18815 0.10960400   1.008000   ; qtot 1.341739
18816         os    719    ccc     O1  18816 -0.28650000  16.000000   ; qtot 1.055239
18817         oh    719    ccc     O2  18817 -0.86012500  16.000000   ; qtot 0.195114
18818         oh    719    ccc     O3  18818 -0.83772800  16.000000   ; qtot -0.642614
18819         oh    719    ccc     O4  18819 -0.77449700  16.000000   ; qtot -1.417111
18820         c3    719    ccc     C6  18820 0.37576500  12.010000   ; qtot -1.041346
18821         ho    719    ccc     H6  18821 0.53656000   1.008000   ; qtot -0.504786
18822         ho    719    ccc     H7  18822 0.49492100   1.008000   ; qtot -0.009865
18823         ho    719    ccc     H8  18823 0.51297200   1.008000   ; qtot 0.503107
18824         h1    719    ccc     H9  18824 0.05653400   1.008000   ; qtot 0.559641
18825         h1    719    ccc    H10  18825 0.05653400   1.008000   ; qtot 0.616175
18826         oh    719    ccc     O5  18826 -0.84113600  16.000000   ; qtot -0.224961
18827         ho    719    ccc    H11  18827 0.51201600   1.008000   ; qtot 0.287055
18828         os    719    ccc     O6  18828 -0.26013600  16.000000   ; qtot 0.026919
; residue  720 ccc rtp ccc q 0.0
18829         c3    720    ccc     C1  18829 -0.33178800  12.010000   ; qtot -0.304869
18830         c3    720    ccc     C2  18830 0.30606500  12.010000   ; qtot 0.001196
18831         h1    720    ccc     H1  18831 0.11662300   1.008000   ; qtot 0.117819
18832         h1    720    ccc     H2  18832 0.11526800   1.008000   ; qtot 0.233087
18833         c3    720    ccc     C3  18833 0.15592700  12.010000   ; qtot 0.389014
18834         c3    720    ccc     C4  18834 0.28383300  12.010000   ; qtot 0.672847
18835         c3    720    ccc     C5  18835 0.32403300  12.010000   ; qtot 0.996880
18836         h1    720    ccc     H3  18836 0.13386900   1.008000   ; qtot 1.130749
18837         h1    720    ccc     H4  18837 0.10146700   1.008000   ; qtot 1.232216
18838         h2    720    ccc     H5  18838 0.10960400   1.008000   ; qtot 1.341820
18839         os    720    ccc     O1  18839 -0.28650000  16.000000   ; qtot 1.055320
18840         oh    720    ccc     O2  18840 -0.86012500  16.000000   ; qtot 0.195195
18841         oh    720    ccc     O3  18841 -0.83772800  16.000000   ; qtot -0.642533
18842         oh    720    ccc     O4  18842 -0.77449700  16.000000   ; qtot -1.417030
18843         c3    720    ccc     C6  18843 0.37576500  12.010000   ; qtot -1.041265
18844         ho    720    ccc     H6  18844 0.53656000   1.008000   ; qtot -0.504705
18845         ho    720    ccc     H7  18845 0.49492100   1.008000   ; qtot -0.009784
18846         ho    720    ccc     H8  18846 0.51297200   1.008000   ; qtot 0.503188
18847         h1    720    ccc     H9  18847 0.05653400   1.008000   ; qtot 0.559722
18848         h1    720    ccc    H10  18848 0.05653400   1.008000   ; qtot 0.616256
18849         oh    720    ccc     O5  18849 -0.84113600  16.000000   ; qtot -0.224880
18850         ho    720    ccc    H11  18850 0.51201600   1.008000   ; qtot 0.287136
18851         os    720    ccc     O6  18851 -0.26013600  16.000000   ; qtot 0.027000
; residue  721 ccc rtp ccc q 0.0
18852         c3    721    ccc     C1  18852 -0.33178800  12.010000   ; qtot -0.304788
18853         c3    721    ccc     C2  18853 0.30606500  12.010000   ; qtot 0.001277
18854         h1    721    ccc     H1  18854 0.11662300   1.008000   ; qtot 0.117900
18855         h1    721    ccc     H2  18855 0.11526800   1.008000   ; qtot 0.233168
18856         c3    721    ccc     C3  18856 0.15592700  12.010000   ; qtot 0.389095
18857         c3    721    ccc     C4  18857 0.28383300  12.010000   ; qtot 0.672928
18858         c3    721    ccc     C5  18858 0.32403300  12.010000   ; qtot 0.996961
18859         h1    721    ccc     H3  18859 0.13386900   1.008000   ; qtot 1.130830
18860         h1    721    ccc     H4  18860 0.10146700   1.008000   ; qtot 1.232297
18861         h2    721    ccc     H5  18861 0.10960400   1.008000   ; qtot 1.341901
18862         os    721    ccc     O1  18862 -0.28650000  16.000000   ; qtot 1.055401
18863         oh    721    ccc     O2  18863 -0.86012500  16.000000   ; qtot 0.195276
18864         oh    721    ccc     O3  18864 -0.83772800  16.000000   ; qtot -0.642452
18865         oh    721    ccc     O4  18865 -0.77449700  16.000000   ; qtot -1.416949
18866         c3    721    ccc     C6  18866 0.37576500  12.010000   ; qtot -1.041184
18867         ho    721    ccc     H6  18867 0.53656000   1.008000   ; qtot -0.504624
18868         ho    721    ccc     H7  18868 0.49492100   1.008000   ; qtot -0.009703
18869         ho    721    ccc     H8  18869 0.51297200   1.008000   ; qtot 0.503269
18870         h1    721    ccc     H9  18870 0.05653400   1.008000   ; qtot 0.559803
18871         h1    721    ccc    H10  18871 0.05653400   1.008000   ; qtot 0.616337
18872         oh    721    ccc     O5  18872 -0.84113600  16.000000   ; qtot -0.224799
18873         ho    721    ccc    H11  18873 0.51201600   1.008000   ; qtot 0.287217
18874         os    721    ccc     O6  18874 -0.26013600  16.000000   ; qtot 0.027081
; residue  722 ccc rtp ccc q 0.0
18875         c3    722    ccc     C1  18875 -0.33178800  12.010000   ; qtot -0.304707
18876         c3    722    ccc     C2  18876 0.30606500  12.010000   ; qtot 0.001358
18877         h1    722    ccc     H1  18877 0.11662300   1.008000   ; qtot 0.117981
18878         h1    722    ccc     H2  18878 0.11526800   1.008000   ; qtot 0.233249
18879         c3    722    ccc     C3  18879 0.15592700  12.010000   ; qtot 0.389176
18880         c3    722    ccc     C4  18880 0.28383300  12.010000   ; qtot 0.673009
18881         c3    722    ccc     C5  18881 0.32403300  12.010000   ; qtot 0.997042
18882         h1    722    ccc     H3  18882 0.13386900   1.008000   ; qtot 1.130911
18883         h1    722    ccc     H4  18883 0.10146700   1.008000   ; qtot 1.232378
18884         h2    722    ccc     H5  18884 0.10960400   1.008000   ; qtot 1.341982
18885         os    722    ccc     O1  18885 -0.28650000  16.000000   ; qtot 1.055482
18886         oh    722    ccc     O2  18886 -0.86012500  16.000000   ; qtot 0.195357
18887         oh    722    ccc     O3  18887 -0.83772800  16.000000   ; qtot -0.642371
18888         oh    722    ccc     O4  18888 -0.77449700  16.000000   ; qtot -1.416868
18889         c3    722    ccc     C6  18889 0.37576500  12.010000   ; qtot -1.041103
18890         ho    722    ccc     H6  18890 0.53656000   1.008000   ; qtot -0.504543
18891         ho    722    ccc     H7  18891 0.49492100   1.008000   ; qtot -0.009622
18892         ho    722    ccc     H8  18892 0.51297200   1.008000   ; qtot 0.503350
18893         h1    722    ccc     H9  18893 0.05653400   1.008000   ; qtot 0.559884
18894         h1    722    ccc    H10  18894 0.05653400   1.008000   ; qtot 0.616418
18895         oh    722    ccc     O5  18895 -0.84113600  16.000000   ; qtot -0.224718
18896         ho    722    ccc    H11  18896 0.51201600   1.008000   ; qtot 0.287298
18897         os    722    ccc     O6  18897 -0.26013600  16.000000   ; qtot 0.027162
; residue  723 ccc rtp ccc q 0.0
18898         c3    723    ccc     C1  18898 -0.33178800  12.010000   ; qtot -0.304626
18899         c3    723    ccc     C2  18899 0.30606500  12.010000   ; qtot 0.001439
18900         h1    723    ccc     H1  18900 0.11662300   1.008000   ; qtot 0.118062
18901         h1    723    ccc     H2  18901 0.11526800   1.008000   ; qtot 0.233330
18902         c3    723    ccc     C3  18902 0.15592700  12.010000   ; qtot 0.389257
18903         c3    723    ccc     C4  18903 0.28383300  12.010000   ; qtot 0.673090
18904         c3    723    ccc     C5  18904 0.32403300  12.010000   ; qtot 0.997123
18905         h1    723    ccc     H3  18905 0.13386900   1.008000   ; qtot 1.130992
18906         h1    723    ccc     H4  18906 0.10146700   1.008000   ; qtot 1.232459
18907         h2    723    ccc     H5  18907 0.10960400   1.008000   ; qtot 1.342063
18908         os    723    ccc     O1  18908 -0.28650000  16.000000   ; qtot 1.055563
18909         oh    723    ccc     O2  18909 -0.86012500  16.000000   ; qtot 0.195438
18910         oh    723    ccc     O3  18910 -0.83772800  16.000000   ; qtot -0.642290
18911         oh    723    ccc     O4  18911 -0.77449700  16.000000   ; qtot -1.416787
18912         c3    723    ccc     C6  18912 0.37576500  12.010000   ; qtot -1.041022
18913         ho    723    ccc     H6  18913 0.53656000   1.008000   ; qtot -0.504462
18914         ho    723    ccc     H7  18914 0.49492100   1.008000   ; qtot -0.009541
18915         ho    723    ccc     H8  18915 0.51297200   1.008000   ; qtot 0.503431
18916         h1    723    ccc     H9  18916 0.05653400   1.008000   ; qtot 0.559965
18917         h1    723    ccc    H10  18917 0.05653400   1.008000   ; qtot 0.616499
18918         oh    723    ccc     O5  18918 -0.84113600  16.000000   ; qtot -0.224637
18919         ho    723    ccc    H11  18919 0.51201600   1.008000   ; qtot 0.287379
18920         os    723    ccc     O6  18920 -0.26013600  16.000000   ; qtot 0.027243
; residue  724 ccc rtp ccc q 0.0
18921         c3    724    ccc     C1  18921 -0.33178800  12.010000   ; qtot -0.304545
18922         c3    724    ccc     C2  18922 0.30606500  12.010000   ; qtot 0.001520
18923         h1    724    ccc     H1  18923 0.11662300   1.008000   ; qtot 0.118143
18924         h1    724    ccc     H2  18924 0.11526800   1.008000   ; qtot 0.233411
18925         c3    724    ccc     C3  18925 0.15592700  12.010000   ; qtot 0.389338
18926         c3    724    ccc     C4  18926 0.28383300  12.010000   ; qtot 0.673171
18927         c3    724    ccc     C5  18927 0.32403300  12.010000   ; qtot 0.997204
18928         h1    724    ccc     H3  18928 0.13386900   1.008000   ; qtot 1.131073
18929         h1    724    ccc     H4  18929 0.10146700   1.008000   ; qtot 1.232540
18930         h2    724    ccc     H5  18930 0.10960400   1.008000   ; qtot 1.342144
18931         os    724    ccc     O1  18931 -0.28650000  16.000000   ; qtot 1.055644
18932         oh    724    ccc     O2  18932 -0.86012500  16.000000   ; qtot 0.195519
18933         oh    724    ccc     O3  18933 -0.83772800  16.000000   ; qtot -0.642209
18934         oh    724    ccc     O4  18934 -0.77449700  16.000000   ; qtot -1.416706
18935         c3    724    ccc     C6  18935 0.37576500  12.010000   ; qtot -1.040941
18936         ho    724    ccc     H6  18936 0.53656000   1.008000   ; qtot -0.504381
18937         ho    724    ccc     H7  18937 0.49492100   1.008000   ; qtot -0.009460
18938         ho    724    ccc     H8  18938 0.51297200   1.008000   ; qtot 0.503512
18939         h1    724    ccc     H9  18939 0.05653400   1.008000   ; qtot 0.560046
18940         h1    724    ccc    H10  18940 0.05653400   1.008000   ; qtot 0.616580
18941         oh    724    ccc     O5  18941 -0.84113600  16.000000   ; qtot -0.224556
18942         ho    724    ccc    H11  18942 0.51201600   1.008000   ; qtot 0.287460
18943         os    724    ccc     O6  18943 -0.26013600  16.000000   ; qtot 0.027324
; residue  725 ccc rtp ccc q 0.0
18944         c3    725    ccc     C1  18944 -0.33178800  12.010000   ; qtot -0.304464
18945         c3    725    ccc     C2  18945 0.30606500  12.010000   ; qtot 0.001601
18946         h1    725    ccc     H1  18946 0.11662300   1.008000   ; qtot 0.118224
18947         h1    725    ccc     H2  18947 0.11526800   1.008000   ; qtot 0.233492
18948         c3    725    ccc     C3  18948 0.15592700  12.010000   ; qtot 0.389419
18949         c3    725    ccc     C4  18949 0.28383300  12.010000   ; qtot 0.673252
18950         c3    725    ccc     C5  18950 0.32403300  12.010000   ; qtot 0.997285
18951         h1    725    ccc     H3  18951 0.13386900   1.008000   ; qtot 1.131154
18952         h1    725    ccc     H4  18952 0.10146700   1.008000   ; qtot 1.232621
18953         h2    725    ccc     H5  18953 0.10960400   1.008000   ; qtot 1.342225
18954         os    725    ccc     O1  18954 -0.28650000  16.000000   ; qtot 1.055725
18955         oh    725    ccc     O2  18955 -0.86012500  16.000000   ; qtot 0.195600
18956         oh    725    ccc     O3  18956 -0.83772800  16.000000   ; qtot -0.642128
18957         oh    725    ccc     O4  18957 -0.77449700  16.000000   ; qtot -1.416625
18958         c3    725    ccc     C6  18958 0.37576500  12.010000   ; qtot -1.040860
18959         ho    725    ccc     H6  18959 0.53656000   1.008000   ; qtot -0.504300
18960         ho    725    ccc     H7  18960 0.49492100   1.008000   ; qtot -0.009379
18961         ho    725    ccc     H8  18961 0.51297200   1.008000   ; qtot 0.503593
18962         h1    725    ccc     H9  18962 0.05653400   1.008000   ; qtot 0.560127
18963         h1    725    ccc    H10  18963 0.05653400   1.008000   ; qtot 0.616661
18964         oh    725    ccc     O5  18964 -0.84113600  16.000000   ; qtot -0.224475
18965         ho    725    ccc    H11  18965 0.51201600   1.008000   ; qtot 0.287541
18966         os    725    ccc     O6  18966 -0.26013600  16.000000   ; qtot 0.027405
; residue  726 ccc rtp ccc q 0.0
18967         c3    726    ccc     C1  18967 -0.33178800  12.010000   ; qtot -0.304383
18968         c3    726    ccc     C2  18968 0.30606500  12.010000   ; qtot 0.001682
18969         h1    726    ccc     H1  18969 0.11662300   1.008000   ; qtot 0.118305
18970         h1    726    ccc     H2  18970 0.11526800   1.008000   ; qtot 0.233573
18971         c3    726    ccc     C3  18971 0.15592700  12.010000   ; qtot 0.389500
18972         c3    726    ccc     C4  18972 0.28383300  12.010000   ; qtot 0.673333
18973         c3    726    ccc     C5  18973 0.32403300  12.010000   ; qtot 0.997366
18974         h1    726    ccc     H3  18974 0.13386900   1.008000   ; qtot 1.131235
18975         h1    726    ccc     H4  18975 0.10146700   1.008000   ; qtot 1.232702
18976         h2    726    ccc     H5  18976 0.10960400   1.008000   ; qtot 1.342306
18977         os    726    ccc     O1  18977 -0.28650000  16.000000   ; qtot 1.055806
18978         oh    726    ccc     O2  18978 -0.86012500  16.000000   ; qtot 0.195681
18979         oh    726    ccc     O3  18979 -0.83772800  16.000000   ; qtot -0.642047
18980         oh    726    ccc     O4  18980 -0.77449700  16.000000   ; qtot -1.416544
18981         c3    726    ccc     C6  18981 0.37576500  12.010000   ; qtot -1.040779
18982         ho    726    ccc     H6  18982 0.53656000   1.008000   ; qtot -0.504219
18983         ho    726    ccc     H7  18983 0.49492100   1.008000   ; qtot -0.009298
18984         ho    726    ccc     H8  18984 0.51297200   1.008000   ; qtot 0.503674
18985         h1    726    ccc     H9  18985 0.05653400   1.008000   ; qtot 0.560208
18986         h1    726    ccc    H10  18986 0.05653400   1.008000   ; qtot 0.616742
18987         oh    726    ccc     O5  18987 -0.84113600  16.000000   ; qtot -0.224394
18988         ho    726    ccc    H11  18988 0.51201600   1.008000   ; qtot 0.287622
18989         os    726    ccc     O6  18989 -0.26013600  16.000000   ; qtot 0.027486
; residue  727 ccc rtp ccc q 0.0
18990         c3    727    ccc     C1  18990 -0.33178800  12.010000   ; qtot -0.304302
18991         c3    727    ccc     C2  18991 0.30606500  12.010000   ; qtot 0.001763
18992         h1    727    ccc     H1  18992 0.11662300   1.008000   ; qtot 0.118386
18993         h1    727    ccc     H2  18993 0.11526800   1.008000   ; qtot 0.233654
18994         c3    727    ccc     C3  18994 0.15592700  12.010000   ; qtot 0.389581
18995         c3    727    ccc     C4  18995 0.28383300  12.010000   ; qtot 0.673414
18996         c3    727    ccc     C5  18996 0.32403300  12.010000   ; qtot 0.997447
18997         h1    727    ccc     H3  18997 0.13386900   1.008000   ; qtot 1.131316
18998         h1    727    ccc     H4  18998 0.10146700   1.008000   ; qtot 1.232783
18999         h2    727    ccc     H5  18999 0.10960400   1.008000   ; qtot 1.342387
19000         os    727    ccc     O1  19000 -0.28650000  16.000000   ; qtot 1.055887
19001         oh    727    ccc     O2  19001 -0.86012500  16.000000   ; qtot 0.195762
19002         oh    727    ccc     O3  19002 -0.83772800  16.000000   ; qtot -0.641966
19003         oh    727    ccc     O4  19003 -0.77449700  16.000000   ; qtot -1.416463
19004         c3    727    ccc     C6  19004 0.37576500  12.010000   ; qtot -1.040698
19005         ho    727    ccc     H6  19005 0.53656000   1.008000   ; qtot -0.504138
19006         ho    727    ccc     H7  19006 0.49492100   1.008000   ; qtot -0.009217
19007         ho    727    ccc     H8  19007 0.51297200   1.008000   ; qtot 0.503755
19008         h1    727    ccc     H9  19008 0.05653400   1.008000   ; qtot 0.560289
19009         h1    727    ccc    H10  19009 0.05653400   1.008000   ; qtot 0.616823
19010         oh    727    ccc     O5  19010 -0.84113600  16.000000   ; qtot -0.224313
19011         ho    727    ccc    H11  19011 0.51201600   1.008000   ; qtot 0.287703
19012         os    727    ccc     O6  19012 -0.26013600  16.000000   ; qtot 0.027567
; residue  728 ccc rtp ccc q 0.0
19013         c3    728    ccc     C1  19013 -0.33178800  12.010000   ; qtot -0.304221
19014         c3    728    ccc     C2  19014 0.30606500  12.010000   ; qtot 0.001844
19015         h1    728    ccc     H1  19015 0.11662300   1.008000   ; qtot 0.118467
19016         h1    728    ccc     H2  19016 0.11526800   1.008000   ; qtot 0.233735
19017         c3    728    ccc     C3  19017 0.15592700  12.010000   ; qtot 0.389662
19018         c3    728    ccc     C4  19018 0.28383300  12.010000   ; qtot 0.673495
19019         c3    728    ccc     C5  19019 0.32403300  12.010000   ; qtot 0.997528
19020         h1    728    ccc     H3  19020 0.13386900   1.008000   ; qtot 1.131397
19021         h1    728    ccc     H4  19021 0.10146700   1.008000   ; qtot 1.232864
19022         h2    728    ccc     H5  19022 0.10960400   1.008000   ; qtot 1.342468
19023         os    728    ccc     O1  19023 -0.28650000  16.000000   ; qtot 1.055968
19024         oh    728    ccc     O2  19024 -0.86012500  16.000000   ; qtot 0.195843
19025         oh    728    ccc     O3  19025 -0.83772800  16.000000   ; qtot -0.641885
19026         oh    728    ccc     O4  19026 -0.77449700  16.000000   ; qtot -1.416382
19027         c3    728    ccc     C6  19027 0.37576500  12.010000   ; qtot -1.040617
19028         ho    728    ccc     H6  19028 0.53656000   1.008000   ; qtot -0.504057
19029         ho    728    ccc     H7  19029 0.49492100   1.008000   ; qtot -0.009136
19030         ho    728    ccc     H8  19030 0.51297200   1.008000   ; qtot 0.503836
19031         h1    728    ccc     H9  19031 0.05653400   1.008000   ; qtot 0.560370
19032         h1    728    ccc    H10  19032 0.05653400   1.008000   ; qtot 0.616904
19033         oh    728    ccc     O5  19033 -0.84113600  16.000000   ; qtot -0.224232
19034         ho    728    ccc    H11  19034 0.51201600   1.008000   ; qtot 0.287784
19035         os    728    ccc     O6  19035 -0.26013600  16.000000   ; qtot 0.027648
; residue  729 ccc rtp ccc q 0.0
19036         c3    729    ccc     C1  19036 -0.33178800  12.010000   ; qtot -0.304140
19037         c3    729    ccc     C2  19037 0.30606500  12.010000   ; qtot 0.001925
19038         h1    729    ccc     H1  19038 0.11662300   1.008000   ; qtot 0.118548
19039         h1    729    ccc     H2  19039 0.11526800   1.008000   ; qtot 0.233816
19040         c3    729    ccc     C3  19040 0.15592700  12.010000   ; qtot 0.389743
19041         c3    729    ccc     C4  19041 0.28383300  12.010000   ; qtot 0.673576
19042         c3    729    ccc     C5  19042 0.32403300  12.010000   ; qtot 0.997609
19043         h1    729    ccc     H3  19043 0.13386900   1.008000   ; qtot 1.131478
19044         h1    729    ccc     H4  19044 0.10146700   1.008000   ; qtot 1.232945
19045         h2    729    ccc     H5  19045 0.10960400   1.008000   ; qtot 1.342549
19046         os    729    ccc     O1  19046 -0.28650000  16.000000   ; qtot 1.056049
19047         oh    729    ccc     O2  19047 -0.86012500  16.000000   ; qtot 0.195924
19048         oh    729    ccc     O3  19048 -0.83772800  16.000000   ; qtot -0.641804
19049         oh    729    ccc     O4  19049 -0.77449700  16.000000   ; qtot -1.416301
19050         c3    729    ccc     C6  19050 0.37576500  12.010000   ; qtot -1.040536
19051         ho    729    ccc     H6  19051 0.53656000   1.008000   ; qtot -0.503976
19052         ho    729    ccc     H7  19052 0.49492100   1.008000   ; qtot -0.009055
19053         ho    729    ccc     H8  19053 0.51297200   1.008000   ; qtot 0.503917
19054         h1    729    ccc     H9  19054 0.05653400   1.008000   ; qtot 0.560451
19055         h1    729    ccc    H10  19055 0.05653400   1.008000   ; qtot 0.616985
19056         oh    729    ccc     O5  19056 -0.84113600  16.000000   ; qtot -0.224151
19057         ho    729    ccc    H11  19057 0.51201600   1.008000   ; qtot 0.287865
19058         os    729    ccc     O6  19058 -0.26013600  16.000000   ; qtot 0.027729
; residue  730 ccc rtp ccc q 0.0
19059         c3    730    ccc     C1  19059 -0.33178800  12.010000   ; qtot -0.304059
19060         c3    730    ccc     C2  19060 0.30606500  12.010000   ; qtot 0.002006
19061         h1    730    ccc     H1  19061 0.11662300   1.008000   ; qtot 0.118629
19062         h1    730    ccc     H2  19062 0.11526800   1.008000   ; qtot 0.233897
19063         c3    730    ccc     C3  19063 0.15592700  12.010000   ; qtot 0.389824
19064         c3    730    ccc     C4  19064 0.28383300  12.010000   ; qtot 0.673657
19065         c3    730    ccc     C5  19065 0.32403300  12.010000   ; qtot 0.997690
19066         h1    730    ccc     H3  19066 0.13386900   1.008000   ; qtot 1.131559
19067         h1    730    ccc     H4  19067 0.10146700   1.008000   ; qtot 1.233026
19068         h2    730    ccc     H5  19068 0.10960400   1.008000   ; qtot 1.342630
19069         os    730    ccc     O1  19069 -0.28650000  16.000000   ; qtot 1.056130
19070         oh    730    ccc     O2  19070 -0.86012500  16.000000   ; qtot 0.196005
19071         oh    730    ccc     O3  19071 -0.83772800  16.000000   ; qtot -0.641723
19072         oh    730    ccc     O4  19072 -0.77449700  16.000000   ; qtot -1.416220
19073         c3    730    ccc     C6  19073 0.37576500  12.010000   ; qtot -1.040455
19074         ho    730    ccc     H6  19074 0.53656000   1.008000   ; qtot -0.503895
19075         ho    730    ccc     H7  19075 0.49492100   1.008000   ; qtot -0.008974
19076         ho    730    ccc     H8  19076 0.51297200   1.008000   ; qtot 0.503998
19077         h1    730    ccc     H9  19077 0.05653400   1.008000   ; qtot 0.560532
19078         h1    730    ccc    H10  19078 0.05653400   1.008000   ; qtot 0.617066
19079         oh    730    ccc     O5  19079 -0.84113600  16.000000   ; qtot -0.224070
19080         ho    730    ccc    H11  19080 0.51201600   1.008000   ; qtot 0.287946
19081         os    730    ccc     O6  19081 -0.26013600  16.000000   ; qtot 0.027810
; residue  731 ccc rtp ccc q 0.0
19082         c3    731    ccc     C1  19082 -0.33178800  12.010000   ; qtot -0.303978
19083         c3    731    ccc     C2  19083 0.30606500  12.010000   ; qtot 0.002087
19084         h1    731    ccc     H1  19084 0.11662300   1.008000   ; qtot 0.118710
19085         h1    731    ccc     H2  19085 0.11526800   1.008000   ; qtot 0.233978
19086         c3    731    ccc     C3  19086 0.15592700  12.010000   ; qtot 0.389905
19087         c3    731    ccc     C4  19087 0.28383300  12.010000   ; qtot 0.673738
19088         c3    731    ccc     C5  19088 0.32403300  12.010000   ; qtot 0.997771
19089         h1    731    ccc     H3  19089 0.13386900   1.008000   ; qtot 1.131640
19090         h1    731    ccc     H4  19090 0.10146700   1.008000   ; qtot 1.233107
19091         h2    731    ccc     H5  19091 0.10960400   1.008000   ; qtot 1.342711
19092         os    731    ccc     O1  19092 -0.28650000  16.000000   ; qtot 1.056211
19093         oh    731    ccc     O2  19093 -0.86012500  16.000000   ; qtot 0.196086
19094         oh    731    ccc     O3  19094 -0.83772800  16.000000   ; qtot -0.641642
19095         oh    731    ccc     O4  19095 -0.77449700  16.000000   ; qtot -1.416139
19096         c3    731    ccc     C6  19096 0.37576500  12.010000   ; qtot -1.040374
19097         ho    731    ccc     H6  19097 0.53656000   1.008000   ; qtot -0.503814
19098         ho    731    ccc     H7  19098 0.49492100   1.008000   ; qtot -0.008893
19099         ho    731    ccc     H8  19099 0.51297200   1.008000   ; qtot 0.504079
19100         h1    731    ccc     H9  19100 0.05653400   1.008000   ; qtot 0.560613
19101         h1    731    ccc    H10  19101 0.05653400   1.008000   ; qtot 0.617147
19102         oh    731    ccc     O5  19102 -0.84113600  16.000000   ; qtot -0.223989
19103         ho    731    ccc    H11  19103 0.51201600   1.008000   ; qtot 0.288027
19104         os    731    ccc     O6  19104 -0.26013600  16.000000   ; qtot 0.027891
; residue  732 ccc rtp ccc q 0.0
19105         c3    732    ccc     C1  19105 -0.33178800  12.010000   ; qtot -0.303897
19106         c3    732    ccc     C2  19106 0.30606500  12.010000   ; qtot 0.002168
19107         h1    732    ccc     H1  19107 0.11662300   1.008000   ; qtot 0.118791
19108         h1    732    ccc     H2  19108 0.11526800   1.008000   ; qtot 0.234059
19109         c3    732    ccc     C3  19109 0.15592700  12.010000   ; qtot 0.389986
19110         c3    732    ccc     C4  19110 0.28383300  12.010000   ; qtot 0.673819
19111         c3    732    ccc     C5  19111 0.32403300  12.010000   ; qtot 0.997852
19112         h1    732    ccc     H3  19112 0.13386900   1.008000   ; qtot 1.131721
19113         h1    732    ccc     H4  19113 0.10146700   1.008000   ; qtot 1.233188
19114         h2    732    ccc     H5  19114 0.10960400   1.008000   ; qtot 1.342792
19115         os    732    ccc     O1  19115 -0.28650000  16.000000   ; qtot 1.056292
19116         oh    732    ccc     O2  19116 -0.86012500  16.000000   ; qtot 0.196167
19117         oh    732    ccc     O3  19117 -0.83772800  16.000000   ; qtot -0.641561
19118         oh    732    ccc     O4  19118 -0.77449700  16.000000   ; qtot -1.416058
19119         c3    732    ccc     C6  19119 0.37576500  12.010000   ; qtot -1.040293
19120         ho    732    ccc     H6  19120 0.53656000   1.008000   ; qtot -0.503733
19121         ho    732    ccc     H7  19121 0.49492100   1.008000   ; qtot -0.008812
19122         ho    732    ccc     H8  19122 0.51297200   1.008000   ; qtot 0.504160
19123         h1    732    ccc     H9  19123 0.05653400   1.008000   ; qtot 0.560694
19124         h1    732    ccc    H10  19124 0.05653400   1.008000   ; qtot 0.617228
19125         oh    732    ccc     O5  19125 -0.84113600  16.000000   ; qtot -0.223908
19126         ho    732    ccc    H11  19126 0.51201600   1.008000   ; qtot 0.288108
19127         os    732    ccc     O6  19127 -0.26013600  16.000000   ; qtot 0.027972
; residue  733 ccc rtp ccc q 0.0
19128         c3    733    ccc     C1  19128 -0.33178800  12.010000   ; qtot -0.303816
19129         c3    733    ccc     C2  19129 0.30606500  12.010000   ; qtot 0.002249
19130         h1    733    ccc     H1  19130 0.11662300   1.008000   ; qtot 0.118872
19131         h1    733    ccc     H2  19131 0.11526800   1.008000   ; qtot 0.234140
19132         c3    733    ccc     C3  19132 0.15592700  12.010000   ; qtot 0.390067
19133         c3    733    ccc     C4  19133 0.28383300  12.010000   ; qtot 0.673900
19134         c3    733    ccc     C5  19134 0.32403300  12.010000   ; qtot 0.997933
19135         h1    733    ccc     H3  19135 0.13386900   1.008000   ; qtot 1.131802
19136         h1    733    ccc     H4  19136 0.10146700   1.008000   ; qtot 1.233269
19137         h2    733    ccc     H5  19137 0.10960400   1.008000   ; qtot 1.342873
19138         os    733    ccc     O1  19138 -0.28650000  16.000000   ; qtot 1.056373
19139         oh    733    ccc     O2  19139 -0.86012500  16.000000   ; qtot 0.196248
19140         oh    733    ccc     O3  19140 -0.83772800  16.000000   ; qtot -0.641480
19141         oh    733    ccc     O4  19141 -0.77449700  16.000000   ; qtot -1.415977
19142         c3    733    ccc     C6  19142 0.37576500  12.010000   ; qtot -1.040212
19143         ho    733    ccc     H6  19143 0.53656000   1.008000   ; qtot -0.503652
19144         ho    733    ccc     H7  19144 0.49492100   1.008000   ; qtot -0.008731
19145         ho    733    ccc     H8  19145 0.51297200   1.008000   ; qtot 0.504241
19146         h1    733    ccc     H9  19146 0.05653400   1.008000   ; qtot 0.560775
19147         h1    733    ccc    H10  19147 0.05653400   1.008000   ; qtot 0.617309
19148         oh    733    ccc     O5  19148 -0.84113600  16.000000   ; qtot -0.223827
19149         ho    733    ccc    H11  19149 0.51201600   1.008000   ; qtot 0.288189
19150         os    733    ccc     O6  19150 -0.26013600  16.000000   ; qtot 0.028053
; residue  734 ccc rtp ccc q 0.0
19151         c3    734    ccc     C1  19151 -0.33178800  12.010000   ; qtot -0.303735
19152         c3    734    ccc     C2  19152 0.30606500  12.010000   ; qtot 0.002330
19153         h1    734    ccc     H1  19153 0.11662300   1.008000   ; qtot 0.118953
19154         h1    734    ccc     H2  19154 0.11526800   1.008000   ; qtot 0.234221
19155         c3    734    ccc     C3  19155 0.15592700  12.010000   ; qtot 0.390148
19156         c3    734    ccc     C4  19156 0.28383300  12.010000   ; qtot 0.673981
19157         c3    734    ccc     C5  19157 0.32403300  12.010000   ; qtot 0.998014
19158         h1    734    ccc     H3  19158 0.13386900   1.008000   ; qtot 1.131883
19159         h1    734    ccc     H4  19159 0.10146700   1.008000   ; qtot 1.233350
19160         h2    734    ccc     H5  19160 0.10960400   1.008000   ; qtot 1.342954
19161         os    734    ccc     O1  19161 -0.28650000  16.000000   ; qtot 1.056454
19162         oh    734    ccc     O2  19162 -0.86012500  16.000000   ; qtot 0.196329
19163         oh    734    ccc     O3  19163 -0.83772800  16.000000   ; qtot -0.641399
19164         oh    734    ccc     O4  19164 -0.77449700  16.000000   ; qtot -1.415896
19165         c3    734    ccc     C6  19165 0.37576500  12.010000   ; qtot -1.040131
19166         ho    734    ccc     H6  19166 0.53656000   1.008000   ; qtot -0.503571
19167         ho    734    ccc     H7  19167 0.49492100   1.008000   ; qtot -0.008650
19168         ho    734    ccc     H8  19168 0.51297200   1.008000   ; qtot 0.504322
19169         h1    734    ccc     H9  19169 0.05653400   1.008000   ; qtot 0.560856
19170         h1    734    ccc    H10  19170 0.05653400   1.008000   ; qtot 0.617390
19171         oh    734    ccc     O5  19171 -0.84113600  16.000000   ; qtot -0.223746
19172         ho    734    ccc    H11  19172 0.51201600   1.008000   ; qtot 0.288270
19173         os    734    ccc     O6  19173 -0.26013600  16.000000   ; qtot 0.028134
; residue  735 ccc rtp ccc q 0.0
19174         c3    735    ccc     C1  19174 -0.33178800  12.010000   ; qtot -0.303654
19175         c3    735    ccc     C2  19175 0.30606500  12.010000   ; qtot 0.002411
19176         h1    735    ccc     H1  19176 0.11662300   1.008000   ; qtot 0.119034
19177         h1    735    ccc     H2  19177 0.11526800   1.008000   ; qtot 0.234302
19178         c3    735    ccc     C3  19178 0.15592700  12.010000   ; qtot 0.390229
19179         c3    735    ccc     C4  19179 0.28383300  12.010000   ; qtot 0.674062
19180         c3    735    ccc     C5  19180 0.32403300  12.010000   ; qtot 0.998095
19181         h1    735    ccc     H3  19181 0.13386900   1.008000   ; qtot 1.131964
19182         h1    735    ccc     H4  19182 0.10146700   1.008000   ; qtot 1.233431
19183         h2    735    ccc     H5  19183 0.10960400   1.008000   ; qtot 1.343035
19184         os    735    ccc     O1  19184 -0.28650000  16.000000   ; qtot 1.056535
19185         oh    735    ccc     O2  19185 -0.86012500  16.000000   ; qtot 0.196410
19186         oh    735    ccc     O3  19186 -0.83772800  16.000000   ; qtot -0.641318
19187         oh    735    ccc     O4  19187 -0.77449700  16.000000   ; qtot -1.415815
19188         c3    735    ccc     C6  19188 0.37576500  12.010000   ; qtot -1.040050
19189         ho    735    ccc     H6  19189 0.53656000   1.008000   ; qtot -0.503490
19190         ho    735    ccc     H7  19190 0.49492100   1.008000   ; qtot -0.008569
19191         ho    735    ccc     H8  19191 0.51297200   1.008000   ; qtot 0.504403
19192         h1    735    ccc     H9  19192 0.05653400   1.008000   ; qtot 0.560937
19193         h1    735    ccc    H10  19193 0.05653400   1.008000   ; qtot 0.617471
19194         oh    735    ccc     O5  19194 -0.84113600  16.000000   ; qtot -0.223665
19195         ho    735    ccc    H11  19195 0.51201600   1.008000   ; qtot 0.288351
19196         os    735    ccc     O6  19196 -0.26013600  16.000000   ; qtot 0.028215
; residue  736 ccc rtp ccc q 0.0
19197         c3    736    ccc     C1  19197 -0.33178800  12.010000   ; qtot -0.303573
19198         c3    736    ccc     C2  19198 0.30606500  12.010000   ; qtot 0.002492
19199         h1    736    ccc     H1  19199 0.11662300   1.008000   ; qtot 0.119115
19200         h1    736    ccc     H2  19200 0.11526800   1.008000   ; qtot 0.234383
19201         c3    736    ccc     C3  19201 0.15592700  12.010000   ; qtot 0.390310
19202         c3    736    ccc     C4  19202 0.28383300  12.010000   ; qtot 0.674143
19203         c3    736    ccc     C5  19203 0.32403300  12.010000   ; qtot 0.998176
19204         h1    736    ccc     H3  19204 0.13386900   1.008000   ; qtot 1.132045
19205         h1    736    ccc     H4  19205 0.10146700   1.008000   ; qtot 1.233512
19206         h2    736    ccc     H5  19206 0.10960400   1.008000   ; qtot 1.343116
19207         os    736    ccc     O1  19207 -0.28650000  16.000000   ; qtot 1.056616
19208         oh    736    ccc     O2  19208 -0.86012500  16.000000   ; qtot 0.196491
19209         oh    736    ccc     O3  19209 -0.83772800  16.000000   ; qtot -0.641237
19210         oh    736    ccc     O4  19210 -0.77449700  16.000000   ; qtot -1.415734
19211         c3    736    ccc     C6  19211 0.37576500  12.010000   ; qtot -1.039969
19212         ho    736    ccc     H6  19212 0.53656000   1.008000   ; qtot -0.503409
19213         ho    736    ccc     H7  19213 0.49492100   1.008000   ; qtot -0.008488
19214         ho    736    ccc     H8  19214 0.51297200   1.008000   ; qtot 0.504484
19215         h1    736    ccc     H9  19215 0.05653400   1.008000   ; qtot 0.561018
19216         h1    736    ccc    H10  19216 0.05653400   1.008000   ; qtot 0.617552
19217         oh    736    ccc     O5  19217 -0.84113600  16.000000   ; qtot -0.223584
19218         ho    736    ccc    H11  19218 0.51201600   1.008000   ; qtot 0.288432
19219         os    736    ccc     O6  19219 -0.26013600  16.000000   ; qtot 0.028296
; residue  737 ccc rtp ccc q 0.0
19220         c3    737    ccc     C1  19220 -0.33178800  12.010000   ; qtot -0.303492
19221         c3    737    ccc     C2  19221 0.30606500  12.010000   ; qtot 0.002573
19222         h1    737    ccc     H1  19222 0.11662300   1.008000   ; qtot 0.119196
19223         h1    737    ccc     H2  19223 0.11526800   1.008000   ; qtot 0.234464
19224         c3    737    ccc     C3  19224 0.15592700  12.010000   ; qtot 0.390391
19225         c3    737    ccc     C4  19225 0.28383300  12.010000   ; qtot 0.674224
19226         c3    737    ccc     C5  19226 0.32403300  12.010000   ; qtot 0.998257
19227         h1    737    ccc     H3  19227 0.13386900   1.008000   ; qtot 1.132126
19228         h1    737    ccc     H4  19228 0.10146700   1.008000   ; qtot 1.233593
19229         h2    737    ccc     H5  19229 0.10960400   1.008000   ; qtot 1.343197
19230         os    737    ccc     O1  19230 -0.28650000  16.000000   ; qtot 1.056697
19231         oh    737    ccc     O2  19231 -0.86012500  16.000000   ; qtot 0.196572
19232         oh    737    ccc     O3  19232 -0.83772800  16.000000   ; qtot -0.641156
19233         oh    737    ccc     O4  19233 -0.77449700  16.000000   ; qtot -1.415653
19234         c3    737    ccc     C6  19234 0.37576500  12.010000   ; qtot -1.039888
19235         ho    737    ccc     H6  19235 0.53656000   1.008000   ; qtot -0.503328
19236         ho    737    ccc     H7  19236 0.49492100   1.008000   ; qtot -0.008407
19237         ho    737    ccc     H8  19237 0.51297200   1.008000   ; qtot 0.504565
19238         h1    737    ccc     H9  19238 0.05653400   1.008000   ; qtot 0.561099
19239         h1    737    ccc    H10  19239 0.05653400   1.008000   ; qtot 0.617633
19240         oh    737    ccc     O5  19240 -0.84113600  16.000000   ; qtot -0.223503
19241         ho    737    ccc    H11  19241 0.51201600   1.008000   ; qtot 0.288513
19242         os    737    ccc     O6  19242 -0.26013600  16.000000   ; qtot 0.028377
; residue  738 ccc rtp ccc q 0.0
19243         c3    738    ccc     C1  19243 -0.33178800  12.010000   ; qtot -0.303411
19244         c3    738    ccc     C2  19244 0.30606500  12.010000   ; qtot 0.002654
19245         h1    738    ccc     H1  19245 0.11662300   1.008000   ; qtot 0.119277
19246         h1    738    ccc     H2  19246 0.11526800   1.008000   ; qtot 0.234545
19247         c3    738    ccc     C3  19247 0.15592700  12.010000   ; qtot 0.390472
19248         c3    738    ccc     C4  19248 0.28383300  12.010000   ; qtot 0.674305
19249         c3    738    ccc     C5  19249 0.32403300  12.010000   ; qtot 0.998338
19250         h1    738    ccc     H3  19250 0.13386900   1.008000   ; qtot 1.132207
19251         h1    738    ccc     H4  19251 0.10146700   1.008000   ; qtot 1.233674
19252         h2    738    ccc     H5  19252 0.10960400   1.008000   ; qtot 1.343278
19253         os    738    ccc     O1  19253 -0.28650000  16.000000   ; qtot 1.056778
19254         oh    738    ccc     O2  19254 -0.86012500  16.000000   ; qtot 0.196653
19255         oh    738    ccc     O3  19255 -0.83772800  16.000000   ; qtot -0.641075
19256         oh    738    ccc     O4  19256 -0.77449700  16.000000   ; qtot -1.415572
19257         c3    738    ccc     C6  19257 0.37576500  12.010000   ; qtot -1.039807
19258         ho    738    ccc     H6  19258 0.53656000   1.008000   ; qtot -0.503247
19259         ho    738    ccc     H7  19259 0.49492100   1.008000   ; qtot -0.008326
19260         ho    738    ccc     H8  19260 0.51297200   1.008000   ; qtot 0.504646
19261         h1    738    ccc     H9  19261 0.05653400   1.008000   ; qtot 0.561180
19262         h1    738    ccc    H10  19262 0.05653400   1.008000   ; qtot 0.617714
19263         oh    738    ccc     O5  19263 -0.84113600  16.000000   ; qtot -0.223422
19264         ho    738    ccc    H11  19264 0.51201600   1.008000   ; qtot 0.288594
19265         os    738    ccc     O6  19265 -0.26013600  16.000000   ; qtot 0.028458
; residue  739 ccc rtp ccc q 0.0
19266         c3    739    ccc     C1  19266 -0.33178800  12.010000   ; qtot -0.303330
19267         c3    739    ccc     C2  19267 0.30606500  12.010000   ; qtot 0.002735
19268         h1    739    ccc     H1  19268 0.11662300   1.008000   ; qtot 0.119358
19269         h1    739    ccc     H2  19269 0.11526800   1.008000   ; qtot 0.234626
19270         c3    739    ccc     C3  19270 0.15592700  12.010000   ; qtot 0.390553
19271         c3    739    ccc     C4  19271 0.28383300  12.010000   ; qtot 0.674386
19272         c3    739    ccc     C5  19272 0.32403300  12.010000   ; qtot 0.998419
19273         h1    739    ccc     H3  19273 0.13386900   1.008000   ; qtot 1.132288
19274         h1    739    ccc     H4  19274 0.10146700   1.008000   ; qtot 1.233755
19275         h2    739    ccc     H5  19275 0.10960400   1.008000   ; qtot 1.343359
19276         os    739    ccc     O1  19276 -0.28650000  16.000000   ; qtot 1.056859
19277         oh    739    ccc     O2  19277 -0.86012500  16.000000   ; qtot 0.196734
19278         oh    739    ccc     O3  19278 -0.83772800  16.000000   ; qtot -0.640994
19279         oh    739    ccc     O4  19279 -0.77449700  16.000000   ; qtot -1.415491
19280         c3    739    ccc     C6  19280 0.37576500  12.010000   ; qtot -1.039726
19281         ho    739    ccc     H6  19281 0.53656000   1.008000   ; qtot -0.503166
19282         ho    739    ccc     H7  19282 0.49492100   1.008000   ; qtot -0.008245
19283         ho    739    ccc     H8  19283 0.51297200   1.008000   ; qtot 0.504727
19284         h1    739    ccc     H9  19284 0.05653400   1.008000   ; qtot 0.561261
19285         h1    739    ccc    H10  19285 0.05653400   1.008000   ; qtot 0.617795
19286         oh    739    ccc     O5  19286 -0.84113600  16.000000   ; qtot -0.223341
19287         ho    739    ccc    H11  19287 0.51201600   1.008000   ; qtot 0.288675
19288         os    739    ccc     O6  19288 -0.26013600  16.000000   ; qtot 0.028539
; residue  740 ccc rtp ccc q 0.0
19289         c3    740    ccc     C1  19289 -0.33178800  12.010000   ; qtot -0.303249
19290         c3    740    ccc     C2  19290 0.30606500  12.010000   ; qtot 0.002816
19291         h1    740    ccc     H1  19291 0.11662300   1.008000   ; qtot 0.119439
19292         h1    740    ccc     H2  19292 0.11526800   1.008000   ; qtot 0.234707
19293         c3    740    ccc     C3  19293 0.15592700  12.010000   ; qtot 0.390634
19294         c3    740    ccc     C4  19294 0.28383300  12.010000   ; qtot 0.674467
19295         c3    740    ccc     C5  19295 0.32403300  12.010000   ; qtot 0.998500
19296         h1    740    ccc     H3  19296 0.13386900   1.008000   ; qtot 1.132369
19297         h1    740    ccc     H4  19297 0.10146700   1.008000   ; qtot 1.233836
19298         h2    740    ccc     H5  19298 0.10960400   1.008000   ; qtot 1.343440
19299         os    740    ccc     O1  19299 -0.28650000  16.000000   ; qtot 1.056940
19300         oh    740    ccc     O2  19300 -0.86012500  16.000000   ; qtot 0.196815
19301         oh    740    ccc     O3  19301 -0.83772800  16.000000   ; qtot -0.640913
19302         oh    740    ccc     O4  19302 -0.77449700  16.000000   ; qtot -1.415410
19303         c3    740    ccc     C6  19303 0.37576500  12.010000   ; qtot -1.039645
19304         ho    740    ccc     H6  19304 0.53656000   1.008000   ; qtot -0.503085
19305         ho    740    ccc     H7  19305 0.49492100   1.008000   ; qtot -0.008164
19306         ho    740    ccc     H8  19306 0.51297200   1.008000   ; qtot 0.504808
19307         h1    740    ccc     H9  19307 0.05653400   1.008000   ; qtot 0.561342
19308         h1    740    ccc    H10  19308 0.05653400   1.008000   ; qtot 0.617876
19309         oh    740    ccc     O5  19309 -0.84113600  16.000000   ; qtot -0.223260
19310         ho    740    ccc    H11  19310 0.51201600   1.008000   ; qtot 0.288756
19311         os    740    ccc     O6  19311 -0.26013600  16.000000   ; qtot 0.028620
; residue  741 ccc rtp ccc q 0.0
19312         c3    741    ccc     C1  19312 -0.33178800  12.010000   ; qtot -0.303168
19313         c3    741    ccc     C2  19313 0.30606500  12.010000   ; qtot 0.002897
19314         h1    741    ccc     H1  19314 0.11662300   1.008000   ; qtot 0.119520
19315         h1    741    ccc     H2  19315 0.11526800   1.008000   ; qtot 0.234788
19316         c3    741    ccc     C3  19316 0.15592700  12.010000   ; qtot 0.390715
19317         c3    741    ccc     C4  19317 0.28383300  12.010000   ; qtot 0.674548
19318         c3    741    ccc     C5  19318 0.32403300  12.010000   ; qtot 0.998581
19319         h1    741    ccc     H3  19319 0.13386900   1.008000   ; qtot 1.132450
19320         h1    741    ccc     H4  19320 0.10146700   1.008000   ; qtot 1.233917
19321         h2    741    ccc     H5  19321 0.10960400   1.008000   ; qtot 1.343521
19322         os    741    ccc     O1  19322 -0.28650000  16.000000   ; qtot 1.057021
19323         oh    741    ccc     O2  19323 -0.86012500  16.000000   ; qtot 0.196896
19324         oh    741    ccc     O3  19324 -0.83772800  16.000000   ; qtot -0.640832
19325         oh    741    ccc     O4  19325 -0.77449700  16.000000   ; qtot -1.415329
19326         c3    741    ccc     C6  19326 0.37576500  12.010000   ; qtot -1.039564
19327         ho    741    ccc     H6  19327 0.53656000   1.008000   ; qtot -0.503004
19328         ho    741    ccc     H7  19328 0.49492100   1.008000   ; qtot -0.008083
19329         ho    741    ccc     H8  19329 0.51297200   1.008000   ; qtot 0.504889
19330         h1    741    ccc     H9  19330 0.05653400   1.008000   ; qtot 0.561423
19331         h1    741    ccc    H10  19331 0.05653400   1.008000   ; qtot 0.617957
19332         oh    741    ccc     O5  19332 -0.84113600  16.000000   ; qtot -0.223179
19333         ho    741    ccc    H11  19333 0.51201600   1.008000   ; qtot 0.288837
19334         os    741    ccc     O6  19334 -0.26013600  16.000000   ; qtot 0.028701
; residue  742 ccc rtp ccc q 0.0
19335         c3    742    ccc     C1  19335 -0.33178800  12.010000   ; qtot -0.303087
19336         c3    742    ccc     C2  19336 0.30606500  12.010000   ; qtot 0.002978
19337         h1    742    ccc     H1  19337 0.11662300   1.008000   ; qtot 0.119601
19338         h1    742    ccc     H2  19338 0.11526800   1.008000   ; qtot 0.234869
19339         c3    742    ccc     C3  19339 0.15592700  12.010000   ; qtot 0.390796
19340         c3    742    ccc     C4  19340 0.28383300  12.010000   ; qtot 0.674629
19341         c3    742    ccc     C5  19341 0.32403300  12.010000   ; qtot 0.998662
19342         h1    742    ccc     H3  19342 0.13386900   1.008000   ; qtot 1.132531
19343         h1    742    ccc     H4  19343 0.10146700   1.008000   ; qtot 1.233998
19344         h2    742    ccc     H5  19344 0.10960400   1.008000   ; qtot 1.343602
19345         os    742    ccc     O1  19345 -0.28650000  16.000000   ; qtot 1.057102
19346         oh    742    ccc     O2  19346 -0.86012500  16.000000   ; qtot 0.196977
19347         oh    742    ccc     O3  19347 -0.83772800  16.000000   ; qtot -0.640751
19348         oh    742    ccc     O4  19348 -0.77449700  16.000000   ; qtot -1.415248
19349         c3    742    ccc     C6  19349 0.37576500  12.010000   ; qtot -1.039483
19350         ho    742    ccc     H6  19350 0.53656000   1.008000   ; qtot -0.502923
19351         ho    742    ccc     H7  19351 0.49492100   1.008000   ; qtot -0.008002
19352         ho    742    ccc     H8  19352 0.51297200   1.008000   ; qtot 0.504970
19353         h1    742    ccc     H9  19353 0.05653400   1.008000   ; qtot 0.561504
19354         h1    742    ccc    H10  19354 0.05653400   1.008000   ; qtot 0.618038
19355         oh    742    ccc     O5  19355 -0.84113600  16.000000   ; qtot -0.223098
19356         ho    742    ccc    H11  19356 0.51201600   1.008000   ; qtot 0.288918
19357         os    742    ccc     O6  19357 -0.26013600  16.000000   ; qtot 0.028782
; residue  743 ccc rtp ccc q 0.0
19358         c3    743    ccc     C1  19358 -0.33178800  12.010000   ; qtot -0.303006
19359         c3    743    ccc     C2  19359 0.30606500  12.010000   ; qtot 0.003059
19360         h1    743    ccc     H1  19360 0.11662300   1.008000   ; qtot 0.119682
19361         h1    743    ccc     H2  19361 0.11526800   1.008000   ; qtot 0.234950
19362         c3    743    ccc     C3  19362 0.15592700  12.010000   ; qtot 0.390877
19363         c3    743    ccc     C4  19363 0.28383300  12.010000   ; qtot 0.674710
19364         c3    743    ccc     C5  19364 0.32403300  12.010000   ; qtot 0.998743
19365         h1    743    ccc     H3  19365 0.13386900   1.008000   ; qtot 1.132612
19366         h1    743    ccc     H4  19366 0.10146700   1.008000   ; qtot 1.234079
19367         h2    743    ccc     H5  19367 0.10960400   1.008000   ; qtot 1.343683
19368         os    743    ccc     O1  19368 -0.28650000  16.000000   ; qtot 1.057183
19369         oh    743    ccc     O2  19369 -0.86012500  16.000000   ; qtot 0.197058
19370         oh    743    ccc     O3  19370 -0.83772800  16.000000   ; qtot -0.640670
19371         oh    743    ccc     O4  19371 -0.77449700  16.000000   ; qtot -1.415167
19372         c3    743    ccc     C6  19372 0.37576500  12.010000   ; qtot -1.039402
19373         ho    743    ccc     H6  19373 0.53656000   1.008000   ; qtot -0.502842
19374         ho    743    ccc     H7  19374 0.49492100   1.008000   ; qtot -0.007921
19375         ho    743    ccc     H8  19375 0.51297200   1.008000   ; qtot 0.505051
19376         h1    743    ccc     H9  19376 0.05653400   1.008000   ; qtot 0.561585
19377         h1    743    ccc    H10  19377 0.05653400   1.008000   ; qtot 0.618119
19378         oh    743    ccc     O5  19378 -0.84113600  16.000000   ; qtot -0.223017
19379         ho    743    ccc    H11  19379 0.51201600   1.008000   ; qtot 0.288999
19380         os    743    ccc     O6  19380 -0.26013600  16.000000   ; qtot 0.028863
; residue  744 ccc rtp ccc q 0.0
19381         c3    744    ccc     C1  19381 -0.33178800  12.010000   ; qtot -0.302925
19382         c3    744    ccc     C2  19382 0.30606500  12.010000   ; qtot 0.003140
19383         h1    744    ccc     H1  19383 0.11662300   1.008000   ; qtot 0.119763
19384         h1    744    ccc     H2  19384 0.11526800   1.008000   ; qtot 0.235031
19385         c3    744    ccc     C3  19385 0.15592700  12.010000   ; qtot 0.390958
19386         c3    744    ccc     C4  19386 0.28383300  12.010000   ; qtot 0.674791
19387         c3    744    ccc     C5  19387 0.32403300  12.010000   ; qtot 0.998824
19388         h1    744    ccc     H3  19388 0.13386900   1.008000   ; qtot 1.132693
19389         h1    744    ccc     H4  19389 0.10146700   1.008000   ; qtot 1.234160
19390         h2    744    ccc     H5  19390 0.10960400   1.008000   ; qtot 1.343764
19391         os    744    ccc     O1  19391 -0.28650000  16.000000   ; qtot 1.057264
19392         oh    744    ccc     O2  19392 -0.86012500  16.000000   ; qtot 0.197139
19393         oh    744    ccc     O3  19393 -0.83772800  16.000000   ; qtot -0.640589
19394         oh    744    ccc     O4  19394 -0.77449700  16.000000   ; qtot -1.415086
19395         c3    744    ccc     C6  19395 0.37576500  12.010000   ; qtot -1.039321
19396         ho    744    ccc     H6  19396 0.53656000   1.008000   ; qtot -0.502761
19397         ho    744    ccc     H7  19397 0.49492100   1.008000   ; qtot -0.007840
19398         ho    744    ccc     H8  19398 0.51297200   1.008000   ; qtot 0.505132
19399         h1    744    ccc     H9  19399 0.05653400   1.008000   ; qtot 0.561666
19400         h1    744    ccc    H10  19400 0.05653400   1.008000   ; qtot 0.618200
19401         oh    744    ccc     O5  19401 -0.84113600  16.000000   ; qtot -0.222936
19402         ho    744    ccc    H11  19402 0.51201600   1.008000   ; qtot 0.289080
19403         os    744    ccc     O6  19403 -0.26013600  16.000000   ; qtot 0.028944
; residue  745 ccc rtp ccc q 0.0
19404         c3    745    ccc     C1  19404 -0.33178800  12.010000   ; qtot -0.302844
19405         c3    745    ccc     C2  19405 0.30606500  12.010000   ; qtot 0.003221
19406         h1    745    ccc     H1  19406 0.11662300   1.008000   ; qtot 0.119844
19407         h1    745    ccc     H2  19407 0.11526800   1.008000   ; qtot 0.235112
19408         c3    745    ccc     C3  19408 0.15592700  12.010000   ; qtot 0.391039
19409         c3    745    ccc     C4  19409 0.28383300  12.010000   ; qtot 0.674872
19410         c3    745    ccc     C5  19410 0.32403300  12.010000   ; qtot 0.998905
19411         h1    745    ccc     H3  19411 0.13386900   1.008000   ; qtot 1.132774
19412         h1    745    ccc     H4  19412 0.10146700   1.008000   ; qtot 1.234241
19413         h2    745    ccc     H5  19413 0.10960400   1.008000   ; qtot 1.343845
19414         os    745    ccc     O1  19414 -0.28650000  16.000000   ; qtot 1.057345
19415         oh    745    ccc     O2  19415 -0.86012500  16.000000   ; qtot 0.197220
19416         oh    745    ccc     O3  19416 -0.83772800  16.000000   ; qtot -0.640508
19417         oh    745    ccc     O4  19417 -0.77449700  16.000000   ; qtot -1.415005
19418         c3    745    ccc     C6  19418 0.37576500  12.010000   ; qtot -1.039240
19419         ho    745    ccc     H6  19419 0.53656000   1.008000   ; qtot -0.502680
19420         ho    745    ccc     H7  19420 0.49492100   1.008000   ; qtot -0.007759
19421         ho    745    ccc     H8  19421 0.51297200   1.008000   ; qtot 0.505213
19422         h1    745    ccc     H9  19422 0.05653400   1.008000   ; qtot 0.561747
19423         h1    745    ccc    H10  19423 0.05653400   1.008000   ; qtot 0.618281
19424         oh    745    ccc     O5  19424 -0.84113600  16.000000   ; qtot -0.222855
19425         ho    745    ccc    H11  19425 0.51201600   1.008000   ; qtot 0.289161
19426         os    745    ccc     O6  19426 -0.26013600  16.000000   ; qtot 0.029025
; residue  746 ccc rtp ccc q 0.0
19427         c3    746    ccc     C1  19427 -0.33178800  12.010000   ; qtot -0.302763
19428         c3    746    ccc     C2  19428 0.30606500  12.010000   ; qtot 0.003302
19429         h1    746    ccc     H1  19429 0.11662300   1.008000   ; qtot 0.119925
19430         h1    746    ccc     H2  19430 0.11526800   1.008000   ; qtot 0.235193
19431         c3    746    ccc     C3  19431 0.15592700  12.010000   ; qtot 0.391120
19432         c3    746    ccc     C4  19432 0.28383300  12.010000   ; qtot 0.674953
19433         c3    746    ccc     C5  19433 0.32403300  12.010000   ; qtot 0.998986
19434         h1    746    ccc     H3  19434 0.13386900   1.008000   ; qtot 1.132855
19435         h1    746    ccc     H4  19435 0.10146700   1.008000   ; qtot 1.234322
19436         h2    746    ccc     H5  19436 0.10960400   1.008000   ; qtot 1.343926
19437         os    746    ccc     O1  19437 -0.28650000  16.000000   ; qtot 1.057426
19438         oh    746    ccc     O2  19438 -0.86012500  16.000000   ; qtot 0.197301
19439         oh    746    ccc     O3  19439 -0.83772800  16.000000   ; qtot -0.640427
19440         oh    746    ccc     O4  19440 -0.77449700  16.000000   ; qtot -1.414924
19441         c3    746    ccc     C6  19441 0.37576500  12.010000   ; qtot -1.039159
19442         ho    746    ccc     H6  19442 0.53656000   1.008000   ; qtot -0.502599
19443         ho    746    ccc     H7  19443 0.49492100   1.008000   ; qtot -0.007678
19444         ho    746    ccc     H8  19444 0.51297200   1.008000   ; qtot 0.505294
19445         h1    746    ccc     H9  19445 0.05653400   1.008000   ; qtot 0.561828
19446         h1    746    ccc    H10  19446 0.05653400   1.008000   ; qtot 0.618362
19447         oh    746    ccc     O5  19447 -0.84113600  16.000000   ; qtot -0.222774
19448         ho    746    ccc    H11  19448 0.51201600   1.008000   ; qtot 0.289242
19449         os    746    ccc     O6  19449 -0.26013600  16.000000   ; qtot 0.029106
; residue  747 ccc rtp ccc q 0.0
19450         c3    747    ccc     C1  19450 -0.33178800  12.010000   ; qtot -0.302682
19451         c3    747    ccc     C2  19451 0.30606500  12.010000   ; qtot 0.003383
19452         h1    747    ccc     H1  19452 0.11662300   1.008000   ; qtot 0.120006
19453         h1    747    ccc     H2  19453 0.11526800   1.008000   ; qtot 0.235274
19454         c3    747    ccc     C3  19454 0.15592700  12.010000   ; qtot 0.391201
19455         c3    747    ccc     C4  19455 0.28383300  12.010000   ; qtot 0.675034
19456         c3    747    ccc     C5  19456 0.32403300  12.010000   ; qtot 0.999067
19457         h1    747    ccc     H3  19457 0.13386900   1.008000   ; qtot 1.132936
19458         h1    747    ccc     H4  19458 0.10146700   1.008000   ; qtot 1.234403
19459         h2    747    ccc     H5  19459 0.10960400   1.008000   ; qtot 1.344007
19460         os    747    ccc     O1  19460 -0.28650000  16.000000   ; qtot 1.057507
19461         oh    747    ccc     O2  19461 -0.86012500  16.000000   ; qtot 0.197382
19462         oh    747    ccc     O3  19462 -0.83772800  16.000000   ; qtot -0.640346
19463         oh    747    ccc     O4  19463 -0.77449700  16.000000   ; qtot -1.414843
19464         c3    747    ccc     C6  19464 0.37576500  12.010000   ; qtot -1.039078
19465         ho    747    ccc     H6  19465 0.53656000   1.008000   ; qtot -0.502518
19466         ho    747    ccc     H7  19466 0.49492100   1.008000   ; qtot -0.007597
19467         ho    747    ccc     H8  19467 0.51297200   1.008000   ; qtot 0.505375
19468         h1    747    ccc     H9  19468 0.05653400   1.008000   ; qtot 0.561909
19469         h1    747    ccc    H10  19469 0.05653400   1.008000   ; qtot 0.618443
19470         oh    747    ccc     O5  19470 -0.84113600  16.000000   ; qtot -0.222693
19471         ho    747    ccc    H11  19471 0.51201600   1.008000   ; qtot 0.289323
19472         os    747    ccc     O6  19472 -0.26013600  16.000000   ; qtot 0.029187
; residue  748 ccc rtp ccc q 0.0
19473         c3    748    ccc     C1  19473 -0.33178800  12.010000   ; qtot -0.302601
19474         c3    748    ccc     C2  19474 0.30606500  12.010000   ; qtot 0.003464
19475         h1    748    ccc     H1  19475 0.11662300   1.008000   ; qtot 0.120087
19476         h1    748    ccc     H2  19476 0.11526800   1.008000   ; qtot 0.235355
19477         c3    748    ccc     C3  19477 0.15592700  12.010000   ; qtot 0.391282
19478         c3    748    ccc     C4  19478 0.28383300  12.010000   ; qtot 0.675115
19479         c3    748    ccc     C5  19479 0.32403300  12.010000   ; qtot 0.999148
19480         h1    748    ccc     H3  19480 0.13386900   1.008000   ; qtot 1.133017
19481         h1    748    ccc     H4  19481 0.10146700   1.008000   ; qtot 1.234484
19482         h2    748    ccc     H5  19482 0.10960400   1.008000   ; qtot 1.344088
19483         os    748    ccc     O1  19483 -0.28650000  16.000000   ; qtot 1.057588
19484         oh    748    ccc     O2  19484 -0.86012500  16.000000   ; qtot 0.197463
19485         oh    748    ccc     O3  19485 -0.83772800  16.000000   ; qtot -0.640265
19486         oh    748    ccc     O4  19486 -0.77449700  16.000000   ; qtot -1.414762
19487         c3    748    ccc     C6  19487 0.37576500  12.010000   ; qtot -1.038997
19488         ho    748    ccc     H6  19488 0.53656000   1.008000   ; qtot -0.502437
19489         ho    748    ccc     H7  19489 0.49492100   1.008000   ; qtot -0.007516
19490         ho    748    ccc     H8  19490 0.51297200   1.008000   ; qtot 0.505456
19491         h1    748    ccc     H9  19491 0.05653400   1.008000   ; qtot 0.561990
19492         h1    748    ccc    H10  19492 0.05653400   1.008000   ; qtot 0.618524
19493         oh    748    ccc     O5  19493 -0.84113600  16.000000   ; qtot -0.222612
19494         ho    748    ccc    H11  19494 0.51201600   1.008000   ; qtot 0.289404
19495         os    748    ccc     O6  19495 -0.26013600  16.000000   ; qtot 0.029268
; residue  749 ccc rtp ccc q 0.0
19496         c3    749    ccc     C1  19496 -0.33178800  12.010000   ; qtot -0.302520
19497         c3    749    ccc     C2  19497 0.30606500  12.010000   ; qtot 0.003545
19498         h1    749    ccc     H1  19498 0.11662300   1.008000   ; qtot 0.120168
19499         h1    749    ccc     H2  19499 0.11526800   1.008000   ; qtot 0.235436
19500         c3    749    ccc     C3  19500 0.15592700  12.010000   ; qtot 0.391363
19501         c3    749    ccc     C4  19501 0.28383300  12.010000   ; qtot 0.675196
19502         c3    749    ccc     C5  19502 0.32403300  12.010000   ; qtot 0.999229
19503         h1    749    ccc     H3  19503 0.13386900   1.008000   ; qtot 1.133098
19504         h1    749    ccc     H4  19504 0.10146700   1.008000   ; qtot 1.234565
19505         h2    749    ccc     H5  19505 0.10960400   1.008000   ; qtot 1.344169
19506         os    749    ccc     O1  19506 -0.28650000  16.000000   ; qtot 1.057669
19507         oh    749    ccc     O2  19507 -0.86012500  16.000000   ; qtot 0.197544
19508         oh    749    ccc     O3  19508 -0.83772800  16.000000   ; qtot -0.640184
19509         oh    749    ccc     O4  19509 -0.77449700  16.000000   ; qtot -1.414681
19510         c3    749    ccc     C6  19510 0.37576500  12.010000   ; qtot -1.038916
19511         ho    749    ccc     H6  19511 0.53656000   1.008000   ; qtot -0.502356
19512         ho    749    ccc     H7  19512 0.49492100   1.008000   ; qtot -0.007435
19513         ho    749    ccc     H8  19513 0.51297200   1.008000   ; qtot 0.505537
19514         h1    749    ccc     H9  19514 0.05653400   1.008000   ; qtot 0.562071
19515         h1    749    ccc    H10  19515 0.05653400   1.008000   ; qtot 0.618605
19516         oh    749    ccc     O5  19516 -0.84113600  16.000000   ; qtot -0.222531
19517         ho    749    ccc    H11  19517 0.51201600   1.008000   ; qtot 0.289485
19518         os    749    ccc     O6  19518 -0.26013600  16.000000   ; qtot 0.029349
; residue  750 ccc rtp ccc q 0.0
19519         c3    750    ccc     C1  19519 -0.33178800  12.010000   ; qtot -0.302439
19520         c3    750    ccc     C2  19520 0.30606500  12.010000   ; qtot 0.003626
19521         h1    750    ccc     H1  19521 0.11662300   1.008000   ; qtot 0.120249
19522         h1    750    ccc     H2  19522 0.11526800   1.008000   ; qtot 0.235517
19523         c3    750    ccc     C3  19523 0.15592700  12.010000   ; qtot 0.391444
19524         c3    750    ccc     C4  19524 0.28383300  12.010000   ; qtot 0.675277
19525         c3    750    ccc     C5  19525 0.32403300  12.010000   ; qtot 0.999310
19526         h1    750    ccc     H3  19526 0.13386900   1.008000   ; qtot 1.133179
19527         h1    750    ccc     H4  19527 0.10146700   1.008000   ; qtot 1.234646
19528         h2    750    ccc     H5  19528 0.10960400   1.008000   ; qtot 1.344250
19529         os    750    ccc     O1  19529 -0.28650000  16.000000   ; qtot 1.057750
19530         oh    750    ccc     O2  19530 -0.86012500  16.000000   ; qtot 0.197625
19531         oh    750    ccc     O3  19531 -0.83772800  16.000000   ; qtot -0.640103
19532         oh    750    ccc     O4  19532 -0.77449700  16.000000   ; qtot -1.414600
19533         c3    750    ccc     C6  19533 0.37576500  12.010000   ; qtot -1.038835
19534         ho    750    ccc     H6  19534 0.53656000   1.008000   ; qtot -0.502275
19535         ho    750    ccc     H7  19535 0.49492100   1.008000   ; qtot -0.007354
19536         ho    750    ccc     H8  19536 0.51297200   1.008000   ; qtot 0.505618
19537         h1    750    ccc     H9  19537 0.05653400   1.008000   ; qtot 0.562152
19538         h1    750    ccc    H10  19538 0.05653400   1.008000   ; qtot 0.618686
19539         oh    750    ccc     O5  19539 -0.84113600  16.000000   ; qtot -0.222450
19540         ho    750    ccc    H11  19540 0.51201600   1.008000   ; qtot 0.289566
19541         os    750    ccc     O6  19541 -0.26013600  16.000000   ; qtot 0.029430
; residue  751 ccc rtp ccc q 0.0
19542         c3    751    ccc     C1  19542 -0.33178800  12.010000   ; qtot -0.302358
19543         c3    751    ccc     C2  19543 0.30606500  12.010000   ; qtot 0.003707
19544         h1    751    ccc     H1  19544 0.11662300   1.008000   ; qtot 0.120330
19545         h1    751    ccc     H2  19545 0.11526800   1.008000   ; qtot 0.235598
19546         c3    751    ccc     C3  19546 0.15592700  12.010000   ; qtot 0.391525
19547         c3    751    ccc     C4  19547 0.28383300  12.010000   ; qtot 0.675358
19548         c3    751    ccc     C5  19548 0.32403300  12.010000   ; qtot 0.999391
19549         h1    751    ccc     H3  19549 0.13386900   1.008000   ; qtot 1.133260
19550         h1    751    ccc     H4  19550 0.10146700   1.008000   ; qtot 1.234727
19551         h2    751    ccc     H5  19551 0.10960400   1.008000   ; qtot 1.344331
19552         os    751    ccc     O1  19552 -0.28650000  16.000000   ; qtot 1.057831
19553         oh    751    ccc     O2  19553 -0.86012500  16.000000   ; qtot 0.197706
19554         oh    751    ccc     O3  19554 -0.83772800  16.000000   ; qtot -0.640022
19555         oh    751    ccc     O4  19555 -0.77449700  16.000000   ; qtot -1.414519
19556         c3    751    ccc     C6  19556 0.37576500  12.010000   ; qtot -1.038754
19557         ho    751    ccc     H6  19557 0.53656000   1.008000   ; qtot -0.502194
19558         ho    751    ccc     H7  19558 0.49492100   1.008000   ; qtot -0.007273
19559         ho    751    ccc     H8  19559 0.51297200   1.008000   ; qtot 0.505699
19560         h1    751    ccc     H9  19560 0.05653400   1.008000   ; qtot 0.562233
19561         h1    751    ccc    H10  19561 0.05653400   1.008000   ; qtot 0.618767
19562         oh    751    ccc     O5  19562 -0.84113600  16.000000   ; qtot -0.222369
19563         ho    751    ccc    H11  19563 0.51201600   1.008000   ; qtot 0.289647
19564         os    751    ccc     O6  19564 -0.26013600  16.000000   ; qtot 0.029511
; residue  752 ccc rtp ccc q 0.0
19565         c3    752    ccc     C1  19565 -0.33178800  12.010000   ; qtot -0.302277
19566         c3    752    ccc     C2  19566 0.30606500  12.010000   ; qtot 0.003788
19567         h1    752    ccc     H1  19567 0.11662300   1.008000   ; qtot 0.120411
19568         h1    752    ccc     H2  19568 0.11526800   1.008000   ; qtot 0.235679
19569         c3    752    ccc     C3  19569 0.15592700  12.010000   ; qtot 0.391606
19570         c3    752    ccc     C4  19570 0.28383300  12.010000   ; qtot 0.675439
19571         c3    752    ccc     C5  19571 0.32403300  12.010000   ; qtot 0.999472
19572         h1    752    ccc     H3  19572 0.13386900   1.008000   ; qtot 1.133341
19573         h1    752    ccc     H4  19573 0.10146700   1.008000   ; qtot 1.234808
19574         h2    752    ccc     H5  19574 0.10960400   1.008000   ; qtot 1.344412
19575         os    752    ccc     O1  19575 -0.28650000  16.000000   ; qtot 1.057912
19576         oh    752    ccc     O2  19576 -0.86012500  16.000000   ; qtot 0.197787
19577         oh    752    ccc     O3  19577 -0.83772800  16.000000   ; qtot -0.639941
19578         oh    752    ccc     O4  19578 -0.77449700  16.000000   ; qtot -1.414438
19579         c3    752    ccc     C6  19579 0.37576500  12.010000   ; qtot -1.038673
19580         ho    752    ccc     H6  19580 0.53656000   1.008000   ; qtot -0.502113
19581         ho    752    ccc     H7  19581 0.49492100   1.008000   ; qtot -0.007192
19582         ho    752    ccc     H8  19582 0.51297200   1.008000   ; qtot 0.505780
19583         h1    752    ccc     H9  19583 0.05653400   1.008000   ; qtot 0.562314
19584         h1    752    ccc    H10  19584 0.05653400   1.008000   ; qtot 0.618848
19585         oh    752    ccc     O5  19585 -0.84113600  16.000000   ; qtot -0.222288
19586         ho    752    ccc    H11  19586 0.51201600   1.008000   ; qtot 0.289728
19587         os    752    ccc     O6  19587 -0.26013600  16.000000   ; qtot 0.029592
; residue  753 ccc rtp ccc q 0.0
19588         c3    753    ccc     C1  19588 -0.33178800  12.010000   ; qtot -0.302196
19589         c3    753    ccc     C2  19589 0.30606500  12.010000   ; qtot 0.003869
19590         h1    753    ccc     H1  19590 0.11662300   1.008000   ; qtot 0.120492
19591         h1    753    ccc     H2  19591 0.11526800   1.008000   ; qtot 0.235760
19592         c3    753    ccc     C3  19592 0.15592700  12.010000   ; qtot 0.391687
19593         c3    753    ccc     C4  19593 0.28383300  12.010000   ; qtot 0.675520
19594         c3    753    ccc     C5  19594 0.32403300  12.010000   ; qtot 0.999553
19595         h1    753    ccc     H3  19595 0.13386900   1.008000   ; qtot 1.133422
19596         h1    753    ccc     H4  19596 0.10146700   1.008000   ; qtot 1.234889
19597         h2    753    ccc     H5  19597 0.10960400   1.008000   ; qtot 1.344493
19598         os    753    ccc     O1  19598 -0.28650000  16.000000   ; qtot 1.057993
19599         oh    753    ccc     O2  19599 -0.86012500  16.000000   ; qtot 0.197868
19600         oh    753    ccc     O3  19600 -0.83772800  16.000000   ; qtot -0.639860
19601         oh    753    ccc     O4  19601 -0.77449700  16.000000   ; qtot -1.414357
19602         c3    753    ccc     C6  19602 0.37576500  12.010000   ; qtot -1.038592
19603         ho    753    ccc     H6  19603 0.53656000   1.008000   ; qtot -0.502032
19604         ho    753    ccc     H7  19604 0.49492100   1.008000   ; qtot -0.007111
19605         ho    753    ccc     H8  19605 0.51297200   1.008000   ; qtot 0.505861
19606         h1    753    ccc     H9  19606 0.05653400   1.008000   ; qtot 0.562395
19607         h1    753    ccc    H10  19607 0.05653400   1.008000   ; qtot 0.618929
19608         oh    753    ccc     O5  19608 -0.84113600  16.000000   ; qtot -0.222207
19609         ho    753    ccc    H11  19609 0.51201600   1.008000   ; qtot 0.289809
19610         os    753    ccc     O6  19610 -0.26013600  16.000000   ; qtot 0.029673
; residue  754 ccc rtp ccc q 0.0
19611         c3    754    ccc     C1  19611 -0.33178800  12.010000   ; qtot -0.302115
19612         c3    754    ccc     C2  19612 0.30606500  12.010000   ; qtot 0.003950
19613         h1    754    ccc     H1  19613 0.11662300   1.008000   ; qtot 0.120573
19614         h1    754    ccc     H2  19614 0.11526800   1.008000   ; qtot 0.235841
19615         c3    754    ccc     C3  19615 0.15592700  12.010000   ; qtot 0.391768
19616         c3    754    ccc     C4  19616 0.28383300  12.010000   ; qtot 0.675601
19617         c3    754    ccc     C5  19617 0.32403300  12.010000   ; qtot 0.999634
19618         h1    754    ccc     H3  19618 0.13386900   1.008000   ; qtot 1.133503
19619         h1    754    ccc     H4  19619 0.10146700   1.008000   ; qtot 1.234970
19620         h2    754    ccc     H5  19620 0.10960400   1.008000   ; qtot 1.344574
19621         os    754    ccc     O1  19621 -0.28650000  16.000000   ; qtot 1.058074
19622         oh    754    ccc     O2  19622 -0.86012500  16.000000   ; qtot 0.197949
19623         oh    754    ccc     O3  19623 -0.83772800  16.000000   ; qtot -0.639779
19624         oh    754    ccc     O4  19624 -0.77449700  16.000000   ; qtot -1.414276
19625         c3    754    ccc     C6  19625 0.37576500  12.010000   ; qtot -1.038511
19626         ho    754    ccc     H6  19626 0.53656000   1.008000   ; qtot -0.501951
19627         ho    754    ccc     H7  19627 0.49492100   1.008000   ; qtot -0.007030
19628         ho    754    ccc     H8  19628 0.51297200   1.008000   ; qtot 0.505942
19629         h1    754    ccc     H9  19629 0.05653400   1.008000   ; qtot 0.562476
19630         h1    754    ccc    H10  19630 0.05653400   1.008000   ; qtot 0.619010
19631         oh    754    ccc     O5  19631 -0.84113600  16.000000   ; qtot -0.222126
19632         ho    754    ccc    H11  19632 0.51201600   1.008000   ; qtot 0.289890
19633         os    754    ccc     O6  19633 -0.26013600  16.000000   ; qtot 0.029754
; residue  755 ccc rtp ccc q 0.0
19634         c3    755    ccc     C1  19634 -0.33178800  12.010000   ; qtot -0.302034
19635         c3    755    ccc     C2  19635 0.30606500  12.010000   ; qtot 0.004031
19636         h1    755    ccc     H1  19636 0.11662300   1.008000   ; qtot 0.120654
19637         h1    755    ccc     H2  19637 0.11526800   1.008000   ; qtot 0.235922
19638         c3    755    ccc     C3  19638 0.15592700  12.010000   ; qtot 0.391849
19639         c3    755    ccc     C4  19639 0.28383300  12.010000   ; qtot 0.675682
19640         c3    755    ccc     C5  19640 0.32403300  12.010000   ; qtot 0.999715
19641         h1    755    ccc     H3  19641 0.13386900   1.008000   ; qtot 1.133584
19642         h1    755    ccc     H4  19642 0.10146700   1.008000   ; qtot 1.235051
19643         h2    755    ccc     H5  19643 0.10960400   1.008000   ; qtot 1.344655
19644         os    755    ccc     O1  19644 -0.28650000  16.000000   ; qtot 1.058155
19645         oh    755    ccc     O2  19645 -0.86012500  16.000000   ; qtot 0.198030
19646         oh    755    ccc     O3  19646 -0.83772800  16.000000   ; qtot -0.639698
19647         oh    755    ccc     O4  19647 -0.77449700  16.000000   ; qtot -1.414195
19648         c3    755    ccc     C6  19648 0.37576500  12.010000   ; qtot -1.038430
19649         ho    755    ccc     H6  19649 0.53656000   1.008000   ; qtot -0.501870
19650         ho    755    ccc     H7  19650 0.49492100   1.008000   ; qtot -0.006949
19651         ho    755    ccc     H8  19651 0.51297200   1.008000   ; qtot 0.506023
19652         h1    755    ccc     H9  19652 0.05653400   1.008000   ; qtot 0.562557
19653         h1    755    ccc    H10  19653 0.05653400   1.008000   ; qtot 0.619091
19654         oh    755    ccc     O5  19654 -0.84113600  16.000000   ; qtot -0.222045
19655         ho    755    ccc    H11  19655 0.51201600   1.008000   ; qtot 0.289971
19656         os    755    ccc     O6  19656 -0.26013600  16.000000   ; qtot 0.029835
; residue  756 ccc rtp ccc q 0.0
19657         c3    756    ccc     C1  19657 -0.33178800  12.010000   ; qtot -0.301953
19658         c3    756    ccc     C2  19658 0.30606500  12.010000   ; qtot 0.004112
19659         h1    756    ccc     H1  19659 0.11662300   1.008000   ; qtot 0.120735
19660         h1    756    ccc     H2  19660 0.11526800   1.008000   ; qtot 0.236003
19661         c3    756    ccc     C3  19661 0.15592700  12.010000   ; qtot 0.391930
19662         c3    756    ccc     C4  19662 0.28383300  12.010000   ; qtot 0.675763
19663         c3    756    ccc     C5  19663 0.32403300  12.010000   ; qtot 0.999796
19664         h1    756    ccc     H3  19664 0.13386900   1.008000   ; qtot 1.133665
19665         h1    756    ccc     H4  19665 0.10146700   1.008000   ; qtot 1.235132
19666         h2    756    ccc     H5  19666 0.10960400   1.008000   ; qtot 1.344736
19667         os    756    ccc     O1  19667 -0.28650000  16.000000   ; qtot 1.058236
19668         oh    756    ccc     O2  19668 -0.86012500  16.000000   ; qtot 0.198111
19669         oh    756    ccc     O3  19669 -0.83772800  16.000000   ; qtot -0.639617
19670         oh    756    ccc     O4  19670 -0.77449700  16.000000   ; qtot -1.414114
19671         c3    756    ccc     C6  19671 0.37576500  12.010000   ; qtot -1.038349
19672         ho    756    ccc     H6  19672 0.53656000   1.008000   ; qtot -0.501789
19673         ho    756    ccc     H7  19673 0.49492100   1.008000   ; qtot -0.006868
19674         ho    756    ccc     H8  19674 0.51297200   1.008000   ; qtot 0.506104
19675         h1    756    ccc     H9  19675 0.05653400   1.008000   ; qtot 0.562638
19676         h1    756    ccc    H10  19676 0.05653400   1.008000   ; qtot 0.619172
19677         oh    756    ccc     O5  19677 -0.84113600  16.000000   ; qtot -0.221964
19678         ho    756    ccc    H11  19678 0.51201600   1.008000   ; qtot 0.290052
19679         os    756    ccc     O6  19679 -0.26013600  16.000000   ; qtot 0.029916
; residue  757 ccc rtp ccc q 0.0
19680         c3    757    ccc     C1  19680 -0.33178800  12.010000   ; qtot -0.301872
19681         c3    757    ccc     C2  19681 0.30606500  12.010000   ; qtot 0.004193
19682         h1    757    ccc     H1  19682 0.11662300   1.008000   ; qtot 0.120816
19683         h1    757    ccc     H2  19683 0.11526800   1.008000   ; qtot 0.236084
19684         c3    757    ccc     C3  19684 0.15592700  12.010000   ; qtot 0.392011
19685         c3    757    ccc     C4  19685 0.28383300  12.010000   ; qtot 0.675844
19686         c3    757    ccc     C5  19686 0.32403300  12.010000   ; qtot 0.999877
19687         h1    757    ccc     H3  19687 0.13386900   1.008000   ; qtot 1.133746
19688         h1    757    ccc     H4  19688 0.10146700   1.008000   ; qtot 1.235213
19689         h2    757    ccc     H5  19689 0.10960400   1.008000   ; qtot 1.344817
19690         os    757    ccc     O1  19690 -0.28650000  16.000000   ; qtot 1.058317
19691         oh    757    ccc     O2  19691 -0.86012500  16.000000   ; qtot 0.198192
19692         oh    757    ccc     O3  19692 -0.83772800  16.000000   ; qtot -0.639536
19693         oh    757    ccc     O4  19693 -0.77449700  16.000000   ; qtot -1.414033
19694         c3    757    ccc     C6  19694 0.37576500  12.010000   ; qtot -1.038268
19695         ho    757    ccc     H6  19695 0.53656000   1.008000   ; qtot -0.501708
19696         ho    757    ccc     H7  19696 0.49492100   1.008000   ; qtot -0.006787
19697         ho    757    ccc     H8  19697 0.51297200   1.008000   ; qtot 0.506185
19698         h1    757    ccc     H9  19698 0.05653400   1.008000   ; qtot 0.562719
19699         h1    757    ccc    H10  19699 0.05653400   1.008000   ; qtot 0.619253
19700         oh    757    ccc     O5  19700 -0.84113600  16.000000   ; qtot -0.221883
19701         ho    757    ccc    H11  19701 0.51201600   1.008000   ; qtot 0.290133
19702         os    757    ccc     O6  19702 -0.26013600  16.000000   ; qtot 0.029997
; residue  758 ccc rtp ccc q 0.0
19703         c3    758    ccc     C1  19703 -0.33178800  12.010000   ; qtot -0.301791
19704         c3    758    ccc     C2  19704 0.30606500  12.010000   ; qtot 0.004274
19705         h1    758    ccc     H1  19705 0.11662300   1.008000   ; qtot 0.120897
19706         h1    758    ccc     H2  19706 0.11526800   1.008000   ; qtot 0.236165
19707         c3    758    ccc     C3  19707 0.15592700  12.010000   ; qtot 0.392092
19708         c3    758    ccc     C4  19708 0.28383300  12.010000   ; qtot 0.675925
19709         c3    758    ccc     C5  19709 0.32403300  12.010000   ; qtot 0.999958
19710         h1    758    ccc     H3  19710 0.13386900   1.008000   ; qtot 1.133827
19711         h1    758    ccc     H4  19711 0.10146700   1.008000   ; qtot 1.235294
19712         h2    758    ccc     H5  19712 0.10960400   1.008000   ; qtot 1.344898
19713         os    758    ccc     O1  19713 -0.28650000  16.000000   ; qtot 1.058398
19714         oh    758    ccc     O2  19714 -0.86012500  16.000000   ; qtot 0.198273
19715         oh    758    ccc     O3  19715 -0.83772800  16.000000   ; qtot -0.639455
19716         oh    758    ccc     O4  19716 -0.77449700  16.000000   ; qtot -1.413952
19717         c3    758    ccc     C6  19717 0.37576500  12.010000   ; qtot -1.038187
19718         ho    758    ccc     H6  19718 0.53656000   1.008000   ; qtot -0.501627
19719         ho    758    ccc     H7  19719 0.49492100   1.008000   ; qtot -0.006706
19720         ho    758    ccc     H8  19720 0.51297200   1.008000   ; qtot 0.506266
19721         h1    758    ccc     H9  19721 0.05653400   1.008000   ; qtot 0.562800
19722         h1    758    ccc    H10  19722 0.05653400   1.008000   ; qtot 0.619334
19723         oh    758    ccc     O5  19723 -0.84113600  16.000000   ; qtot -0.221802
19724         ho    758    ccc    H11  19724 0.51201600   1.008000   ; qtot 0.290214
19725         os    758    ccc     O6  19725 -0.26013600  16.000000   ; qtot 0.030078
; residue  759 ccc rtp ccc q 0.0
19726         c3    759    ccc     C1  19726 -0.33178800  12.010000   ; qtot -0.301710
19727         c3    759    ccc     C2  19727 0.30606500  12.010000   ; qtot 0.004355
19728         h1    759    ccc     H1  19728 0.11662300   1.008000   ; qtot 0.120978
19729         h1    759    ccc     H2  19729 0.11526800   1.008000   ; qtot 0.236246
19730         c3    759    ccc     C3  19730 0.15592700  12.010000   ; qtot 0.392173
19731         c3    759    ccc     C4  19731 0.28383300  12.010000   ; qtot 0.676006
19732         c3    759    ccc     C5  19732 0.32403300  12.010000   ; qtot 1.000039
19733         h1    759    ccc     H3  19733 0.13386900   1.008000   ; qtot 1.133908
19734         h1    759    ccc     H4  19734 0.10146700   1.008000   ; qtot 1.235375
19735         h2    759    ccc     H5  19735 0.10960400   1.008000   ; qtot 1.344979
19736         os    759    ccc     O1  19736 -0.28650000  16.000000   ; qtot 1.058479
19737         oh    759    ccc     O2  19737 -0.86012500  16.000000   ; qtot 0.198354
19738         oh    759    ccc     O3  19738 -0.83772800  16.000000   ; qtot -0.639374
19739         oh    759    ccc     O4  19739 -0.77449700  16.000000   ; qtot -1.413871
19740         c3    759    ccc     C6  19740 0.37576500  12.010000   ; qtot -1.038106
19741         ho    759    ccc     H6  19741 0.53656000   1.008000   ; qtot -0.501546
19742         ho    759    ccc     H7  19742 0.49492100   1.008000   ; qtot -0.006625
19743         ho    759    ccc     H8  19743 0.51297200   1.008000   ; qtot 0.506347
19744         h1    759    ccc     H9  19744 0.05653400   1.008000   ; qtot 0.562881
19745         h1    759    ccc    H10  19745 0.05653400   1.008000   ; qtot 0.619415
19746         oh    759    ccc     O5  19746 -0.84113600  16.000000   ; qtot -0.221721
19747         ho    759    ccc    H11  19747 0.51201600   1.008000   ; qtot 0.290295
19748         os    759    ccc     O6  19748 -0.26013600  16.000000   ; qtot 0.030159
; residue  760 ccc rtp ccc q 0.0
19749         c3    760    ccc     C1  19749 -0.33178800  12.010000   ; qtot -0.301629
19750         c3    760    ccc     C2  19750 0.30606500  12.010000   ; qtot 0.004436
19751         h1    760    ccc     H1  19751 0.11662300   1.008000   ; qtot 0.121059
19752         h1    760    ccc     H2  19752 0.11526800   1.008000   ; qtot 0.236327
19753         c3    760    ccc     C3  19753 0.15592700  12.010000   ; qtot 0.392254
19754         c3    760    ccc     C4  19754 0.28383300  12.010000   ; qtot 0.676087
19755         c3    760    ccc     C5  19755 0.32403300  12.010000   ; qtot 1.000120
19756         h1    760    ccc     H3  19756 0.13386900   1.008000   ; qtot 1.133989
19757         h1    760    ccc     H4  19757 0.10146700   1.008000   ; qtot 1.235456
19758         h2    760    ccc     H5  19758 0.10960400   1.008000   ; qtot 1.345060
19759         os    760    ccc     O1  19759 -0.28650000  16.000000   ; qtot 1.058560
19760         oh    760    ccc     O2  19760 -0.86012500  16.000000   ; qtot 0.198435
19761         oh    760    ccc     O3  19761 -0.83772800  16.000000   ; qtot -0.639293
19762         oh    760    ccc     O4  19762 -0.77449700  16.000000   ; qtot -1.413790
19763         c3    760    ccc     C6  19763 0.37576500  12.010000   ; qtot -1.038025
19764         ho    760    ccc     H6  19764 0.53656000   1.008000   ; qtot -0.501465
19765         ho    760    ccc     H7  19765 0.49492100   1.008000   ; qtot -0.006544
19766         ho    760    ccc     H8  19766 0.51297200   1.008000   ; qtot 0.506428
19767         h1    760    ccc     H9  19767 0.05653400   1.008000   ; qtot 0.562962
19768         h1    760    ccc    H10  19768 0.05653400   1.008000   ; qtot 0.619496
19769         oh    760    ccc     O5  19769 -0.84113600  16.000000   ; qtot -0.221640
19770         ho    760    ccc    H11  19770 0.51201600   1.008000   ; qtot 0.290376
19771         os    760    ccc     O6  19771 -0.26013600  16.000000   ; qtot 0.030240
; residue  761 ccc rtp ccc q 0.0
19772         c3    761    ccc     C1  19772 -0.33178800  12.010000   ; qtot -0.301548
19773         c3    761    ccc     C2  19773 0.30606500  12.010000   ; qtot 0.004517
19774         h1    761    ccc     H1  19774 0.11662300   1.008000   ; qtot 0.121140
19775         h1    761    ccc     H2  19775 0.11526800   1.008000   ; qtot 0.236408
19776         c3    761    ccc     C3  19776 0.15592700  12.010000   ; qtot 0.392335
19777         c3    761    ccc     C4  19777 0.28383300  12.010000   ; qtot 0.676168
19778         c3    761    ccc     C5  19778 0.32403300  12.010000   ; qtot 1.000201
19779         h1    761    ccc     H3  19779 0.13386900   1.008000   ; qtot 1.134070
19780         h1    761    ccc     H4  19780 0.10146700   1.008000   ; qtot 1.235537
19781         h2    761    ccc     H5  19781 0.10960400   1.008000   ; qtot 1.345141
19782         os    761    ccc     O1  19782 -0.28650000  16.000000   ; qtot 1.058641
19783         oh    761    ccc     O2  19783 -0.86012500  16.000000   ; qtot 0.198516
19784         oh    761    ccc     O3  19784 -0.83772800  16.000000   ; qtot -0.639212
19785         oh    761    ccc     O4  19785 -0.77449700  16.000000   ; qtot -1.413709
19786         c3    761    ccc     C6  19786 0.37576500  12.010000   ; qtot -1.037944
19787         ho    761    ccc     H6  19787 0.53656000   1.008000   ; qtot -0.501384
19788         ho    761    ccc     H7  19788 0.49492100   1.008000   ; qtot -0.006463
19789         ho    761    ccc     H8  19789 0.51297200   1.008000   ; qtot 0.506509
19790         h1    761    ccc     H9  19790 0.05653400   1.008000   ; qtot 0.563043
19791         h1    761    ccc    H10  19791 0.05653400   1.008000   ; qtot 0.619577
19792         oh    761    ccc     O5  19792 -0.84113600  16.000000   ; qtot -0.221559
19793         ho    761    ccc    H11  19793 0.51201600   1.008000   ; qtot 0.290457
19794         os    761    ccc     O6  19794 -0.26013600  16.000000   ; qtot 0.030321
; residue  762 ccc rtp ccc q 0.0
19795         c3    762    ccc     C1  19795 -0.33178800  12.010000   ; qtot -0.301467
19796         c3    762    ccc     C2  19796 0.30606500  12.010000   ; qtot 0.004598
19797         h1    762    ccc     H1  19797 0.11662300   1.008000   ; qtot 0.121221
19798         h1    762    ccc     H2  19798 0.11526800   1.008000   ; qtot 0.236489
19799         c3    762    ccc     C3  19799 0.15592700  12.010000   ; qtot 0.392416
19800         c3    762    ccc     C4  19800 0.28383300  12.010000   ; qtot 0.676249
19801         c3    762    ccc     C5  19801 0.32403300  12.010000   ; qtot 1.000282
19802         h1    762    ccc     H3  19802 0.13386900   1.008000   ; qtot 1.134151
19803         h1    762    ccc     H4  19803 0.10146700   1.008000   ; qtot 1.235618
19804         h2    762    ccc     H5  19804 0.10960400   1.008000   ; qtot 1.345222
19805         os    762    ccc     O1  19805 -0.28650000  16.000000   ; qtot 1.058722
19806         oh    762    ccc     O2  19806 -0.86012500  16.000000   ; qtot 0.198597
19807         oh    762    ccc     O3  19807 -0.83772800  16.000000   ; qtot -0.639131
19808         oh    762    ccc     O4  19808 -0.77449700  16.000000   ; qtot -1.413628
19809         c3    762    ccc     C6  19809 0.37576500  12.010000   ; qtot -1.037863
19810         ho    762    ccc     H6  19810 0.53656000   1.008000   ; qtot -0.501303
19811         ho    762    ccc     H7  19811 0.49492100   1.008000   ; qtot -0.006382
19812         ho    762    ccc     H8  19812 0.51297200   1.008000   ; qtot 0.506590
19813         h1    762    ccc     H9  19813 0.05653400   1.008000   ; qtot 0.563124
19814         h1    762    ccc    H10  19814 0.05653400   1.008000   ; qtot 0.619658
19815         oh    762    ccc     O5  19815 -0.84113600  16.000000   ; qtot -0.221478
19816         ho    762    ccc    H11  19816 0.51201600   1.008000   ; qtot 0.290538
19817         os    762    ccc     O6  19817 -0.26013600  16.000000   ; qtot 0.030402
; residue  763 ccc rtp ccc q 0.0
19818         c3    763    ccc     C1  19818 -0.33178800  12.010000   ; qtot -0.301386
19819         c3    763    ccc     C2  19819 0.30606500  12.010000   ; qtot 0.004679
19820         h1    763    ccc     H1  19820 0.11662300   1.008000   ; qtot 0.121302
19821         h1    763    ccc     H2  19821 0.11526800   1.008000   ; qtot 0.236570
19822         c3    763    ccc     C3  19822 0.15592700  12.010000   ; qtot 0.392497
19823         c3    763    ccc     C4  19823 0.28383300  12.010000   ; qtot 0.676330
19824         c3    763    ccc     C5  19824 0.32403300  12.010000   ; qtot 1.000363
19825         h1    763    ccc     H3  19825 0.13386900   1.008000   ; qtot 1.134232
19826         h1    763    ccc     H4  19826 0.10146700   1.008000   ; qtot 1.235699
19827         h2    763    ccc     H5  19827 0.10960400   1.008000   ; qtot 1.345303
19828         os    763    ccc     O1  19828 -0.28650000  16.000000   ; qtot 1.058803
19829         oh    763    ccc     O2  19829 -0.86012500  16.000000   ; qtot 0.198678
19830         oh    763    ccc     O3  19830 -0.83772800  16.000000   ; qtot -0.639050
19831         oh    763    ccc     O4  19831 -0.77449700  16.000000   ; qtot -1.413547
19832         c3    763    ccc     C6  19832 0.37576500  12.010000   ; qtot -1.037782
19833         ho    763    ccc     H6  19833 0.53656000   1.008000   ; qtot -0.501222
19834         ho    763    ccc     H7  19834 0.49492100   1.008000   ; qtot -0.006301
19835         ho    763    ccc     H8  19835 0.51297200   1.008000   ; qtot 0.506671
19836         h1    763    ccc     H9  19836 0.05653400   1.008000   ; qtot 0.563205
19837         h1    763    ccc    H10  19837 0.05653400   1.008000   ; qtot 0.619739
19838         oh    763    ccc     O5  19838 -0.84113600  16.000000   ; qtot -0.221397
19839         ho    763    ccc    H11  19839 0.51201600   1.008000   ; qtot 0.290619
19840         os    763    ccc     O6  19840 -0.26013600  16.000000   ; qtot 0.030483
; residue  764 ccc rtp ccc q 0.0
19841         c3    764    ccc     C1  19841 -0.33178800  12.010000   ; qtot -0.301305
19842         c3    764    ccc     C2  19842 0.30606500  12.010000   ; qtot 0.004760
19843         h1    764    ccc     H1  19843 0.11662300   1.008000   ; qtot 0.121383
19844         h1    764    ccc     H2  19844 0.11526800   1.008000   ; qtot 0.236651
19845         c3    764    ccc     C3  19845 0.15592700  12.010000   ; qtot 0.392578
19846         c3    764    ccc     C4  19846 0.28383300  12.010000   ; qtot 0.676411
19847         c3    764    ccc     C5  19847 0.32403300  12.010000   ; qtot 1.000444
19848         h1    764    ccc     H3  19848 0.13386900   1.008000   ; qtot 1.134313
19849         h1    764    ccc     H4  19849 0.10146700   1.008000   ; qtot 1.235780
19850         h2    764    ccc     H5  19850 0.10960400   1.008000   ; qtot 1.345384
19851         os    764    ccc     O1  19851 -0.28650000  16.000000   ; qtot 1.058884
19852         oh    764    ccc     O2  19852 -0.86012500  16.000000   ; qtot 0.198759
19853         oh    764    ccc     O3  19853 -0.83772800  16.000000   ; qtot -0.638969
19854         oh    764    ccc     O4  19854 -0.77449700  16.000000   ; qtot -1.413466
19855         c3    764    ccc     C6  19855 0.37576500  12.010000   ; qtot -1.037701
19856         ho    764    ccc     H6  19856 0.53656000   1.008000   ; qtot -0.501141
19857         ho    764    ccc     H7  19857 0.49492100   1.008000   ; qtot -0.006220
19858         ho    764    ccc     H8  19858 0.51297200   1.008000   ; qtot 0.506752
19859         h1    764    ccc     H9  19859 0.05653400   1.008000   ; qtot 0.563286
19860         h1    764    ccc    H10  19860 0.05653400   1.008000   ; qtot 0.619820
19861         oh    764    ccc     O5  19861 -0.84113600  16.000000   ; qtot -0.221316
19862         ho    764    ccc    H11  19862 0.51201600   1.008000   ; qtot 0.290700
19863         os    764    ccc     O6  19863 -0.26013600  16.000000   ; qtot 0.030564
; residue  765 ccc rtp ccc q 0.0
19864         c3    765    ccc     C1  19864 -0.33178800  12.010000   ; qtot -0.301224
19865         c3    765    ccc     C2  19865 0.30606500  12.010000   ; qtot 0.004841
19866         h1    765    ccc     H1  19866 0.11662300   1.008000   ; qtot 0.121464
19867         h1    765    ccc     H2  19867 0.11526800   1.008000   ; qtot 0.236732
19868         c3    765    ccc     C3  19868 0.15592700  12.010000   ; qtot 0.392659
19869         c3    765    ccc     C4  19869 0.28383300  12.010000   ; qtot 0.676492
19870         c3    765    ccc     C5  19870 0.32403300  12.010000   ; qtot 1.000525
19871         h1    765    ccc     H3  19871 0.13386900   1.008000   ; qtot 1.134394
19872         h1    765    ccc     H4  19872 0.10146700   1.008000   ; qtot 1.235861
19873         h2    765    ccc     H5  19873 0.10960400   1.008000   ; qtot 1.345465
19874         os    765    ccc     O1  19874 -0.28650000  16.000000   ; qtot 1.058965
19875         oh    765    ccc     O2  19875 -0.86012500  16.000000   ; qtot 0.198840
19876         oh    765    ccc     O3  19876 -0.83772800  16.000000   ; qtot -0.638888
19877         oh    765    ccc     O4  19877 -0.77449700  16.000000   ; qtot -1.413385
19878         c3    765    ccc     C6  19878 0.37576500  12.010000   ; qtot -1.037620
19879         ho    765    ccc     H6  19879 0.53656000   1.008000   ; qtot -0.501060
19880         ho    765    ccc     H7  19880 0.49492100   1.008000   ; qtot -0.006139
19881         ho    765    ccc     H8  19881 0.51297200   1.008000   ; qtot 0.506833
19882         h1    765    ccc     H9  19882 0.05653400   1.008000   ; qtot 0.563367
19883         h1    765    ccc    H10  19883 0.05653400   1.008000   ; qtot 0.619901
19884         oh    765    ccc     O5  19884 -0.84113600  16.000000   ; qtot -0.221235
19885         ho    765    ccc    H11  19885 0.51201600   1.008000   ; qtot 0.290781
19886         os    765    ccc     O6  19886 -0.26013600  16.000000   ; qtot 0.030645
; residue  766 ccc rtp ccc q 0.0
19887         c3    766    ccc     C1  19887 -0.33178800  12.010000   ; qtot -0.301143
19888         c3    766    ccc     C2  19888 0.30606500  12.010000   ; qtot 0.004922
19889         h1    766    ccc     H1  19889 0.11662300   1.008000   ; qtot 0.121545
19890         h1    766    ccc     H2  19890 0.11526800   1.008000   ; qtot 0.236813
19891         c3    766    ccc     C3  19891 0.15592700  12.010000   ; qtot 0.392740
19892         c3    766    ccc     C4  19892 0.28383300  12.010000   ; qtot 0.676573
19893         c3    766    ccc     C5  19893 0.32403300  12.010000   ; qtot 1.000606
19894         h1    766    ccc     H3  19894 0.13386900   1.008000   ; qtot 1.134475
19895         h1    766    ccc     H4  19895 0.10146700   1.008000   ; qtot 1.235942
19896         h2    766    ccc     H5  19896 0.10960400   1.008000   ; qtot 1.345546
19897         os    766    ccc     O1  19897 -0.28650000  16.000000   ; qtot 1.059046
19898         oh    766    ccc     O2  19898 -0.86012500  16.000000   ; qtot 0.198921
19899         oh    766    ccc     O3  19899 -0.83772800  16.000000   ; qtot -0.638807
19900         oh    766    ccc     O4  19900 -0.77449700  16.000000   ; qtot -1.413304
19901         c3    766    ccc     C6  19901 0.37576500  12.010000   ; qtot -1.037539
19902         ho    766    ccc     H6  19902 0.53656000   1.008000   ; qtot -0.500979
19903         ho    766    ccc     H7  19903 0.49492100   1.008000   ; qtot -0.006058
19904         ho    766    ccc     H8  19904 0.51297200   1.008000   ; qtot 0.506914
19905         h1    766    ccc     H9  19905 0.05653400   1.008000   ; qtot 0.563448
19906         h1    766    ccc    H10  19906 0.05653400   1.008000   ; qtot 0.619982
19907         oh    766    ccc     O5  19907 -0.84113600  16.000000   ; qtot -0.221154
19908         ho    766    ccc    H11  19908 0.51201600   1.008000   ; qtot 0.290862
19909         os    766    ccc     O6  19909 -0.26013600  16.000000   ; qtot 0.030726

[ bonds ]
;    ai     aj funct         c0         c1         c2         c3
      1      2     1   0.14647 272713.120000
      1      5     1   0.14647 272713.120000
      1      8     1   0.14647 272713.120000
      2     14     1   0.15375 251793.120000
      5     17     1   0.15375 251793.120000
      8     11     1   0.15375 251793.120000
     11     23     1   0.15375 251793.120000
     14     26     1   0.15375 251793.120000
     17     20     1   0.15375 251793.120000
     20     57     1   0.14316 258236.480000
     23     86     1   0.14316 258236.480000
     26    115     1   0.14316 258236.480000
     29     30     1   0.14647 272713.120000
     29     33     1   0.14647 272713.120000
     29     36     1   0.14647 272713.120000
     30     42     1   0.15375 251793.120000
     33     45     1   0.15375 251793.120000
     36     39     1   0.15375 251793.120000
     39     48     1   0.15375 251793.120000
     42     54     1   0.15375 251793.120000
     45     51     1   0.15375 251793.120000
     48     57     1   0.14316 258236.480000
     51    144     1   0.14316 258236.480000
     54    173     1   0.14316 258236.480000
     58     59     1   0.14647 272713.120000
     58     62     1   0.14647 272713.120000
     58     65     1   0.14647 272713.120000
     59     71     1   0.15375 251793.120000
     62     74     1   0.15375 251793.120000
     65     68     1   0.15375 251793.120000
     68     77     1   0.15375 251793.120000
     71     83     1   0.15375 251793.120000
     74     80     1   0.15375 251793.120000
     77     86     1   0.14316 258236.480000
     80    202     1   0.14316 258236.480000
     83    231     1   0.14316 258236.480000
     87     88     1   0.14647 272713.120000
     87     91     1   0.14647 272713.120000
     87     94     1   0.14647 272713.120000
     88    100     1   0.15375 251793.120000
     91    103     1   0.15375 251793.120000
     94     97     1   0.15375 251793.120000
     97    106     1   0.15375 251793.120000
    100    112     1   0.15375 251793.120000
    103    109     1   0.15375 251793.120000
    106    115     1   0.14316 258236.480000
    109    260     1   0.14316 258236.480000
    112    289     1   0.14316 258236.480000
    116    117     1   0.14647 272713.120000
    116    120     1   0.14647 272713.120000
    116    123     1   0.14647 272713.120000
    117    129     1   0.15375 251793.120000
    120    132     1   0.15375 251793.120000
    123    126     1   0.15375 251793.120000
    126    135     1   0.15375 251793.120000
    129    141     1   0.15375 251793.120000
    132    138     1   0.15375 251793.120000
    135    144     1   0.14316 258236.480000
    138    318     1   0.14316 258236.480000
    141    347     1   0.14316 258236.480000
    145    146     1   0.14647 272713.120000
    145    149     1   0.14647 272713.120000
    145    152     1   0.14647 272713.120000
    146    158     1   0.15375 251793.120000
    149    161     1   0.15375 251793.120000
    152    155     1   0.15375 251793.120000
    155    164     1   0.15375 251793.120000
    158    170     1   0.15375 251793.120000
    161    167     1   0.15375 251793.120000
    164    173     1   0.14316 258236.480000
    167    376     1   0.14316 258236.480000
    170    405     1   0.14316 258236.480000
    174    175     1   0.14647 272713.120000
    174    178     1   0.14647 272713.120000
    174    181     1   0.14647 272713.120000
    175    187     1   0.15375 251793.120000
    178    190     1   0.15375 251793.120000
    181    184     1   0.15375 251793.120000
    184    193     1   0.15375 251793.120000
    187    199     1   0.15375 251793.120000
    190    196     1   0.15375 251793.120000
    193    202     1   0.14316 258236.480000
    196    434     1   0.14316 258236.480000
    199    463     1   0.14316 258236.480000
    203    204     1   0.14647 272713.120000
    203    207     1   0.14647 272713.120000
    203    210     1   0.14647 272713.120000
    204    216     1   0.15375 251793.120000
    207    219     1   0.15375 251793.120000
    210    213     1   0.15375 251793.120000
    213    222     1   0.15375 251793.120000
    216    228     1   0.15375 251793.120000
    219    225     1   0.15375 251793.120000
    222    231     1   0.14316 258236.480000
    225    492     1   0.14316 258236.480000
    228    521     1   0.14316 258236.480000
    232    233     1   0.14647 272713.120000
    232    236     1   0.14647 272713.120000
    232    239     1   0.14647 272713.120000
    233    245     1   0.15375 251793.120000
    236    248     1   0.15375 251793.120000
    239    242     1   0.15375 251793.120000
    242    251     1   0.15375 251793.120000
    245    257     1   0.15375 251793.120000
    248    254     1   0.15375 251793.120000
    251    260     1   0.14316 258236.480000
    254    550     1   0.14316 258236.480000
    257    579     1   0.14316 258236.480000
    261    262     1   0.14647 272713.120000
    261    265     1   0.14647 272713.120000
    261    268     1   0.14647 272713.120000
    262    274     1   0.15375 251793.120000
    265    277     1   0.15375 251793.120000
    268    271     1   0.15375 251793.120000
    271    280     1   0.15375 251793.120000
    274    286     1   0.15375 251793.120000
    277    283     1   0.15375 251793.120000
    280    289     1   0.14316 258236.480000
    283    608     1   0.14316 258236.480000
    286    637     1   0.14316 258236.480000
    290    291     1   0.14647 272713.120000
    290    294     1   0.14647 272713.120000
    290    297     1   0.14647 272713.120000
    291    303     1   0.15375 251793.120000
    294    306     1   0.15375 251793.120000
    297    300     1   0.15375 251793.120000
    300    309     1   0.15375 251793.120000
    303    315     1   0.15375 251793.120000
    306    312     1   0.15375 251793.120000
    309    318     1   0.14316 258236.480000
    312    666     1   0.14316 258236.480000
    315    695     1   0.14316 258236.480000
    319    320     1   0.14647 272713.120000
    319    323     1   0.14647 272713.120000
    319    326     1   0.14647 272713.120000
    320    332     1   0.15375 251793.120000
    323    335     1   0.15375 251793.120000
    326    329     1   0.15375 251793.120000
    329    338     1   0.15375 251793.120000
    332    344     1   0.15375 251793.120000
    335    341     1   0.15375 251793.120000
    338    347     1   0.14316 258236.480000
    341    724     1   0.14316 258236.480000
    344    753     1   0.14316 258236.480000
    348    349     1   0.14647 272713.120000
    348    352     1   0.14647 272713.120000
    348    355     1   0.14647 272713.120000
    349    361     1   0.15375 251793.120000
    352    364     1   0.15375 251793.120000
    355    358     1   0.15375 251793.120000
    358    367     1   0.15375 251793.120000
    361    373     1   0.15375 251793.120000
    364    370     1   0.15375 251793.120000
    367    376     1   0.14316 258236.480000
    370    782     1   0.14316 258236.480000
    373    811     1   0.14316 258236.480000
    377    378     1   0.14647 272713.120000
    377    381     1   0.14647 272713.120000
    377    384     1   0.14647 272713.120000
    378    390     1   0.15375 251793.120000
    381    393     1   0.15375 251793.120000
    384    387     1   0.15375 251793.120000
    387    396     1   0.15375 251793.120000
    390    402     1   0.15375 251793.120000
    393    399     1   0.15375 251793.120000
    396    405     1   0.14316 258236.480000
    399    840     1   0.14316 258236.480000
    402    869     1   0.14316 258236.480000
    406    407     1   0.14647 272713.120000
    406    410     1   0.14647 272713.120000
    406    413     1   0.14647 272713.120000
    407    419     1   0.15375 251793.120000
    410    422     1   0.15375 251793.120000
    413    416     1   0.15375 251793.120000
    416    425     1   0.15375 251793.120000
    419    431     1   0.15375 251793.120000
    422    428     1   0.15375 251793.120000
    425    434     1   0.14316 258236.480000
    428    898     1   0.14316 258236.480000
    431    927     1   0.14316 258236.480000
    435    436     1   0.14647 272713.120000
    435    439     1   0.14647 272713.120000
    435    442     1   0.14647 272713.120000
    436    448     1   0.15375 251793.120000
    439    451     1   0.15375 251793.120000
    442    445     1   0.15375 251793.120000
    445    454     1   0.15375 251793.120000
    448    460     1   0.15375 251793.120000
    451    457     1   0.15375 251793.120000
    454    463     1   0.14316 258236.480000
    457    956     1   0.14316 258236.480000
    460    985     1   0.14316 258236.480000
    464    465     1   0.14647 272713.120000
    464    468     1   0.14647 272713.120000
    464    471     1   0.14647 272713.120000
    465    477     1   0.15375 251793.120000
    468    480     1   0.15375 251793.120000
    471    474     1   0.15375 251793.120000
    474    483     1   0.15375 251793.120000
    477    489     1   0.15375 251793.120000
    480    486     1   0.15375 251793.120000
    483    492     1   0.14316 258236.480000
    486   1014     1   0.14316 258236.480000
    489   1043     1   0.14316 258236.480000
    493    494     1   0.14647 272713.120000
    493    497     1   0.14647 272713.120000
    493    500     1   0.14647 272713.120000
    494    506     1   0.15375 251793.120000
    497    509     1   0.15375 251793.120000
    500    503     1   0.15375 251793.120000
    503    512     1   0.15375 251793.120000
    506    518     1   0.15375 251793.120000
    509    515     1   0.15375 251793.120000
    512    521     1   0.14316 258236.480000
    515   1072     1   0.14316 258236.480000
    518   1101     1   0.14316 258236.480000
    522    523     1   0.14647 272713.120000
    522    526     1   0.14647 272713.120000
    522    529     1   0.14647 272713.120000
    523    535     1   0.15375 251793.120000
    526    538     1   0.15375 251793.120000
    529    532     1   0.15375 251793.120000
    532    541     1   0.15375 251793.120000
    535    547     1   0.15375 251793.120000
    538    544     1   0.15375 251793.120000
    541    550     1   0.14316 258236.480000
    544   1130     1   0.14316 258236.480000
    547   1159     1   0.14316 258236.480000
    551    552     1   0.14647 272713.120000
    551    555     1   0.14647 272713.120000
    551    558     1   0.14647 272713.120000
    552    564     1   0.15375 251793.120000
    555    567     1   0.15375 251793.120000
    558    561     1   0.15375 251793.120000
    561    570     1   0.15375 251793.120000
    564    576     1   0.15375 251793.120000
    567    573     1   0.15375 251793.120000
    570    579     1   0.14316 258236.480000
    573   1188     1   0.14316 258236.480000
    576   1217     1   0.14316 258236.480000
    580    581     1   0.14647 272713.120000
    580    584     1   0.14647 272713.120000
    580    587     1   0.14647 272713.120000
    581    593     1   0.15375 251793.120000
    584    596     1   0.15375 251793.120000
    587    590     1   0.15375 251793.120000
    590    599     1   0.15375 251793.120000
    593    605     1   0.15375 251793.120000
    596    602     1   0.15375 251793.120000
    599    608     1   0.14316 258236.480000
    602   1246     1   0.14316 258236.480000
    605   1275     1   0.14316 258236.480000
    609    610     1   0.14647 272713.120000
    609    613     1   0.14647 272713.120000
    609    616     1   0.14647 272713.120000
    610    622     1   0.15375 251793.120000
    613    625     1   0.15375 251793.120000
    616    619     1   0.15375 251793.120000
    619    628     1   0.15375 251793.120000
    622    634     1   0.15375 251793.120000
    625    631     1   0.15375 251793.120000
    628    637     1   0.14316 258236.480000
    631   1304     1   0.14316 258236.480000
    634   1333     1   0.14316 258236.480000
    638    639     1   0.14647 272713.120000
    638    642     1   0.14647 272713.120000
    638    645     1   0.14647 272713.120000
    639    651     1   0.15375 251793.120000
    642    654     1   0.15375 251793.120000
    645    648     1   0.15375 251793.120000
    648    657     1   0.15375 251793.120000
    651    663     1   0.15375 251793.120000
    654    660     1   0.15375 251793.120000
    657    666     1   0.14316 258236.480000
    660   1362     1   0.14316 258236.480000
    663   1391     1   0.14316 258236.480000
    667    668     1   0.14647 272713.120000
    667    671     1   0.14647 272713.120000
    667    674     1   0.14647 272713.120000
    668    680     1   0.15375 251793.120000
    671    683     1   0.15375 251793.120000
    674    677     1   0.15375 251793.120000
    677    686     1   0.15375 251793.120000
    680    692     1   0.15375 251793.120000
    683    689     1   0.15375 251793.120000
    686    695     1   0.14316 258236.480000
    689   1420     1   0.14316 258236.480000
    692   1449     1   0.14316 258236.480000
    696    697     1   0.14647 272713.120000
    696    700     1   0.14647 272713.120000
    696    703     1   0.14647 272713.120000
    697    709     1   0.15375 251793.120000
    700    712     1   0.15375 251793.120000
    703    706     1   0.15375 251793.120000
    706    715     1   0.15375 251793.120000
    709    721     1   0.15375 251793.120000
    712    718     1   0.15375 251793.120000
    715    724     1   0.14316 258236.480000
    718   1478     1   0.14316 258236.480000
    721   1507     1   0.14316 258236.480000
    725    726     1   0.14647 272713.120000
    725    729     1   0.14647 272713.120000
    725    732     1   0.14647 272713.120000
    726    738     1   0.15375 251793.120000
    729    741     1   0.15375 251793.120000
    732    735     1   0.15375 251793.120000
    735    744     1   0.15375 251793.120000
    738    750     1   0.15375 251793.120000
    741    747     1   0.15375 251793.120000
    744    753     1   0.14316 258236.480000
    747   1536     1   0.14316 258236.480000
    750   1565     1   0.14316 258236.480000
    754    755     1   0.14647 272713.120000
    754    758     1   0.14647 272713.120000
    754    761     1   0.14647 272713.120000
    755    767     1   0.15375 251793.120000
    758    770     1   0.15375 251793.120000
    761    764     1   0.15375 251793.120000
    764    773     1   0.15375 251793.120000
    767    779     1   0.15375 251793.120000
    770    776     1   0.15375 251793.120000
    773    782     1   0.14316 258236.480000
    776   1594     1   0.14316 258236.480000
    779   1623     1   0.14316 258236.480000
    783    784     1   0.14647 272713.120000
    783    787     1   0.14647 272713.120000
    783    790     1   0.14647 272713.120000
    784    796     1   0.15375 251793.120000
    787    799     1   0.15375 251793.120000
    790    793     1   0.15375 251793.120000
    793    802     1   0.15375 251793.120000
    796    808     1   0.15375 251793.120000
    799    805     1   0.15375 251793.120000
    802    811     1   0.14316 258236.480000
    805   1652     1   0.14316 258236.480000
    808   1681     1   0.14316 258236.480000
    812    813     1   0.14647 272713.120000
    812    816     1   0.14647 272713.120000
    812    819     1   0.14647 272713.120000
    813    825     1   0.15375 251793.120000
    816    828     1   0.15375 251793.120000
    819    822     1   0.15375 251793.120000
    822    831     1   0.15375 251793.120000
    825    837     1   0.15375 251793.120000
    828    834     1   0.15375 251793.120000
    831    840     1   0.14316 258236.480000
    834   1710     1   0.14316 258236.480000
    837   1739     1   0.14316 258236.480000
    841    842     1   0.14647 272713.120000
    841    845     1   0.14647 272713.120000
    841    848     1   0.14647 272713.120000
    842    854     1   0.15375 251793.120000
    845    857     1   0.15375 251793.120000
    848    851     1   0.15375 251793.120000
    851    860     1   0.15375 251793.120000
    854    866     1   0.15375 251793.120000
    857    863     1   0.15375 251793.120000
    860    869     1   0.14316 258236.480000
    863   1768     1   0.14316 258236.480000
    866   1797     1   0.14316 258236.480000
    870    871     1   0.14647 272713.120000
    870    874     1   0.14647 272713.120000
    870    877     1   0.14647 272713.120000
    871    883     1   0.15375 251793.120000
    874    886     1   0.15375 251793.120000
    877    880     1   0.15375 251793.120000
    880    889     1   0.15375 251793.120000
    883    895     1   0.15375 251793.120000
    886    892     1   0.15375 251793.120000
    889    898     1   0.14316 258236.480000
    892   1826     1   0.14316 258236.480000
    895   1855     1   0.14316 258236.480000
    899    900     1   0.14647 272713.120000
    899    903     1   0.14647 272713.120000
    899    906     1   0.14647 272713.120000
    900    912     1   0.15375 251793.120000
    903    915     1   0.15375 251793.120000
    906    909     1   0.15375 251793.120000
    909    918     1   0.15375 251793.120000
    912    924     1   0.15375 251793.120000
    915    921     1   0.15375 251793.120000
    918    927     1   0.14316 258236.480000
    921   1884     1   0.14316 258236.480000
    924   1913     1   0.14316 258236.480000
    928    929     1   0.14647 272713.120000
    928    932     1   0.14647 272713.120000
    928    935     1   0.14647 272713.120000
    929    941     1   0.15375 251793.120000
    932    944     1   0.15375 251793.120000
    935    938     1   0.15375 251793.120000
    938    947     1   0.15375 251793.120000
    941    953     1   0.15375 251793.120000
    944    950     1   0.15375 251793.120000
    947    956     1   0.14316 258236.480000
    950   1942     1   0.14316 258236.480000
    953   1971     1   0.14316 258236.480000
    957    958     1   0.14647 272713.120000
    957    961     1   0.14647 272713.120000
    957    964     1   0.14647 272713.120000
    958    970     1   0.15375 251793.120000
    961    973     1   0.15375 251793.120000
    964    967     1   0.15375 251793.120000
    967    976     1   0.15375 251793.120000
    970    982     1   0.15375 251793.120000
    973    979     1   0.15375 251793.120000
    976    985     1   0.14316 258236.480000
    979   2000     1   0.14316 258236.480000
    982   2029     1   0.14316 258236.480000
    986    987     1   0.14647 272713.120000
    986    990     1   0.14647 272713.120000
    986    993     1   0.14647 272713.120000
    987    999     1   0.15375 251793.120000
    990   1002     1   0.15375 251793.120000
    993    996     1   0.15375 251793.120000
    996   1005     1   0.15375 251793.120000
    999   1011     1   0.15375 251793.120000
   1002   1008     1   0.15375 251793.120000
   1005   1014     1   0.14316 258236.480000
   1008   2058     1   0.14316 258236.480000
   1011   2087     1   0.14316 258236.480000
   1015   1016     1   0.14647 272713.120000
   1015   1019     1   0.14647 272713.120000
   1015   1022     1   0.14647 272713.120000
   1016   1028     1   0.15375 251793.120000
   1019   1031     1   0.15375 251793.120000
   1022   1025     1   0.15375 251793.120000
   1025   1034     1   0.15375 251793.120000
   1028   1040     1   0.15375 251793.120000
   1031   1037     1   0.15375 251793.120000
   1034   1043     1   0.14316 258236.480000
   1037   2116     1   0.14316 258236.480000
   1040   2145     1   0.14316 258236.480000
   1044   1045     1   0.14647 272713.120000
   1044   1048     1   0.14647 272713.120000
   1044   1051     1   0.14647 272713.120000
   1045   1057     1   0.15375 251793.120000
   1048   1060     1   0.15375 251793.120000
   1051   1054     1   0.15375 251793.120000
   1054   1063     1   0.15375 251793.120000
   1057   1069     1   0.15375 251793.120000
   1060   1066     1   0.15375 251793.120000
   1063   1072     1   0.14316 258236.480000
   1066   2174     1   0.14316 258236.480000
   1069   2203     1   0.14316 258236.480000
   1073   1074     1   0.14647 272713.120000
   1073   1077     1   0.14647 272713.120000
   1073   1080     1   0.14647 272713.120000
   1074   1086     1   0.15375 251793.120000
   1077   1089     1   0.15375 251793.120000
   1080   1083     1   0.15375 251793.120000
   1083   1092     1   0.15375 251793.120000
   1086   1098     1   0.15375 251793.120000
   1089   1095     1   0.15375 251793.120000
   1092   1101     1   0.14316 258236.480000
   1095   2232     1   0.14316 258236.480000
   1098   2261     1   0.14316 258236.480000
   1102   1103     1   0.14647 272713.120000
   1102   1106     1   0.14647 272713.120000
   1102   1109     1   0.14647 272713.120000
   1103   1115     1   0.15375 251793.120000
   1106   1118     1   0.15375 251793.120000
   1109   1112     1   0.15375 251793.120000
   1112   1121     1   0.15375 251793.120000
   1115   1127     1   0.15375 251793.120000
   1118   1124     1   0.15375 251793.120000
   1121   1130     1   0.14316 258236.480000
   1124   2290     1   0.14316 258236.480000
   1127   2319     1   0.14316 258236.480000
   1131   1132     1   0.14647 272713.120000
   1131   1135     1   0.14647 272713.120000
   1131   1138     1   0.14647 272713.120000
   1132   1144     1   0.15375 251793.120000
   1135   1147     1   0.15375 251793.120000
   1138   1141     1   0.15375 251793.120000
   1141   1150     1   0.15375 251793.120000
   1144   1156     1   0.15375 251793.120000
   1147   1153     1   0.15375 251793.120000
   1150   1159     1   0.14316 258236.480000
   1153   2348     1   0.14316 258236.480000
   1156   2377     1   0.14316 258236.480000
   1160   1161     1   0.14647 272713.120000
   1160   1164     1   0.14647 272713.120000
   1160   1167     1   0.14647 272713.120000
   1161   1173     1   0.15375 251793.120000
   1164   1176     1   0.15375 251793.120000
   1167   1170     1   0.15375 251793.120000
   1170   1179     1   0.15375 251793.120000
   1173   1185     1   0.15375 251793.120000
   1176   1182     1   0.15375 251793.120000
   1179   1188     1   0.14316 258236.480000
   1182   2406     1   0.14316 258236.480000
   1185   2435     1   0.14316 258236.480000
   1189   1190     1   0.14647 272713.120000
   1189   1193     1   0.14647 272713.120000
   1189   1196     1   0.14647 272713.120000
   1190   1202     1   0.15375 251793.120000
   1193   1205     1   0.15375 251793.120000
   1196   1199     1   0.15375 251793.120000
   1199   1208     1   0.15375 251793.120000
   1202   1214     1   0.15375 251793.120000
   1205   1211     1   0.15375 251793.120000
   1208   1217     1   0.14316 258236.480000
   1211   2464     1   0.14316 258236.480000
   1214   2493     1   0.14316 258236.480000
   1218   1219     1   0.14647 272713.120000
   1218   1222     1   0.14647 272713.120000
   1218   1225     1   0.14647 272713.120000
   1219   1231     1   0.15375 251793.120000
   1222   1234     1   0.15375 251793.120000
   1225   1228     1   0.15375 251793.120000
   1228   1237     1   0.15375 251793.120000
   1231   1243     1   0.15375 251793.120000
   1234   1240     1   0.15375 251793.120000
   1237   1246     1   0.14316 258236.480000
   1240   2522     1   0.14316 258236.480000
   1243   2551     1   0.14316 258236.480000
   1247   1248     1   0.14647 272713.120000
   1247   1251     1   0.14647 272713.120000
   1247   1254     1   0.14647 272713.120000
   1248   1260     1   0.15375 251793.120000
   1251   1263     1   0.15375 251793.120000
   1254   1257     1   0.15375 251793.120000
   1257   1266     1   0.15375 251793.120000
   1260   1272     1   0.15375 251793.120000
   1263   1269     1   0.15375 251793.120000
   1266   1275     1   0.14316 258236.480000
   1269   2580     1   0.14316 258236.480000
   1272   2609     1   0.14316 258236.480000
   1276   1277     1   0.14647 272713.120000
   1276   1280     1   0.14647 272713.120000
   1276   1283     1   0.14647 272713.120000
   1277   1289     1   0.15375 251793.120000
   1280   1292     1   0.15375 251793.120000
   1283   1286     1   0.15375 251793.120000
   1286   1295     1   0.15375 251793.120000
   1289   1301     1   0.15375 251793.120000
   1292   1298     1   0.15375 251793.120000
   1295   1304     1   0.14316 258236.480000
   1298   2638     1   0.14316 258236.480000
   1301   2667     1   0.14316 258236.480000
   1305   1306     1   0.14647 272713.120000
   1305   1309     1   0.14647 272713.120000
   1305   1312     1   0.14647 272713.120000
   1306   1318     1   0.15375 251793.120000
   1309   1321     1   0.15375 251793.120000
   1312   1315     1   0.15375 251793.120000
   1315   1324     1   0.15375 251793.120000
   1318   1330     1   0.15375 251793.120000
   1321   1327     1   0.15375 251793.120000
   1324   1333     1   0.14316 258236.480000
   1327   2696     1   0.14316 258236.480000
   1330   2725     1   0.14316 258236.480000
   1334   1335     1   0.14647 272713.120000
   1334   1338     1   0.14647 272713.120000
   1334   1341     1   0.14647 272713.120000
   1335   1347     1   0.15375 251793.120000
   1338   1350     1   0.15375 251793.120000
   1341   1344     1   0.15375 251793.120000
   1344   1353     1   0.15375 251793.120000
   1347   1359     1   0.15375 251793.120000
   1350   1356     1   0.15375 251793.120000
   1353   1362     1   0.14316 258236.480000
   1356   2754     1   0.14316 258236.480000
   1359   2783     1   0.14316 258236.480000
   1363   1364     1   0.14647 272713.120000
   1363   1367     1   0.14647 272713.120000
   1363   1370     1   0.14647 272713.120000
   1364   1376     1   0.15375 251793.120000
   1367   1379     1   0.15375 251793.120000
   1370   1373     1   0.15375 251793.120000
   1373   1382     1   0.15375 251793.120000
   1376   1388     1   0.15375 251793.120000
   1379   1385     1   0.15375 251793.120000
   1382   1391     1   0.14316 258236.480000
   1385   2812     1   0.14316 258236.480000
   1388   2841     1   0.14316 258236.480000
   1392   1393     1   0.14647 272713.120000
   1392   1396     1   0.14647 272713.120000
   1392   1399     1   0.14647 272713.120000
   1393   1405     1   0.15375 251793.120000
   1396   1408     1   0.15375 251793.120000
   1399   1402     1   0.15375 251793.120000
   1402   1411     1   0.15375 251793.120000
   1405   1417     1   0.15375 251793.120000
   1408   1414     1   0.15375 251793.120000
   1411   1420     1   0.14316 258236.480000
   1414   2870     1   0.14316 258236.480000
   1417   2899     1   0.14316 258236.480000
   1421   1422     1   0.14647 272713.120000
   1421   1425     1   0.14647 272713.120000
   1421   1428     1   0.14647 272713.120000
   1422   1434     1   0.15375 251793.120000
   1425   1437     1   0.15375 251793.120000
   1428   1431     1   0.15375 251793.120000
   1431   1440     1   0.15375 251793.120000
   1434   1446     1   0.15375 251793.120000
   1437   1443     1   0.15375 251793.120000
   1440   1449     1   0.14316 258236.480000
   1443   2928     1   0.14316 258236.480000
   1446   2957     1   0.14316 258236.480000
   1450   1451     1   0.14647 272713.120000
   1450   1454     1   0.14647 272713.120000
   1450   1457     1   0.14647 272713.120000
   1451   1463     1   0.15375 251793.120000
   1454   1466     1   0.15375 251793.120000
   1457   1460     1   0.15375 251793.120000
   1460   1469     1   0.15375 251793.120000
   1463   1475     1   0.15375 251793.120000
   1466   1472     1   0.15375 251793.120000
   1469   1478     1   0.14316 258236.480000
   1472   2986     1   0.14316 258236.480000
   1475   3015     1   0.14316 258236.480000
   1479   1480     1   0.14647 272713.120000
   1479   1483     1   0.14647 272713.120000
   1479   1486     1   0.14647 272713.120000
   1480   1492     1   0.15375 251793.120000
   1483   1495     1   0.15375 251793.120000
   1486   1489     1   0.15375 251793.120000
   1489   1498     1   0.15375 251793.120000
   1492   1504     1   0.15375 251793.120000
   1495   1501     1   0.15375 251793.120000
   1498   1507     1   0.14316 258236.480000
   1501   3044     1   0.14316 258236.480000
   1504   3073     1   0.14316 258236.480000
   1508   1509     1   0.14647 272713.120000
   1508   1512     1   0.14647 272713.120000
   1508   1515     1   0.14647 272713.120000
   1509   1521     1   0.15375 251793.120000
   1512   1524     1   0.15375 251793.120000
   1515   1518     1   0.15375 251793.120000
   1518   1527     1   0.15375 251793.120000
   1521   1533     1   0.15375 251793.120000
   1524   1530     1   0.15375 251793.120000
   1527   1536     1   0.14316 258236.480000
   1530   3102     1   0.14316 258236.480000
   1533   3131     1   0.14316 258236.480000
   1537   1538     1   0.14647 272713.120000
   1537   1541     1   0.14647 272713.120000
   1537   1544     1   0.14647 272713.120000
   1538   1550     1   0.15375 251793.120000
   1541   1553     1   0.15375 251793.120000
   1544   1547     1   0.15375 251793.120000
   1547   1556     1   0.15375 251793.120000
   1550   1562     1   0.15375 251793.120000
   1553   1559     1   0.15375 251793.120000
   1556   1565     1   0.14316 258236.480000
   1559   3160     1   0.14316 258236.480000
   1562   3189     1   0.14316 258236.480000
   1566   1567     1   0.14647 272713.120000
   1566   1570     1   0.14647 272713.120000
   1566   1573     1   0.14647 272713.120000
   1567   1579     1   0.15375 251793.120000
   1570   1582     1   0.15375 251793.120000
   1573   1576     1   0.15375 251793.120000
   1576   1585     1   0.15375 251793.120000
   1579   1591     1   0.15375 251793.120000
   1582   1588     1   0.15375 251793.120000
   1585   1594     1   0.14316 258236.480000
   1588   3218     1   0.14316 258236.480000
   1591   3247     1   0.14316 258236.480000
   1595   1596     1   0.14647 272713.120000
   1595   1599     1   0.14647 272713.120000
   1595   1602     1   0.14647 272713.120000
   1596   1608     1   0.15375 251793.120000
   1599   1611     1   0.15375 251793.120000
   1602   1605     1   0.15375 251793.120000
   1605   1614     1   0.15375 251793.120000
   1608   1620     1   0.15375 251793.120000
   1611   1617     1   0.15375 251793.120000
   1614   1623     1   0.14316 258236.480000
   1617   3276     1   0.14316 258236.480000
   1620   3305     1   0.14316 258236.480000
   1624   1625     1   0.14647 272713.120000
   1624   1628     1   0.14647 272713.120000
   1624   1631     1   0.14647 272713.120000
   1625   1637     1   0.15375 251793.120000
   1628   1640     1   0.15375 251793.120000
   1631   1634     1   0.15375 251793.120000
   1634   1643     1   0.15375 251793.120000
   1637   1649     1   0.15375 251793.120000
   1640   1646     1   0.15375 251793.120000
   1643   1652     1   0.14316 258236.480000
   1646   3334     1   0.14316 258236.480000
   1649   3363     1   0.14316 258236.480000
   1653   1654     1   0.14647 272713.120000
   1653   1657     1   0.14647 272713.120000
   1653   1660     1   0.14647 272713.120000
   1654   1666     1   0.15375 251793.120000
   1657   1669     1   0.15375 251793.120000
   1660   1663     1   0.15375 251793.120000
   1663   1672     1   0.15375 251793.120000
   1666   1678     1   0.15375 251793.120000
   1669   1675     1   0.15375 251793.120000
   1672   1681     1   0.14316 258236.480000
   1675   3392     1   0.14316 258236.480000
   1678   3421     1   0.14316 258236.480000
   1682   1683     1   0.14647 272713.120000
   1682   1686     1   0.14647 272713.120000
   1682   1689     1   0.14647 272713.120000
   1683   1695     1   0.15375 251793.120000
   1686   1698     1   0.15375 251793.120000
   1689   1692     1   0.15375 251793.120000
   1692   1701     1   0.15375 251793.120000
   1695   1707     1   0.15375 251793.120000
   1698   1704     1   0.15375 251793.120000
   1701   1710     1   0.14316 258236.480000
   1704   3450     1   0.14316 258236.480000
   1707   3479     1   0.14316 258236.480000
   1711   1712     1   0.14647 272713.120000
   1711   1715     1   0.14647 272713.120000
   1711   1718     1   0.14647 272713.120000
   1712   1724     1   0.15375 251793.120000
   1715   1727     1   0.15375 251793.120000
   1718   1721     1   0.15375 251793.120000
   1721   1730     1   0.15375 251793.120000
   1724   1736     1   0.15375 251793.120000
   1727   1733     1   0.15375 251793.120000
   1730   1739     1   0.14316 258236.480000
   1733   3508     1   0.14316 258236.480000
   1736   3537     1   0.14316 258236.480000
   1740   1741     1   0.14647 272713.120000
   1740   1744     1   0.14647 272713.120000
   1740   1747     1   0.14647 272713.120000
   1741   1753     1   0.15375 251793.120000
   1744   1756     1   0.15375 251793.120000
   1747   1750     1   0.15375 251793.120000
   1750   1759     1   0.15375 251793.120000
   1753   1765     1   0.15375 251793.120000
   1756   1762     1   0.15375 251793.120000
   1759   1768     1   0.14316 258236.480000
   1762   3566     1   0.14316 258236.480000
   1765   3595     1   0.14316 258236.480000
   1769   1770     1   0.14647 272713.120000
   1769   1773     1   0.14647 272713.120000
   1769   1776     1   0.14647 272713.120000
   1770   1782     1   0.15375 251793.120000
   1773   1785     1   0.15375 251793.120000
   1776   1779     1   0.15375 251793.120000
   1779   1788     1   0.15375 251793.120000
   1782   1794     1   0.15375 251793.120000
   1785   1791     1   0.15375 251793.120000
   1788   1797     1   0.14316 258236.480000
   1791   3624     1   0.14316 258236.480000
   1794   3653     1   0.14316 258236.480000
   1798   1799     1   0.14647 272713.120000
   1798   1802     1   0.14647 272713.120000
   1798   1805     1   0.14647 272713.120000
   1799   1811     1   0.15375 251793.120000
   1802   1814     1   0.15375 251793.120000
   1805   1808     1   0.15375 251793.120000
   1808   1817     1   0.15375 251793.120000
   1811   1823     1   0.15375 251793.120000
   1814   1820     1   0.15375 251793.120000
   1817   1826     1   0.14316 258236.480000
   1820   3682     1   0.14316 258236.480000
   1823   3711     1   0.14316 258236.480000
   1827   1828     1   0.14647 272713.120000
   1827   1831     1   0.14647 272713.120000
   1827   1834     1   0.14647 272713.120000
   1828   1840     1   0.15375 251793.120000
   1831   1843     1   0.15375 251793.120000
   1834   1837     1   0.15375 251793.120000
   1837   1846     1   0.15375 251793.120000
   1840   1852     1   0.15375 251793.120000
   1843   1849     1   0.15375 251793.120000
   1846   1855     1   0.14316 258236.480000
   1849   3740     1   0.14316 258236.480000
   1852   3769     1   0.14316 258236.480000
   1856   1857     1   0.14647 272713.120000
   1856   1860     1   0.14647 272713.120000
   1856   1863     1   0.14647 272713.120000
   1857   1869     1   0.15375 251793.120000
   1860   1872     1   0.15375 251793.120000
   1863   1866     1   0.15375 251793.120000
   1866   1875     1   0.15375 251793.120000
   1869   1881     1   0.15375 251793.120000
   1872   1878     1   0.15375 251793.120000
   1875   1884     1   0.14316 258236.480000
   1878   3798     1   0.14316 258236.480000
   1881   3827     1   0.14316 258236.480000
   1885   1886     1   0.14647 272713.120000
   1885   1889     1   0.14647 272713.120000
   1885   1892     1   0.14647 272713.120000
   1886   1898     1   0.15375 251793.120000
   1889   1901     1   0.15375 251793.120000
   1892   1895     1   0.15375 251793.120000
   1895   1904     1   0.15375 251793.120000
   1898   1910     1   0.15375 251793.120000
   1901   1907     1   0.15375 251793.120000
   1904   1913     1   0.14316 258236.480000
   1907   3856     1   0.14316 258236.480000
   1910   3885     1   0.14316 258236.480000
   1914   1915     1   0.14647 272713.120000
   1914   1918     1   0.14647 272713.120000
   1914   1921     1   0.14647 272713.120000
   1915   1927     1   0.15375 251793.120000
   1918   1930     1   0.15375 251793.120000
   1921   1924     1   0.15375 251793.120000
   1924   1933     1   0.15375 251793.120000
   1927   1939     1   0.15375 251793.120000
   1930   1936     1   0.15375 251793.120000
   1933   1942     1   0.14316 258236.480000
   1936   3914     1   0.14316 258236.480000
   1939   3943     1   0.14316 258236.480000
   1943   1944     1   0.14647 272713.120000
   1943   1947     1   0.14647 272713.120000
   1943   1950     1   0.14647 272713.120000
   1944   1956     1   0.15375 251793.120000
   1947   1959     1   0.15375 251793.120000
   1950   1953     1   0.15375 251793.120000
   1953   1962     1   0.15375 251793.120000
   1956   1968     1   0.15375 251793.120000
   1959   1965     1   0.15375 251793.120000
   1962   1971     1   0.14316 258236.480000
   1965   3972     1   0.14316 258236.480000
   1968   4001     1   0.14316 258236.480000
   1972   1973     1   0.14647 272713.120000
   1972   1976     1   0.14647 272713.120000
   1972   1979     1   0.14647 272713.120000
   1973   1985     1   0.15375 251793.120000
   1976   1988     1   0.15375 251793.120000
   1979   1982     1   0.15375 251793.120000
   1982   1991     1   0.15375 251793.120000
   1985   1997     1   0.15375 251793.120000
   1988   1994     1   0.15375 251793.120000
   1991   2000     1   0.14316 258236.480000
   1994   4030     1   0.14316 258236.480000
   1997   4059     1   0.14316 258236.480000
   2001   2002     1   0.14647 272713.120000
   2001   2005     1   0.14647 272713.120000
   2001   2008     1   0.14647 272713.120000
   2002   2014     1   0.15375 251793.120000
   2005   2017     1   0.15375 251793.120000
   2008   2011     1   0.15375 251793.120000
   2011   2020     1   0.15375 251793.120000
   2014   2026     1   0.15375 251793.120000
   2017   2023     1   0.15375 251793.120000
   2020   2029     1   0.14316 258236.480000
   2023   4088     1   0.14316 258236.480000
   2026   4117     1   0.14316 258236.480000
   2030   2031     1   0.14647 272713.120000
   2030   2034     1   0.14647 272713.120000
   2030   2037     1   0.14647 272713.120000
   2031   2043     1   0.15375 251793.120000
   2034   2046     1   0.15375 251793.120000
   2037   2040     1   0.15375 251793.120000
   2040   2049     1   0.15375 251793.120000
   2043   2055     1   0.15375 251793.120000
   2046   2052     1   0.15375 251793.120000
   2049   2058     1   0.14316 258236.480000
   2052   4146     1   0.14316 258236.480000
   2055   4175     1   0.14316 258236.480000
   2059   2060     1   0.14647 272713.120000
   2059   2063     1   0.14647 272713.120000
   2059   2066     1   0.14647 272713.120000
   2060   2072     1   0.15375 251793.120000
   2063   2075     1   0.15375 251793.120000
   2066   2069     1   0.15375 251793.120000
   2069   2078     1   0.15375 251793.120000
   2072   2084     1   0.15375 251793.120000
   2075   2081     1   0.15375 251793.120000
   2078   2087     1   0.14316 258236.480000
   2081   4204     1   0.14316 258236.480000
   2084   4233     1   0.14316 258236.480000
   2088   2089     1   0.14647 272713.120000
   2088   2092     1   0.14647 272713.120000
   2088   2095     1   0.14647 272713.120000
   2089   2101     1   0.15375 251793.120000
   2092   2104     1   0.15375 251793.120000
   2095   2098     1   0.15375 251793.120000
   2098   2107     1   0.15375 251793.120000
   2101   2113     1   0.15375 251793.120000
   2104   2110     1   0.15375 251793.120000
   2107   2116     1   0.14316 258236.480000
   2110   4262     1   0.14316 258236.480000
   2113   4291     1   0.14316 258236.480000
   2117   2118     1   0.14647 272713.120000
   2117   2121     1   0.14647 272713.120000
   2117   2124     1   0.14647 272713.120000
   2118   2130     1   0.15375 251793.120000
   2121   2133     1   0.15375 251793.120000
   2124   2127     1   0.15375 251793.120000
   2127   2136     1   0.15375 251793.120000
   2130   2142     1   0.15375 251793.120000
   2133   2139     1   0.15375 251793.120000
   2136   2145     1   0.14316 258236.480000
   2139   4320     1   0.14316 258236.480000
   2142   4349     1   0.14316 258236.480000
   2146   2147     1   0.14647 272713.120000
   2146   2150     1   0.14647 272713.120000
   2146   2153     1   0.14647 272713.120000
   2147   2159     1   0.15375 251793.120000
   2150   2162     1   0.15375 251793.120000
   2153   2156     1   0.15375 251793.120000
   2156   2165     1   0.15375 251793.120000
   2159   2171     1   0.15375 251793.120000
   2162   2168     1   0.15375 251793.120000
   2165   2174     1   0.14316 258236.480000
   2168   4378     1   0.14316 258236.480000
   2171   4407     1   0.14316 258236.480000
   2175   2176     1   0.14647 272713.120000
   2175   2179     1   0.14647 272713.120000
   2175   2182     1   0.14647 272713.120000
   2176   2188     1   0.15375 251793.120000
   2179   2191     1   0.15375 251793.120000
   2182   2185     1   0.15375 251793.120000
   2185   2194     1   0.15375 251793.120000
   2188   2200     1   0.15375 251793.120000
   2191   2197     1   0.15375 251793.120000
   2194   2203     1   0.14316 258236.480000
   2197   4436     1   0.14316 258236.480000
   2200   4465     1   0.14316 258236.480000
   2204   2205     1   0.14647 272713.120000
   2204   2208     1   0.14647 272713.120000
   2204   2211     1   0.14647 272713.120000
   2205   2217     1   0.15375 251793.120000
   2208   2220     1   0.15375 251793.120000
   2211   2214     1   0.15375 251793.120000
   2214   2223     1   0.15375 251793.120000
   2217   2229     1   0.15375 251793.120000
   2220   2226     1   0.15375 251793.120000
   2223   2232     1   0.14316 258236.480000
   2226   4494     1   0.14316 258236.480000
   2229   4523     1   0.14316 258236.480000
   2233   2234     1   0.14647 272713.120000
   2233   2237     1   0.14647 272713.120000
   2233   2240     1   0.14647 272713.120000
   2234   2246     1   0.15375 251793.120000
   2237   2249     1   0.15375 251793.120000
   2240   2243     1   0.15375 251793.120000
   2243   2252     1   0.15375 251793.120000
   2246   2258     1   0.15375 251793.120000
   2249   2255     1   0.15375 251793.120000
   2252   2261     1   0.14316 258236.480000
   2255   4552     1   0.14316 258236.480000
   2258   4581     1   0.14316 258236.480000
   2262   2263     1   0.14647 272713.120000
   2262   2266     1   0.14647 272713.120000
   2262   2269     1   0.14647 272713.120000
   2263   2275     1   0.15375 251793.120000
   2266   2278     1   0.15375 251793.120000
   2269   2272     1   0.15375 251793.120000
   2272   2281     1   0.15375 251793.120000
   2275   2287     1   0.15375 251793.120000
   2278   2284     1   0.15375 251793.120000
   2281   2290     1   0.14316 258236.480000
   2284   4610     1   0.14316 258236.480000
   2287   4639     1   0.14316 258236.480000
   2291   2292     1   0.14647 272713.120000
   2291   2295     1   0.14647 272713.120000
   2291   2298     1   0.14647 272713.120000
   2292   2304     1   0.15375 251793.120000
   2295   2307     1   0.15375 251793.120000
   2298   2301     1   0.15375 251793.120000
   2301   2310     1   0.15375 251793.120000
   2304   2316     1   0.15375 251793.120000
   2307   2313     1   0.15375 251793.120000
   2310   2319     1   0.14316 258236.480000
   2313   4668     1   0.14316 258236.480000
   2316   4697     1   0.14316 258236.480000
   2320   2321     1   0.14647 272713.120000
   2320   2324     1   0.14647 272713.120000
   2320   2327     1   0.14647 272713.120000
   2321   2333     1   0.15375 251793.120000
   2324   2336     1   0.15375 251793.120000
   2327   2330     1   0.15375 251793.120000
   2330   2339     1   0.15375 251793.120000
   2333   2345     1   0.15375 251793.120000
   2336   2342     1   0.15375 251793.120000
   2339   2348     1   0.14316 258236.480000
   2342   4726     1   0.14316 258236.480000
   2345   4755     1   0.14316 258236.480000
   2349   2350     1   0.14647 272713.120000
   2349   2353     1   0.14647 272713.120000
   2349   2356     1   0.14647 272713.120000
   2350   2362     1   0.15375 251793.120000
   2353   2365     1   0.15375 251793.120000
   2356   2359     1   0.15375 251793.120000
   2359   2368     1   0.15375 251793.120000
   2362   2374     1   0.15375 251793.120000
   2365   2371     1   0.15375 251793.120000
   2368   2377     1   0.14316 258236.480000
   2371   4784     1   0.14316 258236.480000
   2374   4813     1   0.14316 258236.480000
   2378   2379     1   0.14647 272713.120000
   2378   2382     1   0.14647 272713.120000
   2378   2385     1   0.14647 272713.120000
   2379   2391     1   0.15375 251793.120000
   2382   2394     1   0.15375 251793.120000
   2385   2388     1   0.15375 251793.120000
   2388   2397     1   0.15375 251793.120000
   2391   2403     1   0.15375 251793.120000
   2394   2400     1   0.15375 251793.120000
   2397   2406     1   0.14316 258236.480000
   2400   4842     1   0.14316 258236.480000
   2403   4871     1   0.14316 258236.480000
   2407   2408     1   0.14647 272713.120000
   2407   2411     1   0.14647 272713.120000
   2407   2414     1   0.14647 272713.120000
   2408   2420     1   0.15375 251793.120000
   2411   2423     1   0.15375 251793.120000
   2414   2417     1   0.15375 251793.120000
   2417   2426     1   0.15375 251793.120000
   2420   2432     1   0.15375 251793.120000
   2423   2429     1   0.15375 251793.120000
   2426   2435     1   0.14316 258236.480000
   2429   4900     1   0.14316 258236.480000
   2432   4929     1   0.14316 258236.480000
   2436   2437     1   0.14647 272713.120000
   2436   2440     1   0.14647 272713.120000
   2436   2443     1   0.14647 272713.120000
   2437   2449     1   0.15375 251793.120000
   2440   2452     1   0.15375 251793.120000
   2443   2446     1   0.15375 251793.120000
   2446   2455     1   0.15375 251793.120000
   2449   2461     1   0.15375 251793.120000
   2452   2458     1   0.15375 251793.120000
   2455   2464     1   0.14316 258236.480000
   2458   4958     1   0.14316 258236.480000
   2461   4987     1   0.14316 258236.480000
   2465   2466     1   0.14647 272713.120000
   2465   2469     1   0.14647 272713.120000
   2465   2472     1   0.14647 272713.120000
   2466   2478     1   0.15375 251793.120000
   2469   2481     1   0.15375 251793.120000
   2472   2475     1   0.15375 251793.120000
   2475   2484     1   0.15375 251793.120000
   2478   2490     1   0.15375 251793.120000
   2481   2487     1   0.15375 251793.120000
   2484   2493     1   0.14316 258236.480000
   2487   5016     1   0.14316 258236.480000
   2490   5045     1   0.14316 258236.480000
   2494   2495     1   0.14647 272713.120000
   2494   2498     1   0.14647 272713.120000
   2494   2501     1   0.14647 272713.120000
   2495   2507     1   0.15375 251793.120000
   2498   2510     1   0.15375 251793.120000
   2501   2504     1   0.15375 251793.120000
   2504   2513     1   0.15375 251793.120000
   2507   2519     1   0.15375 251793.120000
   2510   2516     1   0.15375 251793.120000
   2513   2522     1   0.14316 258236.480000
   2516   5074     1   0.14316 258236.480000
   2519   5103     1   0.14316 258236.480000
   2523   2524     1   0.14647 272713.120000
   2523   2527     1   0.14647 272713.120000
   2523   2530     1   0.14647 272713.120000
   2524   2536     1   0.15375 251793.120000
   2527   2539     1   0.15375 251793.120000
   2530   2533     1   0.15375 251793.120000
   2533   2542     1   0.15375 251793.120000
   2536   2548     1   0.15375 251793.120000
   2539   2545     1   0.15375 251793.120000
   2542   2551     1   0.14316 258236.480000
   2545   5132     1   0.14316 258236.480000
   2548   5161     1   0.14316 258236.480000
   2552   2553     1   0.14647 272713.120000
   2552   2556     1   0.14647 272713.120000
   2552   2559     1   0.14647 272713.120000
   2553   2565     1   0.15375 251793.120000
   2556   2568     1   0.15375 251793.120000
   2559   2562     1   0.15375 251793.120000
   2562   2571     1   0.15375 251793.120000
   2565   2577     1   0.15375 251793.120000
   2568   2574     1   0.15375 251793.120000
   2571   2580     1   0.14316 258236.480000
   2574   5190     1   0.14316 258236.480000
   2577   5219     1   0.14316 258236.480000
   2581   2582     1   0.14647 272713.120000
   2581   2585     1   0.14647 272713.120000
   2581   2588     1   0.14647 272713.120000
   2582   2594     1   0.15375 251793.120000
   2585   2597     1   0.15375 251793.120000
   2588   2591     1   0.15375 251793.120000
   2591   2600     1   0.15375 251793.120000
   2594   2606     1   0.15375 251793.120000
   2597   2603     1   0.15375 251793.120000
   2600   2609     1   0.14316 258236.480000
   2603   5248     1   0.14316 258236.480000
   2606   5277     1   0.14316 258236.480000
   2610   2611     1   0.14647 272713.120000
   2610   2614     1   0.14647 272713.120000
   2610   2617     1   0.14647 272713.120000
   2611   2623     1   0.15375 251793.120000
   2614   2626     1   0.15375 251793.120000
   2617   2620     1   0.15375 251793.120000
   2620   2629     1   0.15375 251793.120000
   2623   2635     1   0.15375 251793.120000
   2626   2632     1   0.15375 251793.120000
   2629   2638     1   0.14316 258236.480000
   2632   5306     1   0.14316 258236.480000
   2635   5335     1   0.14316 258236.480000
   2639   2640     1   0.14647 272713.120000
   2639   2643     1   0.14647 272713.120000
   2639   2646     1   0.14647 272713.120000
   2640   2652     1   0.15375 251793.120000
   2643   2655     1   0.15375 251793.120000
   2646   2649     1   0.15375 251793.120000
   2649   2658     1   0.15375 251793.120000
   2652   2664     1   0.15375 251793.120000
   2655   2661     1   0.15375 251793.120000
   2658   2667     1   0.14316 258236.480000
   2661   5364     1   0.14316 258236.480000
   2664   5393     1   0.14316 258236.480000
   2668   2669     1   0.14647 272713.120000
   2668   2672     1   0.14647 272713.120000
   2668   2675     1   0.14647 272713.120000
   2669   2681     1   0.15375 251793.120000
   2672   2684     1   0.15375 251793.120000
   2675   2678     1   0.15375 251793.120000
   2678   2687     1   0.15375 251793.120000
   2681   2693     1   0.15375 251793.120000
   2684   2690     1   0.15375 251793.120000
   2687   2696     1   0.14316 258236.480000
   2690   5422     1   0.14316 258236.480000
   2693   5451     1   0.14316 258236.480000
   2697   2698     1   0.14647 272713.120000
   2697   2701     1   0.14647 272713.120000
   2697   2704     1   0.14647 272713.120000
   2698   2710     1   0.15375 251793.120000
   2701   2713     1   0.15375 251793.120000
   2704   2707     1   0.15375 251793.120000
   2707   2716     1   0.15375 251793.120000
   2710   2722     1   0.15375 251793.120000
   2713   2719     1   0.15375 251793.120000
   2716   2725     1   0.14316 258236.480000
   2719   5480     1   0.14316 258236.480000
   2722   5509     1   0.14316 258236.480000
   2726   2727     1   0.14647 272713.120000
   2726   2730     1   0.14647 272713.120000
   2726   2733     1   0.14647 272713.120000
   2727   2739     1   0.15375 251793.120000
   2730   2742     1   0.15375 251793.120000
   2733   2736     1   0.15375 251793.120000
   2736   2745     1   0.15375 251793.120000
   2739   2751     1   0.15375 251793.120000
   2742   2748     1   0.15375 251793.120000
   2745   2754     1   0.14316 258236.480000
   2748   5538     1   0.14316 258236.480000
   2751   5567     1   0.14316 258236.480000
   2755   2756     1   0.14647 272713.120000
   2755   2759     1   0.14647 272713.120000
   2755   2762     1   0.14647 272713.120000
   2756   2768     1   0.15375 251793.120000
   2759   2771     1   0.15375 251793.120000
   2762   2765     1   0.15375 251793.120000
   2765   2774     1   0.15375 251793.120000
   2768   2780     1   0.15375 251793.120000
   2771   2777     1   0.15375 251793.120000
   2774   2783     1   0.14316 258236.480000
   2777   5596     1   0.14316 258236.480000
   2780   5625     1   0.14316 258236.480000
   2784   2785     1   0.14647 272713.120000
   2784   2788     1   0.14647 272713.120000
   2784   2791     1   0.14647 272713.120000
   2785   2797     1   0.15375 251793.120000
   2788   2800     1   0.15375 251793.120000
   2791   2794     1   0.15375 251793.120000
   2794   2803     1   0.15375 251793.120000
   2797   2809     1   0.15375 251793.120000
   2800   2806     1   0.15375 251793.120000
   2803   2812     1   0.14316 258236.480000
   2806   5654     1   0.14316 258236.480000
   2809   5683     1   0.14316 258236.480000
   2813   2814     1   0.14647 272713.120000
   2813   2817     1   0.14647 272713.120000
   2813   2820     1   0.14647 272713.120000
   2814   2826     1   0.15375 251793.120000
   2817   2829     1   0.15375 251793.120000
   2820   2823     1   0.15375 251793.120000
   2823   2832     1   0.15375 251793.120000
   2826   2838     1   0.15375 251793.120000
   2829   2835     1   0.15375 251793.120000
   2832   2841     1   0.14316 258236.480000
   2835   5712     1   0.14316 258236.480000
   2838   5741     1   0.14316 258236.480000
   2842   2843     1   0.14647 272713.120000
   2842   2846     1   0.14647 272713.120000
   2842   2849     1   0.14647 272713.120000
   2843   2855     1   0.15375 251793.120000
   2846   2858     1   0.15375 251793.120000
   2849   2852     1   0.15375 251793.120000
   2852   2861     1   0.15375 251793.120000
   2855   2867     1   0.15375 251793.120000
   2858   2864     1   0.15375 251793.120000
   2861   2870     1   0.14316 258236.480000
   2864   5770     1   0.14316 258236.480000
   2867   5799     1   0.14316 258236.480000
   2871   2872     1   0.14647 272713.120000
   2871   2875     1   0.14647 272713.120000
   2871   2878     1   0.14647 272713.120000
   2872   2884     1   0.15375 251793.120000
   2875   2887     1   0.15375 251793.120000
   2878   2881     1   0.15375 251793.120000
   2881   2890     1   0.15375 251793.120000
   2884   2896     1   0.15375 251793.120000
   2887   2893     1   0.15375 251793.120000
   2890   2899     1   0.14316 258236.480000
   2893   5828     1   0.14316 258236.480000
   2896   5857     1   0.14316 258236.480000
   2900   2901     1   0.14647 272713.120000
   2900   2904     1   0.14647 272713.120000
   2900   2907     1   0.14647 272713.120000
   2901   2913     1   0.15375 251793.120000
   2904   2916     1   0.15375 251793.120000
   2907   2910     1   0.15375 251793.120000
   2910   2919     1   0.15375 251793.120000
   2913   2925     1   0.15375 251793.120000
   2916   2922     1   0.15375 251793.120000
   2919   2928     1   0.14316 258236.480000
   2922   5886     1   0.14316 258236.480000
   2925   5915     1   0.14316 258236.480000
   2929   2930     1   0.14647 272713.120000
   2929   2933     1   0.14647 272713.120000
   2929   2936     1   0.14647 272713.120000
   2930   2942     1   0.15375 251793.120000
   2933   2945     1   0.15375 251793.120000
   2936   2939     1   0.15375 251793.120000
   2939   2948     1   0.15375 251793.120000
   2942   2954     1   0.15375 251793.120000
   2945   2951     1   0.15375 251793.120000
   2948   2957     1   0.14316 258236.480000
   2951   5944     1   0.14316 258236.480000
   2954   5973     1   0.14316 258236.480000
   2958   2959     1   0.14647 272713.120000
   2958   2962     1   0.14647 272713.120000
   2958   2965     1   0.14647 272713.120000
   2959   2971     1   0.15375 251793.120000
   2962   2974     1   0.15375 251793.120000
   2965   2968     1   0.15375 251793.120000
   2968   2977     1   0.15375 251793.120000
   2971   2983     1   0.15375 251793.120000
   2974   2980     1   0.15375 251793.120000
   2977   2986     1   0.14316 258236.480000
   2980   6002     1   0.14316 258236.480000
   2983   6031     1   0.14316 258236.480000
   2987   2988     1   0.14647 272713.120000
   2987   2991     1   0.14647 272713.120000
   2987   2994     1   0.14647 272713.120000
   2988   3000     1   0.15375 251793.120000
   2991   3003     1   0.15375 251793.120000
   2994   2997     1   0.15375 251793.120000
   2997   3006     1   0.15375 251793.120000
   3000   3012     1   0.15375 251793.120000
   3003   3009     1   0.15375 251793.120000
   3006   3015     1   0.14316 258236.480000
   3009   6060     1   0.14316 258236.480000
   3012   6089     1   0.14316 258236.480000
   3016   3017     1   0.14647 272713.120000
   3016   3020     1   0.14647 272713.120000
   3016   3023     1   0.14647 272713.120000
   3017   3029     1   0.15375 251793.120000
   3020   3032     1   0.15375 251793.120000
   3023   3026     1   0.15375 251793.120000
   3026   3035     1   0.15375 251793.120000
   3029   3041     1   0.15375 251793.120000
   3032   3038     1   0.15375 251793.120000
   3035   3044     1   0.14316 258236.480000
   3038   6118     1   0.14316 258236.480000
   3041   6147     1   0.14316 258236.480000
   3045   3046     1   0.14647 272713.120000
   3045   3049     1   0.14647 272713.120000
   3045   3052     1   0.14647 272713.120000
   3046   3058     1   0.15375 251793.120000
   3049   3061     1   0.15375 251793.120000
   3052   3055     1   0.15375 251793.120000
   3055   3064     1   0.15375 251793.120000
   3058   3070     1   0.15375 251793.120000
   3061   3067     1   0.15375 251793.120000
   3064   3073     1   0.14316 258236.480000
   3067   6176     1   0.14316 258236.480000
   3070   6205     1   0.14316 258236.480000
   3074   3075     1   0.14647 272713.120000
   3074   3078     1   0.14647 272713.120000
   3074   3081     1   0.14647 272713.120000
   3075   3087     1   0.15375 251793.120000
   3078   3090     1   0.15375 251793.120000
   3081   3084     1   0.15375 251793.120000
   3084   3093     1   0.15375 251793.120000
   3087   3099     1   0.15375 251793.120000
   3090   3096     1   0.15375 251793.120000
   3093   3102     1   0.14316 258236.480000
   3096   6234     1   0.14316 258236.480000
   3099   6263     1   0.14316 258236.480000
   3103   3104     1   0.14647 272713.120000
   3103   3107     1   0.14647 272713.120000
   3103   3110     1   0.14647 272713.120000
   3104   3116     1   0.15375 251793.120000
   3107   3119     1   0.15375 251793.120000
   3110   3113     1   0.15375 251793.120000
   3113   3122     1   0.15375 251793.120000
   3116   3128     1   0.15375 251793.120000
   3119   3125     1   0.15375 251793.120000
   3122   3131     1   0.14316 258236.480000
   3125   6292     1   0.14316 258236.480000
   3128   6321     1   0.14316 258236.480000
   3132   3133     1   0.14647 272713.120000
   3132   3136     1   0.14647 272713.120000
   3132   3139     1   0.14647 272713.120000
   3133   3145     1   0.15375 251793.120000
   3136   3148     1   0.15375 251793.120000
   3139   3142     1   0.15375 251793.120000
   3142   3151     1   0.15375 251793.120000
   3145   3157     1   0.15375 251793.120000
   3148   3154     1   0.15375 251793.120000
   3151   3160     1   0.14316 258236.480000
   3154   6350     1   0.14316 258236.480000
   3157   6379     1   0.14316 258236.480000
   3161   3162     1   0.14647 272713.120000
   3161   3165     1   0.14647 272713.120000
   3161   3168     1   0.14647 272713.120000
   3162   3174     1   0.15375 251793.120000
   3165   3177     1   0.15375 251793.120000
   3168   3171     1   0.15375 251793.120000
   3171   3180     1   0.15375 251793.120000
   3174   3186     1   0.15375 251793.120000
   3177   3183     1   0.15375 251793.120000
   3180   3189     1   0.14316 258236.480000
   3183   6408     1   0.14316 258236.480000
   3186   6437     1   0.14316 258236.480000
   3190   3191     1   0.14647 272713.120000
   3190   3194     1   0.14647 272713.120000
   3190   3197     1   0.14647 272713.120000
   3191   3203     1   0.15375 251793.120000
   3194   3206     1   0.15375 251793.120000
   3197   3200     1   0.15375 251793.120000
   3200   3209     1   0.15375 251793.120000
   3203   3215     1   0.15375 251793.120000
   3206   3212     1   0.15375 251793.120000
   3209   3218     1   0.14316 258236.480000
   3212   6466     1   0.14316 258236.480000
   3215   6495     1   0.14316 258236.480000
   3219   3220     1   0.14647 272713.120000
   3219   3223     1   0.14647 272713.120000
   3219   3226     1   0.14647 272713.120000
   3220   3232     1   0.15375 251793.120000
   3223   3235     1   0.15375 251793.120000
   3226   3229     1   0.15375 251793.120000
   3229   3238     1   0.15375 251793.120000
   3232   3244     1   0.15375 251793.120000
   3235   3241     1   0.15375 251793.120000
   3238   3247     1   0.14316 258236.480000
   3241   6524     1   0.14316 258236.480000
   3244   6553     1   0.14316 258236.480000
   3248   3249     1   0.14647 272713.120000
   3248   3252     1   0.14647 272713.120000
   3248   3255     1   0.14647 272713.120000
   3249   3261     1   0.15375 251793.120000
   3252   3264     1   0.15375 251793.120000
   3255   3258     1   0.15375 251793.120000
   3258   3267     1   0.15375 251793.120000
   3261   3273     1   0.15375 251793.120000
   3264   3270     1   0.15375 251793.120000
   3267   3276     1   0.14316 258236.480000
   3270   6582     1   0.14316 258236.480000
   3273   6611     1   0.14316 258236.480000
   3277   3278     1   0.14647 272713.120000
   3277   3281     1   0.14647 272713.120000
   3277   3284     1   0.14647 272713.120000
   3278   3290     1   0.15375 251793.120000
   3281   3293     1   0.15375 251793.120000
   3284   3287     1   0.15375 251793.120000
   3287   3296     1   0.15375 251793.120000
   3290   3302     1   0.15375 251793.120000
   3293   3299     1   0.15375 251793.120000
   3296   3305     1   0.14316 258236.480000
   3299   6640     1   0.14316 258236.480000
   3302   6669     1   0.14316 258236.480000
   3306   3307     1   0.14647 272713.120000
   3306   3310     1   0.14647 272713.120000
   3306   3313     1   0.14647 272713.120000
   3307   3319     1   0.15375 251793.120000
   3310   3322     1   0.15375 251793.120000
   3313   3316     1   0.15375 251793.120000
   3316   3325     1   0.15375 251793.120000
   3319   3331     1   0.15375 251793.120000
   3322   3328     1   0.15375 251793.120000
   3325   3334     1   0.14316 258236.480000
   3328   6698     1   0.14316 258236.480000
   3331   6727     1   0.14316 258236.480000
   3335   3336     1   0.14647 272713.120000
   3335   3339     1   0.14647 272713.120000
   3335   3342     1   0.14647 272713.120000
   3336   3348     1   0.15375 251793.120000
   3339   3351     1   0.15375 251793.120000
   3342   3345     1   0.15375 251793.120000
   3345   3354     1   0.15375 251793.120000
   3348   3360     1   0.15375 251793.120000
   3351   3357     1   0.15375 251793.120000
   3354   3363     1   0.14316 258236.480000
   3357   6756     1   0.14316 258236.480000
   3360   6785     1   0.14316 258236.480000
   3364   3365     1   0.14647 272713.120000
   3364   3368     1   0.14647 272713.120000
   3364   3371     1   0.14647 272713.120000
   3365   3377     1   0.15375 251793.120000
   3368   3380     1   0.15375 251793.120000
   3371   3374     1   0.15375 251793.120000
   3374   3383     1   0.15375 251793.120000
   3377   3389     1   0.15375 251793.120000
   3380   3386     1   0.15375 251793.120000
   3383   3392     1   0.14316 258236.480000
   3386   6814     1   0.14316 258236.480000
   3389   6843     1   0.14316 258236.480000
   3393   3394     1   0.14647 272713.120000
   3393   3397     1   0.14647 272713.120000
   3393   3400     1   0.14647 272713.120000
   3394   3406     1   0.15375 251793.120000
   3397   3409     1   0.15375 251793.120000
   3400   3403     1   0.15375 251793.120000
   3403   3412     1   0.15375 251793.120000
   3406   3418     1   0.15375 251793.120000
   3409   3415     1   0.15375 251793.120000
   3412   3421     1   0.14316 258236.480000
   3415   6872     1   0.14316 258236.480000
   3418   6901     1   0.14316 258236.480000
   3422   3423     1   0.14647 272713.120000
   3422   3426     1   0.14647 272713.120000
   3422   3429     1   0.14647 272713.120000
   3423   3435     1   0.15375 251793.120000
   3426   3438     1   0.15375 251793.120000
   3429   3432     1   0.15375 251793.120000
   3432   3441     1   0.15375 251793.120000
   3435   3447     1   0.15375 251793.120000
   3438   3444     1   0.15375 251793.120000
   3441   3450     1   0.14316 258236.480000
   3444   6930     1   0.14316 258236.480000
   3447   6959     1   0.14316 258236.480000
   3451   3452     1   0.14647 272713.120000
   3451   3455     1   0.14647 272713.120000
   3451   3458     1   0.14647 272713.120000
   3452   3464     1   0.15375 251793.120000
   3455   3467     1   0.15375 251793.120000
   3458   3461     1   0.15375 251793.120000
   3461   3470     1   0.15375 251793.120000
   3464   3476     1   0.15375 251793.120000
   3467   3473     1   0.15375 251793.120000
   3470   3479     1   0.14316 258236.480000
   3473   6988     1   0.14316 258236.480000
   3476   7017     1   0.14316 258236.480000
   3480   3481     1   0.14647 272713.120000
   3480   3484     1   0.14647 272713.120000
   3480   3487     1   0.14647 272713.120000
   3481   3493     1   0.15375 251793.120000
   3484   3496     1   0.15375 251793.120000
   3487   3490     1   0.15375 251793.120000
   3490   3499     1   0.15375 251793.120000
   3493   3505     1   0.15375 251793.120000
   3496   3502     1   0.15375 251793.120000
   3499   3508     1   0.14316 258236.480000
   3502   7046     1   0.14316 258236.480000
   3505   7075     1   0.14316 258236.480000
   3509   3510     1   0.14647 272713.120000
   3509   3513     1   0.14647 272713.120000
   3509   3516     1   0.14647 272713.120000
   3510   3522     1   0.15375 251793.120000
   3513   3525     1   0.15375 251793.120000
   3516   3519     1   0.15375 251793.120000
   3519   3528     1   0.15375 251793.120000
   3522   3534     1   0.15375 251793.120000
   3525   3531     1   0.15375 251793.120000
   3528   3537     1   0.14316 258236.480000
   3531   7104     1   0.14316 258236.480000
   3534   7133     1   0.14316 258236.480000
   3538   3539     1   0.14647 272713.120000
   3538   3542     1   0.14647 272713.120000
   3538   3545     1   0.14647 272713.120000
   3539   3551     1   0.15375 251793.120000
   3542   3554     1   0.15375 251793.120000
   3545   3548     1   0.15375 251793.120000
   3548   3557     1   0.15375 251793.120000
   3551   3563     1   0.15375 251793.120000
   3554   3560     1   0.15375 251793.120000
   3557   3566     1   0.14316 258236.480000
   3560   7162     1   0.14316 258236.480000
   3563   7191     1   0.14316 258236.480000
   3567   3568     1   0.14647 272713.120000
   3567   3571     1   0.14647 272713.120000
   3567   3574     1   0.14647 272713.120000
   3568   3580     1   0.15375 251793.120000
   3571   3583     1   0.15375 251793.120000
   3574   3577     1   0.15375 251793.120000
   3577   3586     1   0.15375 251793.120000
   3580   3592     1   0.15375 251793.120000
   3583   3589     1   0.15375 251793.120000
   3586   3595     1   0.14316 258236.480000
   3589   7220     1   0.14316 258236.480000
   3592   7249     1   0.14316 258236.480000
   3596   3597     1   0.14647 272713.120000
   3596   3600     1   0.14647 272713.120000
   3596   3603     1   0.14647 272713.120000
   3597   3609     1   0.15375 251793.120000
   3600   3612     1   0.15375 251793.120000
   3603   3606     1   0.15375 251793.120000
   3606   3615     1   0.15375 251793.120000
   3609   3621     1   0.15375 251793.120000
   3612   3618     1   0.15375 251793.120000
   3615   3624     1   0.14316 258236.480000
   3618   7278     1   0.14316 258236.480000
   3621   7307     1   0.14316 258236.480000
   3625   3626     1   0.14647 272713.120000
   3625   3629     1   0.14647 272713.120000
   3625   3632     1   0.14647 272713.120000
   3626   3638     1   0.15375 251793.120000
   3629   3641     1   0.15375 251793.120000
   3632   3635     1   0.15375 251793.120000
   3635   3644     1   0.15375 251793.120000
   3638   3650     1   0.15375 251793.120000
   3641   3647     1   0.15375 251793.120000
   3644   3653     1   0.14316 258236.480000
   3647   7336     1   0.14316 258236.480000
   3650   7365     1   0.14316 258236.480000
   3654   3655     1   0.14647 272713.120000
   3654   3658     1   0.14647 272713.120000
   3654   3661     1   0.14647 272713.120000
   3655   3667     1   0.15375 251793.120000
   3658   3670     1   0.15375 251793.120000
   3661   3664     1   0.15375 251793.120000
   3664   3673     1   0.15375 251793.120000
   3667   3679     1   0.15375 251793.120000
   3670   3676     1   0.15375 251793.120000
   3673   3682     1   0.14316 258236.480000
   3676   7394     1   0.14316 258236.480000
   3679   7423     1   0.14316 258236.480000
   3683   3684     1   0.14647 272713.120000
   3683   3687     1   0.14647 272713.120000
   3683   3690     1   0.14647 272713.120000
   3684   3696     1   0.15375 251793.120000
   3687   3699     1   0.15375 251793.120000
   3690   3693     1   0.15375 251793.120000
   3693   3702     1   0.15375 251793.120000
   3696   3708     1   0.15375 251793.120000
   3699   3705     1   0.15375 251793.120000
   3702   3711     1   0.14316 258236.480000
   3705   7452     1   0.14316 258236.480000
   3708   7481     1   0.14316 258236.480000
   3712   3713     1   0.14647 272713.120000
   3712   3716     1   0.14647 272713.120000
   3712   3719     1   0.14647 272713.120000
   3713   3725     1   0.15375 251793.120000
   3716   3728     1   0.15375 251793.120000
   3719   3722     1   0.15375 251793.120000
   3722   3731     1   0.15375 251793.120000
   3725   3737     1   0.15375 251793.120000
   3728   3734     1   0.15375 251793.120000
   3731   3740     1   0.14316 258236.480000
   3734   7510     1   0.14316 258236.480000
   3737   7539     1   0.14316 258236.480000
   3741   3742     1   0.14647 272713.120000
   3741   3745     1   0.14647 272713.120000
   3741   3748     1   0.14647 272713.120000
   3742   3754     1   0.15375 251793.120000
   3745   3757     1   0.15375 251793.120000
   3748   3751     1   0.15375 251793.120000
   3751   3760     1   0.15375 251793.120000
   3754   3766     1   0.15375 251793.120000
   3757   3763     1   0.15375 251793.120000
   3760   3769     1   0.14316 258236.480000
   3763   7568     1   0.14316 258236.480000
   3766   7597     1   0.14316 258236.480000
   3770   3771     1   0.14647 272713.120000
   3770   3774     1   0.14647 272713.120000
   3770   3777     1   0.14647 272713.120000
   3771   3783     1   0.15375 251793.120000
   3774   3786     1   0.15375 251793.120000
   3777   3780     1   0.15375 251793.120000
   3780   3789     1   0.15375 251793.120000
   3783   3795     1   0.15375 251793.120000
   3786   3792     1   0.15375 251793.120000
   3789   3798     1   0.14316 258236.480000
   3792   7626     1   0.14316 258236.480000
   3795   7655     1   0.14316 258236.480000
   3799   3800     1   0.14647 272713.120000
   3799   3803     1   0.14647 272713.120000
   3799   3806     1   0.14647 272713.120000
   3800   3812     1   0.15375 251793.120000
   3803   3815     1   0.15375 251793.120000
   3806   3809     1   0.15375 251793.120000
   3809   3818     1   0.15375 251793.120000
   3812   3824     1   0.15375 251793.120000
   3815   3821     1   0.15375 251793.120000
   3818   3827     1   0.14316 258236.480000
   3821   7684     1   0.14316 258236.480000
   3824   7713     1   0.14316 258236.480000
   3828   3829     1   0.14647 272713.120000
   3828   3832     1   0.14647 272713.120000
   3828   3835     1   0.14647 272713.120000
   3829   3841     1   0.15375 251793.120000
   3832   3844     1   0.15375 251793.120000
   3835   3838     1   0.15375 251793.120000
   3838   3847     1   0.15375 251793.120000
   3841   3853     1   0.15375 251793.120000
   3844   3850     1   0.15375 251793.120000
   3847   3856     1   0.14316 258236.480000
   3850   7742     1   0.14316 258236.480000
   3853   7771     1   0.14316 258236.480000
   3857   3858     1   0.14647 272713.120000
   3857   3861     1   0.14647 272713.120000
   3857   3864     1   0.14647 272713.120000
   3858   3870     1   0.15375 251793.120000
   3861   3873     1   0.15375 251793.120000
   3864   3867     1   0.15375 251793.120000
   3867   3876     1   0.15375 251793.120000
   3870   3882     1   0.15375 251793.120000
   3873   3879     1   0.15375 251793.120000
   3876   3885     1   0.14316 258236.480000
   3879   7800     1   0.14316 258236.480000
   3882   7829     1   0.14316 258236.480000
   3886   3887     1   0.14647 272713.120000
   3886   3890     1   0.14647 272713.120000
   3886   3893     1   0.14647 272713.120000
   3887   3899     1   0.15375 251793.120000
   3890   3902     1   0.15375 251793.120000
   3893   3896     1   0.15375 251793.120000
   3896   3905     1   0.15375 251793.120000
   3899   3911     1   0.15375 251793.120000
   3902   3908     1   0.15375 251793.120000
   3905   3914     1   0.14316 258236.480000
   3908   7858     1   0.14316 258236.480000
   3911   7887     1   0.14316 258236.480000
   3915   3916     1   0.14647 272713.120000
   3915   3919     1   0.14647 272713.120000
   3915   3922     1   0.14647 272713.120000
   3916   3928     1   0.15375 251793.120000
   3919   3931     1   0.15375 251793.120000
   3922   3925     1   0.15375 251793.120000
   3925   3934     1   0.15375 251793.120000
   3928   3940     1   0.15375 251793.120000
   3931   3937     1   0.15375 251793.120000
   3934   3943     1   0.14316 258236.480000
   3937   7916     1   0.14316 258236.480000
   3940   7945     1   0.14316 258236.480000
   3944   3945     1   0.14647 272713.120000
   3944   3948     1   0.14647 272713.120000
   3944   3951     1   0.14647 272713.120000
   3945   3957     1   0.15375 251793.120000
   3948   3960     1   0.15375 251793.120000
   3951   3954     1   0.15375 251793.120000
   3954   3963     1   0.15375 251793.120000
   3957   3969     1   0.15375 251793.120000
   3960   3966     1   0.15375 251793.120000
   3963   3972     1   0.14316 258236.480000
   3966   7974     1   0.14316 258236.480000
   3969   8003     1   0.14316 258236.480000
   3973   3974     1   0.14647 272713.120000
   3973   3977     1   0.14647 272713.120000
   3973   3980     1   0.14647 272713.120000
   3974   3986     1   0.15375 251793.120000
   3977   3989     1   0.15375 251793.120000
   3980   3983     1   0.15375 251793.120000
   3983   3992     1   0.15375 251793.120000
   3986   3998     1   0.15375 251793.120000
   3989   3995     1   0.15375 251793.120000
   3992   4001     1   0.14316 258236.480000
   3995   8032     1   0.14316 258236.480000
   3998   8061     1   0.14316 258236.480000
   4002   4003     1   0.14647 272713.120000
   4002   4006     1   0.14647 272713.120000
   4002   4009     1   0.14647 272713.120000
   4003   4015     1   0.15375 251793.120000
   4006   4018     1   0.15375 251793.120000
   4009   4012     1   0.15375 251793.120000
   4012   4021     1   0.15375 251793.120000
   4015   4027     1   0.15375 251793.120000
   4018   4024     1   0.15375 251793.120000
   4021   4030     1   0.14316 258236.480000
   4024   8090     1   0.14316 258236.480000
   4027   8119     1   0.14316 258236.480000
   4031   4032     1   0.14647 272713.120000
   4031   4035     1   0.14647 272713.120000
   4031   4038     1   0.14647 272713.120000
   4032   4044     1   0.15375 251793.120000
   4035   4047     1   0.15375 251793.120000
   4038   4041     1   0.15375 251793.120000
   4041   4050     1   0.15375 251793.120000
   4044   4056     1   0.15375 251793.120000
   4047   4053     1   0.15375 251793.120000
   4050   4059     1   0.14316 258236.480000
   4053   8148     1   0.14316 258236.480000
   4056   8177     1   0.14316 258236.480000
   4060   4061     1   0.14647 272713.120000
   4060   4064     1   0.14647 272713.120000
   4060   4067     1   0.14647 272713.120000
   4061   4073     1   0.15375 251793.120000
   4064   4076     1   0.15375 251793.120000
   4067   4070     1   0.15375 251793.120000
   4070   4079     1   0.15375 251793.120000
   4073   4085     1   0.15375 251793.120000
   4076   4082     1   0.15375 251793.120000
   4079   4088     1   0.14316 258236.480000
   4082   8206     1   0.14316 258236.480000
   4085   8235     1   0.14316 258236.480000
   4089   4090     1   0.14647 272713.120000
   4089   4093     1   0.14647 272713.120000
   4089   4096     1   0.14647 272713.120000
   4090   4102     1   0.15375 251793.120000
   4093   4105     1   0.15375 251793.120000
   4096   4099     1   0.15375 251793.120000
   4099   4108     1   0.15375 251793.120000
   4102   4114     1   0.15375 251793.120000
   4105   4111     1   0.15375 251793.120000
   4108   4117     1   0.14316 258236.480000
   4111   8264     1   0.14316 258236.480000
   4114   8293     1   0.14316 258236.480000
   4118   4119     1   0.14647 272713.120000
   4118   4122     1   0.14647 272713.120000
   4118   4125     1   0.14647 272713.120000
   4119   4131     1   0.15375 251793.120000
   4122   4134     1   0.15375 251793.120000
   4125   4128     1   0.15375 251793.120000
   4128   4137     1   0.15375 251793.120000
   4131   4143     1   0.15375 251793.120000
   4134   4140     1   0.15375 251793.120000
   4137   4146     1   0.14316 258236.480000
   4140   8322     1   0.14316 258236.480000
   4143   8351     1   0.14316 258236.480000
   4147   4148     1   0.14647 272713.120000
   4147   4151     1   0.14647 272713.120000
   4147   4154     1   0.14647 272713.120000
   4148   4160     1   0.15375 251793.120000
   4151   4163     1   0.15375 251793.120000
   4154   4157     1   0.15375 251793.120000
   4157   4166     1   0.15375 251793.120000
   4160   4172     1   0.15375 251793.120000
   4163   4169     1   0.15375 251793.120000
   4166   4175     1   0.14316 258236.480000
   4169   8380     1   0.14316 258236.480000
   4172   8409     1   0.14316 258236.480000
   4176   4177     1   0.14647 272713.120000
   4176   4180     1   0.14647 272713.120000
   4176   4183     1   0.14647 272713.120000
   4177   4189     1   0.15375 251793.120000
   4180   4192     1   0.15375 251793.120000
   4183   4186     1   0.15375 251793.120000
   4186   4195     1   0.15375 251793.120000
   4189   4201     1   0.15375 251793.120000
   4192   4198     1   0.15375 251793.120000
   4195   4204     1   0.14316 258236.480000
   4198   8438     1   0.14316 258236.480000
   4201   8467     1   0.14316 258236.480000
   4205   4206     1   0.14647 272713.120000
   4205   4209     1   0.14647 272713.120000
   4205   4212     1   0.14647 272713.120000
   4206   4218     1   0.15375 251793.120000
   4209   4221     1   0.15375 251793.120000
   4212   4215     1   0.15375 251793.120000
   4215   4224     1   0.15375 251793.120000
   4218   4230     1   0.15375 251793.120000
   4221   4227     1   0.15375 251793.120000
   4224   4233     1   0.14316 258236.480000
   4227   8496     1   0.14316 258236.480000
   4230   8525     1   0.14316 258236.480000
   4234   4235     1   0.14647 272713.120000
   4234   4238     1   0.14647 272713.120000
   4234   4241     1   0.14647 272713.120000
   4235   4247     1   0.15375 251793.120000
   4238   4250     1   0.15375 251793.120000
   4241   4244     1   0.15375 251793.120000
   4244   4253     1   0.15375 251793.120000
   4247   4259     1   0.15375 251793.120000
   4250   4256     1   0.15375 251793.120000
   4253   4262     1   0.14316 258236.480000
   4256   8554     1   0.14316 258236.480000
   4259   8583     1   0.14316 258236.480000
   4263   4264     1   0.14647 272713.120000
   4263   4267     1   0.14647 272713.120000
   4263   4270     1   0.14647 272713.120000
   4264   4276     1   0.15375 251793.120000
   4267   4279     1   0.15375 251793.120000
   4270   4273     1   0.15375 251793.120000
   4273   4282     1   0.15375 251793.120000
   4276   4288     1   0.15375 251793.120000
   4279   4285     1   0.15375 251793.120000
   4282   4291     1   0.14316 258236.480000
   4285   8612     1   0.14316 258236.480000
   4288   8641     1   0.14316 258236.480000
   4292   4293     1   0.14647 272713.120000
   4292   4296     1   0.14647 272713.120000
   4292   4299     1   0.14647 272713.120000
   4293   4305     1   0.15375 251793.120000
   4296   4308     1   0.15375 251793.120000
   4299   4302     1   0.15375 251793.120000
   4302   4311     1   0.15375 251793.120000
   4305   4317     1   0.15375 251793.120000
   4308   4314     1   0.15375 251793.120000
   4311   4320     1   0.14316 258236.480000
   4314   8670     1   0.14316 258236.480000
   4317   8699     1   0.14316 258236.480000
   4321   4322     1   0.14647 272713.120000
   4321   4325     1   0.14647 272713.120000
   4321   4328     1   0.14647 272713.120000
   4322   4334     1   0.15375 251793.120000
   4325   4337     1   0.15375 251793.120000
   4328   4331     1   0.15375 251793.120000
   4331   4340     1   0.15375 251793.120000
   4334   4346     1   0.15375 251793.120000
   4337   4343     1   0.15375 251793.120000
   4340   4349     1   0.14316 258236.480000
   4343   8728     1   0.14316 258236.480000
   4346   8757     1   0.14316 258236.480000
   4350   4351     1   0.14647 272713.120000
   4350   4354     1   0.14647 272713.120000
   4350   4357     1   0.14647 272713.120000
   4351   4363     1   0.15375 251793.120000
   4354   4366     1   0.15375 251793.120000
   4357   4360     1   0.15375 251793.120000
   4360   4369     1   0.15375 251793.120000
   4363   4375     1   0.15375 251793.120000
   4366   4372     1   0.15375 251793.120000
   4369   4378     1   0.14316 258236.480000
   4372   8786     1   0.14316 258236.480000
   4375   8815     1   0.14316 258236.480000
   4379   4380     1   0.14647 272713.120000
   4379   4383     1   0.14647 272713.120000
   4379   4386     1   0.14647 272713.120000
   4380   4392     1   0.15375 251793.120000
   4383   4395     1   0.15375 251793.120000
   4386   4389     1   0.15375 251793.120000
   4389   4398     1   0.15375 251793.120000
   4392   4404     1   0.15375 251793.120000
   4395   4401     1   0.15375 251793.120000
   4398   4407     1   0.14316 258236.480000
   4401   8844     1   0.14316 258236.480000
   4404   8873     1   0.14316 258236.480000
   4408   4409     1   0.14647 272713.120000
   4408   4412     1   0.14647 272713.120000
   4408   4415     1   0.14647 272713.120000
   4409   4421     1   0.15375 251793.120000
   4412   4424     1   0.15375 251793.120000
   4415   4418     1   0.15375 251793.120000
   4418   4427     1   0.15375 251793.120000
   4421   4433     1   0.15375 251793.120000
   4424   4430     1   0.15375 251793.120000
   4427   4436     1   0.14316 258236.480000
   4430   8902     1   0.14316 258236.480000
   4433   8931     1   0.14316 258236.480000
   4437   4438     1   0.14647 272713.120000
   4437   4441     1   0.14647 272713.120000
   4437   4444     1   0.14647 272713.120000
   4438   4450     1   0.15375 251793.120000
   4441   4453     1   0.15375 251793.120000
   4444   4447     1   0.15375 251793.120000
   4447   4456     1   0.15375 251793.120000
   4450   4462     1   0.15375 251793.120000
   4453   4459     1   0.15375 251793.120000
   4456   4465     1   0.14316 258236.480000
   4459   8960     1   0.14316 258236.480000
   4462   8989     1   0.14316 258236.480000
   4466   4467     1   0.14647 272713.120000
   4466   4470     1   0.14647 272713.120000
   4466   4473     1   0.14647 272713.120000
   4467   4479     1   0.15375 251793.120000
   4470   4482     1   0.15375 251793.120000
   4473   4476     1   0.15375 251793.120000
   4476   4485     1   0.15375 251793.120000
   4479   4491     1   0.15375 251793.120000
   4482   4488     1   0.15375 251793.120000
   4485   4494     1   0.14316 258236.480000
   4488   9018     1   0.14316 258236.480000
   4491   9047     1   0.14316 258236.480000
   4495   4496     1   0.14647 272713.120000
   4495   4499     1   0.14647 272713.120000
   4495   4502     1   0.14647 272713.120000
   4496   4508     1   0.15375 251793.120000
   4499   4511     1   0.15375 251793.120000
   4502   4505     1   0.15375 251793.120000
   4505   4514     1   0.15375 251793.120000
   4508   4520     1   0.15375 251793.120000
   4511   4517     1   0.15375 251793.120000
   4514   4523     1   0.14316 258236.480000
   4517   9076     1   0.14316 258236.480000
   4520   9105     1   0.14316 258236.480000
   4524   4525     1   0.14647 272713.120000
   4524   4528     1   0.14647 272713.120000
   4524   4531     1   0.14647 272713.120000
   4525   4537     1   0.15375 251793.120000
   4528   4540     1   0.15375 251793.120000
   4531   4534     1   0.15375 251793.120000
   4534   4543     1   0.15375 251793.120000
   4537   4549     1   0.15375 251793.120000
   4540   4546     1   0.15375 251793.120000
   4543   4552     1   0.14316 258236.480000
   4546   9134     1   0.14316 258236.480000
   4549   9163     1   0.14316 258236.480000
   4553   4554     1   0.14647 272713.120000
   4553   4557     1   0.14647 272713.120000
   4553   4560     1   0.14647 272713.120000
   4554   4566     1   0.15375 251793.120000
   4557   4569     1   0.15375 251793.120000
   4560   4563     1   0.15375 251793.120000
   4563   4572     1   0.15375 251793.120000
   4566   4578     1   0.15375 251793.120000
   4569   4575     1   0.15375 251793.120000
   4572   4581     1   0.14316 258236.480000
   4575   9192     1   0.14316 258236.480000
   4578   9221     1   0.14316 258236.480000
   4582   4583     1   0.14647 272713.120000
   4582   4586     1   0.14647 272713.120000
   4582   4589     1   0.14647 272713.120000
   4583   4595     1   0.15375 251793.120000
   4586   4598     1   0.15375 251793.120000
   4589   4592     1   0.15375 251793.120000
   4592   4601     1   0.15375 251793.120000
   4595   4607     1   0.15375 251793.120000
   4598   4604     1   0.15375 251793.120000
   4601   4610     1   0.14316 258236.480000
   4604   9250     1   0.14316 258236.480000
   4607   9279     1   0.14316 258236.480000
   4611   4612     1   0.14647 272713.120000
   4611   4615     1   0.14647 272713.120000
   4611   4618     1   0.14647 272713.120000
   4612   4624     1   0.15375 251793.120000
   4615   4627     1   0.15375 251793.120000
   4618   4621     1   0.15375 251793.120000
   4621   4630     1   0.15375 251793.120000
   4624   4636     1   0.15375 251793.120000
   4627   4633     1   0.15375 251793.120000
   4630   4639     1   0.14316 258236.480000
   4633   9308     1   0.14316 258236.480000
   4636   9337     1   0.14316 258236.480000
   4640   4641     1   0.14647 272713.120000
   4640   4644     1   0.14647 272713.120000
   4640   4647     1   0.14647 272713.120000
   4641   4653     1   0.15375 251793.120000
   4644   4656     1   0.15375 251793.120000
   4647   4650     1   0.15375 251793.120000
   4650   4659     1   0.15375 251793.120000
   4653   4665     1   0.15375 251793.120000
   4656   4662     1   0.15375 251793.120000
   4659   4668     1   0.14316 258236.480000
   4662   9366     1   0.14316 258236.480000
   4665   9395     1   0.14316 258236.480000
   4669   4670     1   0.14647 272713.120000
   4669   4673     1   0.14647 272713.120000
   4669   4676     1   0.14647 272713.120000
   4670   4682     1   0.15375 251793.120000
   4673   4685     1   0.15375 251793.120000
   4676   4679     1   0.15375 251793.120000
   4679   4688     1   0.15375 251793.120000
   4682   4694     1   0.15375 251793.120000
   4685   4691     1   0.15375 251793.120000
   4688   4697     1   0.14316 258236.480000
   4691   9424     1   0.14316 258236.480000
   4694   9453     1   0.14316 258236.480000
   4698   4699     1   0.14647 272713.120000
   4698   4702     1   0.14647 272713.120000
   4698   4705     1   0.14647 272713.120000
   4699   4711     1   0.15375 251793.120000
   4702   4714     1   0.15375 251793.120000
   4705   4708     1   0.15375 251793.120000
   4708   4717     1   0.15375 251793.120000
   4711   4723     1   0.15375 251793.120000
   4714   4720     1   0.15375 251793.120000
   4717   4726     1   0.14316 258236.480000
   4720   9482     1   0.14316 258236.480000
   4723   9511     1   0.14316 258236.480000
   4727   4728     1   0.14647 272713.120000
   4727   4731     1   0.14647 272713.120000
   4727   4734     1   0.14647 272713.120000
   4728   4740     1   0.15375 251793.120000
   4731   4743     1   0.15375 251793.120000
   4734   4737     1   0.15375 251793.120000
   4737   4746     1   0.15375 251793.120000
   4740   4752     1   0.15375 251793.120000
   4743   4749     1   0.15375 251793.120000
   4746   4755     1   0.14316 258236.480000
   4749   9540     1   0.14316 258236.480000
   4752   9569     1   0.14316 258236.480000
   4756   4757     1   0.14647 272713.120000
   4756   4760     1   0.14647 272713.120000
   4756   4763     1   0.14647 272713.120000
   4757   4769     1   0.15375 251793.120000
   4760   4772     1   0.15375 251793.120000
   4763   4766     1   0.15375 251793.120000
   4766   4775     1   0.15375 251793.120000
   4769   4781     1   0.15375 251793.120000
   4772   4778     1   0.15375 251793.120000
   4775   4784     1   0.14316 258236.480000
   4778   9598     1   0.14316 258236.480000
   4781   9627     1   0.14316 258236.480000
   4785   4786     1   0.14647 272713.120000
   4785   4789     1   0.14647 272713.120000
   4785   4792     1   0.14647 272713.120000
   4786   4798     1   0.15375 251793.120000
   4789   4801     1   0.15375 251793.120000
   4792   4795     1   0.15375 251793.120000
   4795   4804     1   0.15375 251793.120000
   4798   4810     1   0.15375 251793.120000
   4801   4807     1   0.15375 251793.120000
   4804   4813     1   0.14316 258236.480000
   4807   9656     1   0.14316 258236.480000
   4810   9685     1   0.14316 258236.480000
   4814   4815     1   0.14647 272713.120000
   4814   4818     1   0.14647 272713.120000
   4814   4821     1   0.14647 272713.120000
   4815   4827     1   0.15375 251793.120000
   4818   4830     1   0.15375 251793.120000
   4821   4824     1   0.15375 251793.120000
   4824   4833     1   0.15375 251793.120000
   4827   4839     1   0.15375 251793.120000
   4830   4836     1   0.15375 251793.120000
   4833   4842     1   0.14316 258236.480000
   4836   9714     1   0.14316 258236.480000
   4839   9743     1   0.14316 258236.480000
   4843   4844     1   0.14647 272713.120000
   4843   4847     1   0.14647 272713.120000
   4843   4850     1   0.14647 272713.120000
   4844   4856     1   0.15375 251793.120000
   4847   4859     1   0.15375 251793.120000
   4850   4853     1   0.15375 251793.120000
   4853   4862     1   0.15375 251793.120000
   4856   4868     1   0.15375 251793.120000
   4859   4865     1   0.15375 251793.120000
   4862   4871     1   0.14316 258236.480000
   4865   9772     1   0.14316 258236.480000
   4868   9801     1   0.14316 258236.480000
   4872   4873     1   0.14647 272713.120000
   4872   4876     1   0.14647 272713.120000
   4872   4879     1   0.14647 272713.120000
   4873   4885     1   0.15375 251793.120000
   4876   4888     1   0.15375 251793.120000
   4879   4882     1   0.15375 251793.120000
   4882   4891     1   0.15375 251793.120000
   4885   4897     1   0.15375 251793.120000
   4888   4894     1   0.15375 251793.120000
   4891   4900     1   0.14316 258236.480000
   4894   9830     1   0.14316 258236.480000
   4897   9859     1   0.14316 258236.480000
   4901   4902     1   0.14647 272713.120000
   4901   4905     1   0.14647 272713.120000
   4901   4908     1   0.14647 272713.120000
   4902   4914     1   0.15375 251793.120000
   4905   4917     1   0.15375 251793.120000
   4908   4911     1   0.15375 251793.120000
   4911   4920     1   0.15375 251793.120000
   4914   4926     1   0.15375 251793.120000
   4917   4923     1   0.15375 251793.120000
   4920   4929     1   0.14316 258236.480000
   4923   9888     1   0.14316 258236.480000
   4926   9917     1   0.14316 258236.480000
   4930   4931     1   0.14647 272713.120000
   4930   4934     1   0.14647 272713.120000
   4930   4937     1   0.14647 272713.120000
   4931   4943     1   0.15375 251793.120000
   4934   4946     1   0.15375 251793.120000
   4937   4940     1   0.15375 251793.120000
   4940   4949     1   0.15375 251793.120000
   4943   4955     1   0.15375 251793.120000
   4946   4952     1   0.15375 251793.120000
   4949   4958     1   0.14316 258236.480000
   4952   9946     1   0.14316 258236.480000
   4955   9975     1   0.14316 258236.480000
   4959   4960     1   0.14647 272713.120000
   4959   4963     1   0.14647 272713.120000
   4959   4966     1   0.14647 272713.120000
   4960   4972     1   0.15375 251793.120000
   4963   4975     1   0.15375 251793.120000
   4966   4969     1   0.15375 251793.120000
   4969   4978     1   0.15375 251793.120000
   4972   4984     1   0.15375 251793.120000
   4975   4981     1   0.15375 251793.120000
   4978   4987     1   0.14316 258236.480000
   4981  10004     1   0.14316 258236.480000
   4984  10033     1   0.14316 258236.480000
   4988   4989     1   0.14647 272713.120000
   4988   4992     1   0.14647 272713.120000
   4988   4995     1   0.14647 272713.120000
   4989   5001     1   0.15375 251793.120000
   4992   5004     1   0.15375 251793.120000
   4995   4998     1   0.15375 251793.120000
   4998   5007     1   0.15375 251793.120000
   5001   5013     1   0.15375 251793.120000
   5004   5010     1   0.15375 251793.120000
   5007   5016     1   0.14316 258236.480000
   5010  10062     1   0.14316 258236.480000
   5013  10091     1   0.14316 258236.480000
   5017   5018     1   0.14647 272713.120000
   5017   5021     1   0.14647 272713.120000
   5017   5024     1   0.14647 272713.120000
   5018   5030     1   0.15375 251793.120000
   5021   5033     1   0.15375 251793.120000
   5024   5027     1   0.15375 251793.120000
   5027   5036     1   0.15375 251793.120000
   5030   5042     1   0.15375 251793.120000
   5033   5039     1   0.15375 251793.120000
   5036   5045     1   0.14316 258236.480000
   5039  10120     1   0.14316 258236.480000
   5042  10149     1   0.14316 258236.480000
   5046   5047     1   0.14647 272713.120000
   5046   5050     1   0.14647 272713.120000
   5046   5053     1   0.14647 272713.120000
   5047   5059     1   0.15375 251793.120000
   5050   5062     1   0.15375 251793.120000
   5053   5056     1   0.15375 251793.120000
   5056   5065     1   0.15375 251793.120000
   5059   5071     1   0.15375 251793.120000
   5062   5068     1   0.15375 251793.120000
   5065   5074     1   0.14316 258236.480000
   5068  10178     1   0.14316 258236.480000
   5071  10207     1   0.14316 258236.480000
   5075   5076     1   0.14647 272713.120000
   5075   5079     1   0.14647 272713.120000
   5075   5082     1   0.14647 272713.120000
   5076   5088     1   0.15375 251793.120000
   5079   5091     1   0.15375 251793.120000
   5082   5085     1   0.15375 251793.120000
   5085   5094     1   0.15375 251793.120000
   5088   5100     1   0.15375 251793.120000
   5091   5097     1   0.15375 251793.120000
   5094   5103     1   0.14316 258236.480000
   5097  10236     1   0.14316 258236.480000
   5100  10265     1   0.14316 258236.480000
   5104   5105     1   0.14647 272713.120000
   5104   5108     1   0.14647 272713.120000
   5104   5111     1   0.14647 272713.120000
   5105   5117     1   0.15375 251793.120000
   5108   5120     1   0.15375 251793.120000
   5111   5114     1   0.15375 251793.120000
   5114   5123     1   0.15375 251793.120000
   5117   5129     1   0.15375 251793.120000
   5120   5126     1   0.15375 251793.120000
   5123   5132     1   0.14316 258236.480000
   5126  10294     1   0.14316 258236.480000
   5129  10323     1   0.14316 258236.480000
   5133   5134     1   0.14647 272713.120000
   5133   5137     1   0.14647 272713.120000
   5133   5140     1   0.14647 272713.120000
   5134   5146     1   0.15375 251793.120000
   5137   5149     1   0.15375 251793.120000
   5140   5143     1   0.15375 251793.120000
   5143   5152     1   0.15375 251793.120000
   5146   5158     1   0.15375 251793.120000
   5149   5155     1   0.15375 251793.120000
   5152   5161     1   0.14316 258236.480000
   5155  10352     1   0.14316 258236.480000
   5158  10381     1   0.14316 258236.480000
   5162   5163     1   0.14647 272713.120000
   5162   5166     1   0.14647 272713.120000
   5162   5169     1   0.14647 272713.120000
   5163   5175     1   0.15375 251793.120000
   5166   5178     1   0.15375 251793.120000
   5169   5172     1   0.15375 251793.120000
   5172   5181     1   0.15375 251793.120000
   5175   5187     1   0.15375 251793.120000
   5178   5184     1   0.15375 251793.120000
   5181   5190     1   0.14316 258236.480000
   5184  10410     1   0.14316 258236.480000
   5187  10439     1   0.14316 258236.480000
   5191   5192     1   0.14647 272713.120000
   5191   5195     1   0.14647 272713.120000
   5191   5198     1   0.14647 272713.120000
   5192   5204     1   0.15375 251793.120000
   5195   5207     1   0.15375 251793.120000
   5198   5201     1   0.15375 251793.120000
   5201   5210     1   0.15375 251793.120000
   5204   5216     1   0.15375 251793.120000
   5207   5213     1   0.15375 251793.120000
   5210   5219     1   0.14316 258236.480000
   5213  10468     1   0.14316 258236.480000
   5216  10497     1   0.14316 258236.480000
   5220   5221     1   0.14647 272713.120000
   5220   5224     1   0.14647 272713.120000
   5220   5227     1   0.14647 272713.120000
   5221   5233     1   0.15375 251793.120000
   5224   5236     1   0.15375 251793.120000
   5227   5230     1   0.15375 251793.120000
   5230   5239     1   0.15375 251793.120000
   5233   5245     1   0.15375 251793.120000
   5236   5242     1   0.15375 251793.120000
   5239   5248     1   0.14316 258236.480000
   5242  10526     1   0.14316 258236.480000
   5245  10555     1   0.14316 258236.480000
   5249   5250     1   0.14647 272713.120000
   5249   5253     1   0.14647 272713.120000
   5249   5256     1   0.14647 272713.120000
   5250   5262     1   0.15375 251793.120000
   5253   5265     1   0.15375 251793.120000
   5256   5259     1   0.15375 251793.120000
   5259   5268     1   0.15375 251793.120000
   5262   5274     1   0.15375 251793.120000
   5265   5271     1   0.15375 251793.120000
   5268   5277     1   0.14316 258236.480000
   5271  10584     1   0.14316 258236.480000
   5274  10613     1   0.14316 258236.480000
   5278   5279     1   0.14647 272713.120000
   5278   5282     1   0.14647 272713.120000
   5278   5285     1   0.14647 272713.120000
   5279   5291     1   0.15375 251793.120000
   5282   5294     1   0.15375 251793.120000
   5285   5288     1   0.15375 251793.120000
   5288   5297     1   0.15375 251793.120000
   5291   5303     1   0.15375 251793.120000
   5294   5300     1   0.15375 251793.120000
   5297   5306     1   0.14316 258236.480000
   5300  10642     1   0.14316 258236.480000
   5303  10671     1   0.14316 258236.480000
   5307   5308     1   0.14647 272713.120000
   5307   5311     1   0.14647 272713.120000
   5307   5314     1   0.14647 272713.120000
   5308   5320     1   0.15375 251793.120000
   5311   5323     1   0.15375 251793.120000
   5314   5317     1   0.15375 251793.120000
   5317   5326     1   0.15375 251793.120000
   5320   5332     1   0.15375 251793.120000
   5323   5329     1   0.15375 251793.120000
   5326   5335     1   0.14316 258236.480000
   5329  10700     1   0.14316 258236.480000
   5332  10729     1   0.14316 258236.480000
   5336   5337     1   0.14647 272713.120000
   5336   5340     1   0.14647 272713.120000
   5336   5343     1   0.14647 272713.120000
   5337   5349     1   0.15375 251793.120000
   5340   5352     1   0.15375 251793.120000
   5343   5346     1   0.15375 251793.120000
   5346   5355     1   0.15375 251793.120000
   5349   5361     1   0.15375 251793.120000
   5352   5358     1   0.15375 251793.120000
   5355   5364     1   0.14316 258236.480000
   5358  10758     1   0.14316 258236.480000
   5361  10787     1   0.14316 258236.480000
   5365   5366     1   0.14647 272713.120000
   5365   5369     1   0.14647 272713.120000
   5365   5372     1   0.14647 272713.120000
   5366   5378     1   0.15375 251793.120000
   5369   5381     1   0.15375 251793.120000
   5372   5375     1   0.15375 251793.120000
   5375   5384     1   0.15375 251793.120000
   5378   5390     1   0.15375 251793.120000
   5381   5387     1   0.15375 251793.120000
   5384   5393     1   0.14316 258236.480000
   5387  10816     1   0.14316 258236.480000
   5390  10845     1   0.14316 258236.480000
   5394   5395     1   0.14647 272713.120000
   5394   5398     1   0.14647 272713.120000
   5394   5401     1   0.14647 272713.120000
   5395   5407     1   0.15375 251793.120000
   5398   5410     1   0.15375 251793.120000
   5401   5404     1   0.15375 251793.120000
   5404   5413     1   0.15375 251793.120000
   5407   5419     1   0.15375 251793.120000
   5410   5416     1   0.15375 251793.120000
   5413   5422     1   0.14316 258236.480000
   5416  10874     1   0.14316 258236.480000
   5419  10903     1   0.14316 258236.480000
   5423   5424     1   0.14647 272713.120000
   5423   5427     1   0.14647 272713.120000
   5423   5430     1   0.14647 272713.120000
   5424   5436     1   0.15375 251793.120000
   5427   5439     1   0.15375 251793.120000
   5430   5433     1   0.15375 251793.120000
   5433   5442     1   0.15375 251793.120000
   5436   5448     1   0.15375 251793.120000
   5439   5445     1   0.15375 251793.120000
   5442   5451     1   0.14316 258236.480000
   5445  10932     1   0.14316 258236.480000
   5448  10961     1   0.14316 258236.480000
   5452   5453     1   0.14647 272713.120000
   5452   5456     1   0.14647 272713.120000
   5452   5459     1   0.14647 272713.120000
   5453   5465     1   0.15375 251793.120000
   5456   5468     1   0.15375 251793.120000
   5459   5462     1   0.15375 251793.120000
   5462   5471     1   0.15375 251793.120000
   5465   5477     1   0.15375 251793.120000
   5468   5474     1   0.15375 251793.120000
   5471   5480     1   0.14316 258236.480000
   5474  10990     1   0.14316 258236.480000
   5477  11019     1   0.14316 258236.480000
   5481   5482     1   0.14647 272713.120000
   5481   5485     1   0.14647 272713.120000
   5481   5488     1   0.14647 272713.120000
   5482   5494     1   0.15375 251793.120000
   5485   5497     1   0.15375 251793.120000
   5488   5491     1   0.15375 251793.120000
   5491   5500     1   0.15375 251793.120000
   5494   5506     1   0.15375 251793.120000
   5497   5503     1   0.15375 251793.120000
   5500   5509     1   0.14316 258236.480000
   5503  11048     1   0.14316 258236.480000
   5506  11077     1   0.14316 258236.480000
   5510   5511     1   0.14647 272713.120000
   5510   5514     1   0.14647 272713.120000
   5510   5517     1   0.14647 272713.120000
   5511   5523     1   0.15375 251793.120000
   5514   5526     1   0.15375 251793.120000
   5517   5520     1   0.15375 251793.120000
   5520   5529     1   0.15375 251793.120000
   5523   5535     1   0.15375 251793.120000
   5526   5532     1   0.15375 251793.120000
   5529   5538     1   0.14316 258236.480000
   5532  11088     1   0.14316 258236.480000
   5535  11111     1   0.14316 258236.480000
   5539   5540     1   0.14647 272713.120000
   5539   5543     1   0.14647 272713.120000
   5539   5546     1   0.14647 272713.120000
   5540   5552     1   0.15375 251793.120000
   5543   5555     1   0.15375 251793.120000
   5546   5549     1   0.15375 251793.120000
   5549   5558     1   0.15375 251793.120000
   5552   5564     1   0.15375 251793.120000
   5555   5561     1   0.15375 251793.120000
   5558   5567     1   0.14316 258236.480000
   5561  11134     1   0.14316 258236.480000
   5564  11157     1   0.14316 258236.480000
   5568   5569     1   0.14647 272713.120000
   5568   5572     1   0.14647 272713.120000
   5568   5575     1   0.14647 272713.120000
   5569   5581     1   0.15375 251793.120000
   5572   5584     1   0.15375 251793.120000
   5575   5578     1   0.15375 251793.120000
   5578   5587     1   0.15375 251793.120000
   5581   5593     1   0.15375 251793.120000
   5584   5590     1   0.15375 251793.120000
   5587   5596     1   0.14316 258236.480000
   5590  11180     1   0.14316 258236.480000
   5593  11203     1   0.14316 258236.480000
   5597   5598     1   0.14647 272713.120000
   5597   5601     1   0.14647 272713.120000
   5597   5604     1   0.14647 272713.120000
   5598   5610     1   0.15375 251793.120000
   5601   5613     1   0.15375 251793.120000
   5604   5607     1   0.15375 251793.120000
   5607   5616     1   0.15375 251793.120000
   5610   5622     1   0.15375 251793.120000
   5613   5619     1   0.15375 251793.120000
   5616   5625     1   0.14316 258236.480000
   5619  11226     1   0.14316 258236.480000
   5622  11249     1   0.14316 258236.480000
   5626   5627     1   0.14647 272713.120000
   5626   5630     1   0.14647 272713.120000
   5626   5633     1   0.14647 272713.120000
   5627   5639     1   0.15375 251793.120000
   5630   5642     1   0.15375 251793.120000
   5633   5636     1   0.15375 251793.120000
   5636   5645     1   0.15375 251793.120000
   5639   5651     1   0.15375 251793.120000
   5642   5648     1   0.15375 251793.120000
   5645   5654     1   0.14316 258236.480000
   5648  11272     1   0.14316 258236.480000
   5651  11295     1   0.14316 258236.480000
   5655   5656     1   0.14647 272713.120000
   5655   5659     1   0.14647 272713.120000
   5655   5662     1   0.14647 272713.120000
   5656   5668     1   0.15375 251793.120000
   5659   5671     1   0.15375 251793.120000
   5662   5665     1   0.15375 251793.120000
   5665   5674     1   0.15375 251793.120000
   5668   5680     1   0.15375 251793.120000
   5671   5677     1   0.15375 251793.120000
   5674   5683     1   0.14316 258236.480000
   5677  11318     1   0.14316 258236.480000
   5680  11341     1   0.14316 258236.480000
   5684   5685     1   0.14647 272713.120000
   5684   5688     1   0.14647 272713.120000
   5684   5691     1   0.14647 272713.120000
   5685   5697     1   0.15375 251793.120000
   5688   5700     1   0.15375 251793.120000
   5691   5694     1   0.15375 251793.120000
   5694   5703     1   0.15375 251793.120000
   5697   5709     1   0.15375 251793.120000
   5700   5706     1   0.15375 251793.120000
   5703   5712     1   0.14316 258236.480000
   5706  11364     1   0.14316 258236.480000
   5709  11387     1   0.14316 258236.480000
   5713   5714     1   0.14647 272713.120000
   5713   5717     1   0.14647 272713.120000
   5713   5720     1   0.14647 272713.120000
   5714   5726     1   0.15375 251793.120000
   5717   5729     1   0.15375 251793.120000
   5720   5723     1   0.15375 251793.120000
   5723   5732     1   0.15375 251793.120000
   5726   5738     1   0.15375 251793.120000
   5729   5735     1   0.15375 251793.120000
   5732   5741     1   0.14316 258236.480000
   5735  11410     1   0.14316 258236.480000
   5738  11433     1   0.14316 258236.480000
   5742   5743     1   0.14647 272713.120000
   5742   5746     1   0.14647 272713.120000
   5742   5749     1   0.14647 272713.120000
   5743   5755     1   0.15375 251793.120000
   5746   5758     1   0.15375 251793.120000
   5749   5752     1   0.15375 251793.120000
   5752   5761     1   0.15375 251793.120000
   5755   5767     1   0.15375 251793.120000
   5758   5764     1   0.15375 251793.120000
   5761   5770     1   0.14316 258236.480000
   5764  11456     1   0.14316 258236.480000
   5767  11479     1   0.14316 258236.480000
   5771   5772     1   0.14647 272713.120000
   5771   5775     1   0.14647 272713.120000
   5771   5778     1   0.14647 272713.120000
   5772   5784     1   0.15375 251793.120000
   5775   5787     1   0.15375 251793.120000
   5778   5781     1   0.15375 251793.120000
   5781   5790     1   0.15375 251793.120000
   5784   5796     1   0.15375 251793.120000
   5787   5793     1   0.15375 251793.120000
   5790   5799     1   0.14316 258236.480000
   5793  11502     1   0.14316 258236.480000
   5796  11525     1   0.14316 258236.480000
   5800   5801     1   0.14647 272713.120000
   5800   5804     1   0.14647 272713.120000
   5800   5807     1   0.14647 272713.120000
   5801   5813     1   0.15375 251793.120000
   5804   5816     1   0.15375 251793.120000
   5807   5810     1   0.15375 251793.120000
   5810   5819     1   0.15375 251793.120000
   5813   5825     1   0.15375 251793.120000
   5816   5822     1   0.15375 251793.120000
   5819   5828     1   0.14316 258236.480000
   5822  11548     1   0.14316 258236.480000
   5825  11571     1   0.14316 258236.480000
   5829   5830     1   0.14647 272713.120000
   5829   5833     1   0.14647 272713.120000
   5829   5836     1   0.14647 272713.120000
   5830   5842     1   0.15375 251793.120000
   5833   5845     1   0.15375 251793.120000
   5836   5839     1   0.15375 251793.120000
   5839   5848     1   0.15375 251793.120000
   5842   5854     1   0.15375 251793.120000
   5845   5851     1   0.15375 251793.120000
   5848   5857     1   0.14316 258236.480000
   5851  11594     1   0.14316 258236.480000
   5854  11617     1   0.14316 258236.480000
   5858   5859     1   0.14647 272713.120000
   5858   5862     1   0.14647 272713.120000
   5858   5865     1   0.14647 272713.120000
   5859   5871     1   0.15375 251793.120000
   5862   5874     1   0.15375 251793.120000
   5865   5868     1   0.15375 251793.120000
   5868   5877     1   0.15375 251793.120000
   5871   5883     1   0.15375 251793.120000
   5874   5880     1   0.15375 251793.120000
   5877   5886     1   0.14316 258236.480000
   5880  11640     1   0.14316 258236.480000
   5883  11663     1   0.14316 258236.480000
   5887   5888     1   0.14647 272713.120000
   5887   5891     1   0.14647 272713.120000
   5887   5894     1   0.14647 272713.120000
   5888   5900     1   0.15375 251793.120000
   5891   5903     1   0.15375 251793.120000
   5894   5897     1   0.15375 251793.120000
   5897   5906     1   0.15375 251793.120000
   5900   5912     1   0.15375 251793.120000
   5903   5909     1   0.15375 251793.120000
   5906   5915     1   0.14316 258236.480000
   5909  11686     1   0.14316 258236.480000
   5912  11709     1   0.14316 258236.480000
   5916   5917     1   0.14647 272713.120000
   5916   5920     1   0.14647 272713.120000
   5916   5923     1   0.14647 272713.120000
   5917   5929     1   0.15375 251793.120000
   5920   5932     1   0.15375 251793.120000
   5923   5926     1   0.15375 251793.120000
   5926   5935     1   0.15375 251793.120000
   5929   5941     1   0.15375 251793.120000
   5932   5938     1   0.15375 251793.120000
   5935   5944     1   0.14316 258236.480000
   5938  11732     1   0.14316 258236.480000
   5941  11755     1   0.14316 258236.480000
   5945   5946     1   0.14647 272713.120000
   5945   5949     1   0.14647 272713.120000
   5945   5952     1   0.14647 272713.120000
   5946   5958     1   0.15375 251793.120000
   5949   5961     1   0.15375 251793.120000
   5952   5955     1   0.15375 251793.120000
   5955   5964     1   0.15375 251793.120000
   5958   5970     1   0.15375 251793.120000
   5961   5967     1   0.15375 251793.120000
   5964   5973     1   0.14316 258236.480000
   5967  11778     1   0.14316 258236.480000
   5970  11801     1   0.14316 258236.480000
   5974   5975     1   0.14647 272713.120000
   5974   5978     1   0.14647 272713.120000
   5974   5981     1   0.14647 272713.120000
   5975   5987     1   0.15375 251793.120000
   5978   5990     1   0.15375 251793.120000
   5981   5984     1   0.15375 251793.120000
   5984   5993     1   0.15375 251793.120000
   5987   5999     1   0.15375 251793.120000
   5990   5996     1   0.15375 251793.120000
   5993   6002     1   0.14316 258236.480000
   5996  11824     1   0.14316 258236.480000
   5999  11847     1   0.14316 258236.480000
   6003   6004     1   0.14647 272713.120000
   6003   6007     1   0.14647 272713.120000
   6003   6010     1   0.14647 272713.120000
   6004   6016     1   0.15375 251793.120000
   6007   6019     1   0.15375 251793.120000
   6010   6013     1   0.15375 251793.120000
   6013   6022     1   0.15375 251793.120000
   6016   6028     1   0.15375 251793.120000
   6019   6025     1   0.15375 251793.120000
   6022   6031     1   0.14316 258236.480000
   6025  11870     1   0.14316 258236.480000
   6028  11893     1   0.14316 258236.480000
   6032   6033     1   0.14647 272713.120000
   6032   6036     1   0.14647 272713.120000
   6032   6039     1   0.14647 272713.120000
   6033   6045     1   0.15375 251793.120000
   6036   6048     1   0.15375 251793.120000
   6039   6042     1   0.15375 251793.120000
   6042   6051     1   0.15375 251793.120000
   6045   6057     1   0.15375 251793.120000
   6048   6054     1   0.15375 251793.120000
   6051   6060     1   0.14316 258236.480000
   6054  11916     1   0.14316 258236.480000
   6057  11939     1   0.14316 258236.480000
   6061   6062     1   0.14647 272713.120000
   6061   6065     1   0.14647 272713.120000
   6061   6068     1   0.14647 272713.120000
   6062   6074     1   0.15375 251793.120000
   6065   6077     1   0.15375 251793.120000
   6068   6071     1   0.15375 251793.120000
   6071   6080     1   0.15375 251793.120000
   6074   6086     1   0.15375 251793.120000
   6077   6083     1   0.15375 251793.120000
   6080   6089     1   0.14316 258236.480000
   6083  11962     1   0.14316 258236.480000
   6086  11985     1   0.14316 258236.480000
   6090   6091     1   0.14647 272713.120000
   6090   6094     1   0.14647 272713.120000
   6090   6097     1   0.14647 272713.120000
   6091   6103     1   0.15375 251793.120000
   6094   6106     1   0.15375 251793.120000
   6097   6100     1   0.15375 251793.120000
   6100   6109     1   0.15375 251793.120000
   6103   6115     1   0.15375 251793.120000
   6106   6112     1   0.15375 251793.120000
   6109   6118     1   0.14316 258236.480000
   6112  12008     1   0.14316 258236.480000
   6115  12031     1   0.14316 258236.480000
   6119   6120     1   0.14647 272713.120000
   6119   6123     1   0.14647 272713.120000
   6119   6126     1   0.14647 272713.120000
   6120   6132     1   0.15375 251793.120000
   6123   6135     1   0.15375 251793.120000
   6126   6129     1   0.15375 251793.120000
   6129   6138     1   0.15375 251793.120000
   6132   6144     1   0.15375 251793.120000
   6135   6141     1   0.15375 251793.120000
   6138   6147     1   0.14316 258236.480000
   6141  12054     1   0.14316 258236.480000
   6144  12077     1   0.14316 258236.480000
   6148   6149     1   0.14647 272713.120000
   6148   6152     1   0.14647 272713.120000
   6148   6155     1   0.14647 272713.120000
   6149   6161     1   0.15375 251793.120000
   6152   6164     1   0.15375 251793.120000
   6155   6158     1   0.15375 251793.120000
   6158   6167     1   0.15375 251793.120000
   6161   6173     1   0.15375 251793.120000
   6164   6170     1   0.15375 251793.120000
   6167   6176     1   0.14316 258236.480000
   6170  12100     1   0.14316 258236.480000
   6173  12123     1   0.14316 258236.480000
   6177   6178     1   0.14647 272713.120000
   6177   6181     1   0.14647 272713.120000
   6177   6184     1   0.14647 272713.120000
   6178   6190     1   0.15375 251793.120000
   6181   6193     1   0.15375 251793.120000
   6184   6187     1   0.15375 251793.120000
   6187   6196     1   0.15375 251793.120000
   6190   6202     1   0.15375 251793.120000
   6193   6199     1   0.15375 251793.120000
   6196   6205     1   0.14316 258236.480000
   6199  12146     1   0.14316 258236.480000
   6202  12169     1   0.14316 258236.480000
   6206   6207     1   0.14647 272713.120000
   6206   6210     1   0.14647 272713.120000
   6206   6213     1   0.14647 272713.120000
   6207   6219     1   0.15375 251793.120000
   6210   6222     1   0.15375 251793.120000
   6213   6216     1   0.15375 251793.120000
   6216   6225     1   0.15375 251793.120000
   6219   6231     1   0.15375 251793.120000
   6222   6228     1   0.15375 251793.120000
   6225   6234     1   0.14316 258236.480000
   6228  12192     1   0.14316 258236.480000
   6231  12215     1   0.14316 258236.480000
   6235   6236     1   0.14647 272713.120000
   6235   6239     1   0.14647 272713.120000
   6235   6242     1   0.14647 272713.120000
   6236   6248     1   0.15375 251793.120000
   6239   6251     1   0.15375 251793.120000
   6242   6245     1   0.15375 251793.120000
   6245   6254     1   0.15375 251793.120000
   6248   6260     1   0.15375 251793.120000
   6251   6257     1   0.15375 251793.120000
   6254   6263     1   0.14316 258236.480000
   6257  12238     1   0.14316 258236.480000
   6260  12261     1   0.14316 258236.480000
   6264   6265     1   0.14647 272713.120000
   6264   6268     1   0.14647 272713.120000
   6264   6271     1   0.14647 272713.120000
   6265   6277     1   0.15375 251793.120000
   6268   6280     1   0.15375 251793.120000
   6271   6274     1   0.15375 251793.120000
   6274   6283     1   0.15375 251793.120000
   6277   6289     1   0.15375 251793.120000
   6280   6286     1   0.15375 251793.120000
   6283   6292     1   0.14316 258236.480000
   6286  12284     1   0.14316 258236.480000
   6289  12307     1   0.14316 258236.480000
   6293   6294     1   0.14647 272713.120000
   6293   6297     1   0.14647 272713.120000
   6293   6300     1   0.14647 272713.120000
   6294   6306     1   0.15375 251793.120000
   6297   6309     1   0.15375 251793.120000
   6300   6303     1   0.15375 251793.120000
   6303   6312     1   0.15375 251793.120000
   6306   6318     1   0.15375 251793.120000
   6309   6315     1   0.15375 251793.120000
   6312   6321     1   0.14316 258236.480000
   6315  12330     1   0.14316 258236.480000
   6318  12353     1   0.14316 258236.480000
   6322   6323     1   0.14647 272713.120000
   6322   6326     1   0.14647 272713.120000
   6322   6329     1   0.14647 272713.120000
   6323   6335     1   0.15375 251793.120000
   6326   6338     1   0.15375 251793.120000
   6329   6332     1   0.15375 251793.120000
   6332   6341     1   0.15375 251793.120000
   6335   6347     1   0.15375 251793.120000
   6338   6344     1   0.15375 251793.120000
   6341   6350     1   0.14316 258236.480000
   6344  12376     1   0.14316 258236.480000
   6347  12399     1   0.14316 258236.480000
   6351   6352     1   0.14647 272713.120000
   6351   6355     1   0.14647 272713.120000
   6351   6358     1   0.14647 272713.120000
   6352   6364     1   0.15375 251793.120000
   6355   6367     1   0.15375 251793.120000
   6358   6361     1   0.15375 251793.120000
   6361   6370     1   0.15375 251793.120000
   6364   6376     1   0.15375 251793.120000
   6367   6373     1   0.15375 251793.120000
   6370   6379     1   0.14316 258236.480000
   6373  12422     1   0.14316 258236.480000
   6376  12445     1   0.14316 258236.480000
   6380   6381     1   0.14647 272713.120000
   6380   6384     1   0.14647 272713.120000
   6380   6387     1   0.14647 272713.120000
   6381   6393     1   0.15375 251793.120000
   6384   6396     1   0.15375 251793.120000
   6387   6390     1   0.15375 251793.120000
   6390   6399     1   0.15375 251793.120000
   6393   6405     1   0.15375 251793.120000
   6396   6402     1   0.15375 251793.120000
   6399   6408     1   0.14316 258236.480000
   6402  12468     1   0.14316 258236.480000
   6405  12491     1   0.14316 258236.480000
   6409   6410     1   0.14647 272713.120000
   6409   6413     1   0.14647 272713.120000
   6409   6416     1   0.14647 272713.120000
   6410   6422     1   0.15375 251793.120000
   6413   6425     1   0.15375 251793.120000
   6416   6419     1   0.15375 251793.120000
   6419   6428     1   0.15375 251793.120000
   6422   6434     1   0.15375 251793.120000
   6425   6431     1   0.15375 251793.120000
   6428   6437     1   0.14316 258236.480000
   6431  12514     1   0.14316 258236.480000
   6434  12537     1   0.14316 258236.480000
   6438   6439     1   0.14647 272713.120000
   6438   6442     1   0.14647 272713.120000
   6438   6445     1   0.14647 272713.120000
   6439   6451     1   0.15375 251793.120000
   6442   6454     1   0.15375 251793.120000
   6445   6448     1   0.15375 251793.120000
   6448   6457     1   0.15375 251793.120000
   6451   6463     1   0.15375 251793.120000
   6454   6460     1   0.15375 251793.120000
   6457   6466     1   0.14316 258236.480000
   6460  12560     1   0.14316 258236.480000
   6463  12583     1   0.14316 258236.480000
   6467   6468     1   0.14647 272713.120000
   6467   6471     1   0.14647 272713.120000
   6467   6474     1   0.14647 272713.120000
   6468   6480     1   0.15375 251793.120000
   6471   6483     1   0.15375 251793.120000
   6474   6477     1   0.15375 251793.120000
   6477   6486     1   0.15375 251793.120000
   6480   6492     1   0.15375 251793.120000
   6483   6489     1   0.15375 251793.120000
   6486   6495     1   0.14316 258236.480000
   6489  12606     1   0.14316 258236.480000
   6492  12629     1   0.14316 258236.480000
   6496   6497     1   0.14647 272713.120000
   6496   6500     1   0.14647 272713.120000
   6496   6503     1   0.14647 272713.120000
   6497   6509     1   0.15375 251793.120000
   6500   6512     1   0.15375 251793.120000
   6503   6506     1   0.15375 251793.120000
   6506   6515     1   0.15375 251793.120000
   6509   6521     1   0.15375 251793.120000
   6512   6518     1   0.15375 251793.120000
   6515   6524     1   0.14316 258236.480000
   6518  12652     1   0.14316 258236.480000
   6521  12675     1   0.14316 258236.480000
   6525   6526     1   0.14647 272713.120000
   6525   6529     1   0.14647 272713.120000
   6525   6532     1   0.14647 272713.120000
   6526   6538     1   0.15375 251793.120000
   6529   6541     1   0.15375 251793.120000
   6532   6535     1   0.15375 251793.120000
   6535   6544     1   0.15375 251793.120000
   6538   6550     1   0.15375 251793.120000
   6541   6547     1   0.15375 251793.120000
   6544   6553     1   0.14316 258236.480000
   6547  12698     1   0.14316 258236.480000
   6550  12721     1   0.14316 258236.480000
   6554   6555     1   0.14647 272713.120000
   6554   6558     1   0.14647 272713.120000
   6554   6561     1   0.14647 272713.120000
   6555   6567     1   0.15375 251793.120000
   6558   6570     1   0.15375 251793.120000
   6561   6564     1   0.15375 251793.120000
   6564   6573     1   0.15375 251793.120000
   6567   6579     1   0.15375 251793.120000
   6570   6576     1   0.15375 251793.120000
   6573   6582     1   0.14316 258236.480000
   6576  12744     1   0.14316 258236.480000
   6579  12767     1   0.14316 258236.480000
   6583   6584     1   0.14647 272713.120000
   6583   6587     1   0.14647 272713.120000
   6583   6590     1   0.14647 272713.120000
   6584   6596     1   0.15375 251793.120000
   6587   6599     1   0.15375 251793.120000
   6590   6593     1   0.15375 251793.120000
   6593   6602     1   0.15375 251793.120000
   6596   6608     1   0.15375 251793.120000
   6599   6605     1   0.15375 251793.120000
   6602   6611     1   0.14316 258236.480000
   6605  12790     1   0.14316 258236.480000
   6608  12813     1   0.14316 258236.480000
   6612   6613     1   0.14647 272713.120000
   6612   6616     1   0.14647 272713.120000
   6612   6619     1   0.14647 272713.120000
   6613   6625     1   0.15375 251793.120000
   6616   6628     1   0.15375 251793.120000
   6619   6622     1   0.15375 251793.120000
   6622   6631     1   0.15375 251793.120000
   6625   6637     1   0.15375 251793.120000
   6628   6634     1   0.15375 251793.120000
   6631   6640     1   0.14316 258236.480000
   6634  12836     1   0.14316 258236.480000
   6637  12859     1   0.14316 258236.480000
   6641   6642     1   0.14647 272713.120000
   6641   6645     1   0.14647 272713.120000
   6641   6648     1   0.14647 272713.120000
   6642   6654     1   0.15375 251793.120000
   6645   6657     1   0.15375 251793.120000
   6648   6651     1   0.15375 251793.120000
   6651   6660     1   0.15375 251793.120000
   6654   6666     1   0.15375 251793.120000
   6657   6663     1   0.15375 251793.120000
   6660   6669     1   0.14316 258236.480000
   6663  12882     1   0.14316 258236.480000
   6666  12905     1   0.14316 258236.480000
   6670   6671     1   0.14647 272713.120000
   6670   6674     1   0.14647 272713.120000
   6670   6677     1   0.14647 272713.120000
   6671   6683     1   0.15375 251793.120000
   6674   6686     1   0.15375 251793.120000
   6677   6680     1   0.15375 251793.120000
   6680   6689     1   0.15375 251793.120000
   6683   6695     1   0.15375 251793.120000
   6686   6692     1   0.15375 251793.120000
   6689   6698     1   0.14316 258236.480000
   6692  12928     1   0.14316 258236.480000
   6695  12951     1   0.14316 258236.480000
   6699   6700     1   0.14647 272713.120000
   6699   6703     1   0.14647 272713.120000
   6699   6706     1   0.14647 272713.120000
   6700   6712     1   0.15375 251793.120000
   6703   6715     1   0.15375 251793.120000
   6706   6709     1   0.15375 251793.120000
   6709   6718     1   0.15375 251793.120000
   6712   6724     1   0.15375 251793.120000
   6715   6721     1   0.15375 251793.120000
   6718   6727     1   0.14316 258236.480000
   6721  12974     1   0.14316 258236.480000
   6724  12997     1   0.14316 258236.480000
   6728   6729     1   0.14647 272713.120000
   6728   6732     1   0.14647 272713.120000
   6728   6735     1   0.14647 272713.120000
   6729   6741     1   0.15375 251793.120000
   6732   6744     1   0.15375 251793.120000
   6735   6738     1   0.15375 251793.120000
   6738   6747     1   0.15375 251793.120000
   6741   6753     1   0.15375 251793.120000
   6744   6750     1   0.15375 251793.120000
   6747   6756     1   0.14316 258236.480000
   6750  13020     1   0.14316 258236.480000
   6753  13043     1   0.14316 258236.480000
   6757   6758     1   0.14647 272713.120000
   6757   6761     1   0.14647 272713.120000
   6757   6764     1   0.14647 272713.120000
   6758   6770     1   0.15375 251793.120000
   6761   6773     1   0.15375 251793.120000
   6764   6767     1   0.15375 251793.120000
   6767   6776     1   0.15375 251793.120000
   6770   6782     1   0.15375 251793.120000
   6773   6779     1   0.15375 251793.120000
   6776   6785     1   0.14316 258236.480000
   6779  13066     1   0.14316 258236.480000
   6782  13089     1   0.14316 258236.480000
   6786   6787     1   0.14647 272713.120000
   6786   6790     1   0.14647 272713.120000
   6786   6793     1   0.14647 272713.120000
   6787   6799     1   0.15375 251793.120000
   6790   6802     1   0.15375 251793.120000
   6793   6796     1   0.15375 251793.120000
   6796   6805     1   0.15375 251793.120000
   6799   6811     1   0.15375 251793.120000
   6802   6808     1   0.15375 251793.120000
   6805   6814     1   0.14316 258236.480000
   6808  13112     1   0.14316 258236.480000
   6811  13135     1   0.14316 258236.480000
   6815   6816     1   0.14647 272713.120000
   6815   6819     1   0.14647 272713.120000
   6815   6822     1   0.14647 272713.120000
   6816   6828     1   0.15375 251793.120000
   6819   6831     1   0.15375 251793.120000
   6822   6825     1   0.15375 251793.120000
   6825   6834     1   0.15375 251793.120000
   6828   6840     1   0.15375 251793.120000
   6831   6837     1   0.15375 251793.120000
   6834   6843     1   0.14316 258236.480000
   6837  13158     1   0.14316 258236.480000
   6840  13181     1   0.14316 258236.480000
   6844   6845     1   0.14647 272713.120000
   6844   6848     1   0.14647 272713.120000
   6844   6851     1   0.14647 272713.120000
   6845   6857     1   0.15375 251793.120000
   6848   6860     1   0.15375 251793.120000
   6851   6854     1   0.15375 251793.120000
   6854   6863     1   0.15375 251793.120000
   6857   6869     1   0.15375 251793.120000
   6860   6866     1   0.15375 251793.120000
   6863   6872     1   0.14316 258236.480000
   6866  13204     1   0.14316 258236.480000
   6869  13227     1   0.14316 258236.480000
   6873   6874     1   0.14647 272713.120000
   6873   6877     1   0.14647 272713.120000
   6873   6880     1   0.14647 272713.120000
   6874   6886     1   0.15375 251793.120000
   6877   6889     1   0.15375 251793.120000
   6880   6883     1   0.15375 251793.120000
   6883   6892     1   0.15375 251793.120000
   6886   6898     1   0.15375 251793.120000
   6889   6895     1   0.15375 251793.120000
   6892   6901     1   0.14316 258236.480000
   6895  13250     1   0.14316 258236.480000
   6898  13273     1   0.14316 258236.480000
   6902   6903     1   0.14647 272713.120000
   6902   6906     1   0.14647 272713.120000
   6902   6909     1   0.14647 272713.120000
   6903   6915     1   0.15375 251793.120000
   6906   6918     1   0.15375 251793.120000
   6909   6912     1   0.15375 251793.120000
   6912   6921     1   0.15375 251793.120000
   6915   6927     1   0.15375 251793.120000
   6918   6924     1   0.15375 251793.120000
   6921   6930     1   0.14316 258236.480000
   6924  13296     1   0.14316 258236.480000
   6927  13319     1   0.14316 258236.480000
   6931   6932     1   0.14647 272713.120000
   6931   6935     1   0.14647 272713.120000
   6931   6938     1   0.14647 272713.120000
   6932   6944     1   0.15375 251793.120000
   6935   6947     1   0.15375 251793.120000
   6938   6941     1   0.15375 251793.120000
   6941   6950     1   0.15375 251793.120000
   6944   6956     1   0.15375 251793.120000
   6947   6953     1   0.15375 251793.120000
   6950   6959     1   0.14316 258236.480000
   6953  13342     1   0.14316 258236.480000
   6956  13365     1   0.14316 258236.480000
   6960   6961     1   0.14647 272713.120000
   6960   6964     1   0.14647 272713.120000
   6960   6967     1   0.14647 272713.120000
   6961   6973     1   0.15375 251793.120000
   6964   6976     1   0.15375 251793.120000
   6967   6970     1   0.15375 251793.120000
   6970   6979     1   0.15375 251793.120000
   6973   6985     1   0.15375 251793.120000
   6976   6982     1   0.15375 251793.120000
   6979   6988     1   0.14316 258236.480000
   6982  13388     1   0.14316 258236.480000
   6985  13411     1   0.14316 258236.480000
   6989   6990     1   0.14647 272713.120000
   6989   6993     1   0.14647 272713.120000
   6989   6996     1   0.14647 272713.120000
   6990   7002     1   0.15375 251793.120000
   6993   7005     1   0.15375 251793.120000
   6996   6999     1   0.15375 251793.120000
   6999   7008     1   0.15375 251793.120000
   7002   7014     1   0.15375 251793.120000
   7005   7011     1   0.15375 251793.120000
   7008   7017     1   0.14316 258236.480000
   7011  13434     1   0.14316 258236.480000
   7014  13457     1   0.14316 258236.480000
   7018   7019     1   0.14647 272713.120000
   7018   7022     1   0.14647 272713.120000
   7018   7025     1   0.14647 272713.120000
   7019   7031     1   0.15375 251793.120000
   7022   7034     1   0.15375 251793.120000
   7025   7028     1   0.15375 251793.120000
   7028   7037     1   0.15375 251793.120000
   7031   7043     1   0.15375 251793.120000
   7034   7040     1   0.15375 251793.120000
   7037   7046     1   0.14316 258236.480000
   7040  13480     1   0.14316 258236.480000
   7043  13503     1   0.14316 258236.480000
   7047   7048     1   0.14647 272713.120000
   7047   7051     1   0.14647 272713.120000
   7047   7054     1   0.14647 272713.120000
   7048   7060     1   0.15375 251793.120000
   7051   7063     1   0.15375 251793.120000
   7054   7057     1   0.15375 251793.120000
   7057   7066     1   0.15375 251793.120000
   7060   7072     1   0.15375 251793.120000
   7063   7069     1   0.15375 251793.120000
   7066   7075     1   0.14316 258236.480000
   7069  13526     1   0.14316 258236.480000
   7072  13549     1   0.14316 258236.480000
   7076   7077     1   0.14647 272713.120000
   7076   7080     1   0.14647 272713.120000
   7076   7083     1   0.14647 272713.120000
   7077   7089     1   0.15375 251793.120000
   7080   7092     1   0.15375 251793.120000
   7083   7086     1   0.15375 251793.120000
   7086   7095     1   0.15375 251793.120000
   7089   7101     1   0.15375 251793.120000
   7092   7098     1   0.15375 251793.120000
   7095   7104     1   0.14316 258236.480000
   7098  13572     1   0.14316 258236.480000
   7101  13595     1   0.14316 258236.480000
   7105   7106     1   0.14647 272713.120000
   7105   7109     1   0.14647 272713.120000
   7105   7112     1   0.14647 272713.120000
   7106   7118     1   0.15375 251793.120000
   7109   7121     1   0.15375 251793.120000
   7112   7115     1   0.15375 251793.120000
   7115   7124     1   0.15375 251793.120000
   7118   7130     1   0.15375 251793.120000
   7121   7127     1   0.15375 251793.120000
   7124   7133     1   0.14316 258236.480000
   7127  13618     1   0.14316 258236.480000
   7130  13641     1   0.14316 258236.480000
   7134   7135     1   0.14647 272713.120000
   7134   7138     1   0.14647 272713.120000
   7134   7141     1   0.14647 272713.120000
   7135   7147     1   0.15375 251793.120000
   7138   7150     1   0.15375 251793.120000
   7141   7144     1   0.15375 251793.120000
   7144   7153     1   0.15375 251793.120000
   7147   7159     1   0.15375 251793.120000
   7150   7156     1   0.15375 251793.120000
   7153   7162     1   0.14316 258236.480000
   7156  13664     1   0.14316 258236.480000
   7159  13687     1   0.14316 258236.480000
   7163   7164     1   0.14647 272713.120000
   7163   7167     1   0.14647 272713.120000
   7163   7170     1   0.14647 272713.120000
   7164   7176     1   0.15375 251793.120000
   7167   7179     1   0.15375 251793.120000
   7170   7173     1   0.15375 251793.120000
   7173   7182     1   0.15375 251793.120000
   7176   7188     1   0.15375 251793.120000
   7179   7185     1   0.15375 251793.120000
   7182   7191     1   0.14316 258236.480000
   7185  13710     1   0.14316 258236.480000
   7188  13733     1   0.14316 258236.480000
   7192   7193     1   0.14647 272713.120000
   7192   7196     1   0.14647 272713.120000
   7192   7199     1   0.14647 272713.120000
   7193   7205     1   0.15375 251793.120000
   7196   7208     1   0.15375 251793.120000
   7199   7202     1   0.15375 251793.120000
   7202   7211     1   0.15375 251793.120000
   7205   7217     1   0.15375 251793.120000
   7208   7214     1   0.15375 251793.120000
   7211   7220     1   0.14316 258236.480000
   7214  13756     1   0.14316 258236.480000
   7217  13779     1   0.14316 258236.480000
   7221   7222     1   0.14647 272713.120000
   7221   7225     1   0.14647 272713.120000
   7221   7228     1   0.14647 272713.120000
   7222   7234     1   0.15375 251793.120000
   7225   7237     1   0.15375 251793.120000
   7228   7231     1   0.15375 251793.120000
   7231   7240     1   0.15375 251793.120000
   7234   7246     1   0.15375 251793.120000
   7237   7243     1   0.15375 251793.120000
   7240   7249     1   0.14316 258236.480000
   7243  13802     1   0.14316 258236.480000
   7246  13825     1   0.14316 258236.480000
   7250   7251     1   0.14647 272713.120000
   7250   7254     1   0.14647 272713.120000
   7250   7257     1   0.14647 272713.120000
   7251   7263     1   0.15375 251793.120000
   7254   7266     1   0.15375 251793.120000
   7257   7260     1   0.15375 251793.120000
   7260   7269     1   0.15375 251793.120000
   7263   7275     1   0.15375 251793.120000
   7266   7272     1   0.15375 251793.120000
   7269   7278     1   0.14316 258236.480000
   7272  13848     1   0.14316 258236.480000
   7275  13871     1   0.14316 258236.480000
   7279   7280     1   0.14647 272713.120000
   7279   7283     1   0.14647 272713.120000
   7279   7286     1   0.14647 272713.120000
   7280   7292     1   0.15375 251793.120000
   7283   7295     1   0.15375 251793.120000
   7286   7289     1   0.15375 251793.120000
   7289   7298     1   0.15375 251793.120000
   7292   7304     1   0.15375 251793.120000
   7295   7301     1   0.15375 251793.120000
   7298   7307     1   0.14316 258236.480000
   7301  13894     1   0.14316 258236.480000
   7304  13917     1   0.14316 258236.480000
   7308   7309     1   0.14647 272713.120000
   7308   7312     1   0.14647 272713.120000
   7308   7315     1   0.14647 272713.120000
   7309   7321     1   0.15375 251793.120000
   7312   7324     1   0.15375 251793.120000
   7315   7318     1   0.15375 251793.120000
   7318   7327     1   0.15375 251793.120000
   7321   7333     1   0.15375 251793.120000
   7324   7330     1   0.15375 251793.120000
   7327   7336     1   0.14316 258236.480000
   7330  13940     1   0.14316 258236.480000
   7333  13963     1   0.14316 258236.480000
   7337   7338     1   0.14647 272713.120000
   7337   7341     1   0.14647 272713.120000
   7337   7344     1   0.14647 272713.120000
   7338   7350     1   0.15375 251793.120000
   7341   7353     1   0.15375 251793.120000
   7344   7347     1   0.15375 251793.120000
   7347   7356     1   0.15375 251793.120000
   7350   7362     1   0.15375 251793.120000
   7353   7359     1   0.15375 251793.120000
   7356   7365     1   0.14316 258236.480000
   7359  13986     1   0.14316 258236.480000
   7362  14009     1   0.14316 258236.480000
   7366   7367     1   0.14647 272713.120000
   7366   7370     1   0.14647 272713.120000
   7366   7373     1   0.14647 272713.120000
   7367   7379     1   0.15375 251793.120000
   7370   7382     1   0.15375 251793.120000
   7373   7376     1   0.15375 251793.120000
   7376   7385     1   0.15375 251793.120000
   7379   7391     1   0.15375 251793.120000
   7382   7388     1   0.15375 251793.120000
   7385   7394     1   0.14316 258236.480000
   7388  14032     1   0.14316 258236.480000
   7391  14055     1   0.14316 258236.480000
   7395   7396     1   0.14647 272713.120000
   7395   7399     1   0.14647 272713.120000
   7395   7402     1   0.14647 272713.120000
   7396   7408     1   0.15375 251793.120000
   7399   7411     1   0.15375 251793.120000
   7402   7405     1   0.15375 251793.120000
   7405   7414     1   0.15375 251793.120000
   7408   7420     1   0.15375 251793.120000
   7411   7417     1   0.15375 251793.120000
   7414   7423     1   0.14316 258236.480000
   7417  14078     1   0.14316 258236.480000
   7420  14101     1   0.14316 258236.480000
   7424   7425     1   0.14647 272713.120000
   7424   7428     1   0.14647 272713.120000
   7424   7431     1   0.14647 272713.120000
   7425   7437     1   0.15375 251793.120000
   7428   7440     1   0.15375 251793.120000
   7431   7434     1   0.15375 251793.120000
   7434   7443     1   0.15375 251793.120000
   7437   7449     1   0.15375 251793.120000
   7440   7446     1   0.15375 251793.120000
   7443   7452     1   0.14316 258236.480000
   7446  14124     1   0.14316 258236.480000
   7449  14147     1   0.14316 258236.480000
   7453   7454     1   0.14647 272713.120000
   7453   7457     1   0.14647 272713.120000
   7453   7460     1   0.14647 272713.120000
   7454   7466     1   0.15375 251793.120000
   7457   7469     1   0.15375 251793.120000
   7460   7463     1   0.15375 251793.120000
   7463   7472     1   0.15375 251793.120000
   7466   7478     1   0.15375 251793.120000
   7469   7475     1   0.15375 251793.120000
   7472   7481     1   0.14316 258236.480000
   7475  14170     1   0.14316 258236.480000
   7478  14193     1   0.14316 258236.480000
   7482   7483     1   0.14647 272713.120000
   7482   7486     1   0.14647 272713.120000
   7482   7489     1   0.14647 272713.120000
   7483   7495     1   0.15375 251793.120000
   7486   7498     1   0.15375 251793.120000
   7489   7492     1   0.15375 251793.120000
   7492   7501     1   0.15375 251793.120000
   7495   7507     1   0.15375 251793.120000
   7498   7504     1   0.15375 251793.120000
   7501   7510     1   0.14316 258236.480000
   7504  14216     1   0.14316 258236.480000
   7507  14239     1   0.14316 258236.480000
   7511   7512     1   0.14647 272713.120000
   7511   7515     1   0.14647 272713.120000
   7511   7518     1   0.14647 272713.120000
   7512   7524     1   0.15375 251793.120000
   7515   7527     1   0.15375 251793.120000
   7518   7521     1   0.15375 251793.120000
   7521   7530     1   0.15375 251793.120000
   7524   7536     1   0.15375 251793.120000
   7527   7533     1   0.15375 251793.120000
   7530   7539     1   0.14316 258236.480000
   7533  14262     1   0.14316 258236.480000
   7536  14285     1   0.14316 258236.480000
   7540   7541     1   0.14647 272713.120000
   7540   7544     1   0.14647 272713.120000
   7540   7547     1   0.14647 272713.120000
   7541   7553     1   0.15375 251793.120000
   7544   7556     1   0.15375 251793.120000
   7547   7550     1   0.15375 251793.120000
   7550   7559     1   0.15375 251793.120000
   7553   7565     1   0.15375 251793.120000
   7556   7562     1   0.15375 251793.120000
   7559   7568     1   0.14316 258236.480000
   7562  14308     1   0.14316 258236.480000
   7565  14331     1   0.14316 258236.480000
   7569   7570     1   0.14647 272713.120000
   7569   7573     1   0.14647 272713.120000
   7569   7576     1   0.14647 272713.120000
   7570   7582     1   0.15375 251793.120000
   7573   7585     1   0.15375 251793.120000
   7576   7579     1   0.15375 251793.120000
   7579   7588     1   0.15375 251793.120000
   7582   7594     1   0.15375 251793.120000
   7585   7591     1   0.15375 251793.120000
   7588   7597     1   0.14316 258236.480000
   7591  14354     1   0.14316 258236.480000
   7594  14377     1   0.14316 258236.480000
   7598   7599     1   0.14647 272713.120000
   7598   7602     1   0.14647 272713.120000
   7598   7605     1   0.14647 272713.120000
   7599   7611     1   0.15375 251793.120000
   7602   7614     1   0.15375 251793.120000
   7605   7608     1   0.15375 251793.120000
   7608   7617     1   0.15375 251793.120000
   7611   7623     1   0.15375 251793.120000
   7614   7620     1   0.15375 251793.120000
   7617   7626     1   0.14316 258236.480000
   7620  14400     1   0.14316 258236.480000
   7623  14423     1   0.14316 258236.480000
   7627   7628     1   0.14647 272713.120000
   7627   7631     1   0.14647 272713.120000
   7627   7634     1   0.14647 272713.120000
   7628   7640     1   0.15375 251793.120000
   7631   7643     1   0.15375 251793.120000
   7634   7637     1   0.15375 251793.120000
   7637   7646     1   0.15375 251793.120000
   7640   7652     1   0.15375 251793.120000
   7643   7649     1   0.15375 251793.120000
   7646   7655     1   0.14316 258236.480000
   7649  14446     1   0.14316 258236.480000
   7652  14469     1   0.14316 258236.480000
   7656   7657     1   0.14647 272713.120000
   7656   7660     1   0.14647 272713.120000
   7656   7663     1   0.14647 272713.120000
   7657   7669     1   0.15375 251793.120000
   7660   7672     1   0.15375 251793.120000
   7663   7666     1   0.15375 251793.120000
   7666   7675     1   0.15375 251793.120000
   7669   7681     1   0.15375 251793.120000
   7672   7678     1   0.15375 251793.120000
   7675   7684     1   0.14316 258236.480000
   7678  14492     1   0.14316 258236.480000
   7681  14515     1   0.14316 258236.480000
   7685   7686     1   0.14647 272713.120000
   7685   7689     1   0.14647 272713.120000
   7685   7692     1   0.14647 272713.120000
   7686   7698     1   0.15375 251793.120000
   7689   7701     1   0.15375 251793.120000
   7692   7695     1   0.15375 251793.120000
   7695   7704     1   0.15375 251793.120000
   7698   7710     1   0.15375 251793.120000
   7701   7707     1   0.15375 251793.120000
   7704   7713     1   0.14316 258236.480000
   7707  14538     1   0.14316 258236.480000
   7710  14561     1   0.14316 258236.480000
   7714   7715     1   0.14647 272713.120000
   7714   7718     1   0.14647 272713.120000
   7714   7721     1   0.14647 272713.120000
   7715   7727     1   0.15375 251793.120000
   7718   7730     1   0.15375 251793.120000
   7721   7724     1   0.15375 251793.120000
   7724   7733     1   0.15375 251793.120000
   7727   7739     1   0.15375 251793.120000
   7730   7736     1   0.15375 251793.120000
   7733   7742     1   0.14316 258236.480000
   7736  14584     1   0.14316 258236.480000
   7739  14607     1   0.14316 258236.480000
   7743   7744     1   0.14647 272713.120000
   7743   7747     1   0.14647 272713.120000
   7743   7750     1   0.14647 272713.120000
   7744   7756     1   0.15375 251793.120000
   7747   7759     1   0.15375 251793.120000
   7750   7753     1   0.15375 251793.120000
   7753   7762     1   0.15375 251793.120000
   7756   7768     1   0.15375 251793.120000
   7759   7765     1   0.15375 251793.120000
   7762   7771     1   0.14316 258236.480000
   7765  14630     1   0.14316 258236.480000
   7768  14653     1   0.14316 258236.480000
   7772   7773     1   0.14647 272713.120000
   7772   7776     1   0.14647 272713.120000
   7772   7779     1   0.14647 272713.120000
   7773   7785     1   0.15375 251793.120000
   7776   7788     1   0.15375 251793.120000
   7779   7782     1   0.15375 251793.120000
   7782   7791     1   0.15375 251793.120000
   7785   7797     1   0.15375 251793.120000
   7788   7794     1   0.15375 251793.120000
   7791   7800     1   0.14316 258236.480000
   7794  14676     1   0.14316 258236.480000
   7797  14699     1   0.14316 258236.480000
   7801   7802     1   0.14647 272713.120000
   7801   7805     1   0.14647 272713.120000
   7801   7808     1   0.14647 272713.120000
   7802   7814     1   0.15375 251793.120000
   7805   7817     1   0.15375 251793.120000
   7808   7811     1   0.15375 251793.120000
   7811   7820     1   0.15375 251793.120000
   7814   7826     1   0.15375 251793.120000
   7817   7823     1   0.15375 251793.120000
   7820   7829     1   0.14316 258236.480000
   7823  14722     1   0.14316 258236.480000
   7826  14745     1   0.14316 258236.480000
   7830   7831     1   0.14647 272713.120000
   7830   7834     1   0.14647 272713.120000
   7830   7837     1   0.14647 272713.120000
   7831   7843     1   0.15375 251793.120000
   7834   7846     1   0.15375 251793.120000
   7837   7840     1   0.15375 251793.120000
   7840   7849     1   0.15375 251793.120000
   7843   7855     1   0.15375 251793.120000
   7846   7852     1   0.15375 251793.120000
   7849   7858     1   0.14316 258236.480000
   7852  14768     1   0.14316 258236.480000
   7855  14791     1   0.14316 258236.480000
   7859   7860     1   0.14647 272713.120000
   7859   7863     1   0.14647 272713.120000
   7859   7866     1   0.14647 272713.120000
   7860   7872     1   0.15375 251793.120000
   7863   7875     1   0.15375 251793.120000
   7866   7869     1   0.15375 251793.120000
   7869   7878     1   0.15375 251793.120000
   7872   7884     1   0.15375 251793.120000
   7875   7881     1   0.15375 251793.120000
   7878   7887     1   0.14316 258236.480000
   7881  14814     1   0.14316 258236.480000
   7884  14837     1   0.14316 258236.480000
   7888   7889     1   0.14647 272713.120000
   7888   7892     1   0.14647 272713.120000
   7888   7895     1   0.14647 272713.120000
   7889   7901     1   0.15375 251793.120000
   7892   7904     1   0.15375 251793.120000
   7895   7898     1   0.15375 251793.120000
   7898   7907     1   0.15375 251793.120000
   7901   7913     1   0.15375 251793.120000
   7904   7910     1   0.15375 251793.120000
   7907   7916     1   0.14316 258236.480000
   7910  14860     1   0.14316 258236.480000
   7913  14883     1   0.14316 258236.480000
   7917   7918     1   0.14647 272713.120000
   7917   7921     1   0.14647 272713.120000
   7917   7924     1   0.14647 272713.120000
   7918   7930     1   0.15375 251793.120000
   7921   7933     1   0.15375 251793.120000
   7924   7927     1   0.15375 251793.120000
   7927   7936     1   0.15375 251793.120000
   7930   7942     1   0.15375 251793.120000
   7933   7939     1   0.15375 251793.120000
   7936   7945     1   0.14316 258236.480000
   7939  14906     1   0.14316 258236.480000
   7942  14929     1   0.14316 258236.480000
   7946   7947     1   0.14647 272713.120000
   7946   7950     1   0.14647 272713.120000
   7946   7953     1   0.14647 272713.120000
   7947   7959     1   0.15375 251793.120000
   7950   7962     1   0.15375 251793.120000
   7953   7956     1   0.15375 251793.120000
   7956   7965     1   0.15375 251793.120000
   7959   7971     1   0.15375 251793.120000
   7962   7968     1   0.15375 251793.120000
   7965   7974     1   0.14316 258236.480000
   7968  14952     1   0.14316 258236.480000
   7971  14975     1   0.14316 258236.480000
   7975   7976     1   0.14647 272713.120000
   7975   7979     1   0.14647 272713.120000
   7975   7982     1   0.14647 272713.120000
   7976   7988     1   0.15375 251793.120000
   7979   7991     1   0.15375 251793.120000
   7982   7985     1   0.15375 251793.120000
   7985   7994     1   0.15375 251793.120000
   7988   8000     1   0.15375 251793.120000
   7991   7997     1   0.15375 251793.120000
   7994   8003     1   0.14316 258236.480000
   7997  14998     1   0.14316 258236.480000
   8000  15021     1   0.14316 258236.480000
   8004   8005     1   0.14647 272713.120000
   8004   8008     1   0.14647 272713.120000
   8004   8011     1   0.14647 272713.120000
   8005   8017     1   0.15375 251793.120000
   8008   8020     1   0.15375 251793.120000
   8011   8014     1   0.15375 251793.120000
   8014   8023     1   0.15375 251793.120000
   8017   8029     1   0.15375 251793.120000
   8020   8026     1   0.15375 251793.120000
   8023   8032     1   0.14316 258236.480000
   8026  15044     1   0.14316 258236.480000
   8029  15067     1   0.14316 258236.480000
   8033   8034     1   0.14647 272713.120000
   8033   8037     1   0.14647 272713.120000
   8033   8040     1   0.14647 272713.120000
   8034   8046     1   0.15375 251793.120000
   8037   8049     1   0.15375 251793.120000
   8040   8043     1   0.15375 251793.120000
   8043   8052     1   0.15375 251793.120000
   8046   8058     1   0.15375 251793.120000
   8049   8055     1   0.15375 251793.120000
   8052   8061     1   0.14316 258236.480000
   8055  15090     1   0.14316 258236.480000
   8058  15113     1   0.14316 258236.480000
   8062   8063     1   0.14647 272713.120000
   8062   8066     1   0.14647 272713.120000
   8062   8069     1   0.14647 272713.120000
   8063   8075     1   0.15375 251793.120000
   8066   8078     1   0.15375 251793.120000
   8069   8072     1   0.15375 251793.120000
   8072   8081     1   0.15375 251793.120000
   8075   8087     1   0.15375 251793.120000
   8078   8084     1   0.15375 251793.120000
   8081   8090     1   0.14316 258236.480000
   8084  15136     1   0.14316 258236.480000
   8087  15159     1   0.14316 258236.480000
   8091   8092     1   0.14647 272713.120000
   8091   8095     1   0.14647 272713.120000
   8091   8098     1   0.14647 272713.120000
   8092   8104     1   0.15375 251793.120000
   8095   8107     1   0.15375 251793.120000
   8098   8101     1   0.15375 251793.120000
   8101   8110     1   0.15375 251793.120000
   8104   8116     1   0.15375 251793.120000
   8107   8113     1   0.15375 251793.120000
   8110   8119     1   0.14316 258236.480000
   8113  15182     1   0.14316 258236.480000
   8116  15205     1   0.14316 258236.480000
   8120   8121     1   0.14647 272713.120000
   8120   8124     1   0.14647 272713.120000
   8120   8127     1   0.14647 272713.120000
   8121   8133     1   0.15375 251793.120000
   8124   8136     1   0.15375 251793.120000
   8127   8130     1   0.15375 251793.120000
   8130   8139     1   0.15375 251793.120000
   8133   8145     1   0.15375 251793.120000
   8136   8142     1   0.15375 251793.120000
   8139   8148     1   0.14316 258236.480000
   8142  15228     1   0.14316 258236.480000
   8145  15251     1   0.14316 258236.480000
   8149   8150     1   0.14647 272713.120000
   8149   8153     1   0.14647 272713.120000
   8149   8156     1   0.14647 272713.120000
   8150   8162     1   0.15375 251793.120000
   8153   8165     1   0.15375 251793.120000
   8156   8159     1   0.15375 251793.120000
   8159   8168     1   0.15375 251793.120000
   8162   8174     1   0.15375 251793.120000
   8165   8171     1   0.15375 251793.120000
   8168   8177     1   0.14316 258236.480000
   8171  15274     1   0.14316 258236.480000
   8174  15297     1   0.14316 258236.480000
   8178   8179     1   0.14647 272713.120000
   8178   8182     1   0.14647 272713.120000
   8178   8185     1   0.14647 272713.120000
   8179   8191     1   0.15375 251793.120000
   8182   8194     1   0.15375 251793.120000
   8185   8188     1   0.15375 251793.120000
   8188   8197     1   0.15375 251793.120000
   8191   8203     1   0.15375 251793.120000
   8194   8200     1   0.15375 251793.120000
   8197   8206     1   0.14316 258236.480000
   8200  15320     1   0.14316 258236.480000
   8203  15343     1   0.14316 258236.480000
   8207   8208     1   0.14647 272713.120000
   8207   8211     1   0.14647 272713.120000
   8207   8214     1   0.14647 272713.120000
   8208   8220     1   0.15375 251793.120000
   8211   8223     1   0.15375 251793.120000
   8214   8217     1   0.15375 251793.120000
   8217   8226     1   0.15375 251793.120000
   8220   8232     1   0.15375 251793.120000
   8223   8229     1   0.15375 251793.120000
   8226   8235     1   0.14316 258236.480000
   8229  15366     1   0.14316 258236.480000
   8232  15389     1   0.14316 258236.480000
   8236   8237     1   0.14647 272713.120000
   8236   8240     1   0.14647 272713.120000
   8236   8243     1   0.14647 272713.120000
   8237   8249     1   0.15375 251793.120000
   8240   8252     1   0.15375 251793.120000
   8243   8246     1   0.15375 251793.120000
   8246   8255     1   0.15375 251793.120000
   8249   8261     1   0.15375 251793.120000
   8252   8258     1   0.15375 251793.120000
   8255   8264     1   0.14316 258236.480000
   8258  15412     1   0.14316 258236.480000
   8261  15435     1   0.14316 258236.480000
   8265   8266     1   0.14647 272713.120000
   8265   8269     1   0.14647 272713.120000
   8265   8272     1   0.14647 272713.120000
   8266   8278     1   0.15375 251793.120000
   8269   8281     1   0.15375 251793.120000
   8272   8275     1   0.15375 251793.120000
   8275   8284     1   0.15375 251793.120000
   8278   8290     1   0.15375 251793.120000
   8281   8287     1   0.15375 251793.120000
   8284   8293     1   0.14316 258236.480000
   8287  15458     1   0.14316 258236.480000
   8290  15481     1   0.14316 258236.480000
   8294   8295     1   0.14647 272713.120000
   8294   8298     1   0.14647 272713.120000
   8294   8301     1   0.14647 272713.120000
   8295   8307     1   0.15375 251793.120000
   8298   8310     1   0.15375 251793.120000
   8301   8304     1   0.15375 251793.120000
   8304   8313     1   0.15375 251793.120000
   8307   8319     1   0.15375 251793.120000
   8310   8316     1   0.15375 251793.120000
   8313   8322     1   0.14316 258236.480000
   8316  15504     1   0.14316 258236.480000
   8319  15527     1   0.14316 258236.480000
   8323   8324     1   0.14647 272713.120000
   8323   8327     1   0.14647 272713.120000
   8323   8330     1   0.14647 272713.120000
   8324   8336     1   0.15375 251793.120000
   8327   8339     1   0.15375 251793.120000
   8330   8333     1   0.15375 251793.120000
   8333   8342     1   0.15375 251793.120000
   8336   8348     1   0.15375 251793.120000
   8339   8345     1   0.15375 251793.120000
   8342   8351     1   0.14316 258236.480000
   8345  15550     1   0.14316 258236.480000
   8348  15573     1   0.14316 258236.480000
   8352   8353     1   0.14647 272713.120000
   8352   8356     1   0.14647 272713.120000
   8352   8359     1   0.14647 272713.120000
   8353   8365     1   0.15375 251793.120000
   8356   8368     1   0.15375 251793.120000
   8359   8362     1   0.15375 251793.120000
   8362   8371     1   0.15375 251793.120000
   8365   8377     1   0.15375 251793.120000
   8368   8374     1   0.15375 251793.120000
   8371   8380     1   0.14316 258236.480000
   8374  15596     1   0.14316 258236.480000
   8377  15619     1   0.14316 258236.480000
   8381   8382     1   0.14647 272713.120000
   8381   8385     1   0.14647 272713.120000
   8381   8388     1   0.14647 272713.120000
   8382   8394     1   0.15375 251793.120000
   8385   8397     1   0.15375 251793.120000
   8388   8391     1   0.15375 251793.120000
   8391   8400     1   0.15375 251793.120000
   8394   8406     1   0.15375 251793.120000
   8397   8403     1   0.15375 251793.120000
   8400   8409     1   0.14316 258236.480000
   8403  15642     1   0.14316 258236.480000
   8406  15665     1   0.14316 258236.480000
   8410   8411     1   0.14647 272713.120000
   8410   8414     1   0.14647 272713.120000
   8410   8417     1   0.14647 272713.120000
   8411   8423     1   0.15375 251793.120000
   8414   8426     1   0.15375 251793.120000
   8417   8420     1   0.15375 251793.120000
   8420   8429     1   0.15375 251793.120000
   8423   8435     1   0.15375 251793.120000
   8426   8432     1   0.15375 251793.120000
   8429   8438     1   0.14316 258236.480000
   8432  15688     1   0.14316 258236.480000
   8435  15711     1   0.14316 258236.480000
   8439   8440     1   0.14647 272713.120000
   8439   8443     1   0.14647 272713.120000
   8439   8446     1   0.14647 272713.120000
   8440   8452     1   0.15375 251793.120000
   8443   8455     1   0.15375 251793.120000
   8446   8449     1   0.15375 251793.120000
   8449   8458     1   0.15375 251793.120000
   8452   8464     1   0.15375 251793.120000
   8455   8461     1   0.15375 251793.120000
   8458   8467     1   0.14316 258236.480000
   8461  15734     1   0.14316 258236.480000
   8464  15757     1   0.14316 258236.480000
   8468   8469     1   0.14647 272713.120000
   8468   8472     1   0.14647 272713.120000
   8468   8475     1   0.14647 272713.120000
   8469   8481     1   0.15375 251793.120000
   8472   8484     1   0.15375 251793.120000
   8475   8478     1   0.15375 251793.120000
   8478   8487     1   0.15375 251793.120000
   8481   8493     1   0.15375 251793.120000
   8484   8490     1   0.15375 251793.120000
   8487   8496     1   0.14316 258236.480000
   8490  15780     1   0.14316 258236.480000
   8493  15803     1   0.14316 258236.480000
   8497   8498     1   0.14647 272713.120000
   8497   8501     1   0.14647 272713.120000
   8497   8504     1   0.14647 272713.120000
   8498   8510     1   0.15375 251793.120000
   8501   8513     1   0.15375 251793.120000
   8504   8507     1   0.15375 251793.120000
   8507   8516     1   0.15375 251793.120000
   8510   8522     1   0.15375 251793.120000
   8513   8519     1   0.15375 251793.120000
   8516   8525     1   0.14316 258236.480000
   8519  15826     1   0.14316 258236.480000
   8522  15849     1   0.14316 258236.480000
   8526   8527     1   0.14647 272713.120000
   8526   8530     1   0.14647 272713.120000
   8526   8533     1   0.14647 272713.120000
   8527   8539     1   0.15375 251793.120000
   8530   8542     1   0.15375 251793.120000
   8533   8536     1   0.15375 251793.120000
   8536   8545     1   0.15375 251793.120000
   8539   8551     1   0.15375 251793.120000
   8542   8548     1   0.15375 251793.120000
   8545   8554     1   0.14316 258236.480000
   8548  15872     1   0.14316 258236.480000
   8551  15895     1   0.14316 258236.480000
   8555   8556     1   0.14647 272713.120000
   8555   8559     1   0.14647 272713.120000
   8555   8562     1   0.14647 272713.120000
   8556   8568     1   0.15375 251793.120000
   8559   8571     1   0.15375 251793.120000
   8562   8565     1   0.15375 251793.120000
   8565   8574     1   0.15375 251793.120000
   8568   8580     1   0.15375 251793.120000
   8571   8577     1   0.15375 251793.120000
   8574   8583     1   0.14316 258236.480000
   8577  15918     1   0.14316 258236.480000
   8580  15941     1   0.14316 258236.480000
   8584   8585     1   0.14647 272713.120000
   8584   8588     1   0.14647 272713.120000
   8584   8591     1   0.14647 272713.120000
   8585   8597     1   0.15375 251793.120000
   8588   8600     1   0.15375 251793.120000
   8591   8594     1   0.15375 251793.120000
   8594   8603     1   0.15375 251793.120000
   8597   8609     1   0.15375 251793.120000
   8600   8606     1   0.15375 251793.120000
   8603   8612     1   0.14316 258236.480000
   8606  15964     1   0.14316 258236.480000
   8609  15987     1   0.14316 258236.480000
   8613   8614     1   0.14647 272713.120000
   8613   8617     1   0.14647 272713.120000
   8613   8620     1   0.14647 272713.120000
   8614   8626     1   0.15375 251793.120000
   8617   8629     1   0.15375 251793.120000
   8620   8623     1   0.15375 251793.120000
   8623   8632     1   0.15375 251793.120000
   8626   8638     1   0.15375 251793.120000
   8629   8635     1   0.15375 251793.120000
   8632   8641     1   0.14316 258236.480000
   8635  16010     1   0.14316 258236.480000
   8638  16033     1   0.14316 258236.480000
   8642   8643     1   0.14647 272713.120000
   8642   8646     1   0.14647 272713.120000
   8642   8649     1   0.14647 272713.120000
   8643   8655     1   0.15375 251793.120000
   8646   8658     1   0.15375 251793.120000
   8649   8652     1   0.15375 251793.120000
   8652   8661     1   0.15375 251793.120000
   8655   8667     1   0.15375 251793.120000
   8658   8664     1   0.15375 251793.120000
   8661   8670     1   0.14316 258236.480000
   8664  16056     1   0.14316 258236.480000
   8667  16079     1   0.14316 258236.480000
   8671   8672     1   0.14647 272713.120000
   8671   8675     1   0.14647 272713.120000
   8671   8678     1   0.14647 272713.120000
   8672   8684     1   0.15375 251793.120000
   8675   8687     1   0.15375 251793.120000
   8678   8681     1   0.15375 251793.120000
   8681   8690     1   0.15375 251793.120000
   8684   8696     1   0.15375 251793.120000
   8687   8693     1   0.15375 251793.120000
   8690   8699     1   0.14316 258236.480000
   8693  16102     1   0.14316 258236.480000
   8696  16125     1   0.14316 258236.480000
   8700   8701     1   0.14647 272713.120000
   8700   8704     1   0.14647 272713.120000
   8700   8707     1   0.14647 272713.120000
   8701   8713     1   0.15375 251793.120000
   8704   8716     1   0.15375 251793.120000
   8707   8710     1   0.15375 251793.120000
   8710   8719     1   0.15375 251793.120000
   8713   8725     1   0.15375 251793.120000
   8716   8722     1   0.15375 251793.120000
   8719   8728     1   0.14316 258236.480000
   8722  16148     1   0.14316 258236.480000
   8725  16171     1   0.14316 258236.480000
   8729   8730     1   0.14647 272713.120000
   8729   8733     1   0.14647 272713.120000
   8729   8736     1   0.14647 272713.120000
   8730   8742     1   0.15375 251793.120000
   8733   8745     1   0.15375 251793.120000
   8736   8739     1   0.15375 251793.120000
   8739   8748     1   0.15375 251793.120000
   8742   8754     1   0.15375 251793.120000
   8745   8751     1   0.15375 251793.120000
   8748   8757     1   0.14316 258236.480000
   8751  16194     1   0.14316 258236.480000
   8754  16217     1   0.14316 258236.480000
   8758   8759     1   0.14647 272713.120000
   8758   8762     1   0.14647 272713.120000
   8758   8765     1   0.14647 272713.120000
   8759   8771     1   0.15375 251793.120000
   8762   8774     1   0.15375 251793.120000
   8765   8768     1   0.15375 251793.120000
   8768   8777     1   0.15375 251793.120000
   8771   8783     1   0.15375 251793.120000
   8774   8780     1   0.15375 251793.120000
   8777   8786     1   0.14316 258236.480000
   8780  16240     1   0.14316 258236.480000
   8783  16263     1   0.14316 258236.480000
   8787   8788     1   0.14647 272713.120000
   8787   8791     1   0.14647 272713.120000
   8787   8794     1   0.14647 272713.120000
   8788   8800     1   0.15375 251793.120000
   8791   8803     1   0.15375 251793.120000
   8794   8797     1   0.15375 251793.120000
   8797   8806     1   0.15375 251793.120000
   8800   8812     1   0.15375 251793.120000
   8803   8809     1   0.15375 251793.120000
   8806   8815     1   0.14316 258236.480000
   8809  16286     1   0.14316 258236.480000
   8812  16309     1   0.14316 258236.480000
   8816   8817     1   0.14647 272713.120000
   8816   8820     1   0.14647 272713.120000
   8816   8823     1   0.14647 272713.120000
   8817   8829     1   0.15375 251793.120000
   8820   8832     1   0.15375 251793.120000
   8823   8826     1   0.15375 251793.120000
   8826   8835     1   0.15375 251793.120000
   8829   8841     1   0.15375 251793.120000
   8832   8838     1   0.15375 251793.120000
   8835   8844     1   0.14316 258236.480000
   8838  16332     1   0.14316 258236.480000
   8841  16355     1   0.14316 258236.480000
   8845   8846     1   0.14647 272713.120000
   8845   8849     1   0.14647 272713.120000
   8845   8852     1   0.14647 272713.120000
   8846   8858     1   0.15375 251793.120000
   8849   8861     1   0.15375 251793.120000
   8852   8855     1   0.15375 251793.120000
   8855   8864     1   0.15375 251793.120000
   8858   8870     1   0.15375 251793.120000
   8861   8867     1   0.15375 251793.120000
   8864   8873     1   0.14316 258236.480000
   8867  16378     1   0.14316 258236.480000
   8870  16401     1   0.14316 258236.480000
   8874   8875     1   0.14647 272713.120000
   8874   8878     1   0.14647 272713.120000
   8874   8881     1   0.14647 272713.120000
   8875   8887     1   0.15375 251793.120000
   8878   8890     1   0.15375 251793.120000
   8881   8884     1   0.15375 251793.120000
   8884   8893     1   0.15375 251793.120000
   8887   8899     1   0.15375 251793.120000
   8890   8896     1   0.15375 251793.120000
   8893   8902     1   0.14316 258236.480000
   8896  16424     1   0.14316 258236.480000
   8899  16447     1   0.14316 258236.480000
   8903   8904     1   0.14647 272713.120000
   8903   8907     1   0.14647 272713.120000
   8903   8910     1   0.14647 272713.120000
   8904   8916     1   0.15375 251793.120000
   8907   8919     1   0.15375 251793.120000
   8910   8913     1   0.15375 251793.120000
   8913   8922     1   0.15375 251793.120000
   8916   8928     1   0.15375 251793.120000
   8919   8925     1   0.15375 251793.120000
   8922   8931     1   0.14316 258236.480000
   8925  16470     1   0.14316 258236.480000
   8928  16493     1   0.14316 258236.480000
   8932   8933     1   0.14647 272713.120000
   8932   8936     1   0.14647 272713.120000
   8932   8939     1   0.14647 272713.120000
   8933   8945     1   0.15375 251793.120000
   8936   8948     1   0.15375 251793.120000
   8939   8942     1   0.15375 251793.120000
   8942   8951     1   0.15375 251793.120000
   8945   8957     1   0.15375 251793.120000
   8948   8954     1   0.15375 251793.120000
   8951   8960     1   0.14316 258236.480000
   8954  16516     1   0.14316 258236.480000
   8957  16539     1   0.14316 258236.480000
   8961   8962     1   0.14647 272713.120000
   8961   8965     1   0.14647 272713.120000
   8961   8968     1   0.14647 272713.120000
   8962   8974     1   0.15375 251793.120000
   8965   8977     1   0.15375 251793.120000
   8968   8971     1   0.15375 251793.120000
   8971   8980     1   0.15375 251793.120000
   8974   8986     1   0.15375 251793.120000
   8977   8983     1   0.15375 251793.120000
   8980   8989     1   0.14316 258236.480000
   8983  16562     1   0.14316 258236.480000
   8986  16585     1   0.14316 258236.480000
   8990   8991     1   0.14647 272713.120000
   8990   8994     1   0.14647 272713.120000
   8990   8997     1   0.14647 272713.120000
   8991   9003     1   0.15375 251793.120000
   8994   9006     1   0.15375 251793.120000
   8997   9000     1   0.15375 251793.120000
   9000   9009     1   0.15375 251793.120000
   9003   9015     1   0.15375 251793.120000
   9006   9012     1   0.15375 251793.120000
   9009   9018     1   0.14316 258236.480000
   9012  16608     1   0.14316 258236.480000
   9015  16631     1   0.14316 258236.480000
   9019   9020     1   0.14647 272713.120000
   9019   9023     1   0.14647 272713.120000
   9019   9026     1   0.14647 272713.120000
   9020   9032     1   0.15375 251793.120000
   9023   9035     1   0.15375 251793.120000
   9026   9029     1   0.15375 251793.120000
   9029   9038     1   0.15375 251793.120000
   9032   9044     1   0.15375 251793.120000
   9035   9041     1   0.15375 251793.120000
   9038   9047     1   0.14316 258236.480000
   9041  16654     1   0.14316 258236.480000
   9044  16677     1   0.14316 258236.480000
   9048   9049     1   0.14647 272713.120000
   9048   9052     1   0.14647 272713.120000
   9048   9055     1   0.14647 272713.120000
   9049   9061     1   0.15375 251793.120000
   9052   9064     1   0.15375 251793.120000
   9055   9058     1   0.15375 251793.120000
   9058   9067     1   0.15375 251793.120000
   9061   9073     1   0.15375 251793.120000
   9064   9070     1   0.15375 251793.120000
   9067   9076     1   0.14316 258236.480000
   9070  16700     1   0.14316 258236.480000
   9073  16723     1   0.14316 258236.480000
   9077   9078     1   0.14647 272713.120000
   9077   9081     1   0.14647 272713.120000
   9077   9084     1   0.14647 272713.120000
   9078   9090     1   0.15375 251793.120000
   9081   9093     1   0.15375 251793.120000
   9084   9087     1   0.15375 251793.120000
   9087   9096     1   0.15375 251793.120000
   9090   9102     1   0.15375 251793.120000
   9093   9099     1   0.15375 251793.120000
   9096   9105     1   0.14316 258236.480000
   9099  16746     1   0.14316 258236.480000
   9102  16769     1   0.14316 258236.480000
   9106   9107     1   0.14647 272713.120000
   9106   9110     1   0.14647 272713.120000
   9106   9113     1   0.14647 272713.120000
   9107   9119     1   0.15375 251793.120000
   9110   9122     1   0.15375 251793.120000
   9113   9116     1   0.15375 251793.120000
   9116   9125     1   0.15375 251793.120000
   9119   9131     1   0.15375 251793.120000
   9122   9128     1   0.15375 251793.120000
   9125   9134     1   0.14316 258236.480000
   9128  16792     1   0.14316 258236.480000
   9131  16815     1   0.14316 258236.480000
   9135   9136     1   0.14647 272713.120000
   9135   9139     1   0.14647 272713.120000
   9135   9142     1   0.14647 272713.120000
   9136   9148     1   0.15375 251793.120000
   9139   9151     1   0.15375 251793.120000
   9142   9145     1   0.15375 251793.120000
   9145   9154     1   0.15375 251793.120000
   9148   9160     1   0.15375 251793.120000
   9151   9157     1   0.15375 251793.120000
   9154   9163     1   0.14316 258236.480000
   9157  16838     1   0.14316 258236.480000
   9160  16861     1   0.14316 258236.480000
   9164   9165     1   0.14647 272713.120000
   9164   9168     1   0.14647 272713.120000
   9164   9171     1   0.14647 272713.120000
   9165   9177     1   0.15375 251793.120000
   9168   9180     1   0.15375 251793.120000
   9171   9174     1   0.15375 251793.120000
   9174   9183     1   0.15375 251793.120000
   9177   9189     1   0.15375 251793.120000
   9180   9186     1   0.15375 251793.120000
   9183   9192     1   0.14316 258236.480000
   9186  16884     1   0.14316 258236.480000
   9189  16907     1   0.14316 258236.480000
   9193   9194     1   0.14647 272713.120000
   9193   9197     1   0.14647 272713.120000
   9193   9200     1   0.14647 272713.120000
   9194   9206     1   0.15375 251793.120000
   9197   9209     1   0.15375 251793.120000
   9200   9203     1   0.15375 251793.120000
   9203   9212     1   0.15375 251793.120000
   9206   9218     1   0.15375 251793.120000
   9209   9215     1   0.15375 251793.120000
   9212   9221     1   0.14316 258236.480000
   9215  16930     1   0.14316 258236.480000
   9218  16953     1   0.14316 258236.480000
   9222   9223     1   0.14647 272713.120000
   9222   9226     1   0.14647 272713.120000
   9222   9229     1   0.14647 272713.120000
   9223   9235     1   0.15375 251793.120000
   9226   9238     1   0.15375 251793.120000
   9229   9232     1   0.15375 251793.120000
   9232   9241     1   0.15375 251793.120000
   9235   9247     1   0.15375 251793.120000
   9238   9244     1   0.15375 251793.120000
   9241   9250     1   0.14316 258236.480000
   9244  16976     1   0.14316 258236.480000
   9247  16999     1   0.14316 258236.480000
   9251   9252     1   0.14647 272713.120000
   9251   9255     1   0.14647 272713.120000
   9251   9258     1   0.14647 272713.120000
   9252   9264     1   0.15375 251793.120000
   9255   9267     1   0.15375 251793.120000
   9258   9261     1   0.15375 251793.120000
   9261   9270     1   0.15375 251793.120000
   9264   9276     1   0.15375 251793.120000
   9267   9273     1   0.15375 251793.120000
   9270   9279     1   0.14316 258236.480000
   9273  17022     1   0.14316 258236.480000
   9276  17045     1   0.14316 258236.480000
   9280   9281     1   0.14647 272713.120000
   9280   9284     1   0.14647 272713.120000
   9280   9287     1   0.14647 272713.120000
   9281   9293     1   0.15375 251793.120000
   9284   9296     1   0.15375 251793.120000
   9287   9290     1   0.15375 251793.120000
   9290   9299     1   0.15375 251793.120000
   9293   9305     1   0.15375 251793.120000
   9296   9302     1   0.15375 251793.120000
   9299   9308     1   0.14316 258236.480000
   9302  17068     1   0.14316 258236.480000
   9305  17091     1   0.14316 258236.480000
   9309   9310     1   0.14647 272713.120000
   9309   9313     1   0.14647 272713.120000
   9309   9316     1   0.14647 272713.120000
   9310   9322     1   0.15375 251793.120000
   9313   9325     1   0.15375 251793.120000
   9316   9319     1   0.15375 251793.120000
   9319   9328     1   0.15375 251793.120000
   9322   9334     1   0.15375 251793.120000
   9325   9331     1   0.15375 251793.120000
   9328   9337     1   0.14316 258236.480000
   9331  17114     1   0.14316 258236.480000
   9334  17137     1   0.14316 258236.480000
   9338   9339     1   0.14647 272713.120000
   9338   9342     1   0.14647 272713.120000
   9338   9345     1   0.14647 272713.120000
   9339   9351     1   0.15375 251793.120000
   9342   9354     1   0.15375 251793.120000
   9345   9348     1   0.15375 251793.120000
   9348   9357     1   0.15375 251793.120000
   9351   9363     1   0.15375 251793.120000
   9354   9360     1   0.15375 251793.120000
   9357   9366     1   0.14316 258236.480000
   9360  17160     1   0.14316 258236.480000
   9363  17183     1   0.14316 258236.480000
   9367   9368     1   0.14647 272713.120000
   9367   9371     1   0.14647 272713.120000
   9367   9374     1   0.14647 272713.120000
   9368   9380     1   0.15375 251793.120000
   9371   9383     1   0.15375 251793.120000
   9374   9377     1   0.15375 251793.120000
   9377   9386     1   0.15375 251793.120000
   9380   9392     1   0.15375 251793.120000
   9383   9389     1   0.15375 251793.120000
   9386   9395     1   0.14316 258236.480000
   9389  17206     1   0.14316 258236.480000
   9392  17229     1   0.14316 258236.480000
   9396   9397     1   0.14647 272713.120000
   9396   9400     1   0.14647 272713.120000
   9396   9403     1   0.14647 272713.120000
   9397   9409     1   0.15375 251793.120000
   9400   9412     1   0.15375 251793.120000
   9403   9406     1   0.15375 251793.120000
   9406   9415     1   0.15375 251793.120000
   9409   9421     1   0.15375 251793.120000
   9412   9418     1   0.15375 251793.120000
   9415   9424     1   0.14316 258236.480000
   9418  17252     1   0.14316 258236.480000
   9421  17275     1   0.14316 258236.480000
   9425   9426     1   0.14647 272713.120000
   9425   9429     1   0.14647 272713.120000
   9425   9432     1   0.14647 272713.120000
   9426   9438     1   0.15375 251793.120000
   9429   9441     1   0.15375 251793.120000
   9432   9435     1   0.15375 251793.120000
   9435   9444     1   0.15375 251793.120000
   9438   9450     1   0.15375 251793.120000
   9441   9447     1   0.15375 251793.120000
   9444   9453     1   0.14316 258236.480000
   9447  17298     1   0.14316 258236.480000
   9450  17321     1   0.14316 258236.480000
   9454   9455     1   0.14647 272713.120000
   9454   9458     1   0.14647 272713.120000
   9454   9461     1   0.14647 272713.120000
   9455   9467     1   0.15375 251793.120000
   9458   9470     1   0.15375 251793.120000
   9461   9464     1   0.15375 251793.120000
   9464   9473     1   0.15375 251793.120000
   9467   9479     1   0.15375 251793.120000
   9470   9476     1   0.15375 251793.120000
   9473   9482     1   0.14316 258236.480000
   9476  17344     1   0.14316 258236.480000
   9479  17367     1   0.14316 258236.480000
   9483   9484     1   0.14647 272713.120000
   9483   9487     1   0.14647 272713.120000
   9483   9490     1   0.14647 272713.120000
   9484   9496     1   0.15375 251793.120000
   9487   9499     1   0.15375 251793.120000
   9490   9493     1   0.15375 251793.120000
   9493   9502     1   0.15375 251793.120000
   9496   9508     1   0.15375 251793.120000
   9499   9505     1   0.15375 251793.120000
   9502   9511     1   0.14316 258236.480000
   9505  17390     1   0.14316 258236.480000
   9508  17413     1   0.14316 258236.480000
   9512   9513     1   0.14647 272713.120000
   9512   9516     1   0.14647 272713.120000
   9512   9519     1   0.14647 272713.120000
   9513   9525     1   0.15375 251793.120000
   9516   9528     1   0.15375 251793.120000
   9519   9522     1   0.15375 251793.120000
   9522   9531     1   0.15375 251793.120000
   9525   9537     1   0.15375 251793.120000
   9528   9534     1   0.15375 251793.120000
   9531   9540     1   0.14316 258236.480000
   9534  17436     1   0.14316 258236.480000
   9537  17459     1   0.14316 258236.480000
   9541   9542     1   0.14647 272713.120000
   9541   9545     1   0.14647 272713.120000
   9541   9548     1   0.14647 272713.120000
   9542   9554     1   0.15375 251793.120000
   9545   9557     1   0.15375 251793.120000
   9548   9551     1   0.15375 251793.120000
   9551   9560     1   0.15375 251793.120000
   9554   9566     1   0.15375 251793.120000
   9557   9563     1   0.15375 251793.120000
   9560   9569     1   0.14316 258236.480000
   9563  17482     1   0.14316 258236.480000
   9566  17505     1   0.14316 258236.480000
   9570   9571     1   0.14647 272713.120000
   9570   9574     1   0.14647 272713.120000
   9570   9577     1   0.14647 272713.120000
   9571   9583     1   0.15375 251793.120000
   9574   9586     1   0.15375 251793.120000
   9577   9580     1   0.15375 251793.120000
   9580   9589     1   0.15375 251793.120000
   9583   9595     1   0.15375 251793.120000
   9586   9592     1   0.15375 251793.120000
   9589   9598     1   0.14316 258236.480000
   9592  17528     1   0.14316 258236.480000
   9595  17551     1   0.14316 258236.480000
   9599   9600     1   0.14647 272713.120000
   9599   9603     1   0.14647 272713.120000
   9599   9606     1   0.14647 272713.120000
   9600   9612     1   0.15375 251793.120000
   9603   9615     1   0.15375 251793.120000
   9606   9609     1   0.15375 251793.120000
   9609   9618     1   0.15375 251793.120000
   9612   9624     1   0.15375 251793.120000
   9615   9621     1   0.15375 251793.120000
   9618   9627     1   0.14316 258236.480000
   9621  17574     1   0.14316 258236.480000
   9624  17597     1   0.14316 258236.480000
   9628   9629     1   0.14647 272713.120000
   9628   9632     1   0.14647 272713.120000
   9628   9635     1   0.14647 272713.120000
   9629   9641     1   0.15375 251793.120000
   9632   9644     1   0.15375 251793.120000
   9635   9638     1   0.15375 251793.120000
   9638   9647     1   0.15375 251793.120000
   9641   9653     1   0.15375 251793.120000
   9644   9650     1   0.15375 251793.120000
   9647   9656     1   0.14316 258236.480000
   9650  17620     1   0.14316 258236.480000
   9653  17643     1   0.14316 258236.480000
   9657   9658     1   0.14647 272713.120000
   9657   9661     1   0.14647 272713.120000
   9657   9664     1   0.14647 272713.120000
   9658   9670     1   0.15375 251793.120000
   9661   9673     1   0.15375 251793.120000
   9664   9667     1   0.15375 251793.120000
   9667   9676     1   0.15375 251793.120000
   9670   9682     1   0.15375 251793.120000
   9673   9679     1   0.15375 251793.120000
   9676   9685     1   0.14316 258236.480000
   9679  17666     1   0.14316 258236.480000
   9682  17689     1   0.14316 258236.480000
   9686   9687     1   0.14647 272713.120000
   9686   9690     1   0.14647 272713.120000
   9686   9693     1   0.14647 272713.120000
   9687   9699     1   0.15375 251793.120000
   9690   9702     1   0.15375 251793.120000
   9693   9696     1   0.15375 251793.120000
   9696   9705     1   0.15375 251793.120000
   9699   9711     1   0.15375 251793.120000
   9702   9708     1   0.15375 251793.120000
   9705   9714     1   0.14316 258236.480000
   9708  17712     1   0.14316 258236.480000
   9711  17735     1   0.14316 258236.480000
   9715   9716     1   0.14647 272713.120000
   9715   9719     1   0.14647 272713.120000
   9715   9722     1   0.14647 272713.120000
   9716   9728     1   0.15375 251793.120000
   9719   9731     1   0.15375 251793.120000
   9722   9725     1   0.15375 251793.120000
   9725   9734     1   0.15375 251793.120000
   9728   9740     1   0.15375 251793.120000
   9731   9737     1   0.15375 251793.120000
   9734   9743     1   0.14316 258236.480000
   9737  17758     1   0.14316 258236.480000
   9740  17781     1   0.14316 258236.480000
   9744   9745     1   0.14647 272713.120000
   9744   9748     1   0.14647 272713.120000
   9744   9751     1   0.14647 272713.120000
   9745   9757     1   0.15375 251793.120000
   9748   9760     1   0.15375 251793.120000
   9751   9754     1   0.15375 251793.120000
   9754   9763     1   0.15375 251793.120000
   9757   9769     1   0.15375 251793.120000
   9760   9766     1   0.15375 251793.120000
   9763   9772     1   0.14316 258236.480000
   9766  17804     1   0.14316 258236.480000
   9769  17827     1   0.14316 258236.480000
   9773   9774     1   0.14647 272713.120000
   9773   9777     1   0.14647 272713.120000
   9773   9780     1   0.14647 272713.120000
   9774   9786     1   0.15375 251793.120000
   9777   9789     1   0.15375 251793.120000
   9780   9783     1   0.15375 251793.120000
   9783   9792     1   0.15375 251793.120000
   9786   9798     1   0.15375 251793.120000
   9789   9795     1   0.15375 251793.120000
   9792   9801     1   0.14316 258236.480000
   9795  17850     1   0.14316 258236.480000
   9798  17873     1   0.14316 258236.480000
   9802   9803     1   0.14647 272713.120000
   9802   9806     1   0.14647 272713.120000
   9802   9809     1   0.14647 272713.120000
   9803   9815     1   0.15375 251793.120000
   9806   9818     1   0.15375 251793.120000
   9809   9812     1   0.15375 251793.120000
   9812   9821     1   0.15375 251793.120000
   9815   9827     1   0.15375 251793.120000
   9818   9824     1   0.15375 251793.120000
   9821   9830     1   0.14316 258236.480000
   9824  17896     1   0.14316 258236.480000
   9827  17919     1   0.14316 258236.480000
   9831   9832     1   0.14647 272713.120000
   9831   9835     1   0.14647 272713.120000
   9831   9838     1   0.14647 272713.120000
   9832   9844     1   0.15375 251793.120000
   9835   9847     1   0.15375 251793.120000
   9838   9841     1   0.15375 251793.120000
   9841   9850     1   0.15375 251793.120000
   9844   9856     1   0.15375 251793.120000
   9847   9853     1   0.15375 251793.120000
   9850   9859     1   0.14316 258236.480000
   9853  17942     1   0.14316 258236.480000
   9856  17965     1   0.14316 258236.480000
   9860   9861     1   0.14647 272713.120000
   9860   9864     1   0.14647 272713.120000
   9860   9867     1   0.14647 272713.120000
   9861   9873     1   0.15375 251793.120000
   9864   9876     1   0.15375 251793.120000
   9867   9870     1   0.15375 251793.120000
   9870   9879     1   0.15375 251793.120000
   9873   9885     1   0.15375 251793.120000
   9876   9882     1   0.15375 251793.120000
   9879   9888     1   0.14316 258236.480000
   9882  17988     1   0.14316 258236.480000
   9885  18011     1   0.14316 258236.480000
   9889   9890     1   0.14647 272713.120000
   9889   9893     1   0.14647 272713.120000
   9889   9896     1   0.14647 272713.120000
   9890   9902     1   0.15375 251793.120000
   9893   9905     1   0.15375 251793.120000
   9896   9899     1   0.15375 251793.120000
   9899   9908     1   0.15375 251793.120000
   9902   9914     1   0.15375 251793.120000
   9905   9911     1   0.15375 251793.120000
   9908   9917     1   0.14316 258236.480000
   9911  18034     1   0.14316 258236.480000
   9914  18057     1   0.14316 258236.480000
   9918   9919     1   0.14647 272713.120000
   9918   9922     1   0.14647 272713.120000
   9918   9925     1   0.14647 272713.120000
   9919   9931     1   0.15375 251793.120000
   9922   9934     1   0.15375 251793.120000
   9925   9928     1   0.15375 251793.120000
   9928   9937     1   0.15375 251793.120000
   9931   9943     1   0.15375 251793.120000
   9934   9940     1   0.15375 251793.120000
   9937   9946     1   0.14316 258236.480000
   9940  18080     1   0.14316 258236.480000
   9943  18103     1   0.14316 258236.480000
   9947   9948     1   0.14647 272713.120000
   9947   9951     1   0.14647 272713.120000
   9947   9954     1   0.14647 272713.120000
   9948   9960     1   0.15375 251793.120000
   9951   9963     1   0.15375 251793.120000
   9954   9957     1   0.15375 251793.120000
   9957   9966     1   0.15375 251793.120000
   9960   9972     1   0.15375 251793.120000
   9963   9969     1   0.15375 251793.120000
   9966   9975     1   0.14316 258236.480000
   9969  18126     1   0.14316 258236.480000
   9972  18149     1   0.14316 258236.480000
   9976   9977     1   0.14647 272713.120000
   9976   9980     1   0.14647 272713.120000
   9976   9983     1   0.14647 272713.120000
   9977   9989     1   0.15375 251793.120000
   9980   9992     1   0.15375 251793.120000
   9983   9986     1   0.15375 251793.120000
   9986   9995     1   0.15375 251793.120000
   9989  10001     1   0.15375 251793.120000
   9992   9998     1   0.15375 251793.120000
   9995  10004     1   0.14316 258236.480000
   9998  18172     1   0.14316 258236.480000
  10001  18195     1   0.14316 258236.480000
  10005  10006     1   0.14647 272713.120000
  10005  10009     1   0.14647 272713.120000
  10005  10012     1   0.14647 272713.120000
  10006  10018     1   0.15375 251793.120000
  10009  10021     1   0.15375 251793.120000
  10012  10015     1   0.15375 251793.120000
  10015  10024     1   0.15375 251793.120000
  10018  10030     1   0.15375 251793.120000
  10021  10027     1   0.15375 251793.120000
  10024  10033     1   0.14316 258236.480000
  10027  18218     1   0.14316 258236.480000
  10030  18241     1   0.14316 258236.480000
  10034  10035     1   0.14647 272713.120000
  10034  10038     1   0.14647 272713.120000
  10034  10041     1   0.14647 272713.120000
  10035  10047     1   0.15375 251793.120000
  10038  10050     1   0.15375 251793.120000
  10041  10044     1   0.15375 251793.120000
  10044  10053     1   0.15375 251793.120000
  10047  10059     1   0.15375 251793.120000
  10050  10056     1   0.15375 251793.120000
  10053  10062     1   0.14316 258236.480000
  10056  18264     1   0.14316 258236.480000
  10059  18287     1   0.14316 258236.480000
  10063  10064     1   0.14647 272713.120000
  10063  10067     1   0.14647 272713.120000
  10063  10070     1   0.14647 272713.120000
  10064  10076     1   0.15375 251793.120000
  10067  10079     1   0.15375 251793.120000
  10070  10073     1   0.15375 251793.120000
  10073  10082     1   0.15375 251793.120000
  10076  10088     1   0.15375 251793.120000
  10079  10085     1   0.15375 251793.120000
  10082  10091     1   0.14316 258236.480000
  10085  18310     1   0.14316 258236.480000
  10088  18333     1   0.14316 258236.480000
  10092  10093     1   0.14647 272713.120000
  10092  10096     1   0.14647 272713.120000
  10092  10099     1   0.14647 272713.120000
  10093  10105     1   0.15375 251793.120000
  10096  10108     1   0.15375 251793.120000
  10099  10102     1   0.15375 251793.120000
  10102  10111     1   0.15375 251793.120000
  10105  10117     1   0.15375 251793.120000
  10108  10114     1   0.15375 251793.120000
  10111  10120     1   0.14316 258236.480000
  10114  18356     1   0.14316 258236.480000
  10117  18379     1   0.14316 258236.480000
  10121  10122     1   0.14647 272713.120000
  10121  10125     1   0.14647 272713.120000
  10121  10128     1   0.14647 272713.120000
  10122  10134     1   0.15375 251793.120000
  10125  10137     1   0.15375 251793.120000
  10128  10131     1   0.15375 251793.120000
  10131  10140     1   0.15375 251793.120000
  10134  10146     1   0.15375 251793.120000
  10137  10143     1   0.15375 251793.120000
  10140  10149     1   0.14316 258236.480000
  10143  18402     1   0.14316 258236.480000
  10146  18425     1   0.14316 258236.480000
  10150  10151     1   0.14647 272713.120000
  10150  10154     1   0.14647 272713.120000
  10150  10157     1   0.14647 272713.120000
  10151  10163     1   0.15375 251793.120000
  10154  10166     1   0.15375 251793.120000
  10157  10160     1   0.15375 251793.120000
  10160  10169     1   0.15375 251793.120000
  10163  10175     1   0.15375 251793.120000
  10166  10172     1   0.15375 251793.120000
  10169  10178     1   0.14316 258236.480000
  10172  18448     1   0.14316 258236.480000
  10175  18471     1   0.14316 258236.480000
  10179  10180     1   0.14647 272713.120000
  10179  10183     1   0.14647 272713.120000
  10179  10186     1   0.14647 272713.120000
  10180  10192     1   0.15375 251793.120000
  10183  10195     1   0.15375 251793.120000
  10186  10189     1   0.15375 251793.120000
  10189  10198     1   0.15375 251793.120000
  10192  10204     1   0.15375 251793.120000
  10195  10201     1   0.15375 251793.120000
  10198  10207     1   0.14316 258236.480000
  10201  18494     1   0.14316 258236.480000
  10204  18517     1   0.14316 258236.480000
  10208  10209     1   0.14647 272713.120000
  10208  10212     1   0.14647 272713.120000
  10208  10215     1   0.14647 272713.120000
  10209  10221     1   0.15375 251793.120000
  10212  10224     1   0.15375 251793.120000
  10215  10218     1   0.15375 251793.120000
  10218  10227     1   0.15375 251793.120000
  10221  10233     1   0.15375 251793.120000
  10224  10230     1   0.15375 251793.120000
  10227  10236     1   0.14316 258236.480000
  10230  18540     1   0.14316 258236.480000
  10233  18563     1   0.14316 258236.480000
  10237  10238     1   0.14647 272713.120000
  10237  10241     1   0.14647 272713.120000
  10237  10244     1   0.14647 272713.120000
  10238  10250     1   0.15375 251793.120000
  10241  10253     1   0.15375 251793.120000
  10244  10247     1   0.15375 251793.120000
  10247  10256     1   0.15375 251793.120000
  10250  10262     1   0.15375 251793.120000
  10253  10259     1   0.15375 251793.120000
  10256  10265     1   0.14316 258236.480000
  10259  18586     1   0.14316 258236.480000
  10262  18609     1   0.14316 258236.480000
  10266  10267     1   0.14647 272713.120000
  10266  10270     1   0.14647 272713.120000
  10266  10273     1   0.14647 272713.120000
  10267  10279     1   0.15375 251793.120000
  10270  10282     1   0.15375 251793.120000
  10273  10276     1   0.15375 251793.120000
  10276  10285     1   0.15375 251793.120000
  10279  10291     1   0.15375 251793.120000
  10282  10288     1   0.15375 251793.120000
  10285  10294     1   0.14316 258236.480000
  10288  18632     1   0.14316 258236.480000
  10291  18655     1   0.14316 258236.480000
  10295  10296     1   0.14647 272713.120000
  10295  10299     1   0.14647 272713.120000
  10295  10302     1   0.14647 272713.120000
  10296  10308     1   0.15375 251793.120000
  10299  10311     1   0.15375 251793.120000
  10302  10305     1   0.15375 251793.120000
  10305  10314     1   0.15375 251793.120000
  10308  10320     1   0.15375 251793.120000
  10311  10317     1   0.15375 251793.120000
  10314  10323     1   0.14316 258236.480000
  10317  18678     1   0.14316 258236.480000
  10320  18701     1   0.14316 258236.480000
  10324  10325     1   0.14647 272713.120000
  10324  10328     1   0.14647 272713.120000
  10324  10331     1   0.14647 272713.120000
  10325  10337     1   0.15375 251793.120000
  10328  10340     1   0.15375 251793.120000
  10331  10334     1   0.15375 251793.120000
  10334  10343     1   0.15375 251793.120000
  10337  10349     1   0.15375 251793.120000
  10340  10346     1   0.15375 251793.120000
  10343  10352     1   0.14316 258236.480000
  10346  18724     1   0.14316 258236.480000
  10349  18747     1   0.14316 258236.480000
  10353  10354     1   0.14647 272713.120000
  10353  10357     1   0.14647 272713.120000
  10353  10360     1   0.14647 272713.120000
  10354  10366     1   0.15375 251793.120000
  10357  10369     1   0.15375 251793.120000
  10360  10363     1   0.15375 251793.120000
  10363  10372     1   0.15375 251793.120000
  10366  10378     1   0.15375 251793.120000
  10369  10375     1   0.15375 251793.120000
  10372  10381     1   0.14316 258236.480000
  10375  18770     1   0.14316 258236.480000
  10378  18793     1   0.14316 258236.480000
  10382  10383     1   0.14647 272713.120000
  10382  10386     1   0.14647 272713.120000
  10382  10389     1   0.14647 272713.120000
  10383  10395     1   0.15375 251793.120000
  10386  10398     1   0.15375 251793.120000
  10389  10392     1   0.15375 251793.120000
  10392  10401     1   0.15375 251793.120000
  10395  10407     1   0.15375 251793.120000
  10398  10404     1   0.15375 251793.120000
  10401  10410     1   0.14316 258236.480000
  10404  18816     1   0.14316 258236.480000
  10407  18839     1   0.14316 258236.480000
  10411  10412     1   0.14647 272713.120000
  10411  10415     1   0.14647 272713.120000
  10411  10418     1   0.14647 272713.120000
  10412  10424     1   0.15375 251793.120000
  10415  10427     1   0.15375 251793.120000
  10418  10421     1   0.15375 251793.120000
  10421  10430     1   0.15375 251793.120000
  10424  10436     1   0.15375 251793.120000
  10427  10433     1   0.15375 251793.120000
  10430  10439     1   0.14316 258236.480000
  10433  18862     1   0.14316 258236.480000
  10436  18885     1   0.14316 258236.480000
  10440  10441     1   0.14647 272713.120000
  10440  10444     1   0.14647 272713.120000
  10440  10447     1   0.14647 272713.120000
  10441  10453     1   0.15375 251793.120000
  10444  10456     1   0.15375 251793.120000
  10447  10450     1   0.15375 251793.120000
  10450  10459     1   0.15375 251793.120000
  10453  10465     1   0.15375 251793.120000
  10456  10462     1   0.15375 251793.120000
  10459  10468     1   0.14316 258236.480000
  10462  18908     1   0.14316 258236.480000
  10465  18931     1   0.14316 258236.480000
  10469  10470     1   0.14647 272713.120000
  10469  10473     1   0.14647 272713.120000
  10469  10476     1   0.14647 272713.120000
  10470  10482     1   0.15375 251793.120000
  10473  10485     1   0.15375 251793.120000
  10476  10479     1   0.15375 251793.120000
  10479  10488     1   0.15375 251793.120000
  10482  10494     1   0.15375 251793.120000
  10485  10491     1   0.15375 251793.120000
  10488  10497     1   0.14316 258236.480000
  10491  18954     1   0.14316 258236.480000
  10494  18977     1   0.14316 258236.480000
  10498  10499     1   0.14647 272713.120000
  10498  10502     1   0.14647 272713.120000
  10498  10505     1   0.14647 272713.120000
  10499  10511     1   0.15375 251793.120000
  10502  10514     1   0.15375 251793.120000
  10505  10508     1   0.15375 251793.120000
  10508  10517     1   0.15375 251793.120000
  10511  10523     1   0.15375 251793.120000
  10514  10520     1   0.15375 251793.120000
  10517  10526     1   0.14316 258236.480000
  10520  19000     1   0.14316 258236.480000
  10523  19023     1   0.14316 258236.480000
  10527  10528     1   0.14647 272713.120000
  10527  10531     1   0.14647 272713.120000
  10527  10534     1   0.14647 272713.120000
  10528  10540     1   0.15375 251793.120000
  10531  10543     1   0.15375 251793.120000
  10534  10537     1   0.15375 251793.120000
  10537  10546     1   0.15375 251793.120000
  10540  10552     1   0.15375 251793.120000
  10543  10549     1   0.15375 251793.120000
  10546  10555     1   0.14316 258236.480000
  10549  19046     1   0.14316 258236.480000
  10552  19069     1   0.14316 258236.480000
  10556  10557     1   0.14647 272713.120000
  10556  10560     1   0.14647 272713.120000
  10556  10563     1   0.14647 272713.120000
  10557  10569     1   0.15375 251793.120000
  10560  10572     1   0.15375 251793.120000
  10563  10566     1   0.15375 251793.120000
  10566  10575     1   0.15375 251793.120000
  10569  10581     1   0.15375 251793.120000
  10572  10578     1   0.15375 251793.120000
  10575  10584     1   0.14316 258236.480000
  10578  19092     1   0.14316 258236.480000
  10581  19115     1   0.14316 258236.480000
  10585  10586     1   0.14647 272713.120000
  10585  10589     1   0.14647 272713.120000
  10585  10592     1   0.14647 272713.120000
  10586  10598     1   0.15375 251793.120000
  10589  10601     1   0.15375 251793.120000
  10592  10595     1   0.15375 251793.120000
  10595  10604     1   0.15375 251793.120000
  10598  10610     1   0.15375 251793.120000
  10601  10607     1   0.15375 251793.120000
  10604  10613     1   0.14316 258236.480000
  10607  19138     1   0.14316 258236.480000
  10610  19161     1   0.14316 258236.480000
  10614  10615     1   0.14647 272713.120000
  10614  10618     1   0.14647 272713.120000
  10614  10621     1   0.14647 272713.120000
  10615  10627     1   0.15375 251793.120000
  10618  10630     1   0.15375 251793.120000
  10621  10624     1   0.15375 251793.120000
  10624  10633     1   0.15375 251793.120000
  10627  10639     1   0.15375 251793.120000
  10630  10636     1   0.15375 251793.120000
  10633  10642     1   0.14316 258236.480000
  10636  19184     1   0.14316 258236.480000
  10639  19207     1   0.14316 258236.480000
  10643  10644     1   0.14647 272713.120000
  10643  10647     1   0.14647 272713.120000
  10643  10650     1   0.14647 272713.120000
  10644  10656     1   0.15375 251793.120000
  10647  10659     1   0.15375 251793.120000
  10650  10653     1   0.15375 251793.120000
  10653  10662     1   0.15375 251793.120000
  10656  10668     1   0.15375 251793.120000
  10659  10665     1   0.15375 251793.120000
  10662  10671     1   0.14316 258236.480000
  10665  19230     1   0.14316 258236.480000
  10668  19253     1   0.14316 258236.480000
  10672  10673     1   0.14647 272713.120000
  10672  10676     1   0.14647 272713.120000
  10672  10679     1   0.14647 272713.120000
  10673  10685     1   0.15375 251793.120000
  10676  10688     1   0.15375 251793.120000
  10679  10682     1   0.15375 251793.120000
  10682  10691     1   0.15375 251793.120000
  10685  10697     1   0.15375 251793.120000
  10688  10694     1   0.15375 251793.120000
  10691  10700     1   0.14316 258236.480000
  10694  19276     1   0.14316 258236.480000
  10697  19299     1   0.14316 258236.480000
  10701  10702     1   0.14647 272713.120000
  10701  10705     1   0.14647 272713.120000
  10701  10708     1   0.14647 272713.120000
  10702  10714     1   0.15375 251793.120000
  10705  10717     1   0.15375 251793.120000
  10708  10711     1   0.15375 251793.120000
  10711  10720     1   0.15375 251793.120000
  10714  10726     1   0.15375 251793.120000
  10717  10723     1   0.15375 251793.120000
  10720  10729     1   0.14316 258236.480000
  10723  19322     1   0.14316 258236.480000
  10726  19345     1   0.14316 258236.480000
  10730  10731     1   0.14647 272713.120000
  10730  10734     1   0.14647 272713.120000
  10730  10737     1   0.14647 272713.120000
  10731  10743     1   0.15375 251793.120000
  10734  10746     1   0.15375 251793.120000
  10737  10740     1   0.15375 251793.120000
  10740  10749     1   0.15375 251793.120000
  10743  10755     1   0.15375 251793.120000
  10746  10752     1   0.15375 251793.120000
  10749  10758     1   0.14316 258236.480000
  10752  19368     1   0.14316 258236.480000
  10755  19391     1   0.14316 258236.480000
  10759  10760     1   0.14647 272713.120000
  10759  10763     1   0.14647 272713.120000
  10759  10766     1   0.14647 272713.120000
  10760  10772     1   0.15375 251793.120000
  10763  10775     1   0.15375 251793.120000
  10766  10769     1   0.15375 251793.120000
  10769  10778     1   0.15375 251793.120000
  10772  10784     1   0.15375 251793.120000
  10775  10781     1   0.15375 251793.120000
  10778  10787     1   0.14316 258236.480000
  10781  19414     1   0.14316 258236.480000
  10784  19437     1   0.14316 258236.480000
  10788  10789     1   0.14647 272713.120000
  10788  10792     1   0.14647 272713.120000
  10788  10795     1   0.14647 272713.120000
  10789  10801     1   0.15375 251793.120000
  10792  10804     1   0.15375 251793.120000
  10795  10798     1   0.15375 251793.120000
  10798  10807     1   0.15375 251793.120000
  10801  10813     1   0.15375 251793.120000
  10804  10810     1   0.15375 251793.120000
  10807  10816     1   0.14316 258236.480000
  10810  19460     1   0.14316 258236.480000
  10813  19483     1   0.14316 258236.480000
  10817  10818     1   0.14647 272713.120000
  10817  10821     1   0.14647 272713.120000
  10817  10824     1   0.14647 272713.120000
  10818  10830     1   0.15375 251793.120000
  10821  10833     1   0.15375 251793.120000
  10824  10827     1   0.15375 251793.120000
  10827  10836     1   0.15375 251793.120000
  10830  10842     1   0.15375 251793.120000
  10833  10839     1   0.15375 251793.120000
  10836  10845     1   0.14316 258236.480000
  10839  19506     1   0.14316 258236.480000
  10842  19529     1   0.14316 258236.480000
  10846  10847     1   0.14647 272713.120000
  10846  10850     1   0.14647 272713.120000
  10846  10853     1   0.14647 272713.120000
  10847  10859     1   0.15375 251793.120000
  10850  10862     1   0.15375 251793.120000
  10853  10856     1   0.15375 251793.120000
  10856  10865     1   0.15375 251793.120000
  10859  10871     1   0.15375 251793.120000
  10862  10868     1   0.15375 251793.120000
  10865  10874     1   0.14316 258236.480000
  10868  19552     1   0.14316 258236.480000
  10871  19575     1   0.14316 258236.480000
  10875  10876     1   0.14647 272713.120000
  10875  10879     1   0.14647 272713.120000
  10875  10882     1   0.14647 272713.120000
  10876  10888     1   0.15375 251793.120000
  10879  10891     1   0.15375 251793.120000
  10882  10885     1   0.15375 251793.120000
  10885  10894     1   0.15375 251793.120000
  10888  10900     1   0.15375 251793.120000
  10891  10897     1   0.15375 251793.120000
  10894  10903     1   0.14316 258236.480000
  10897  19598     1   0.14316 258236.480000
  10900  19621     1   0.14316 258236.480000
  10904  10905     1   0.14647 272713.120000
  10904  10908     1   0.14647 272713.120000
  10904  10911     1   0.14647 272713.120000
  10905  10917     1   0.15375 251793.120000
  10908  10920     1   0.15375 251793.120000
  10911  10914     1   0.15375 251793.120000
  10914  10923     1   0.15375 251793.120000
  10917  10929     1   0.15375 251793.120000
  10920  10926     1   0.15375 251793.120000
  10923  10932     1   0.14316 258236.480000
  10926  19644     1   0.14316 258236.480000
  10929  19667     1   0.14316 258236.480000
  10933  10934     1   0.14647 272713.120000
  10933  10937     1   0.14647 272713.120000
  10933  10940     1   0.14647 272713.120000
  10934  10946     1   0.15375 251793.120000
  10937  10949     1   0.15375 251793.120000
  10940  10943     1   0.15375 251793.120000
  10943  10952     1   0.15375 251793.120000
  10946  10958     1   0.15375 251793.120000
  10949  10955     1   0.15375 251793.120000
  10952  10961     1   0.14316 258236.480000
  10955  19690     1   0.14316 258236.480000
  10958  19713     1   0.14316 258236.480000
  10962  10963     1   0.14647 272713.120000
  10962  10966     1   0.14647 272713.120000
  10962  10969     1   0.14647 272713.120000
  10963  10975     1   0.15375 251793.120000
  10966  10978     1   0.15375 251793.120000
  10969  10972     1   0.15375 251793.120000
  10972  10981     1   0.15375 251793.120000
  10975  10987     1   0.15375 251793.120000
  10978  10984     1   0.15375 251793.120000
  10981  10990     1   0.14316 258236.480000
  10984  19736     1   0.14316 258236.480000
  10987  19759     1   0.14316 258236.480000
  10991  10992     1   0.14647 272713.120000
  10991  10995     1   0.14647 272713.120000
  10991  10998     1   0.14647 272713.120000
  10992  11004     1   0.15375 251793.120000
  10995  11007     1   0.15375 251793.120000
  10998  11001     1   0.15375 251793.120000
  11001  11010     1   0.15375 251793.120000
  11004  11016     1   0.15375 251793.120000
  11007  11013     1   0.15375 251793.120000
  11010  11019     1   0.14316 258236.480000
  11013  19782     1   0.14316 258236.480000
  11016  19805     1   0.14316 258236.480000
  11020  11021     1   0.14647 272713.120000
  11020  11024     1   0.14647 272713.120000
  11020  11027     1   0.14647 272713.120000
  11021  11033     1   0.15375 251793.120000
  11024  11036     1   0.15375 251793.120000
  11027  11030     1   0.15375 251793.120000
  11030  11039     1   0.15375 251793.120000
  11033  11045     1   0.15375 251793.120000
  11036  11042     1   0.15375 251793.120000
  11039  11048     1   0.14316 258236.480000
  11042  19828     1   0.14316 258236.480000
  11045  19851     1   0.14316 258236.480000
  11049  11050     1   0.14647 272713.120000
  11049  11053     1   0.14647 272713.120000
  11049  11056     1   0.14647 272713.120000
  11050  11062     1   0.15375 251793.120000
  11053  11065     1   0.15375 251793.120000
  11056  11059     1   0.15375 251793.120000
  11059  11068     1   0.15375 251793.120000
  11062  11074     1   0.15375 251793.120000
  11065  11071     1   0.15375 251793.120000
  11068  11077     1   0.14316 258236.480000
  11071  19874     1   0.14316 258236.480000
  11074  19897     1   0.14316 258236.480000
  11078  11079     1   0.15375 251793.120000
  11078  11092     1   0.15375 251793.120000
  11078  11100     1   0.14316 258236.480000
  11079  11082     1   0.15375 251793.120000
  11079  11091     1   0.14233 265014.560000
  11082  11083     1   0.15375 251793.120000
  11082  11090     1   0.14233 265014.560000
  11083  11084     1   0.15375 251793.120000
  11083  11089     1   0.14233 265014.560000
  11084  11088     1   0.14316 258236.480000
  11084  11100     1   0.14316 258236.480000
  11092  11098     1   0.14233 265014.560000
  11101  11102     1   0.15375 251793.120000
  11101  11115     1   0.15375 251793.120000
  11101  11123     1   0.14316 258236.480000
  11102  11105     1   0.15375 251793.120000
  11102  11114     1   0.14233 265014.560000
  11105  11106     1   0.15375 251793.120000
  11105  11113     1   0.14233 265014.560000
  11106  11107     1   0.15375 251793.120000
  11106  11112     1   0.14233 265014.560000
  11107  11111     1   0.14316 258236.480000
  11107  11123     1   0.14316 258236.480000
  11115  11121     1   0.14233 265014.560000
  11124  11125     1   0.15375 251793.120000
  11124  11138     1   0.15375 251793.120000
  11124  11146     1   0.14316 258236.480000
  11125  11128     1   0.15375 251793.120000
  11125  11137     1   0.14233 265014.560000
  11128  11129     1   0.15375 251793.120000
  11128  11136     1   0.14233 265014.560000
  11129  11130     1   0.15375 251793.120000
  11129  11135     1   0.14233 265014.560000
  11130  11134     1   0.14316 258236.480000
  11130  11146     1   0.14316 258236.480000
  11138  11144     1   0.14233 265014.560000
  11147  11148     1   0.15375 251793.120000
  11147  11161     1   0.15375 251793.120000
  11147  11169     1   0.14316 258236.480000
  11148  11151     1   0.15375 251793.120000
  11148  11160     1   0.14233 265014.560000
  11151  11152     1   0.15375 251793.120000
  11151  11159     1   0.14233 265014.560000
  11152  11153     1   0.15375 251793.120000
  11152  11158     1   0.14233 265014.560000
  11153  11157     1   0.14316 258236.480000
  11153  11169     1   0.14316 258236.480000
  11161  11167     1   0.14233 265014.560000
  11170  11171     1   0.15375 251793.120000
  11170  11184     1   0.15375 251793.120000
  11170  11192     1   0.14316 258236.480000
  11171  11174     1   0.15375 251793.120000
  11171  11183     1   0.14233 265014.560000
  11174  11175     1   0.15375 251793.120000
  11174  11182     1   0.14233 265014.560000
  11175  11176     1   0.15375 251793.120000
  11175  11181     1   0.14233 265014.560000
  11176  11180     1   0.14316 258236.480000
  11176  11192     1   0.14316 258236.480000
  11184  11190     1   0.14233 265014.560000
  11193  11194     1   0.15375 251793.120000
  11193  11207     1   0.15375 251793.120000
  11193  11215     1   0.14316 258236.480000
  11194  11197     1   0.15375 251793.120000
  11194  11206     1   0.14233 265014.560000
  11197  11198     1   0.15375 251793.120000
  11197  11205     1   0.14233 265014.560000
  11198  11199     1   0.15375 251793.120000
  11198  11204     1   0.14233 265014.560000
  11199  11203     1   0.14316 258236.480000
  11199  11215     1   0.14316 258236.480000
  11207  11213     1   0.14233 265014.560000
  11216  11217     1   0.15375 251793.120000
  11216  11230     1   0.15375 251793.120000
  11216  11238     1   0.14316 258236.480000
  11217  11220     1   0.15375 251793.120000
  11217  11229     1   0.14233 265014.560000
  11220  11221     1   0.15375 251793.120000
  11220  11228     1   0.14233 265014.560000
  11221  11222     1   0.15375 251793.120000
  11221  11227     1   0.14233 265014.560000
  11222  11226     1   0.14316 258236.480000
  11222  11238     1   0.14316 258236.480000
  11230  11236     1   0.14233 265014.560000
  11239  11240     1   0.15375 251793.120000
  11239  11253     1   0.15375 251793.120000
  11239  11261     1   0.14316 258236.480000
  11240  11243     1   0.15375 251793.120000
  11240  11252     1   0.14233 265014.560000
  11243  11244     1   0.15375 251793.120000
  11243  11251     1   0.14233 265014.560000
  11244  11245     1   0.15375 251793.120000
  11244  11250     1   0.14233 265014.560000
  11245  11249     1   0.14316 258236.480000
  11245  11261     1   0.14316 258236.480000
  11253  11259     1   0.14233 265014.560000
  11262  11263     1   0.15375 251793.120000
  11262  11276     1   0.15375 251793.120000
  11262  11284     1   0.14316 258236.480000
  11263  11266     1   0.15375 251793.120000
  11263  11275     1   0.14233 265014.560000
  11266  11267     1   0.15375 251793.120000
  11266  11274     1   0.14233 265014.560000
  11267  11268     1   0.15375 251793.120000
  11267  11273     1   0.14233 265014.560000
  11268  11272     1   0.14316 258236.480000
  11268  11284     1   0.14316 258236.480000
  11276  11282     1   0.14233 265014.560000
  11285  11286     1   0.15375 251793.120000
  11285  11299     1   0.15375 251793.120000
  11285  11307     1   0.14316 258236.480000
  11286  11289     1   0.15375 251793.120000
  11286  11298     1   0.14233 265014.560000
  11289  11290     1   0.15375 251793.120000
  11289  11297     1   0.14233 265014.560000
  11290  11291     1   0.15375 251793.120000
  11290  11296     1   0.14233 265014.560000
  11291  11295     1   0.14316 258236.480000
  11291  11307     1   0.14316 258236.480000
  11299  11305     1   0.14233 265014.560000
  11308  11309     1   0.15375 251793.120000
  11308  11322     1   0.15375 251793.120000
  11308  11330     1   0.14316 258236.480000
  11309  11312     1   0.15375 251793.120000
  11309  11321     1   0.14233 265014.560000
  11312  11313     1   0.15375 251793.120000
  11312  11320     1   0.14233 265014.560000
  11313  11314     1   0.15375 251793.120000
  11313  11319     1   0.14233 265014.560000
  11314  11318     1   0.14316 258236.480000
  11314  11330     1   0.14316 258236.480000
  11322  11328     1   0.14233 265014.560000
  11331  11332     1   0.15375 251793.120000
  11331  11345     1   0.15375 251793.120000
  11331  11353     1   0.14316 258236.480000
  11332  11335     1   0.15375 251793.120000
  11332  11344     1   0.14233 265014.560000
  11335  11336     1   0.15375 251793.120000
  11335  11343     1   0.14233 265014.560000
  11336  11337     1   0.15375 251793.120000
  11336  11342     1   0.14233 265014.560000
  11337  11341     1   0.14316 258236.480000
  11337  11353     1   0.14316 258236.480000
  11345  11351     1   0.14233 265014.560000
  11354  11355     1   0.15375 251793.120000
  11354  11368     1   0.15375 251793.120000
  11354  11376     1   0.14316 258236.480000
  11355  11358     1   0.15375 251793.120000
  11355  11367     1   0.14233 265014.560000
  11358  11359     1   0.15375 251793.120000
  11358  11366     1   0.14233 265014.560000
  11359  11360     1   0.15375 251793.120000
  11359  11365     1   0.14233 265014.560000
  11360  11364     1   0.14316 258236.480000
  11360  11376     1   0.14316 258236.480000
  11368  11374     1   0.14233 265014.560000
  11377  11378     1   0.15375 251793.120000
  11377  11391     1   0.15375 251793.120000
  11377  11399     1   0.14316 258236.480000
  11378  11381     1   0.15375 251793.120000
  11378  11390     1   0.14233 265014.560000
  11381  11382     1   0.15375 251793.120000
  11381  11389     1   0.14233 265014.560000
  11382  11383     1   0.15375 251793.120000
  11382  11388     1   0.14233 265014.560000
  11383  11387     1   0.14316 258236.480000
  11383  11399     1   0.14316 258236.480000
  11391  11397     1   0.14233 265014.560000
  11400  11401     1   0.15375 251793.120000
  11400  11414     1   0.15375 251793.120000
  11400  11422     1   0.14316 258236.480000
  11401  11404     1   0.15375 251793.120000
  11401  11413     1   0.14233 265014.560000
  11404  11405     1   0.15375 251793.120000
  11404  11412     1   0.14233 265014.560000
  11405  11406     1   0.15375 251793.120000
  11405  11411     1   0.14233 265014.560000
  11406  11410     1   0.14316 258236.480000
  11406  11422     1   0.14316 258236.480000
  11414  11420     1   0.14233 265014.560000
  11423  11424     1   0.15375 251793.120000
  11423  11437     1   0.15375 251793.120000
  11423  11445     1   0.14316 258236.480000
  11424  11427     1   0.15375 251793.120000
  11424  11436     1   0.14233 265014.560000
  11427  11428     1   0.15375 251793.120000
  11427  11435     1   0.14233 265014.560000
  11428  11429     1   0.15375 251793.120000
  11428  11434     1   0.14233 265014.560000
  11429  11433     1   0.14316 258236.480000
  11429  11445     1   0.14316 258236.480000
  11437  11443     1   0.14233 265014.560000
  11446  11447     1   0.15375 251793.120000
  11446  11460     1   0.15375 251793.120000
  11446  11468     1   0.14316 258236.480000
  11447  11450     1   0.15375 251793.120000
  11447  11459     1   0.14233 265014.560000
  11450  11451     1   0.15375 251793.120000
  11450  11458     1   0.14233 265014.560000
  11451  11452     1   0.15375 251793.120000
  11451  11457     1   0.14233 265014.560000
  11452  11456     1   0.14316 258236.480000
  11452  11468     1   0.14316 258236.480000
  11460  11466     1   0.14233 265014.560000
  11469  11470     1   0.15375 251793.120000
  11469  11483     1   0.15375 251793.120000
  11469  11491     1   0.14316 258236.480000
  11470  11473     1   0.15375 251793.120000
  11470  11482     1   0.14233 265014.560000
  11473  11474     1   0.15375 251793.120000
  11473  11481     1   0.14233 265014.560000
  11474  11475     1   0.15375 251793.120000
  11474  11480     1   0.14233 265014.560000
  11475  11479     1   0.14316 258236.480000
  11475  11491     1   0.14316 258236.480000
  11483  11489     1   0.14233 265014.560000
  11492  11493     1   0.15375 251793.120000
  11492  11506     1   0.15375 251793.120000
  11492  11514     1   0.14316 258236.480000
  11493  11496     1   0.15375 251793.120000
  11493  11505     1   0.14233 265014.560000
  11496  11497     1   0.15375 251793.120000
  11496  11504     1   0.14233 265014.560000
  11497  11498     1   0.15375 251793.120000
  11497  11503     1   0.14233 265014.560000
  11498  11502     1   0.14316 258236.480000
  11498  11514     1   0.14316 258236.480000
  11506  11512     1   0.14233 265014.560000
  11515  11516     1   0.15375 251793.120000
  11515  11529     1   0.15375 251793.120000
  11515  11537     1   0.14316 258236.480000
  11516  11519     1   0.15375 251793.120000
  11516  11528     1   0.14233 265014.560000
  11519  11520     1   0.15375 251793.120000
  11519  11527     1   0.14233 265014.560000
  11520  11521     1   0.15375 251793.120000
  11520  11526     1   0.14233 265014.560000
  11521  11525     1   0.14316 258236.480000
  11521  11537     1   0.14316 258236.480000
  11529  11535     1   0.14233 265014.560000
  11538  11539     1   0.15375 251793.120000
  11538  11552     1   0.15375 251793.120000
  11538  11560     1   0.14316 258236.480000
  11539  11542     1   0.15375 251793.120000
  11539  11551     1   0.14233 265014.560000
  11542  11543     1   0.15375 251793.120000
  11542  11550     1   0.14233 265014.560000
  11543  11544     1   0.15375 251793.120000
  11543  11549     1   0.14233 265014.560000
  11544  11548     1   0.14316 258236.480000
  11544  11560     1   0.14316 258236.480000
  11552  11558     1   0.14233 265014.560000
  11561  11562     1   0.15375 251793.120000
  11561  11575     1   0.15375 251793.120000
  11561  11583     1   0.14316 258236.480000
  11562  11565     1   0.15375 251793.120000
  11562  11574     1   0.14233 265014.560000
  11565  11566     1   0.15375 251793.120000
  11565  11573     1   0.14233 265014.560000
  11566  11567     1   0.15375 251793.120000
  11566  11572     1   0.14233 265014.560000
  11567  11571     1   0.14316 258236.480000
  11567  11583     1   0.14316 258236.480000
  11575  11581     1   0.14233 265014.560000
  11584  11585     1   0.15375 251793.120000
  11584  11598     1   0.15375 251793.120000
  11584  11606     1   0.14316 258236.480000
  11585  11588     1   0.15375 251793.120000
  11585  11597     1   0.14233 265014.560000
  11588  11589     1   0.15375 251793.120000
  11588  11596     1   0.14233 265014.560000
  11589  11590     1   0.15375 251793.120000
  11589  11595     1   0.14233 265014.560000
  11590  11594     1   0.14316 258236.480000
  11590  11606     1   0.14316 258236.480000
  11598  11604     1   0.14233 265014.560000
  11607  11608     1   0.15375 251793.120000
  11607  11621     1   0.15375 251793.120000
  11607  11629     1   0.14316 258236.480000
  11608  11611     1   0.15375 251793.120000
  11608  11620     1   0.14233 265014.560000
  11611  11612     1   0.15375 251793.120000
  11611  11619     1   0.14233 265014.560000
  11612  11613     1   0.15375 251793.120000
  11612  11618     1   0.14233 265014.560000
  11613  11617     1   0.14316 258236.480000
  11613  11629     1   0.14316 258236.480000
  11621  11627     1   0.14233 265014.560000
  11630  11631     1   0.15375 251793.120000
  11630  11644     1   0.15375 251793.120000
  11630  11652     1   0.14316 258236.480000
  11631  11634     1   0.15375 251793.120000
  11631  11643     1   0.14233 265014.560000
  11634  11635     1   0.15375 251793.120000
  11634  11642     1   0.14233 265014.560000
  11635  11636     1   0.15375 251793.120000
  11635  11641     1   0.14233 265014.560000
  11636  11640     1   0.14316 258236.480000
  11636  11652     1   0.14316 258236.480000
  11644  11650     1   0.14233 265014.560000
  11653  11654     1   0.15375 251793.120000
  11653  11667     1   0.15375 251793.120000
  11653  11675     1   0.14316 258236.480000
  11654  11657     1   0.15375 251793.120000
  11654  11666     1   0.14233 265014.560000
  11657  11658     1   0.15375 251793.120000
  11657  11665     1   0.14233 265014.560000
  11658  11659     1   0.15375 251793.120000
  11658  11664     1   0.14233 265014.560000
  11659  11663     1   0.14316 258236.480000
  11659  11675     1   0.14316 258236.480000
  11667  11673     1   0.14233 265014.560000
  11676  11677     1   0.15375 251793.120000
  11676  11690     1   0.15375 251793.120000
  11676  11698     1   0.14316 258236.480000
  11677  11680     1   0.15375 251793.120000
  11677  11689     1   0.14233 265014.560000
  11680  11681     1   0.15375 251793.120000
  11680  11688     1   0.14233 265014.560000
  11681  11682     1   0.15375 251793.120000
  11681  11687     1   0.14233 265014.560000
  11682  11686     1   0.14316 258236.480000
  11682  11698     1   0.14316 258236.480000
  11690  11696     1   0.14233 265014.560000
  11699  11700     1   0.15375 251793.120000
  11699  11713     1   0.15375 251793.120000
  11699  11721     1   0.14316 258236.480000
  11700  11703     1   0.15375 251793.120000
  11700  11712     1   0.14233 265014.560000
  11703  11704     1   0.15375 251793.120000
  11703  11711     1   0.14233 265014.560000
  11704  11705     1   0.15375 251793.120000
  11704  11710     1   0.14233 265014.560000
  11705  11709     1   0.14316 258236.480000
  11705  11721     1   0.14316 258236.480000
  11713  11719     1   0.14233 265014.560000
  11722  11723     1   0.15375 251793.120000
  11722  11736     1   0.15375 251793.120000
  11722  11744     1   0.14316 258236.480000
  11723  11726     1   0.15375 251793.120000
  11723  11735     1   0.14233 265014.560000
  11726  11727     1   0.15375 251793.120000
  11726  11734     1   0.14233 265014.560000
  11727  11728     1   0.15375 251793.120000
  11727  11733     1   0.14233 265014.560000
  11728  11732     1   0.14316 258236.480000
  11728  11744     1   0.14316 258236.480000
  11736  11742     1   0.14233 265014.560000
  11745  11746     1   0.15375 251793.120000
  11745  11759     1   0.15375 251793.120000
  11745  11767     1   0.14316 258236.480000
  11746  11749     1   0.15375 251793.120000
  11746  11758     1   0.14233 265014.560000
  11749  11750     1   0.15375 251793.120000
  11749  11757     1   0.14233 265014.560000
  11750  11751     1   0.15375 251793.120000
  11750  11756     1   0.14233 265014.560000
  11751  11755     1   0.14316 258236.480000
  11751  11767     1   0.14316 258236.480000
  11759  11765     1   0.14233 265014.560000
  11768  11769     1   0.15375 251793.120000
  11768  11782     1   0.15375 251793.120000
  11768  11790     1   0.14316 258236.480000
  11769  11772     1   0.15375 251793.120000
  11769  11781     1   0.14233 265014.560000
  11772  11773     1   0.15375 251793.120000
  11772  11780     1   0.14233 265014.560000
  11773  11774     1   0.15375 251793.120000
  11773  11779     1   0.14233 265014.560000
  11774  11778     1   0.14316 258236.480000
  11774  11790     1   0.14316 258236.480000
  11782  11788     1   0.14233 265014.560000
  11791  11792     1   0.15375 251793.120000
  11791  11805     1   0.15375 251793.120000
  11791  11813     1   0.14316 258236.480000
  11792  11795     1   0.15375 251793.120000
  11792  11804     1   0.14233 265014.560000
  11795  11796     1   0.15375 251793.120000
  11795  11803     1   0.14233 265014.560000
  11796  11797     1   0.15375 251793.120000
  11796  11802     1   0.14233 265014.560000
  11797  11801     1   0.14316 258236.480000
  11797  11813     1   0.14316 258236.480000
  11805  11811     1   0.14233 265014.560000
  11814  11815     1   0.15375 251793.120000
  11814  11828     1   0.15375 251793.120000
  11814  11836     1   0.14316 258236.480000
  11815  11818     1   0.15375 251793.120000
  11815  11827     1   0.14233 265014.560000
  11818  11819     1   0.15375 251793.120000
  11818  11826     1   0.14233 265014.560000
  11819  11820     1   0.15375 251793.120000
  11819  11825     1   0.14233 265014.560000
  11820  11824     1   0.14316 258236.480000
  11820  11836     1   0.14316 258236.480000
  11828  11834     1   0.14233 265014.560000
  11837  11838     1   0.15375 251793.120000
  11837  11851     1   0.15375 251793.120000
  11837  11859     1   0.14316 258236.480000
  11838  11841     1   0.15375 251793.120000
  11838  11850     1   0.14233 265014.560000
  11841  11842     1   0.15375 251793.120000
  11841  11849     1   0.14233 265014.560000
  11842  11843     1   0.15375 251793.120000
  11842  11848     1   0.14233 265014.560000
  11843  11847     1   0.14316 258236.480000
  11843  11859     1   0.14316 258236.480000
  11851  11857     1   0.14233 265014.560000
  11860  11861     1   0.15375 251793.120000
  11860  11874     1   0.15375 251793.120000
  11860  11882     1   0.14316 258236.480000
  11861  11864     1   0.15375 251793.120000
  11861  11873     1   0.14233 265014.560000
  11864  11865     1   0.15375 251793.120000
  11864  11872     1   0.14233 265014.560000
  11865  11866     1   0.15375 251793.120000
  11865  11871     1   0.14233 265014.560000
  11866  11870     1   0.14316 258236.480000
  11866  11882     1   0.14316 258236.480000
  11874  11880     1   0.14233 265014.560000
  11883  11884     1   0.15375 251793.120000
  11883  11897     1   0.15375 251793.120000
  11883  11905     1   0.14316 258236.480000
  11884  11887     1   0.15375 251793.120000
  11884  11896     1   0.14233 265014.560000
  11887  11888     1   0.15375 251793.120000
  11887  11895     1   0.14233 265014.560000
  11888  11889     1   0.15375 251793.120000
  11888  11894     1   0.14233 265014.560000
  11889  11893     1   0.14316 258236.480000
  11889  11905     1   0.14316 258236.480000
  11897  11903     1   0.14233 265014.560000
  11906  11907     1   0.15375 251793.120000
  11906  11920     1   0.15375 251793.120000
  11906  11928     1   0.14316 258236.480000
  11907  11910     1   0.15375 251793.120000
  11907  11919     1   0.14233 265014.560000
  11910  11911     1   0.15375 251793.120000
  11910  11918     1   0.14233 265014.560000
  11911  11912     1   0.15375 251793.120000
  11911  11917     1   0.14233 265014.560000
  11912  11916     1   0.14316 258236.480000
  11912  11928     1   0.14316 258236.480000
  11920  11926     1   0.14233 265014.560000
  11929  11930     1   0.15375 251793.120000
  11929  11943     1   0.15375 251793.120000
  11929  11951     1   0.14316 258236.480000
  11930  11933     1   0.15375 251793.120000
  11930  11942     1   0.14233 265014.560000
  11933  11934     1   0.15375 251793.120000
  11933  11941     1   0.14233 265014.560000
  11934  11935     1   0.15375 251793.120000
  11934  11940     1   0.14233 265014.560000
  11935  11939     1   0.14316 258236.480000
  11935  11951     1   0.14316 258236.480000
  11943  11949     1   0.14233 265014.560000
  11952  11953     1   0.15375 251793.120000
  11952  11966     1   0.15375 251793.120000
  11952  11974     1   0.14316 258236.480000
  11953  11956     1   0.15375 251793.120000
  11953  11965     1   0.14233 265014.560000
  11956  11957     1   0.15375 251793.120000
  11956  11964     1   0.14233 265014.560000
  11957  11958     1   0.15375 251793.120000
  11957  11963     1   0.14233 265014.560000
  11958  11962     1   0.14316 258236.480000
  11958  11974     1   0.14316 258236.480000
  11966  11972     1   0.14233 265014.560000
  11975  11976     1   0.15375 251793.120000
  11975  11989     1   0.15375 251793.120000
  11975  11997     1   0.14316 258236.480000
  11976  11979     1   0.15375 251793.120000
  11976  11988     1   0.14233 265014.560000
  11979  11980     1   0.15375 251793.120000
  11979  11987     1   0.14233 265014.560000
  11980  11981     1   0.15375 251793.120000
  11980  11986     1   0.14233 265014.560000
  11981  11985     1   0.14316 258236.480000
  11981  11997     1   0.14316 258236.480000
  11989  11995     1   0.14233 265014.560000
  11998  11999     1   0.15375 251793.120000
  11998  12012     1   0.15375 251793.120000
  11998  12020     1   0.14316 258236.480000
  11999  12002     1   0.15375 251793.120000
  11999  12011     1   0.14233 265014.560000
  12002  12003     1   0.15375 251793.120000
  12002  12010     1   0.14233 265014.560000
  12003  12004     1   0.15375 251793.120000
  12003  12009     1   0.14233 265014.560000
  12004  12008     1   0.14316 258236.480000
  12004  12020     1   0.14316 258236.480000
  12012  12018     1   0.14233 265014.560000
  12021  12022     1   0.15375 251793.120000
  12021  12035     1   0.15375 251793.120000
  12021  12043     1   0.14316 258236.480000
  12022  12025     1   0.15375 251793.120000
  12022  12034     1   0.14233 265014.560000
  12025  12026     1   0.15375 251793.120000
  12025  12033     1   0.14233 265014.560000
  12026  12027     1   0.15375 251793.120000
  12026  12032     1   0.14233 265014.560000
  12027  12031     1   0.14316 258236.480000
  12027  12043     1   0.14316 258236.480000
  12035  12041     1   0.14233 265014.560000
  12044  12045     1   0.15375 251793.120000
  12044  12058     1   0.15375 251793.120000
  12044  12066     1   0.14316 258236.480000
  12045  12048     1   0.15375 251793.120000
  12045  12057     1   0.14233 265014.560000
  12048  12049     1   0.15375 251793.120000
  12048  12056     1   0.14233 265014.560000
  12049  12050     1   0.15375 251793.120000
  12049  12055     1   0.14233 265014.560000
  12050  12054     1   0.14316 258236.480000
  12050  12066     1   0.14316 258236.480000
  12058  12064     1   0.14233 265014.560000
  12067  12068     1   0.15375 251793.120000
  12067  12081     1   0.15375 251793.120000
  12067  12089     1   0.14316 258236.480000
  12068  12071     1   0.15375 251793.120000
  12068  12080     1   0.14233 265014.560000
  12071  12072     1   0.15375 251793.120000
  12071  12079     1   0.14233 265014.560000
  12072  12073     1   0.15375 251793.120000
  12072  12078     1   0.14233 265014.560000
  12073  12077     1   0.14316 258236.480000
  12073  12089     1   0.14316 258236.480000
  12081  12087     1   0.14233 265014.560000
  12090  12091     1   0.15375 251793.120000
  12090  12104     1   0.15375 251793.120000
  12090  12112     1   0.14316 258236.480000
  12091  12094     1   0.15375 251793.120000
  12091  12103     1   0.14233 265014.560000
  12094  12095     1   0.15375 251793.120000
  12094  12102     1   0.14233 265014.560000
  12095  12096     1   0.15375 251793.120000
  12095  12101     1   0.14233 265014.560000
  12096  12100     1   0.14316 258236.480000
  12096  12112     1   0.14316 258236.480000
  12104  12110     1   0.14233 265014.560000
  12113  12114     1   0.15375 251793.120000
  12113  12127     1   0.15375 251793.120000
  12113  12135     1   0.14316 258236.480000
  12114  12117     1   0.15375 251793.120000
  12114  12126     1   0.14233 265014.560000
  12117  12118     1   0.15375 251793.120000
  12117  12125     1   0.14233 265014.560000
  12118  12119     1   0.15375 251793.120000
  12118  12124     1   0.14233 265014.560000
  12119  12123     1   0.14316 258236.480000
  12119  12135     1   0.14316 258236.480000
  12127  12133     1   0.14233 265014.560000
  12136  12137     1   0.15375 251793.120000
  12136  12150     1   0.15375 251793.120000
  12136  12158     1   0.14316 258236.480000
  12137  12140     1   0.15375 251793.120000
  12137  12149     1   0.14233 265014.560000
  12140  12141     1   0.15375 251793.120000
  12140  12148     1   0.14233 265014.560000
  12141  12142     1   0.15375 251793.120000
  12141  12147     1   0.14233 265014.560000
  12142  12146     1   0.14316 258236.480000
  12142  12158     1   0.14316 258236.480000
  12150  12156     1   0.14233 265014.560000
  12159  12160     1   0.15375 251793.120000
  12159  12173     1   0.15375 251793.120000
  12159  12181     1   0.14316 258236.480000
  12160  12163     1   0.15375 251793.120000
  12160  12172     1   0.14233 265014.560000
  12163  12164     1   0.15375 251793.120000
  12163  12171     1   0.14233 265014.560000
  12164  12165     1   0.15375 251793.120000
  12164  12170     1   0.14233 265014.560000
  12165  12169     1   0.14316 258236.480000
  12165  12181     1   0.14316 258236.480000
  12173  12179     1   0.14233 265014.560000
  12182  12183     1   0.15375 251793.120000
  12182  12196     1   0.15375 251793.120000
  12182  12204     1   0.14316 258236.480000
  12183  12186     1   0.15375 251793.120000
  12183  12195     1   0.14233 265014.560000
  12186  12187     1   0.15375 251793.120000
  12186  12194     1   0.14233 265014.560000
  12187  12188     1   0.15375 251793.120000
  12187  12193     1   0.14233 265014.560000
  12188  12192     1   0.14316 258236.480000
  12188  12204     1   0.14316 258236.480000
  12196  12202     1   0.14233 265014.560000
  12205  12206     1   0.15375 251793.120000
  12205  12219     1   0.15375 251793.120000
  12205  12227     1   0.14316 258236.480000
  12206  12209     1   0.15375 251793.120000
  12206  12218     1   0.14233 265014.560000
  12209  12210     1   0.15375 251793.120000
  12209  12217     1   0.14233 265014.560000
  12210  12211     1   0.15375 251793.120000
  12210  12216     1   0.14233 265014.560000
  12211  12215     1   0.14316 258236.480000
  12211  12227     1   0.14316 258236.480000
  12219  12225     1   0.14233 265014.560000
  12228  12229     1   0.15375 251793.120000
  12228  12242     1   0.15375 251793.120000
  12228  12250     1   0.14316 258236.480000
  12229  12232     1   0.15375 251793.120000
  12229  12241     1   0.14233 265014.560000
  12232  12233     1   0.15375 251793.120000
  12232  12240     1   0.14233 265014.560000
  12233  12234     1   0.15375 251793.120000
  12233  12239     1   0.14233 265014.560000
  12234  12238     1   0.14316 258236.480000
  12234  12250     1   0.14316 258236.480000
  12242  12248     1   0.14233 265014.560000
  12251  12252     1   0.15375 251793.120000
  12251  12265     1   0.15375 251793.120000
  12251  12273     1   0.14316 258236.480000
  12252  12255     1   0.15375 251793.120000
  12252  12264     1   0.14233 265014.560000
  12255  12256     1   0.15375 251793.120000
  12255  12263     1   0.14233 265014.560000
  12256  12257     1   0.15375 251793.120000
  12256  12262     1   0.14233 265014.560000
  12257  12261     1   0.14316 258236.480000
  12257  12273     1   0.14316 258236.480000
  12265  12271     1   0.14233 265014.560000
  12274  12275     1   0.15375 251793.120000
  12274  12288     1   0.15375 251793.120000
  12274  12296     1   0.14316 258236.480000
  12275  12278     1   0.15375 251793.120000
  12275  12287     1   0.14233 265014.560000
  12278  12279     1   0.15375 251793.120000
  12278  12286     1   0.14233 265014.560000
  12279  12280     1   0.15375 251793.120000
  12279  12285     1   0.14233 265014.560000
  12280  12284     1   0.14316 258236.480000
  12280  12296     1   0.14316 258236.480000
  12288  12294     1   0.14233 265014.560000
  12297  12298     1   0.15375 251793.120000
  12297  12311     1   0.15375 251793.120000
  12297  12319     1   0.14316 258236.480000
  12298  12301     1   0.15375 251793.120000
  12298  12310     1   0.14233 265014.560000
  12301  12302     1   0.15375 251793.120000
  12301  12309     1   0.14233 265014.560000
  12302  12303     1   0.15375 251793.120000
  12302  12308     1   0.14233 265014.560000
  12303  12307     1   0.14316 258236.480000
  12303  12319     1   0.14316 258236.480000
  12311  12317     1   0.14233 265014.560000
  12320  12321     1   0.15375 251793.120000
  12320  12334     1   0.15375 251793.120000
  12320  12342     1   0.14316 258236.480000
  12321  12324     1   0.15375 251793.120000
  12321  12333     1   0.14233 265014.560000
  12324  12325     1   0.15375 251793.120000
  12324  12332     1   0.14233 265014.560000
  12325  12326     1   0.15375 251793.120000
  12325  12331     1   0.14233 265014.560000
  12326  12330     1   0.14316 258236.480000
  12326  12342     1   0.14316 258236.480000
  12334  12340     1   0.14233 265014.560000
  12343  12344     1   0.15375 251793.120000
  12343  12357     1   0.15375 251793.120000
  12343  12365     1   0.14316 258236.480000
  12344  12347     1   0.15375 251793.120000
  12344  12356     1   0.14233 265014.560000
  12347  12348     1   0.15375 251793.120000
  12347  12355     1   0.14233 265014.560000
  12348  12349     1   0.15375 251793.120000
  12348  12354     1   0.14233 265014.560000
  12349  12353     1   0.14316 258236.480000
  12349  12365     1   0.14316 258236.480000
  12357  12363     1   0.14233 265014.560000
  12366  12367     1   0.15375 251793.120000
  12366  12380     1   0.15375 251793.120000
  12366  12388     1   0.14316 258236.480000
  12367  12370     1   0.15375 251793.120000
  12367  12379     1   0.14233 265014.560000
  12370  12371     1   0.15375 251793.120000
  12370  12378     1   0.14233 265014.560000
  12371  12372     1   0.15375 251793.120000
  12371  12377     1   0.14233 265014.560000
  12372  12376     1   0.14316 258236.480000
  12372  12388     1   0.14316 258236.480000
  12380  12386     1   0.14233 265014.560000
  12389  12390     1   0.15375 251793.120000
  12389  12403     1   0.15375 251793.120000
  12389  12411     1   0.14316 258236.480000
  12390  12393     1   0.15375 251793.120000
  12390  12402     1   0.14233 265014.560000
  12393  12394     1   0.15375 251793.120000
  12393  12401     1   0.14233 265014.560000
  12394  12395     1   0.15375 251793.120000
  12394  12400     1   0.14233 265014.560000
  12395  12399     1   0.14316 258236.480000
  12395  12411     1   0.14316 258236.480000
  12403  12409     1   0.14233 265014.560000
  12412  12413     1   0.15375 251793.120000
  12412  12426     1   0.15375 251793.120000
  12412  12434     1   0.14316 258236.480000
  12413  12416     1   0.15375 251793.120000
  12413  12425     1   0.14233 265014.560000
  12416  12417     1   0.15375 251793.120000
  12416  12424     1   0.14233 265014.560000
  12417  12418     1   0.15375 251793.120000
  12417  12423     1   0.14233 265014.560000
  12418  12422     1   0.14316 258236.480000
  12418  12434     1   0.14316 258236.480000
  12426  12432     1   0.14233 265014.560000
  12435  12436     1   0.15375 251793.120000
  12435  12449     1   0.15375 251793.120000
  12435  12457     1   0.14316 258236.480000
  12436  12439     1   0.15375 251793.120000
  12436  12448     1   0.14233 265014.560000
  12439  12440     1   0.15375 251793.120000
  12439  12447     1   0.14233 265014.560000
  12440  12441     1   0.15375 251793.120000
  12440  12446     1   0.14233 265014.560000
  12441  12445     1   0.14316 258236.480000
  12441  12457     1   0.14316 258236.480000
  12449  12455     1   0.14233 265014.560000
  12458  12459     1   0.15375 251793.120000
  12458  12472     1   0.15375 251793.120000
  12458  12480     1   0.14316 258236.480000
  12459  12462     1   0.15375 251793.120000
  12459  12471     1   0.14233 265014.560000
  12462  12463     1   0.15375 251793.120000
  12462  12470     1   0.14233 265014.560000
  12463  12464     1   0.15375 251793.120000
  12463  12469     1   0.14233 265014.560000
  12464  12468     1   0.14316 258236.480000
  12464  12480     1   0.14316 258236.480000
  12472  12478     1   0.14233 265014.560000
  12481  12482     1   0.15375 251793.120000
  12481  12495     1   0.15375 251793.120000
  12481  12503     1   0.14316 258236.480000
  12482  12485     1   0.15375 251793.120000
  12482  12494     1   0.14233 265014.560000
  12485  12486     1   0.15375 251793.120000
  12485  12493     1   0.14233 265014.560000
  12486  12487     1   0.15375 251793.120000
  12486  12492     1   0.14233 265014.560000
  12487  12491     1   0.14316 258236.480000
  12487  12503     1   0.14316 258236.480000
  12495  12501     1   0.14233 265014.560000
  12504  12505     1   0.15375 251793.120000
  12504  12518     1   0.15375 251793.120000
  12504  12526     1   0.14316 258236.480000
  12505  12508     1   0.15375 251793.120000
  12505  12517     1   0.14233 265014.560000
  12508  12509     1   0.15375 251793.120000
  12508  12516     1   0.14233 265014.560000
  12509  12510     1   0.15375 251793.120000
  12509  12515     1   0.14233 265014.560000
  12510  12514     1   0.14316 258236.480000
  12510  12526     1   0.14316 258236.480000
  12518  12524     1   0.14233 265014.560000
  12527  12528     1   0.15375 251793.120000
  12527  12541     1   0.15375 251793.120000
  12527  12549     1   0.14316 258236.480000
  12528  12531     1   0.15375 251793.120000
  12528  12540     1   0.14233 265014.560000
  12531  12532     1   0.15375 251793.120000
  12531  12539     1   0.14233 265014.560000
  12532  12533     1   0.15375 251793.120000
  12532  12538     1   0.14233 265014.560000
  12533  12537     1   0.14316 258236.480000
  12533  12549     1   0.14316 258236.480000
  12541  12547     1   0.14233 265014.560000
  12550  12551     1   0.15375 251793.120000
  12550  12564     1   0.15375 251793.120000
  12550  12572     1   0.14316 258236.480000
  12551  12554     1   0.15375 251793.120000
  12551  12563     1   0.14233 265014.560000
  12554  12555     1   0.15375 251793.120000
  12554  12562     1   0.14233 265014.560000
  12555  12556     1   0.15375 251793.120000
  12555  12561     1   0.14233 265014.560000
  12556  12560     1   0.14316 258236.480000
  12556  12572     1   0.14316 258236.480000
  12564  12570     1   0.14233 265014.560000
  12573  12574     1   0.15375 251793.120000
  12573  12587     1   0.15375 251793.120000
  12573  12595     1   0.14316 258236.480000
  12574  12577     1   0.15375 251793.120000
  12574  12586     1   0.14233 265014.560000
  12577  12578     1   0.15375 251793.120000
  12577  12585     1   0.14233 265014.560000
  12578  12579     1   0.15375 251793.120000
  12578  12584     1   0.14233 265014.560000
  12579  12583     1   0.14316 258236.480000
  12579  12595     1   0.14316 258236.480000
  12587  12593     1   0.14233 265014.560000
  12596  12597     1   0.15375 251793.120000
  12596  12610     1   0.15375 251793.120000
  12596  12618     1   0.14316 258236.480000
  12597  12600     1   0.15375 251793.120000
  12597  12609     1   0.14233 265014.560000
  12600  12601     1   0.15375 251793.120000
  12600  12608     1   0.14233 265014.560000
  12601  12602     1   0.15375 251793.120000
  12601  12607     1   0.14233 265014.560000
  12602  12606     1   0.14316 258236.480000
  12602  12618     1   0.14316 258236.480000
  12610  12616     1   0.14233 265014.560000
  12619  12620     1   0.15375 251793.120000
  12619  12633     1   0.15375 251793.120000
  12619  12641     1   0.14316 258236.480000
  12620  12623     1   0.15375 251793.120000
  12620  12632     1   0.14233 265014.560000
  12623  12624     1   0.15375 251793.120000
  12623  12631     1   0.14233 265014.560000
  12624  12625     1   0.15375 251793.120000
  12624  12630     1   0.14233 265014.560000
  12625  12629     1   0.14316 258236.480000
  12625  12641     1   0.14316 258236.480000
  12633  12639     1   0.14233 265014.560000
  12642  12643     1   0.15375 251793.120000
  12642  12656     1   0.15375 251793.120000
  12642  12664     1   0.14316 258236.480000
  12643  12646     1   0.15375 251793.120000
  12643  12655     1   0.14233 265014.560000
  12646  12647     1   0.15375 251793.120000
  12646  12654     1   0.14233 265014.560000
  12647  12648     1   0.15375 251793.120000
  12647  12653     1   0.14233 265014.560000
  12648  12652     1   0.14316 258236.480000
  12648  12664     1   0.14316 258236.480000
  12656  12662     1   0.14233 265014.560000
  12665  12666     1   0.15375 251793.120000
  12665  12679     1   0.15375 251793.120000
  12665  12687     1   0.14316 258236.480000
  12666  12669     1   0.15375 251793.120000
  12666  12678     1   0.14233 265014.560000
  12669  12670     1   0.15375 251793.120000
  12669  12677     1   0.14233 265014.560000
  12670  12671     1   0.15375 251793.120000
  12670  12676     1   0.14233 265014.560000
  12671  12675     1   0.14316 258236.480000
  12671  12687     1   0.14316 258236.480000
  12679  12685     1   0.14233 265014.560000
  12688  12689     1   0.15375 251793.120000
  12688  12702     1   0.15375 251793.120000
  12688  12710     1   0.14316 258236.480000
  12689  12692     1   0.15375 251793.120000
  12689  12701     1   0.14233 265014.560000
  12692  12693     1   0.15375 251793.120000
  12692  12700     1   0.14233 265014.560000
  12693  12694     1   0.15375 251793.120000
  12693  12699     1   0.14233 265014.560000
  12694  12698     1   0.14316 258236.480000
  12694  12710     1   0.14316 258236.480000
  12702  12708     1   0.14233 265014.560000
  12711  12712     1   0.15375 251793.120000
  12711  12725     1   0.15375 251793.120000
  12711  12733     1   0.14316 258236.480000
  12712  12715     1   0.15375 251793.120000
  12712  12724     1   0.14233 265014.560000
  12715  12716     1   0.15375 251793.120000
  12715  12723     1   0.14233 265014.560000
  12716  12717     1   0.15375 251793.120000
  12716  12722     1   0.14233 265014.560000
  12717  12721     1   0.14316 258236.480000
  12717  12733     1   0.14316 258236.480000
  12725  12731     1   0.14233 265014.560000
  12734  12735     1   0.15375 251793.120000
  12734  12748     1   0.15375 251793.120000
  12734  12756     1   0.14316 258236.480000
  12735  12738     1   0.15375 251793.120000
  12735  12747     1   0.14233 265014.560000
  12738  12739     1   0.15375 251793.120000
  12738  12746     1   0.14233 265014.560000
  12739  12740     1   0.15375 251793.120000
  12739  12745     1   0.14233 265014.560000
  12740  12744     1   0.14316 258236.480000
  12740  12756     1   0.14316 258236.480000
  12748  12754     1   0.14233 265014.560000
  12757  12758     1   0.15375 251793.120000
  12757  12771     1   0.15375 251793.120000
  12757  12779     1   0.14316 258236.480000
  12758  12761     1   0.15375 251793.120000
  12758  12770     1   0.14233 265014.560000
  12761  12762     1   0.15375 251793.120000
  12761  12769     1   0.14233 265014.560000
  12762  12763     1   0.15375 251793.120000
  12762  12768     1   0.14233 265014.560000
  12763  12767     1   0.14316 258236.480000
  12763  12779     1   0.14316 258236.480000
  12771  12777     1   0.14233 265014.560000
  12780  12781     1   0.15375 251793.120000
  12780  12794     1   0.15375 251793.120000
  12780  12802     1   0.14316 258236.480000
  12781  12784     1   0.15375 251793.120000
  12781  12793     1   0.14233 265014.560000
  12784  12785     1   0.15375 251793.120000
  12784  12792     1   0.14233 265014.560000
  12785  12786     1   0.15375 251793.120000
  12785  12791     1   0.14233 265014.560000
  12786  12790     1   0.14316 258236.480000
  12786  12802     1   0.14316 258236.480000
  12794  12800     1   0.14233 265014.560000
  12803  12804     1   0.15375 251793.120000
  12803  12817     1   0.15375 251793.120000
  12803  12825     1   0.14316 258236.480000
  12804  12807     1   0.15375 251793.120000
  12804  12816     1   0.14233 265014.560000
  12807  12808     1   0.15375 251793.120000
  12807  12815     1   0.14233 265014.560000
  12808  12809     1   0.15375 251793.120000
  12808  12814     1   0.14233 265014.560000
  12809  12813     1   0.14316 258236.480000
  12809  12825     1   0.14316 258236.480000
  12817  12823     1   0.14233 265014.560000
  12826  12827     1   0.15375 251793.120000
  12826  12840     1   0.15375 251793.120000
  12826  12848     1   0.14316 258236.480000
  12827  12830     1   0.15375 251793.120000
  12827  12839     1   0.14233 265014.560000
  12830  12831     1   0.15375 251793.120000
  12830  12838     1   0.14233 265014.560000
  12831  12832     1   0.15375 251793.120000
  12831  12837     1   0.14233 265014.560000
  12832  12836     1   0.14316 258236.480000
  12832  12848     1   0.14316 258236.480000
  12840  12846     1   0.14233 265014.560000
  12849  12850     1   0.15375 251793.120000
  12849  12863     1   0.15375 251793.120000
  12849  12871     1   0.14316 258236.480000
  12850  12853     1   0.15375 251793.120000
  12850  12862     1   0.14233 265014.560000
  12853  12854     1   0.15375 251793.120000
  12853  12861     1   0.14233 265014.560000
  12854  12855     1   0.15375 251793.120000
  12854  12860     1   0.14233 265014.560000
  12855  12859     1   0.14316 258236.480000
  12855  12871     1   0.14316 258236.480000
  12863  12869     1   0.14233 265014.560000
  12872  12873     1   0.15375 251793.120000
  12872  12886     1   0.15375 251793.120000
  12872  12894     1   0.14316 258236.480000
  12873  12876     1   0.15375 251793.120000
  12873  12885     1   0.14233 265014.560000
  12876  12877     1   0.15375 251793.120000
  12876  12884     1   0.14233 265014.560000
  12877  12878     1   0.15375 251793.120000
  12877  12883     1   0.14233 265014.560000
  12878  12882     1   0.14316 258236.480000
  12878  12894     1   0.14316 258236.480000
  12886  12892     1   0.14233 265014.560000
  12895  12896     1   0.15375 251793.120000
  12895  12909     1   0.15375 251793.120000
  12895  12917     1   0.14316 258236.480000
  12896  12899     1   0.15375 251793.120000
  12896  12908     1   0.14233 265014.560000
  12899  12900     1   0.15375 251793.120000
  12899  12907     1   0.14233 265014.560000
  12900  12901     1   0.15375 251793.120000
  12900  12906     1   0.14233 265014.560000
  12901  12905     1   0.14316 258236.480000
  12901  12917     1   0.14316 258236.480000
  12909  12915     1   0.14233 265014.560000
  12918  12919     1   0.15375 251793.120000
  12918  12932     1   0.15375 251793.120000
  12918  12940     1   0.14316 258236.480000
  12919  12922     1   0.15375 251793.120000
  12919  12931     1   0.14233 265014.560000
  12922  12923     1   0.15375 251793.120000
  12922  12930     1   0.14233 265014.560000
  12923  12924     1   0.15375 251793.120000
  12923  12929     1   0.14233 265014.560000
  12924  12928     1   0.14316 258236.480000
  12924  12940     1   0.14316 258236.480000
  12932  12938     1   0.14233 265014.560000
  12941  12942     1   0.15375 251793.120000
  12941  12955     1   0.15375 251793.120000
  12941  12963     1   0.14316 258236.480000
  12942  12945     1   0.15375 251793.120000
  12942  12954     1   0.14233 265014.560000
  12945  12946     1   0.15375 251793.120000
  12945  12953     1   0.14233 265014.560000
  12946  12947     1   0.15375 251793.120000
  12946  12952     1   0.14233 265014.560000
  12947  12951     1   0.14316 258236.480000
  12947  12963     1   0.14316 258236.480000
  12955  12961     1   0.14233 265014.560000
  12964  12965     1   0.15375 251793.120000
  12964  12978     1   0.15375 251793.120000
  12964  12986     1   0.14316 258236.480000
  12965  12968     1   0.15375 251793.120000
  12965  12977     1   0.14233 265014.560000
  12968  12969     1   0.15375 251793.120000
  12968  12976     1   0.14233 265014.560000
  12969  12970     1   0.15375 251793.120000
  12969  12975     1   0.14233 265014.560000
  12970  12974     1   0.14316 258236.480000
  12970  12986     1   0.14316 258236.480000
  12978  12984     1   0.14233 265014.560000
  12987  12988     1   0.15375 251793.120000
  12987  13001     1   0.15375 251793.120000
  12987  13009     1   0.14316 258236.480000
  12988  12991     1   0.15375 251793.120000
  12988  13000     1   0.14233 265014.560000
  12991  12992     1   0.15375 251793.120000
  12991  12999     1   0.14233 265014.560000
  12992  12993     1   0.15375 251793.120000
  12992  12998     1   0.14233 265014.560000
  12993  12997     1   0.14316 258236.480000
  12993  13009     1   0.14316 258236.480000
  13001  13007     1   0.14233 265014.560000
  13010  13011     1   0.15375 251793.120000
  13010  13024     1   0.15375 251793.120000
  13010  13032     1   0.14316 258236.480000
  13011  13014     1   0.15375 251793.120000
  13011  13023     1   0.14233 265014.560000
  13014  13015     1   0.15375 251793.120000
  13014  13022     1   0.14233 265014.560000
  13015  13016     1   0.15375 251793.120000
  13015  13021     1   0.14233 265014.560000
  13016  13020     1   0.14316 258236.480000
  13016  13032     1   0.14316 258236.480000
  13024  13030     1   0.14233 265014.560000
  13033  13034     1   0.15375 251793.120000
  13033  13047     1   0.15375 251793.120000
  13033  13055     1   0.14316 258236.480000
  13034  13037     1   0.15375 251793.120000
  13034  13046     1   0.14233 265014.560000
  13037  13038     1   0.15375 251793.120000
  13037  13045     1   0.14233 265014.560000
  13038  13039     1   0.15375 251793.120000
  13038  13044     1   0.14233 265014.560000
  13039  13043     1   0.14316 258236.480000
  13039  13055     1   0.14316 258236.480000
  13047  13053     1   0.14233 265014.560000
  13056  13057     1   0.15375 251793.120000
  13056  13070     1   0.15375 251793.120000
  13056  13078     1   0.14316 258236.480000
  13057  13060     1   0.15375 251793.120000
  13057  13069     1   0.14233 265014.560000
  13060  13061     1   0.15375 251793.120000
  13060  13068     1   0.14233 265014.560000
  13061  13062     1   0.15375 251793.120000
  13061  13067     1   0.14233 265014.560000
  13062  13066     1   0.14316 258236.480000
  13062  13078     1   0.14316 258236.480000
  13070  13076     1   0.14233 265014.560000
  13079  13080     1   0.15375 251793.120000
  13079  13093     1   0.15375 251793.120000
  13079  13101     1   0.14316 258236.480000
  13080  13083     1   0.15375 251793.120000
  13080  13092     1   0.14233 265014.560000
  13083  13084     1   0.15375 251793.120000
  13083  13091     1   0.14233 265014.560000
  13084  13085     1   0.15375 251793.120000
  13084  13090     1   0.14233 265014.560000
  13085  13089     1   0.14316 258236.480000
  13085  13101     1   0.14316 258236.480000
  13093  13099     1   0.14233 265014.560000
  13102  13103     1   0.15375 251793.120000
  13102  13116     1   0.15375 251793.120000
  13102  13124     1   0.14316 258236.480000
  13103  13106     1   0.15375 251793.120000
  13103  13115     1   0.14233 265014.560000
  13106  13107     1   0.15375 251793.120000
  13106  13114     1   0.14233 265014.560000
  13107  13108     1   0.15375 251793.120000
  13107  13113     1   0.14233 265014.560000
  13108  13112     1   0.14316 258236.480000
  13108  13124     1   0.14316 258236.480000
  13116  13122     1   0.14233 265014.560000
  13125  13126     1   0.15375 251793.120000
  13125  13139     1   0.15375 251793.120000
  13125  13147     1   0.14316 258236.480000
  13126  13129     1   0.15375 251793.120000
  13126  13138     1   0.14233 265014.560000
  13129  13130     1   0.15375 251793.120000
  13129  13137     1   0.14233 265014.560000
  13130  13131     1   0.15375 251793.120000
  13130  13136     1   0.14233 265014.560000
  13131  13135     1   0.14316 258236.480000
  13131  13147     1   0.14316 258236.480000
  13139  13145     1   0.14233 265014.560000
  13148  13149     1   0.15375 251793.120000
  13148  13162     1   0.15375 251793.120000
  13148  13170     1   0.14316 258236.480000
  13149  13152     1   0.15375 251793.120000
  13149  13161     1   0.14233 265014.560000
  13152  13153     1   0.15375 251793.120000
  13152  13160     1   0.14233 265014.560000
  13153  13154     1   0.15375 251793.120000
  13153  13159     1   0.14233 265014.560000
  13154  13158     1   0.14316 258236.480000
  13154  13170     1   0.14316 258236.480000
  13162  13168     1   0.14233 265014.560000
  13171  13172     1   0.15375 251793.120000
  13171  13185     1   0.15375 251793.120000
  13171  13193     1   0.14316 258236.480000
  13172  13175     1   0.15375 251793.120000
  13172  13184     1   0.14233 265014.560000
  13175  13176     1   0.15375 251793.120000
  13175  13183     1   0.14233 265014.560000
  13176  13177     1   0.15375 251793.120000
  13176  13182     1   0.14233 265014.560000
  13177  13181     1   0.14316 258236.480000
  13177  13193     1   0.14316 258236.480000
  13185  13191     1   0.14233 265014.560000
  13194  13195     1   0.15375 251793.120000
  13194  13208     1   0.15375 251793.120000
  13194  13216     1   0.14316 258236.480000
  13195  13198     1   0.15375 251793.120000
  13195  13207     1   0.14233 265014.560000
  13198  13199     1   0.15375 251793.120000
  13198  13206     1   0.14233 265014.560000
  13199  13200     1   0.15375 251793.120000
  13199  13205     1   0.14233 265014.560000
  13200  13204     1   0.14316 258236.480000
  13200  13216     1   0.14316 258236.480000
  13208  13214     1   0.14233 265014.560000
  13217  13218     1   0.15375 251793.120000
  13217  13231     1   0.15375 251793.120000
  13217  13239     1   0.14316 258236.480000
  13218  13221     1   0.15375 251793.120000
  13218  13230     1   0.14233 265014.560000
  13221  13222     1   0.15375 251793.120000
  13221  13229     1   0.14233 265014.560000
  13222  13223     1   0.15375 251793.120000
  13222  13228     1   0.14233 265014.560000
  13223  13227     1   0.14316 258236.480000
  13223  13239     1   0.14316 258236.480000
  13231  13237     1   0.14233 265014.560000
  13240  13241     1   0.15375 251793.120000
  13240  13254     1   0.15375 251793.120000
  13240  13262     1   0.14316 258236.480000
  13241  13244     1   0.15375 251793.120000
  13241  13253     1   0.14233 265014.560000
  13244  13245     1   0.15375 251793.120000
  13244  13252     1   0.14233 265014.560000
  13245  13246     1   0.15375 251793.120000
  13245  13251     1   0.14233 265014.560000
  13246  13250     1   0.14316 258236.480000
  13246  13262     1   0.14316 258236.480000
  13254  13260     1   0.14233 265014.560000
  13263  13264     1   0.15375 251793.120000
  13263  13277     1   0.15375 251793.120000
  13263  13285     1   0.14316 258236.480000
  13264  13267     1   0.15375 251793.120000
  13264  13276     1   0.14233 265014.560000
  13267  13268     1   0.15375 251793.120000
  13267  13275     1   0.14233 265014.560000
  13268  13269     1   0.15375 251793.120000
  13268  13274     1   0.14233 265014.560000
  13269  13273     1   0.14316 258236.480000
  13269  13285     1   0.14316 258236.480000
  13277  13283     1   0.14233 265014.560000
  13286  13287     1   0.15375 251793.120000
  13286  13300     1   0.15375 251793.120000
  13286  13308     1   0.14316 258236.480000
  13287  13290     1   0.15375 251793.120000
  13287  13299     1   0.14233 265014.560000
  13290  13291     1   0.15375 251793.120000
  13290  13298     1   0.14233 265014.560000
  13291  13292     1   0.15375 251793.120000
  13291  13297     1   0.14233 265014.560000
  13292  13296     1   0.14316 258236.480000
  13292  13308     1   0.14316 258236.480000
  13300  13306     1   0.14233 265014.560000
  13309  13310     1   0.15375 251793.120000
  13309  13323     1   0.15375 251793.120000
  13309  13331     1   0.14316 258236.480000
  13310  13313     1   0.15375 251793.120000
  13310  13322     1   0.14233 265014.560000
  13313  13314     1   0.15375 251793.120000
  13313  13321     1   0.14233 265014.560000
  13314  13315     1   0.15375 251793.120000
  13314  13320     1   0.14233 265014.560000
  13315  13319     1   0.14316 258236.480000
  13315  13331     1   0.14316 258236.480000
  13323  13329     1   0.14233 265014.560000
  13332  13333     1   0.15375 251793.120000
  13332  13346     1   0.15375 251793.120000
  13332  13354     1   0.14316 258236.480000
  13333  13336     1   0.15375 251793.120000
  13333  13345     1   0.14233 265014.560000
  13336  13337     1   0.15375 251793.120000
  13336  13344     1   0.14233 265014.560000
  13337  13338     1   0.15375 251793.120000
  13337  13343     1   0.14233 265014.560000
  13338  13342     1   0.14316 258236.480000
  13338  13354     1   0.14316 258236.480000
  13346  13352     1   0.14233 265014.560000
  13355  13356     1   0.15375 251793.120000
  13355  13369     1   0.15375 251793.120000
  13355  13377     1   0.14316 258236.480000
  13356  13359     1   0.15375 251793.120000
  13356  13368     1   0.14233 265014.560000
  13359  13360     1   0.15375 251793.120000
  13359  13367     1   0.14233 265014.560000
  13360  13361     1   0.15375 251793.120000
  13360  13366     1   0.14233 265014.560000
  13361  13365     1   0.14316 258236.480000
  13361  13377     1   0.14316 258236.480000
  13369  13375     1   0.14233 265014.560000
  13378  13379     1   0.15375 251793.120000
  13378  13392     1   0.15375 251793.120000
  13378  13400     1   0.14316 258236.480000
  13379  13382     1   0.15375 251793.120000
  13379  13391     1   0.14233 265014.560000
  13382  13383     1   0.15375 251793.120000
  13382  13390     1   0.14233 265014.560000
  13383  13384     1   0.15375 251793.120000
  13383  13389     1   0.14233 265014.560000
  13384  13388     1   0.14316 258236.480000
  13384  13400     1   0.14316 258236.480000
  13392  13398     1   0.14233 265014.560000
  13401  13402     1   0.15375 251793.120000
  13401  13415     1   0.15375 251793.120000
  13401  13423     1   0.14316 258236.480000
  13402  13405     1   0.15375 251793.120000
  13402  13414     1   0.14233 265014.560000
  13405  13406     1   0.15375 251793.120000
  13405  13413     1   0.14233 265014.560000
  13406  13407     1   0.15375 251793.120000
  13406  13412     1   0.14233 265014.560000
  13407  13411     1   0.14316 258236.480000
  13407  13423     1   0.14316 258236.480000
  13415  13421     1   0.14233 265014.560000
  13424  13425     1   0.15375 251793.120000
  13424  13438     1   0.15375 251793.120000
  13424  13446     1   0.14316 258236.480000
  13425  13428     1   0.15375 251793.120000
  13425  13437     1   0.14233 265014.560000
  13428  13429     1   0.15375 251793.120000
  13428  13436     1   0.14233 265014.560000
  13429  13430     1   0.15375 251793.120000
  13429  13435     1   0.14233 265014.560000
  13430  13434     1   0.14316 258236.480000
  13430  13446     1   0.14316 258236.480000
  13438  13444     1   0.14233 265014.560000
  13447  13448     1   0.15375 251793.120000
  13447  13461     1   0.15375 251793.120000
  13447  13469     1   0.14316 258236.480000
  13448  13451     1   0.15375 251793.120000
  13448  13460     1   0.14233 265014.560000
  13451  13452     1   0.15375 251793.120000
  13451  13459     1   0.14233 265014.560000
  13452  13453     1   0.15375 251793.120000
  13452  13458     1   0.14233 265014.560000
  13453  13457     1   0.14316 258236.480000
  13453  13469     1   0.14316 258236.480000
  13461  13467     1   0.14233 265014.560000
  13470  13471     1   0.15375 251793.120000
  13470  13484     1   0.15375 251793.120000
  13470  13492     1   0.14316 258236.480000
  13471  13474     1   0.15375 251793.120000
  13471  13483     1   0.14233 265014.560000
  13474  13475     1   0.15375 251793.120000
  13474  13482     1   0.14233 265014.560000
  13475  13476     1   0.15375 251793.120000
  13475  13481     1   0.14233 265014.560000
  13476  13480     1   0.14316 258236.480000
  13476  13492     1   0.14316 258236.480000
  13484  13490     1   0.14233 265014.560000
  13493  13494     1   0.15375 251793.120000
  13493  13507     1   0.15375 251793.120000
  13493  13515     1   0.14316 258236.480000
  13494  13497     1   0.15375 251793.120000
  13494  13506     1   0.14233 265014.560000
  13497  13498     1   0.15375 251793.120000
  13497  13505     1   0.14233 265014.560000
  13498  13499     1   0.15375 251793.120000
  13498  13504     1   0.14233 265014.560000
  13499  13503     1   0.14316 258236.480000
  13499  13515     1   0.14316 258236.480000
  13507  13513     1   0.14233 265014.560000
  13516  13517     1   0.15375 251793.120000
  13516  13530     1   0.15375 251793.120000
  13516  13538     1   0.14316 258236.480000
  13517  13520     1   0.15375 251793.120000
  13517  13529     1   0.14233 265014.560000
  13520  13521     1   0.15375 251793.120000
  13520  13528     1   0.14233 265014.560000
  13521  13522     1   0.15375 251793.120000
  13521  13527     1   0.14233 265014.560000
  13522  13526     1   0.14316 258236.480000
  13522  13538     1   0.14316 258236.480000
  13530  13536     1   0.14233 265014.560000
  13539  13540     1   0.15375 251793.120000
  13539  13553     1   0.15375 251793.120000
  13539  13561     1   0.14316 258236.480000
  13540  13543     1   0.15375 251793.120000
  13540  13552     1   0.14233 265014.560000
  13543  13544     1   0.15375 251793.120000
  13543  13551     1   0.14233 265014.560000
  13544  13545     1   0.15375 251793.120000
  13544  13550     1   0.14233 265014.560000
  13545  13549     1   0.14316 258236.480000
  13545  13561     1   0.14316 258236.480000
  13553  13559     1   0.14233 265014.560000
  13562  13563     1   0.15375 251793.120000
  13562  13576     1   0.15375 251793.120000
  13562  13584     1   0.14316 258236.480000
  13563  13566     1   0.15375 251793.120000
  13563  13575     1   0.14233 265014.560000
  13566  13567     1   0.15375 251793.120000
  13566  13574     1   0.14233 265014.560000
  13567  13568     1   0.15375 251793.120000
  13567  13573     1   0.14233 265014.560000
  13568  13572     1   0.14316 258236.480000
  13568  13584     1   0.14316 258236.480000
  13576  13582     1   0.14233 265014.560000
  13585  13586     1   0.15375 251793.120000
  13585  13599     1   0.15375 251793.120000
  13585  13607     1   0.14316 258236.480000
  13586  13589     1   0.15375 251793.120000
  13586  13598     1   0.14233 265014.560000
  13589  13590     1   0.15375 251793.120000
  13589  13597     1   0.14233 265014.560000
  13590  13591     1   0.15375 251793.120000
  13590  13596     1   0.14233 265014.560000
  13591  13595     1   0.14316 258236.480000
  13591  13607     1   0.14316 258236.480000
  13599  13605     1   0.14233 265014.560000
  13608  13609     1   0.15375 251793.120000
  13608  13622     1   0.15375 251793.120000
  13608  13630     1   0.14316 258236.480000
  13609  13612     1   0.15375 251793.120000
  13609  13621     1   0.14233 265014.560000
  13612  13613     1   0.15375 251793.120000
  13612  13620     1   0.14233 265014.560000
  13613  13614     1   0.15375 251793.120000
  13613  13619     1   0.14233 265014.560000
  13614  13618     1   0.14316 258236.480000
  13614  13630     1   0.14316 258236.480000
  13622  13628     1   0.14233 265014.560000
  13631  13632     1   0.15375 251793.120000
  13631  13645     1   0.15375 251793.120000
  13631  13653     1   0.14316 258236.480000
  13632  13635     1   0.15375 251793.120000
  13632  13644     1   0.14233 265014.560000
  13635  13636     1   0.15375 251793.120000
  13635  13643     1   0.14233 265014.560000
  13636  13637     1   0.15375 251793.120000
  13636  13642     1   0.14233 265014.560000
  13637  13641     1   0.14316 258236.480000
  13637  13653     1   0.14316 258236.480000
  13645  13651     1   0.14233 265014.560000
  13654  13655     1   0.15375 251793.120000
  13654  13668     1   0.15375 251793.120000
  13654  13676     1   0.14316 258236.480000
  13655  13658     1   0.15375 251793.120000
  13655  13667     1   0.14233 265014.560000
  13658  13659     1   0.15375 251793.120000
  13658  13666     1   0.14233 265014.560000
  13659  13660     1   0.15375 251793.120000
  13659  13665     1   0.14233 265014.560000
  13660  13664     1   0.14316 258236.480000
  13660  13676     1   0.14316 258236.480000
  13668  13674     1   0.14233 265014.560000
  13677  13678     1   0.15375 251793.120000
  13677  13691     1   0.15375 251793.120000
  13677  13699     1   0.14316 258236.480000
  13678  13681     1   0.15375 251793.120000
  13678  13690     1   0.14233 265014.560000
  13681  13682     1   0.15375 251793.120000
  13681  13689     1   0.14233 265014.560000
  13682  13683     1   0.15375 251793.120000
  13682  13688     1   0.14233 265014.560000
  13683  13687     1   0.14316 258236.480000
  13683  13699     1   0.14316 258236.480000
  13691  13697     1   0.14233 265014.560000
  13700  13701     1   0.15375 251793.120000
  13700  13714     1   0.15375 251793.120000
  13700  13722     1   0.14316 258236.480000
  13701  13704     1   0.15375 251793.120000
  13701  13713     1   0.14233 265014.560000
  13704  13705     1   0.15375 251793.120000
  13704  13712     1   0.14233 265014.560000
  13705  13706     1   0.15375 251793.120000
  13705  13711     1   0.14233 265014.560000
  13706  13710     1   0.14316 258236.480000
  13706  13722     1   0.14316 258236.480000
  13714  13720     1   0.14233 265014.560000
  13723  13724     1   0.15375 251793.120000
  13723  13737     1   0.15375 251793.120000
  13723  13745     1   0.14316 258236.480000
  13724  13727     1   0.15375 251793.120000
  13724  13736     1   0.14233 265014.560000
  13727  13728     1   0.15375 251793.120000
  13727  13735     1   0.14233 265014.560000
  13728  13729     1   0.15375 251793.120000
  13728  13734     1   0.14233 265014.560000
  13729  13733     1   0.14316 258236.480000
  13729  13745     1   0.14316 258236.480000
  13737  13743     1   0.14233 265014.560000
  13746  13747     1   0.15375 251793.120000
  13746  13760     1   0.15375 251793.120000
  13746  13768     1   0.14316 258236.480000
  13747  13750     1   0.15375 251793.120000
  13747  13759     1   0.14233 265014.560000
  13750  13751     1   0.15375 251793.120000
  13750  13758     1   0.14233 265014.560000
  13751  13752     1   0.15375 251793.120000
  13751  13757     1   0.14233 265014.560000
  13752  13756     1   0.14316 258236.480000
  13752  13768     1   0.14316 258236.480000
  13760  13766     1   0.14233 265014.560000
  13769  13770     1   0.15375 251793.120000
  13769  13783     1   0.15375 251793.120000
  13769  13791     1   0.14316 258236.480000
  13770  13773     1   0.15375 251793.120000
  13770  13782     1   0.14233 265014.560000
  13773  13774     1   0.15375 251793.120000
  13773  13781     1   0.14233 265014.560000
  13774  13775     1   0.15375 251793.120000
  13774  13780     1   0.14233 265014.560000
  13775  13779     1   0.14316 258236.480000
  13775  13791     1   0.14316 258236.480000
  13783  13789     1   0.14233 265014.560000
  13792  13793     1   0.15375 251793.120000
  13792  13806     1   0.15375 251793.120000
  13792  13814     1   0.14316 258236.480000
  13793  13796     1   0.15375 251793.120000
  13793  13805     1   0.14233 265014.560000
  13796  13797     1   0.15375 251793.120000
  13796  13804     1   0.14233 265014.560000
  13797  13798     1   0.15375 251793.120000
  13797  13803     1   0.14233 265014.560000
  13798  13802     1   0.14316 258236.480000
  13798  13814     1   0.14316 258236.480000
  13806  13812     1   0.14233 265014.560000
  13815  13816     1   0.15375 251793.120000
  13815  13829     1   0.15375 251793.120000
  13815  13837     1   0.14316 258236.480000
  13816  13819     1   0.15375 251793.120000
  13816  13828     1   0.14233 265014.560000
  13819  13820     1   0.15375 251793.120000
  13819  13827     1   0.14233 265014.560000
  13820  13821     1   0.15375 251793.120000
  13820  13826     1   0.14233 265014.560000
  13821  13825     1   0.14316 258236.480000
  13821  13837     1   0.14316 258236.480000
  13829  13835     1   0.14233 265014.560000
  13838  13839     1   0.15375 251793.120000
  13838  13852     1   0.15375 251793.120000
  13838  13860     1   0.14316 258236.480000
  13839  13842     1   0.15375 251793.120000
  13839  13851     1   0.14233 265014.560000
  13842  13843     1   0.15375 251793.120000
  13842  13850     1   0.14233 265014.560000
  13843  13844     1   0.15375 251793.120000
  13843  13849     1   0.14233 265014.560000
  13844  13848     1   0.14316 258236.480000
  13844  13860     1   0.14316 258236.480000
  13852  13858     1   0.14233 265014.560000
  13861  13862     1   0.15375 251793.120000
  13861  13875     1   0.15375 251793.120000
  13861  13883     1   0.14316 258236.480000
  13862  13865     1   0.15375 251793.120000
  13862  13874     1   0.14233 265014.560000
  13865  13866     1   0.15375 251793.120000
  13865  13873     1   0.14233 265014.560000
  13866  13867     1   0.15375 251793.120000
  13866  13872     1   0.14233 265014.560000
  13867  13871     1   0.14316 258236.480000
  13867  13883     1   0.14316 258236.480000
  13875  13881     1   0.14233 265014.560000
  13884  13885     1   0.15375 251793.120000
  13884  13898     1   0.15375 251793.120000
  13884  13906     1   0.14316 258236.480000
  13885  13888     1   0.15375 251793.120000
  13885  13897     1   0.14233 265014.560000
  13888  13889     1   0.15375 251793.120000
  13888  13896     1   0.14233 265014.560000
  13889  13890     1   0.15375 251793.120000
  13889  13895     1   0.14233 265014.560000
  13890  13894     1   0.14316 258236.480000
  13890  13906     1   0.14316 258236.480000
  13898  13904     1   0.14233 265014.560000
  13907  13908     1   0.15375 251793.120000
  13907  13921     1   0.15375 251793.120000
  13907  13929     1   0.14316 258236.480000
  13908  13911     1   0.15375 251793.120000
  13908  13920     1   0.14233 265014.560000
  13911  13912     1   0.15375 251793.120000
  13911  13919     1   0.14233 265014.560000
  13912  13913     1   0.15375 251793.120000
  13912  13918     1   0.14233 265014.560000
  13913  13917     1   0.14316 258236.480000
  13913  13929     1   0.14316 258236.480000
  13921  13927     1   0.14233 265014.560000
  13930  13931     1   0.15375 251793.120000
  13930  13944     1   0.15375 251793.120000
  13930  13952     1   0.14316 258236.480000
  13931  13934     1   0.15375 251793.120000
  13931  13943     1   0.14233 265014.560000
  13934  13935     1   0.15375 251793.120000
  13934  13942     1   0.14233 265014.560000
  13935  13936     1   0.15375 251793.120000
  13935  13941     1   0.14233 265014.560000
  13936  13940     1   0.14316 258236.480000
  13936  13952     1   0.14316 258236.480000
  13944  13950     1   0.14233 265014.560000
  13953  13954     1   0.15375 251793.120000
  13953  13967     1   0.15375 251793.120000
  13953  13975     1   0.14316 258236.480000
  13954  13957     1   0.15375 251793.120000
  13954  13966     1   0.14233 265014.560000
  13957  13958     1   0.15375 251793.120000
  13957  13965     1   0.14233 265014.560000
  13958  13959     1   0.15375 251793.120000
  13958  13964     1   0.14233 265014.560000
  13959  13963     1   0.14316 258236.480000
  13959  13975     1   0.14316 258236.480000
  13967  13973     1   0.14233 265014.560000
  13976  13977     1   0.15375 251793.120000
  13976  13990     1   0.15375 251793.120000
  13976  13998     1   0.14316 258236.480000
  13977  13980     1   0.15375 251793.120000
  13977  13989     1   0.14233 265014.560000
  13980  13981     1   0.15375 251793.120000
  13980  13988     1   0.14233 265014.560000
  13981  13982     1   0.15375 251793.120000
  13981  13987     1   0.14233 265014.560000
  13982  13986     1   0.14316 258236.480000
  13982  13998     1   0.14316 258236.480000
  13990  13996     1   0.14233 265014.560000
  13999  14000     1   0.15375 251793.120000
  13999  14013     1   0.15375 251793.120000
  13999  14021     1   0.14316 258236.480000
  14000  14003     1   0.15375 251793.120000
  14000  14012     1   0.14233 265014.560000
  14003  14004     1   0.15375 251793.120000
  14003  14011     1   0.14233 265014.560000
  14004  14005     1   0.15375 251793.120000
  14004  14010     1   0.14233 265014.560000
  14005  14009     1   0.14316 258236.480000
  14005  14021     1   0.14316 258236.480000
  14013  14019     1   0.14233 265014.560000
  14022  14023     1   0.15375 251793.120000
  14022  14036     1   0.15375 251793.120000
  14022  14044     1   0.14316 258236.480000
  14023  14026     1   0.15375 251793.120000
  14023  14035     1   0.14233 265014.560000
  14026  14027     1   0.15375 251793.120000
  14026  14034     1   0.14233 265014.560000
  14027  14028     1   0.15375 251793.120000
  14027  14033     1   0.14233 265014.560000
  14028  14032     1   0.14316 258236.480000
  14028  14044     1   0.14316 258236.480000
  14036  14042     1   0.14233 265014.560000
  14045  14046     1   0.15375 251793.120000
  14045  14059     1   0.15375 251793.120000
  14045  14067     1   0.14316 258236.480000
  14046  14049     1   0.15375 251793.120000
  14046  14058     1   0.14233 265014.560000
  14049  14050     1   0.15375 251793.120000
  14049  14057     1   0.14233 265014.560000
  14050  14051     1   0.15375 251793.120000
  14050  14056     1   0.14233 265014.560000
  14051  14055     1   0.14316 258236.480000
  14051  14067     1   0.14316 258236.480000
  14059  14065     1   0.14233 265014.560000
  14068  14069     1   0.15375 251793.120000
  14068  14082     1   0.15375 251793.120000
  14068  14090     1   0.14316 258236.480000
  14069  14072     1   0.15375 251793.120000
  14069  14081     1   0.14233 265014.560000
  14072  14073     1   0.15375 251793.120000
  14072  14080     1   0.14233 265014.560000
  14073  14074     1   0.15375 251793.120000
  14073  14079     1   0.14233 265014.560000
  14074  14078     1   0.14316 258236.480000
  14074  14090     1   0.14316 258236.480000
  14082  14088     1   0.14233 265014.560000
  14091  14092     1   0.15375 251793.120000
  14091  14105     1   0.15375 251793.120000
  14091  14113     1   0.14316 258236.480000
  14092  14095     1   0.15375 251793.120000
  14092  14104     1   0.14233 265014.560000
  14095  14096     1   0.15375 251793.120000
  14095  14103     1   0.14233 265014.560000
  14096  14097     1   0.15375 251793.120000
  14096  14102     1   0.14233 265014.560000
  14097  14101     1   0.14316 258236.480000
  14097  14113     1   0.14316 258236.480000
  14105  14111     1   0.14233 265014.560000
  14114  14115     1   0.15375 251793.120000
  14114  14128     1   0.15375 251793.120000
  14114  14136     1   0.14316 258236.480000
  14115  14118     1   0.15375 251793.120000
  14115  14127     1   0.14233 265014.560000
  14118  14119     1   0.15375 251793.120000
  14118  14126     1   0.14233 265014.560000
  14119  14120     1   0.15375 251793.120000
  14119  14125     1   0.14233 265014.560000
  14120  14124     1   0.14316 258236.480000
  14120  14136     1   0.14316 258236.480000
  14128  14134     1   0.14233 265014.560000
  14137  14138     1   0.15375 251793.120000
  14137  14151     1   0.15375 251793.120000
  14137  14159     1   0.14316 258236.480000
  14138  14141     1   0.15375 251793.120000
  14138  14150     1   0.14233 265014.560000
  14141  14142     1   0.15375 251793.120000
  14141  14149     1   0.14233 265014.560000
  14142  14143     1   0.15375 251793.120000
  14142  14148     1   0.14233 265014.560000
  14143  14147     1   0.14316 258236.480000
  14143  14159     1   0.14316 258236.480000
  14151  14157     1   0.14233 265014.560000
  14160  14161     1   0.15375 251793.120000
  14160  14174     1   0.15375 251793.120000
  14160  14182     1   0.14316 258236.480000
  14161  14164     1   0.15375 251793.120000
  14161  14173     1   0.14233 265014.560000
  14164  14165     1   0.15375 251793.120000
  14164  14172     1   0.14233 265014.560000
  14165  14166     1   0.15375 251793.120000
  14165  14171     1   0.14233 265014.560000
  14166  14170     1   0.14316 258236.480000
  14166  14182     1   0.14316 258236.480000
  14174  14180     1   0.14233 265014.560000
  14183  14184     1   0.15375 251793.120000
  14183  14197     1   0.15375 251793.120000
  14183  14205     1   0.14316 258236.480000
  14184  14187     1   0.15375 251793.120000
  14184  14196     1   0.14233 265014.560000
  14187  14188     1   0.15375 251793.120000
  14187  14195     1   0.14233 265014.560000
  14188  14189     1   0.15375 251793.120000
  14188  14194     1   0.14233 265014.560000
  14189  14193     1   0.14316 258236.480000
  14189  14205     1   0.14316 258236.480000
  14197  14203     1   0.14233 265014.560000
  14206  14207     1   0.15375 251793.120000
  14206  14220     1   0.15375 251793.120000
  14206  14228     1   0.14316 258236.480000
  14207  14210     1   0.15375 251793.120000
  14207  14219     1   0.14233 265014.560000
  14210  14211     1   0.15375 251793.120000
  14210  14218     1   0.14233 265014.560000
  14211  14212     1   0.15375 251793.120000
  14211  14217     1   0.14233 265014.560000
  14212  14216     1   0.14316 258236.480000
  14212  14228     1   0.14316 258236.480000
  14220  14226     1   0.14233 265014.560000
  14229  14230     1   0.15375 251793.120000
  14229  14243     1   0.15375 251793.120000
  14229  14251     1   0.14316 258236.480000
  14230  14233     1   0.15375 251793.120000
  14230  14242     1   0.14233 265014.560000
  14233  14234     1   0.15375 251793.120000
  14233  14241     1   0.14233 265014.560000
  14234  14235     1   0.15375 251793.120000
  14234  14240     1   0.14233 265014.560000
  14235  14239     1   0.14316 258236.480000
  14235  14251     1   0.14316 258236.480000
  14243  14249     1   0.14233 265014.560000
  14252  14253     1   0.15375 251793.120000
  14252  14266     1   0.15375 251793.120000
  14252  14274     1   0.14316 258236.480000
  14253  14256     1   0.15375 251793.120000
  14253  14265     1   0.14233 265014.560000
  14256  14257     1   0.15375 251793.120000
  14256  14264     1   0.14233 265014.560000
  14257  14258     1   0.15375 251793.120000
  14257  14263     1   0.14233 265014.560000
  14258  14262     1   0.14316 258236.480000
  14258  14274     1   0.14316 258236.480000
  14266  14272     1   0.14233 265014.560000
  14275  14276     1   0.15375 251793.120000
  14275  14289     1   0.15375 251793.120000
  14275  14297     1   0.14316 258236.480000
  14276  14279     1   0.15375 251793.120000
  14276  14288     1   0.14233 265014.560000
  14279  14280     1   0.15375 251793.120000
  14279  14287     1   0.14233 265014.560000
  14280  14281     1   0.15375 251793.120000
  14280  14286     1   0.14233 265014.560000
  14281  14285     1   0.14316 258236.480000
  14281  14297     1   0.14316 258236.480000
  14289  14295     1   0.14233 265014.560000
  14298  14299     1   0.15375 251793.120000
  14298  14312     1   0.15375 251793.120000
  14298  14320     1   0.14316 258236.480000
  14299  14302     1   0.15375 251793.120000
  14299  14311     1   0.14233 265014.560000
  14302  14303     1   0.15375 251793.120000
  14302  14310     1   0.14233 265014.560000
  14303  14304     1   0.15375 251793.120000
  14303  14309     1   0.14233 265014.560000
  14304  14308     1   0.14316 258236.480000
  14304  14320     1   0.14316 258236.480000
  14312  14318     1   0.14233 265014.560000
  14321  14322     1   0.15375 251793.120000
  14321  14335     1   0.15375 251793.120000
  14321  14343     1   0.14316 258236.480000
  14322  14325     1   0.15375 251793.120000
  14322  14334     1   0.14233 265014.560000
  14325  14326     1   0.15375 251793.120000
  14325  14333     1   0.14233 265014.560000
  14326  14327     1   0.15375 251793.120000
  14326  14332     1   0.14233 265014.560000
  14327  14331     1   0.14316 258236.480000
  14327  14343     1   0.14316 258236.480000
  14335  14341     1   0.14233 265014.560000
  14344  14345     1   0.15375 251793.120000
  14344  14358     1   0.15375 251793.120000
  14344  14366     1   0.14316 258236.480000
  14345  14348     1   0.15375 251793.120000
  14345  14357     1   0.14233 265014.560000
  14348  14349     1   0.15375 251793.120000
  14348  14356     1   0.14233 265014.560000
  14349  14350     1   0.15375 251793.120000
  14349  14355     1   0.14233 265014.560000
  14350  14354     1   0.14316 258236.480000
  14350  14366     1   0.14316 258236.480000
  14358  14364     1   0.14233 265014.560000
  14367  14368     1   0.15375 251793.120000
  14367  14381     1   0.15375 251793.120000
  14367  14389     1   0.14316 258236.480000
  14368  14371     1   0.15375 251793.120000
  14368  14380     1   0.14233 265014.560000
  14371  14372     1   0.15375 251793.120000
  14371  14379     1   0.14233 265014.560000
  14372  14373     1   0.15375 251793.120000
  14372  14378     1   0.14233 265014.560000
  14373  14377     1   0.14316 258236.480000
  14373  14389     1   0.14316 258236.480000
  14381  14387     1   0.14233 265014.560000
  14390  14391     1   0.15375 251793.120000
  14390  14404     1   0.15375 251793.120000
  14390  14412     1   0.14316 258236.480000
  14391  14394     1   0.15375 251793.120000
  14391  14403     1   0.14233 265014.560000
  14394  14395     1   0.15375 251793.120000
  14394  14402     1   0.14233 265014.560000
  14395  14396     1   0.15375 251793.120000
  14395  14401     1   0.14233 265014.560000
  14396  14400     1   0.14316 258236.480000
  14396  14412     1   0.14316 258236.480000
  14404  14410     1   0.14233 265014.560000
  14413  14414     1   0.15375 251793.120000
  14413  14427     1   0.15375 251793.120000
  14413  14435     1   0.14316 258236.480000
  14414  14417     1   0.15375 251793.120000
  14414  14426     1   0.14233 265014.560000
  14417  14418     1   0.15375 251793.120000
  14417  14425     1   0.14233 265014.560000
  14418  14419     1   0.15375 251793.120000
  14418  14424     1   0.14233 265014.560000
  14419  14423     1   0.14316 258236.480000
  14419  14435     1   0.14316 258236.480000
  14427  14433     1   0.14233 265014.560000
  14436  14437     1   0.15375 251793.120000
  14436  14450     1   0.15375 251793.120000
  14436  14458     1   0.14316 258236.480000
  14437  14440     1   0.15375 251793.120000
  14437  14449     1   0.14233 265014.560000
  14440  14441     1   0.15375 251793.120000
  14440  14448     1   0.14233 265014.560000
  14441  14442     1   0.15375 251793.120000
  14441  14447     1   0.14233 265014.560000
  14442  14446     1   0.14316 258236.480000
  14442  14458     1   0.14316 258236.480000
  14450  14456     1   0.14233 265014.560000
  14459  14460     1   0.15375 251793.120000
  14459  14473     1   0.15375 251793.120000
  14459  14481     1   0.14316 258236.480000
  14460  14463     1   0.15375 251793.120000
  14460  14472     1   0.14233 265014.560000
  14463  14464     1   0.15375 251793.120000
  14463  14471     1   0.14233 265014.560000
  14464  14465     1   0.15375 251793.120000
  14464  14470     1   0.14233 265014.560000
  14465  14469     1   0.14316 258236.480000
  14465  14481     1   0.14316 258236.480000
  14473  14479     1   0.14233 265014.560000
  14482  14483     1   0.15375 251793.120000
  14482  14496     1   0.15375 251793.120000
  14482  14504     1   0.14316 258236.480000
  14483  14486     1   0.15375 251793.120000
  14483  14495     1   0.14233 265014.560000
  14486  14487     1   0.15375 251793.120000
  14486  14494     1   0.14233 265014.560000
  14487  14488     1   0.15375 251793.120000
  14487  14493     1   0.14233 265014.560000
  14488  14492     1   0.14316 258236.480000
  14488  14504     1   0.14316 258236.480000
  14496  14502     1   0.14233 265014.560000
  14505  14506     1   0.15375 251793.120000
  14505  14519     1   0.15375 251793.120000
  14505  14527     1   0.14316 258236.480000
  14506  14509     1   0.15375 251793.120000
  14506  14518     1   0.14233 265014.560000
  14509  14510     1   0.15375 251793.120000
  14509  14517     1   0.14233 265014.560000
  14510  14511     1   0.15375 251793.120000
  14510  14516     1   0.14233 265014.560000
  14511  14515     1   0.14316 258236.480000
  14511  14527     1   0.14316 258236.480000
  14519  14525     1   0.14233 265014.560000
  14528  14529     1   0.15375 251793.120000
  14528  14542     1   0.15375 251793.120000
  14528  14550     1   0.14316 258236.480000
  14529  14532     1   0.15375 251793.120000
  14529  14541     1   0.14233 265014.560000
  14532  14533     1   0.15375 251793.120000
  14532  14540     1   0.14233 265014.560000
  14533  14534     1   0.15375 251793.120000
  14533  14539     1   0.14233 265014.560000
  14534  14538     1   0.14316 258236.480000
  14534  14550     1   0.14316 258236.480000
  14542  14548     1   0.14233 265014.560000
  14551  14552     1   0.15375 251793.120000
  14551  14565     1   0.15375 251793.120000
  14551  14573     1   0.14316 258236.480000
  14552  14555     1   0.15375 251793.120000
  14552  14564     1   0.14233 265014.560000
  14555  14556     1   0.15375 251793.120000
  14555  14563     1   0.14233 265014.560000
  14556  14557     1   0.15375 251793.120000
  14556  14562     1   0.14233 265014.560000
  14557  14561     1   0.14316 258236.480000
  14557  14573     1   0.14316 258236.480000
  14565  14571     1   0.14233 265014.560000
  14574  14575     1   0.15375 251793.120000
  14574  14588     1   0.15375 251793.120000
  14574  14596     1   0.14316 258236.480000
  14575  14578     1   0.15375 251793.120000
  14575  14587     1   0.14233 265014.560000
  14578  14579     1   0.15375 251793.120000
  14578  14586     1   0.14233 265014.560000
  14579  14580     1   0.15375 251793.120000
  14579  14585     1   0.14233 265014.560000
  14580  14584     1   0.14316 258236.480000
  14580  14596     1   0.14316 258236.480000
  14588  14594     1   0.14233 265014.560000
  14597  14598     1   0.15375 251793.120000
  14597  14611     1   0.15375 251793.120000
  14597  14619     1   0.14316 258236.480000
  14598  14601     1   0.15375 251793.120000
  14598  14610     1   0.14233 265014.560000
  14601  14602     1   0.15375 251793.120000
  14601  14609     1   0.14233 265014.560000
  14602  14603     1   0.15375 251793.120000
  14602  14608     1   0.14233 265014.560000
  14603  14607     1   0.14316 258236.480000
  14603  14619     1   0.14316 258236.480000
  14611  14617     1   0.14233 265014.560000
  14620  14621     1   0.15375 251793.120000
  14620  14634     1   0.15375 251793.120000
  14620  14642     1   0.14316 258236.480000
  14621  14624     1   0.15375 251793.120000
  14621  14633     1   0.14233 265014.560000
  14624  14625     1   0.15375 251793.120000
  14624  14632     1   0.14233 265014.560000
  14625  14626     1   0.15375 251793.120000
  14625  14631     1   0.14233 265014.560000
  14626  14630     1   0.14316 258236.480000
  14626  14642     1   0.14316 258236.480000
  14634  14640     1   0.14233 265014.560000
  14643  14644     1   0.15375 251793.120000
  14643  14657     1   0.15375 251793.120000
  14643  14665     1   0.14316 258236.480000
  14644  14647     1   0.15375 251793.120000
  14644  14656     1   0.14233 265014.560000
  14647  14648     1   0.15375 251793.120000
  14647  14655     1   0.14233 265014.560000
  14648  14649     1   0.15375 251793.120000
  14648  14654     1   0.14233 265014.560000
  14649  14653     1   0.14316 258236.480000
  14649  14665     1   0.14316 258236.480000
  14657  14663     1   0.14233 265014.560000
  14666  14667     1   0.15375 251793.120000
  14666  14680     1   0.15375 251793.120000
  14666  14688     1   0.14316 258236.480000
  14667  14670     1   0.15375 251793.120000
  14667  14679     1   0.14233 265014.560000
  14670  14671     1   0.15375 251793.120000
  14670  14678     1   0.14233 265014.560000
  14671  14672     1   0.15375 251793.120000
  14671  14677     1   0.14233 265014.560000
  14672  14676     1   0.14316 258236.480000
  14672  14688     1   0.14316 258236.480000
  14680  14686     1   0.14233 265014.560000
  14689  14690     1   0.15375 251793.120000
  14689  14703     1   0.15375 251793.120000
  14689  14711     1   0.14316 258236.480000
  14690  14693     1   0.15375 251793.120000
  14690  14702     1   0.14233 265014.560000
  14693  14694     1   0.15375 251793.120000
  14693  14701     1   0.14233 265014.560000
  14694  14695     1   0.15375 251793.120000
  14694  14700     1   0.14233 265014.560000
  14695  14699     1   0.14316 258236.480000
  14695  14711     1   0.14316 258236.480000
  14703  14709     1   0.14233 265014.560000
  14712  14713     1   0.15375 251793.120000
  14712  14726     1   0.15375 251793.120000
  14712  14734     1   0.14316 258236.480000
  14713  14716     1   0.15375 251793.120000
  14713  14725     1   0.14233 265014.560000
  14716  14717     1   0.15375 251793.120000
  14716  14724     1   0.14233 265014.560000
  14717  14718     1   0.15375 251793.120000
  14717  14723     1   0.14233 265014.560000
  14718  14722     1   0.14316 258236.480000
  14718  14734     1   0.14316 258236.480000
  14726  14732     1   0.14233 265014.560000
  14735  14736     1   0.15375 251793.120000
  14735  14749     1   0.15375 251793.120000
  14735  14757     1   0.14316 258236.480000
  14736  14739     1   0.15375 251793.120000
  14736  14748     1   0.14233 265014.560000
  14739  14740     1   0.15375 251793.120000
  14739  14747     1   0.14233 265014.560000
  14740  14741     1   0.15375 251793.120000
  14740  14746     1   0.14233 265014.560000
  14741  14745     1   0.14316 258236.480000
  14741  14757     1   0.14316 258236.480000
  14749  14755     1   0.14233 265014.560000
  14758  14759     1   0.15375 251793.120000
  14758  14772     1   0.15375 251793.120000
  14758  14780     1   0.14316 258236.480000
  14759  14762     1   0.15375 251793.120000
  14759  14771     1   0.14233 265014.560000
  14762  14763     1   0.15375 251793.120000
  14762  14770     1   0.14233 265014.560000
  14763  14764     1   0.15375 251793.120000
  14763  14769     1   0.14233 265014.560000
  14764  14768     1   0.14316 258236.480000
  14764  14780     1   0.14316 258236.480000
  14772  14778     1   0.14233 265014.560000
  14781  14782     1   0.15375 251793.120000
  14781  14795     1   0.15375 251793.120000
  14781  14803     1   0.14316 258236.480000
  14782  14785     1   0.15375 251793.120000
  14782  14794     1   0.14233 265014.560000
  14785  14786     1   0.15375 251793.120000
  14785  14793     1   0.14233 265014.560000
  14786  14787     1   0.15375 251793.120000
  14786  14792     1   0.14233 265014.560000
  14787  14791     1   0.14316 258236.480000
  14787  14803     1   0.14316 258236.480000
  14795  14801     1   0.14233 265014.560000
  14804  14805     1   0.15375 251793.120000
  14804  14818     1   0.15375 251793.120000
  14804  14826     1   0.14316 258236.480000
  14805  14808     1   0.15375 251793.120000
  14805  14817     1   0.14233 265014.560000
  14808  14809     1   0.15375 251793.120000
  14808  14816     1   0.14233 265014.560000
  14809  14810     1   0.15375 251793.120000
  14809  14815     1   0.14233 265014.560000
  14810  14814     1   0.14316 258236.480000
  14810  14826     1   0.14316 258236.480000
  14818  14824     1   0.14233 265014.560000
  14827  14828     1   0.15375 251793.120000
  14827  14841     1   0.15375 251793.120000
  14827  14849     1   0.14316 258236.480000
  14828  14831     1   0.15375 251793.120000
  14828  14840     1   0.14233 265014.560000
  14831  14832     1   0.15375 251793.120000
  14831  14839     1   0.14233 265014.560000
  14832  14833     1   0.15375 251793.120000
  14832  14838     1   0.14233 265014.560000
  14833  14837     1   0.14316 258236.480000
  14833  14849     1   0.14316 258236.480000
  14841  14847     1   0.14233 265014.560000
  14850  14851     1   0.15375 251793.120000
  14850  14864     1   0.15375 251793.120000
  14850  14872     1   0.14316 258236.480000
  14851  14854     1   0.15375 251793.120000
  14851  14863     1   0.14233 265014.560000
  14854  14855     1   0.15375 251793.120000
  14854  14862     1   0.14233 265014.560000
  14855  14856     1   0.15375 251793.120000
  14855  14861     1   0.14233 265014.560000
  14856  14860     1   0.14316 258236.480000
  14856  14872     1   0.14316 258236.480000
  14864  14870     1   0.14233 265014.560000
  14873  14874     1   0.15375 251793.120000
  14873  14887     1   0.15375 251793.120000
  14873  14895     1   0.14316 258236.480000
  14874  14877     1   0.15375 251793.120000
  14874  14886     1   0.14233 265014.560000
  14877  14878     1   0.15375 251793.120000
  14877  14885     1   0.14233 265014.560000
  14878  14879     1   0.15375 251793.120000
  14878  14884     1   0.14233 265014.560000
  14879  14883     1   0.14316 258236.480000
  14879  14895     1   0.14316 258236.480000
  14887  14893     1   0.14233 265014.560000
  14896  14897     1   0.15375 251793.120000
  14896  14910     1   0.15375 251793.120000
  14896  14918     1   0.14316 258236.480000
  14897  14900     1   0.15375 251793.120000
  14897  14909     1   0.14233 265014.560000
  14900  14901     1   0.15375 251793.120000
  14900  14908     1   0.14233 265014.560000
  14901  14902     1   0.15375 251793.120000
  14901  14907     1   0.14233 265014.560000
  14902  14906     1   0.14316 258236.480000
  14902  14918     1   0.14316 258236.480000
  14910  14916     1   0.14233 265014.560000
  14919  14920     1   0.15375 251793.120000
  14919  14933     1   0.15375 251793.120000
  14919  14941     1   0.14316 258236.480000
  14920  14923     1   0.15375 251793.120000
  14920  14932     1   0.14233 265014.560000
  14923  14924     1   0.15375 251793.120000
  14923  14931     1   0.14233 265014.560000
  14924  14925     1   0.15375 251793.120000
  14924  14930     1   0.14233 265014.560000
  14925  14929     1   0.14316 258236.480000
  14925  14941     1   0.14316 258236.480000
  14933  14939     1   0.14233 265014.560000
  14942  14943     1   0.15375 251793.120000
  14942  14956     1   0.15375 251793.120000
  14942  14964     1   0.14316 258236.480000
  14943  14946     1   0.15375 251793.120000
  14943  14955     1   0.14233 265014.560000
  14946  14947     1   0.15375 251793.120000
  14946  14954     1   0.14233 265014.560000
  14947  14948     1   0.15375 251793.120000
  14947  14953     1   0.14233 265014.560000
  14948  14952     1   0.14316 258236.480000
  14948  14964     1   0.14316 258236.480000
  14956  14962     1   0.14233 265014.560000
  14965  14966     1   0.15375 251793.120000
  14965  14979     1   0.15375 251793.120000
  14965  14987     1   0.14316 258236.480000
  14966  14969     1   0.15375 251793.120000
  14966  14978     1   0.14233 265014.560000
  14969  14970     1   0.15375 251793.120000
  14969  14977     1   0.14233 265014.560000
  14970  14971     1   0.15375 251793.120000
  14970  14976     1   0.14233 265014.560000
  14971  14975     1   0.14316 258236.480000
  14971  14987     1   0.14316 258236.480000
  14979  14985     1   0.14233 265014.560000
  14988  14989     1   0.15375 251793.120000
  14988  15002     1   0.15375 251793.120000
  14988  15010     1   0.14316 258236.480000
  14989  14992     1   0.15375 251793.120000
  14989  15001     1   0.14233 265014.560000
  14992  14993     1   0.15375 251793.120000
  14992  15000     1   0.14233 265014.560000
  14993  14994     1   0.15375 251793.120000
  14993  14999     1   0.14233 265014.560000
  14994  14998     1   0.14316 258236.480000
  14994  15010     1   0.14316 258236.480000
  15002  15008     1   0.14233 265014.560000
  15011  15012     1   0.15375 251793.120000
  15011  15025     1   0.15375 251793.120000
  15011  15033     1   0.14316 258236.480000
  15012  15015     1   0.15375 251793.120000
  15012  15024     1   0.14233 265014.560000
  15015  15016     1   0.15375 251793.120000
  15015  15023     1   0.14233 265014.560000
  15016  15017     1   0.15375 251793.120000
  15016  15022     1   0.14233 265014.560000
  15017  15021     1   0.14316 258236.480000
  15017  15033     1   0.14316 258236.480000
  15025  15031     1   0.14233 265014.560000
  15034  15035     1   0.15375 251793.120000
  15034  15048     1   0.15375 251793.120000
  15034  15056     1   0.14316 258236.480000
  15035  15038     1   0.15375 251793.120000
  15035  15047     1   0.14233 265014.560000
  15038  15039     1   0.15375 251793.120000
  15038  15046     1   0.14233 265014.560000
  15039  15040     1   0.15375 251793.120000
  15039  15045     1   0.14233 265014.560000
  15040  15044     1   0.14316 258236.480000
  15040  15056     1   0.14316 258236.480000
  15048  15054     1   0.14233 265014.560000
  15057  15058     1   0.15375 251793.120000
  15057  15071     1   0.15375 251793.120000
  15057  15079     1   0.14316 258236.480000
  15058  15061     1   0.15375 251793.120000
  15058  15070     1   0.14233 265014.560000
  15061  15062     1   0.15375 251793.120000
  15061  15069     1   0.14233 265014.560000
  15062  15063     1   0.15375 251793.120000
  15062  15068     1   0.14233 265014.560000
  15063  15067     1   0.14316 258236.480000
  15063  15079     1   0.14316 258236.480000
  15071  15077     1   0.14233 265014.560000
  15080  15081     1   0.15375 251793.120000
  15080  15094     1   0.15375 251793.120000
  15080  15102     1   0.14316 258236.480000
  15081  15084     1   0.15375 251793.120000
  15081  15093     1   0.14233 265014.560000
  15084  15085     1   0.15375 251793.120000
  15084  15092     1   0.14233 265014.560000
  15085  15086     1   0.15375 251793.120000
  15085  15091     1   0.14233 265014.560000
  15086  15090     1   0.14316 258236.480000
  15086  15102     1   0.14316 258236.480000
  15094  15100     1   0.14233 265014.560000
  15103  15104     1   0.15375 251793.120000
  15103  15117     1   0.15375 251793.120000
  15103  15125     1   0.14316 258236.480000
  15104  15107     1   0.15375 251793.120000
  15104  15116     1   0.14233 265014.560000
  15107  15108     1   0.15375 251793.120000
  15107  15115     1   0.14233 265014.560000
  15108  15109     1   0.15375 251793.120000
  15108  15114     1   0.14233 265014.560000
  15109  15113     1   0.14316 258236.480000
  15109  15125     1   0.14316 258236.480000
  15117  15123     1   0.14233 265014.560000
  15126  15127     1   0.15375 251793.120000
  15126  15140     1   0.15375 251793.120000
  15126  15148     1   0.14316 258236.480000
  15127  15130     1   0.15375 251793.120000
  15127  15139     1   0.14233 265014.560000
  15130  15131     1   0.15375 251793.120000
  15130  15138     1   0.14233 265014.560000
  15131  15132     1   0.15375 251793.120000
  15131  15137     1   0.14233 265014.560000
  15132  15136     1   0.14316 258236.480000
  15132  15148     1   0.14316 258236.480000
  15140  15146     1   0.14233 265014.560000
  15149  15150     1   0.15375 251793.120000
  15149  15163     1   0.15375 251793.120000
  15149  15171     1   0.14316 258236.480000
  15150  15153     1   0.15375 251793.120000
  15150  15162     1   0.14233 265014.560000
  15153  15154     1   0.15375 251793.120000
  15153  15161     1   0.14233 265014.560000
  15154  15155     1   0.15375 251793.120000
  15154  15160     1   0.14233 265014.560000
  15155  15159     1   0.14316 258236.480000
  15155  15171     1   0.14316 258236.480000
  15163  15169     1   0.14233 265014.560000
  15172  15173     1   0.15375 251793.120000
  15172  15186     1   0.15375 251793.120000
  15172  15194     1   0.14316 258236.480000
  15173  15176     1   0.15375 251793.120000
  15173  15185     1   0.14233 265014.560000
  15176  15177     1   0.15375 251793.120000
  15176  15184     1   0.14233 265014.560000
  15177  15178     1   0.15375 251793.120000
  15177  15183     1   0.14233 265014.560000
  15178  15182     1   0.14316 258236.480000
  15178  15194     1   0.14316 258236.480000
  15186  15192     1   0.14233 265014.560000
  15195  15196     1   0.15375 251793.120000
  15195  15209     1   0.15375 251793.120000
  15195  15217     1   0.14316 258236.480000
  15196  15199     1   0.15375 251793.120000
  15196  15208     1   0.14233 265014.560000
  15199  15200     1   0.15375 251793.120000
  15199  15207     1   0.14233 265014.560000
  15200  15201     1   0.15375 251793.120000
  15200  15206     1   0.14233 265014.560000
  15201  15205     1   0.14316 258236.480000
  15201  15217     1   0.14316 258236.480000
  15209  15215     1   0.14233 265014.560000
  15218  15219     1   0.15375 251793.120000
  15218  15232     1   0.15375 251793.120000
  15218  15240     1   0.14316 258236.480000
  15219  15222     1   0.15375 251793.120000
  15219  15231     1   0.14233 265014.560000
  15222  15223     1   0.15375 251793.120000
  15222  15230     1   0.14233 265014.560000
  15223  15224     1   0.15375 251793.120000
  15223  15229     1   0.14233 265014.560000
  15224  15228     1   0.14316 258236.480000
  15224  15240     1   0.14316 258236.480000
  15232  15238     1   0.14233 265014.560000
  15241  15242     1   0.15375 251793.120000
  15241  15255     1   0.15375 251793.120000
  15241  15263     1   0.14316 258236.480000
  15242  15245     1   0.15375 251793.120000
  15242  15254     1   0.14233 265014.560000
  15245  15246     1   0.15375 251793.120000
  15245  15253     1   0.14233 265014.560000
  15246  15247     1   0.15375 251793.120000
  15246  15252     1   0.14233 265014.560000
  15247  15251     1   0.14316 258236.480000
  15247  15263     1   0.14316 258236.480000
  15255  15261     1   0.14233 265014.560000
  15264  15265     1   0.15375 251793.120000
  15264  15278     1   0.15375 251793.120000
  15264  15286     1   0.14316 258236.480000
  15265  15268     1   0.15375 251793.120000
  15265  15277     1   0.14233 265014.560000
  15268  15269     1   0.15375 251793.120000
  15268  15276     1   0.14233 265014.560000
  15269  15270     1   0.15375 251793.120000
  15269  15275     1   0.14233 265014.560000
  15270  15274     1   0.14316 258236.480000
  15270  15286     1   0.14316 258236.480000
  15278  15284     1   0.14233 265014.560000
  15287  15288     1   0.15375 251793.120000
  15287  15301     1   0.15375 251793.120000
  15287  15309     1   0.14316 258236.480000
  15288  15291     1   0.15375 251793.120000
  15288  15300     1   0.14233 265014.560000
  15291  15292     1   0.15375 251793.120000
  15291  15299     1   0.14233 265014.560000
  15292  15293     1   0.15375 251793.120000
  15292  15298     1   0.14233 265014.560000
  15293  15297     1   0.14316 258236.480000
  15293  15309     1   0.14316 258236.480000
  15301  15307     1   0.14233 265014.560000
  15310  15311     1   0.15375 251793.120000
  15310  15324     1   0.15375 251793.120000
  15310  15332     1   0.14316 258236.480000
  15311  15314     1   0.15375 251793.120000
  15311  15323     1   0.14233 265014.560000
  15314  15315     1   0.15375 251793.120000
  15314  15322     1   0.14233 265014.560000
  15315  15316     1   0.15375 251793.120000
  15315  15321     1   0.14233 265014.560000
  15316  15320     1   0.14316 258236.480000
  15316  15332     1   0.14316 258236.480000
  15324  15330     1   0.14233 265014.560000
  15333  15334     1   0.15375 251793.120000
  15333  15347     1   0.15375 251793.120000
  15333  15355     1   0.14316 258236.480000
  15334  15337     1   0.15375 251793.120000
  15334  15346     1   0.14233 265014.560000
  15337  15338     1   0.15375 251793.120000
  15337  15345     1   0.14233 265014.560000
  15338  15339     1   0.15375 251793.120000
  15338  15344     1   0.14233 265014.560000
  15339  15343     1   0.14316 258236.480000
  15339  15355     1   0.14316 258236.480000
  15347  15353     1   0.14233 265014.560000
  15356  15357     1   0.15375 251793.120000
  15356  15370     1   0.15375 251793.120000
  15356  15378     1   0.14316 258236.480000
  15357  15360     1   0.15375 251793.120000
  15357  15369     1   0.14233 265014.560000
  15360  15361     1   0.15375 251793.120000
  15360  15368     1   0.14233 265014.560000
  15361  15362     1   0.15375 251793.120000
  15361  15367     1   0.14233 265014.560000
  15362  15366     1   0.14316 258236.480000
  15362  15378     1   0.14316 258236.480000
  15370  15376     1   0.14233 265014.560000
  15379  15380     1   0.15375 251793.120000
  15379  15393     1   0.15375 251793.120000
  15379  15401     1   0.14316 258236.480000
  15380  15383     1   0.15375 251793.120000
  15380  15392     1   0.14233 265014.560000
  15383  15384     1   0.15375 251793.120000
  15383  15391     1   0.14233 265014.560000
  15384  15385     1   0.15375 251793.120000
  15384  15390     1   0.14233 265014.560000
  15385  15389     1   0.14316 258236.480000
  15385  15401     1   0.14316 258236.480000
  15393  15399     1   0.14233 265014.560000
  15402  15403     1   0.15375 251793.120000
  15402  15416     1   0.15375 251793.120000
  15402  15424     1   0.14316 258236.480000
  15403  15406     1   0.15375 251793.120000
  15403  15415     1   0.14233 265014.560000
  15406  15407     1   0.15375 251793.120000
  15406  15414     1   0.14233 265014.560000
  15407  15408     1   0.15375 251793.120000
  15407  15413     1   0.14233 265014.560000
  15408  15412     1   0.14316 258236.480000
  15408  15424     1   0.14316 258236.480000
  15416  15422     1   0.14233 265014.560000
  15425  15426     1   0.15375 251793.120000
  15425  15439     1   0.15375 251793.120000
  15425  15447     1   0.14316 258236.480000
  15426  15429     1   0.15375 251793.120000
  15426  15438     1   0.14233 265014.560000
  15429  15430     1   0.15375 251793.120000
  15429  15437     1   0.14233 265014.560000
  15430  15431     1   0.15375 251793.120000
  15430  15436     1   0.14233 265014.560000
  15431  15435     1   0.14316 258236.480000
  15431  15447     1   0.14316 258236.480000
  15439  15445     1   0.14233 265014.560000
  15448  15449     1   0.15375 251793.120000
  15448  15462     1   0.15375 251793.120000
  15448  15470     1   0.14316 258236.480000
  15449  15452     1   0.15375 251793.120000
  15449  15461     1   0.14233 265014.560000
  15452  15453     1   0.15375 251793.120000
  15452  15460     1   0.14233 265014.560000
  15453  15454     1   0.15375 251793.120000
  15453  15459     1   0.14233 265014.560000
  15454  15458     1   0.14316 258236.480000
  15454  15470     1   0.14316 258236.480000
  15462  15468     1   0.14233 265014.560000
  15471  15472     1   0.15375 251793.120000
  15471  15485     1   0.15375 251793.120000
  15471  15493     1   0.14316 258236.480000
  15472  15475     1   0.15375 251793.120000
  15472  15484     1   0.14233 265014.560000
  15475  15476     1   0.15375 251793.120000
  15475  15483     1   0.14233 265014.560000
  15476  15477     1   0.15375 251793.120000
  15476  15482     1   0.14233 265014.560000
  15477  15481     1   0.14316 258236.480000
  15477  15493     1   0.14316 258236.480000
  15485  15491     1   0.14233 265014.560000
  15494  15495     1   0.15375 251793.120000
  15494  15508     1   0.15375 251793.120000
  15494  15516     1   0.14316 258236.480000
  15495  15498     1   0.15375 251793.120000
  15495  15507     1   0.14233 265014.560000
  15498  15499     1   0.15375 251793.120000
  15498  15506     1   0.14233 265014.560000
  15499  15500     1   0.15375 251793.120000
  15499  15505     1   0.14233 265014.560000
  15500  15504     1   0.14316 258236.480000
  15500  15516     1   0.14316 258236.480000
  15508  15514     1   0.14233 265014.560000
  15517  15518     1   0.15375 251793.120000
  15517  15531     1   0.15375 251793.120000
  15517  15539     1   0.14316 258236.480000
  15518  15521     1   0.15375 251793.120000
  15518  15530     1   0.14233 265014.560000
  15521  15522     1   0.15375 251793.120000
  15521  15529     1   0.14233 265014.560000
  15522  15523     1   0.15375 251793.120000
  15522  15528     1   0.14233 265014.560000
  15523  15527     1   0.14316 258236.480000
  15523  15539     1   0.14316 258236.480000
  15531  15537     1   0.14233 265014.560000
  15540  15541     1   0.15375 251793.120000
  15540  15554     1   0.15375 251793.120000
  15540  15562     1   0.14316 258236.480000
  15541  15544     1   0.15375 251793.120000
  15541  15553     1   0.14233 265014.560000
  15544  15545     1   0.15375 251793.120000
  15544  15552     1   0.14233 265014.560000
  15545  15546     1   0.15375 251793.120000
  15545  15551     1   0.14233 265014.560000
  15546  15550     1   0.14316 258236.480000
  15546  15562     1   0.14316 258236.480000
  15554  15560     1   0.14233 265014.560000
  15563  15564     1   0.15375 251793.120000
  15563  15577     1   0.15375 251793.120000
  15563  15585     1   0.14316 258236.480000
  15564  15567     1   0.15375 251793.120000
  15564  15576     1   0.14233 265014.560000
  15567  15568     1   0.15375 251793.120000
  15567  15575     1   0.14233 265014.560000
  15568  15569     1   0.15375 251793.120000
  15568  15574     1   0.14233 265014.560000
  15569  15573     1   0.14316 258236.480000
  15569  15585     1   0.14316 258236.480000
  15577  15583     1   0.14233 265014.560000
  15586  15587     1   0.15375 251793.120000
  15586  15600     1   0.15375 251793.120000
  15586  15608     1   0.14316 258236.480000
  15587  15590     1   0.15375 251793.120000
  15587  15599     1   0.14233 265014.560000
  15590  15591     1   0.15375 251793.120000
  15590  15598     1   0.14233 265014.560000
  15591  15592     1   0.15375 251793.120000
  15591  15597     1   0.14233 265014.560000
  15592  15596     1   0.14316 258236.480000
  15592  15608     1   0.14316 258236.480000
  15600  15606     1   0.14233 265014.560000
  15609  15610     1   0.15375 251793.120000
  15609  15623     1   0.15375 251793.120000
  15609  15631     1   0.14316 258236.480000
  15610  15613     1   0.15375 251793.120000
  15610  15622     1   0.14233 265014.560000
  15613  15614     1   0.15375 251793.120000
  15613  15621     1   0.14233 265014.560000
  15614  15615     1   0.15375 251793.120000
  15614  15620     1   0.14233 265014.560000
  15615  15619     1   0.14316 258236.480000
  15615  15631     1   0.14316 258236.480000
  15623  15629     1   0.14233 265014.560000
  15632  15633     1   0.15375 251793.120000
  15632  15646     1   0.15375 251793.120000
  15632  15654     1   0.14316 258236.480000
  15633  15636     1   0.15375 251793.120000
  15633  15645     1   0.14233 265014.560000
  15636  15637     1   0.15375 251793.120000
  15636  15644     1   0.14233 265014.560000
  15637  15638     1   0.15375 251793.120000
  15637  15643     1   0.14233 265014.560000
  15638  15642     1   0.14316 258236.480000
  15638  15654     1   0.14316 258236.480000
  15646  15652     1   0.14233 265014.560000
  15655  15656     1   0.15375 251793.120000
  15655  15669     1   0.15375 251793.120000
  15655  15677     1   0.14316 258236.480000
  15656  15659     1   0.15375 251793.120000
  15656  15668     1   0.14233 265014.560000
  15659  15660     1   0.15375 251793.120000
  15659  15667     1   0.14233 265014.560000
  15660  15661     1   0.15375 251793.120000
  15660  15666     1   0.14233 265014.560000
  15661  15665     1   0.14316 258236.480000
  15661  15677     1   0.14316 258236.480000
  15669  15675     1   0.14233 265014.560000
  15678  15679     1   0.15375 251793.120000
  15678  15692     1   0.15375 251793.120000
  15678  15700     1   0.14316 258236.480000
  15679  15682     1   0.15375 251793.120000
  15679  15691     1   0.14233 265014.560000
  15682  15683     1   0.15375 251793.120000
  15682  15690     1   0.14233 265014.560000
  15683  15684     1   0.15375 251793.120000
  15683  15689     1   0.14233 265014.560000
  15684  15688     1   0.14316 258236.480000
  15684  15700     1   0.14316 258236.480000
  15692  15698     1   0.14233 265014.560000
  15701  15702     1   0.15375 251793.120000
  15701  15715     1   0.15375 251793.120000
  15701  15723     1   0.14316 258236.480000
  15702  15705     1   0.15375 251793.120000
  15702  15714     1   0.14233 265014.560000
  15705  15706     1   0.15375 251793.120000
  15705  15713     1   0.14233 265014.560000
  15706  15707     1   0.15375 251793.120000
  15706  15712     1   0.14233 265014.560000
  15707  15711     1   0.14316 258236.480000
  15707  15723     1   0.14316 258236.480000
  15715  15721     1   0.14233 265014.560000
  15724  15725     1   0.15375 251793.120000
  15724  15738     1   0.15375 251793.120000
  15724  15746     1   0.14316 258236.480000
  15725  15728     1   0.15375 251793.120000
  15725  15737     1   0.14233 265014.560000
  15728  15729     1   0.15375 251793.120000
  15728  15736     1   0.14233 265014.560000
  15729  15730     1   0.15375 251793.120000
  15729  15735     1   0.14233 265014.560000
  15730  15734     1   0.14316 258236.480000
  15730  15746     1   0.14316 258236.480000
  15738  15744     1   0.14233 265014.560000
  15747  15748     1   0.15375 251793.120000
  15747  15761     1   0.15375 251793.120000
  15747  15769     1   0.14316 258236.480000
  15748  15751     1   0.15375 251793.120000
  15748  15760     1   0.14233 265014.560000
  15751  15752     1   0.15375 251793.120000
  15751  15759     1   0.14233 265014.560000
  15752  15753     1   0.15375 251793.120000
  15752  15758     1   0.14233 265014.560000
  15753  15757     1   0.14316 258236.480000
  15753  15769     1   0.14316 258236.480000
  15761  15767     1   0.14233 265014.560000
  15770  15771     1   0.15375 251793.120000
  15770  15784     1   0.15375 251793.120000
  15770  15792     1   0.14316 258236.480000
  15771  15774     1   0.15375 251793.120000
  15771  15783     1   0.14233 265014.560000
  15774  15775     1   0.15375 251793.120000
  15774  15782     1   0.14233 265014.560000
  15775  15776     1   0.15375 251793.120000
  15775  15781     1   0.14233 265014.560000
  15776  15780     1   0.14316 258236.480000
  15776  15792     1   0.14316 258236.480000
  15784  15790     1   0.14233 265014.560000
  15793  15794     1   0.15375 251793.120000
  15793  15807     1   0.15375 251793.120000
  15793  15815     1   0.14316 258236.480000
  15794  15797     1   0.15375 251793.120000
  15794  15806     1   0.14233 265014.560000
  15797  15798     1   0.15375 251793.120000
  15797  15805     1   0.14233 265014.560000
  15798  15799     1   0.15375 251793.120000
  15798  15804     1   0.14233 265014.560000
  15799  15803     1   0.14316 258236.480000
  15799  15815     1   0.14316 258236.480000
  15807  15813     1   0.14233 265014.560000
  15816  15817     1   0.15375 251793.120000
  15816  15830     1   0.15375 251793.120000
  15816  15838     1   0.14316 258236.480000
  15817  15820     1   0.15375 251793.120000
  15817  15829     1   0.14233 265014.560000
  15820  15821     1   0.15375 251793.120000
  15820  15828     1   0.14233 265014.560000
  15821  15822     1   0.15375 251793.120000
  15821  15827     1   0.14233 265014.560000
  15822  15826     1   0.14316 258236.480000
  15822  15838     1   0.14316 258236.480000
  15830  15836     1   0.14233 265014.560000
  15839  15840     1   0.15375 251793.120000
  15839  15853     1   0.15375 251793.120000
  15839  15861     1   0.14316 258236.480000
  15840  15843     1   0.15375 251793.120000
  15840  15852     1   0.14233 265014.560000
  15843  15844     1   0.15375 251793.120000
  15843  15851     1   0.14233 265014.560000
  15844  15845     1   0.15375 251793.120000
  15844  15850     1   0.14233 265014.560000
  15845  15849     1   0.14316 258236.480000
  15845  15861     1   0.14316 258236.480000
  15853  15859     1   0.14233 265014.560000
  15862  15863     1   0.15375 251793.120000
  15862  15876     1   0.15375 251793.120000
  15862  15884     1   0.14316 258236.480000
  15863  15866     1   0.15375 251793.120000
  15863  15875     1   0.14233 265014.560000
  15866  15867     1   0.15375 251793.120000
  15866  15874     1   0.14233 265014.560000
  15867  15868     1   0.15375 251793.120000
  15867  15873     1   0.14233 265014.560000
  15868  15872     1   0.14316 258236.480000
  15868  15884     1   0.14316 258236.480000
  15876  15882     1   0.14233 265014.560000
  15885  15886     1   0.15375 251793.120000
  15885  15899     1   0.15375 251793.120000
  15885  15907     1   0.14316 258236.480000
  15886  15889     1   0.15375 251793.120000
  15886  15898     1   0.14233 265014.560000
  15889  15890     1   0.15375 251793.120000
  15889  15897     1   0.14233 265014.560000
  15890  15891     1   0.15375 251793.120000
  15890  15896     1   0.14233 265014.560000
  15891  15895     1   0.14316 258236.480000
  15891  15907     1   0.14316 258236.480000
  15899  15905     1   0.14233 265014.560000
  15908  15909     1   0.15375 251793.120000
  15908  15922     1   0.15375 251793.120000
  15908  15930     1   0.14316 258236.480000
  15909  15912     1   0.15375 251793.120000
  15909  15921     1   0.14233 265014.560000
  15912  15913     1   0.15375 251793.120000
  15912  15920     1   0.14233 265014.560000
  15913  15914     1   0.15375 251793.120000
  15913  15919     1   0.14233 265014.560000
  15914  15918     1   0.14316 258236.480000
  15914  15930     1   0.14316 258236.480000
  15922  15928     1   0.14233 265014.560000
  15931  15932     1   0.15375 251793.120000
  15931  15945     1   0.15375 251793.120000
  15931  15953     1   0.14316 258236.480000
  15932  15935     1   0.15375 251793.120000
  15932  15944     1   0.14233 265014.560000
  15935  15936     1   0.15375 251793.120000
  15935  15943     1   0.14233 265014.560000
  15936  15937     1   0.15375 251793.120000
  15936  15942     1   0.14233 265014.560000
  15937  15941     1   0.14316 258236.480000
  15937  15953     1   0.14316 258236.480000
  15945  15951     1   0.14233 265014.560000
  15954  15955     1   0.15375 251793.120000
  15954  15968     1   0.15375 251793.120000
  15954  15976     1   0.14316 258236.480000
  15955  15958     1   0.15375 251793.120000
  15955  15967     1   0.14233 265014.560000
  15958  15959     1   0.15375 251793.120000
  15958  15966     1   0.14233 265014.560000
  15959  15960     1   0.15375 251793.120000
  15959  15965     1   0.14233 265014.560000
  15960  15964     1   0.14316 258236.480000
  15960  15976     1   0.14316 258236.480000
  15968  15974     1   0.14233 265014.560000
  15977  15978     1   0.15375 251793.120000
  15977  15991     1   0.15375 251793.120000
  15977  15999     1   0.14316 258236.480000
  15978  15981     1   0.15375 251793.120000
  15978  15990     1   0.14233 265014.560000
  15981  15982     1   0.15375 251793.120000
  15981  15989     1   0.14233 265014.560000
  15982  15983     1   0.15375 251793.120000
  15982  15988     1   0.14233 265014.560000
  15983  15987     1   0.14316 258236.480000
  15983  15999     1   0.14316 258236.480000
  15991  15997     1   0.14233 265014.560000
  16000  16001     1   0.15375 251793.120000
  16000  16014     1   0.15375 251793.120000
  16000  16022     1   0.14316 258236.480000
  16001  16004     1   0.15375 251793.120000
  16001  16013     1   0.14233 265014.560000
  16004  16005     1   0.15375 251793.120000
  16004  16012     1   0.14233 265014.560000
  16005  16006     1   0.15375 251793.120000
  16005  16011     1   0.14233 265014.560000
  16006  16010     1   0.14316 258236.480000
  16006  16022     1   0.14316 258236.480000
  16014  16020     1   0.14233 265014.560000
  16023  16024     1   0.15375 251793.120000
  16023  16037     1   0.15375 251793.120000
  16023  16045     1   0.14316 258236.480000
  16024  16027     1   0.15375 251793.120000
  16024  16036     1   0.14233 265014.560000
  16027  16028     1   0.15375 251793.120000
  16027  16035     1   0.14233 265014.560000
  16028  16029     1   0.15375 251793.120000
  16028  16034     1   0.14233 265014.560000
  16029  16033     1   0.14316 258236.480000
  16029  16045     1   0.14316 258236.480000
  16037  16043     1   0.14233 265014.560000
  16046  16047     1   0.15375 251793.120000
  16046  16060     1   0.15375 251793.120000
  16046  16068     1   0.14316 258236.480000
  16047  16050     1   0.15375 251793.120000
  16047  16059     1   0.14233 265014.560000
  16050  16051     1   0.15375 251793.120000
  16050  16058     1   0.14233 265014.560000
  16051  16052     1   0.15375 251793.120000
  16051  16057     1   0.14233 265014.560000
  16052  16056     1   0.14316 258236.480000
  16052  16068     1   0.14316 258236.480000
  16060  16066     1   0.14233 265014.560000
  16069  16070     1   0.15375 251793.120000
  16069  16083     1   0.15375 251793.120000
  16069  16091     1   0.14316 258236.480000
  16070  16073     1   0.15375 251793.120000
  16070  16082     1   0.14233 265014.560000
  16073  16074     1   0.15375 251793.120000
  16073  16081     1   0.14233 265014.560000
  16074  16075     1   0.15375 251793.120000
  16074  16080     1   0.14233 265014.560000
  16075  16079     1   0.14316 258236.480000
  16075  16091     1   0.14316 258236.480000
  16083  16089     1   0.14233 265014.560000
  16092  16093     1   0.15375 251793.120000
  16092  16106     1   0.15375 251793.120000
  16092  16114     1   0.14316 258236.480000
  16093  16096     1   0.15375 251793.120000
  16093  16105     1   0.14233 265014.560000
  16096  16097     1   0.15375 251793.120000
  16096  16104     1   0.14233 265014.560000
  16097  16098     1   0.15375 251793.120000
  16097  16103     1   0.14233 265014.560000
  16098  16102     1   0.14316 258236.480000
  16098  16114     1   0.14316 258236.480000
  16106  16112     1   0.14233 265014.560000
  16115  16116     1   0.15375 251793.120000
  16115  16129     1   0.15375 251793.120000
  16115  16137     1   0.14316 258236.480000
  16116  16119     1   0.15375 251793.120000
  16116  16128     1   0.14233 265014.560000
  16119  16120     1   0.15375 251793.120000
  16119  16127     1   0.14233 265014.560000
  16120  16121     1   0.15375 251793.120000
  16120  16126     1   0.14233 265014.560000
  16121  16125     1   0.14316 258236.480000
  16121  16137     1   0.14316 258236.480000
  16129  16135     1   0.14233 265014.560000
  16138  16139     1   0.15375 251793.120000
  16138  16152     1   0.15375 251793.120000
  16138  16160     1   0.14316 258236.480000
  16139  16142     1   0.15375 251793.120000
  16139  16151     1   0.14233 265014.560000
  16142  16143     1   0.15375 251793.120000
  16142  16150     1   0.14233 265014.560000
  16143  16144     1   0.15375 251793.120000
  16143  16149     1   0.14233 265014.560000
  16144  16148     1   0.14316 258236.480000
  16144  16160     1   0.14316 258236.480000
  16152  16158     1   0.14233 265014.560000
  16161  16162     1   0.15375 251793.120000
  16161  16175     1   0.15375 251793.120000
  16161  16183     1   0.14316 258236.480000
  16162  16165     1   0.15375 251793.120000
  16162  16174     1   0.14233 265014.560000
  16165  16166     1   0.15375 251793.120000
  16165  16173     1   0.14233 265014.560000
  16166  16167     1   0.15375 251793.120000
  16166  16172     1   0.14233 265014.560000
  16167  16171     1   0.14316 258236.480000
  16167  16183     1   0.14316 258236.480000
  16175  16181     1   0.14233 265014.560000
  16184  16185     1   0.15375 251793.120000
  16184  16198     1   0.15375 251793.120000
  16184  16206     1   0.14316 258236.480000
  16185  16188     1   0.15375 251793.120000
  16185  16197     1   0.14233 265014.560000
  16188  16189     1   0.15375 251793.120000
  16188  16196     1   0.14233 265014.560000
  16189  16190     1   0.15375 251793.120000
  16189  16195     1   0.14233 265014.560000
  16190  16194     1   0.14316 258236.480000
  16190  16206     1   0.14316 258236.480000
  16198  16204     1   0.14233 265014.560000
  16207  16208     1   0.15375 251793.120000
  16207  16221     1   0.15375 251793.120000
  16207  16229     1   0.14316 258236.480000
  16208  16211     1   0.15375 251793.120000
  16208  16220     1   0.14233 265014.560000
  16211  16212     1   0.15375 251793.120000
  16211  16219     1   0.14233 265014.560000
  16212  16213     1   0.15375 251793.120000
  16212  16218     1   0.14233 265014.560000
  16213  16217     1   0.14316 258236.480000
  16213  16229     1   0.14316 258236.480000
  16221  16227     1   0.14233 265014.560000
  16230  16231     1   0.15375 251793.120000
  16230  16244     1   0.15375 251793.120000
  16230  16252     1   0.14316 258236.480000
  16231  16234     1   0.15375 251793.120000
  16231  16243     1   0.14233 265014.560000
  16234  16235     1   0.15375 251793.120000
  16234  16242     1   0.14233 265014.560000
  16235  16236     1   0.15375 251793.120000
  16235  16241     1   0.14233 265014.560000
  16236  16240     1   0.14316 258236.480000
  16236  16252     1   0.14316 258236.480000
  16244  16250     1   0.14233 265014.560000
  16253  16254     1   0.15375 251793.120000
  16253  16267     1   0.15375 251793.120000
  16253  16275     1   0.14316 258236.480000
  16254  16257     1   0.15375 251793.120000
  16254  16266     1   0.14233 265014.560000
  16257  16258     1   0.15375 251793.120000
  16257  16265     1   0.14233 265014.560000
  16258  16259     1   0.15375 251793.120000
  16258  16264     1   0.14233 265014.560000
  16259  16263     1   0.14316 258236.480000
  16259  16275     1   0.14316 258236.480000
  16267  16273     1   0.14233 265014.560000
  16276  16277     1   0.15375 251793.120000
  16276  16290     1   0.15375 251793.120000
  16276  16298     1   0.14316 258236.480000
  16277  16280     1   0.15375 251793.120000
  16277  16289     1   0.14233 265014.560000
  16280  16281     1   0.15375 251793.120000
  16280  16288     1   0.14233 265014.560000
  16281  16282     1   0.15375 251793.120000
  16281  16287     1   0.14233 265014.560000
  16282  16286     1   0.14316 258236.480000
  16282  16298     1   0.14316 258236.480000
  16290  16296     1   0.14233 265014.560000
  16299  16300     1   0.15375 251793.120000
  16299  16313     1   0.15375 251793.120000
  16299  16321     1   0.14316 258236.480000
  16300  16303     1   0.15375 251793.120000
  16300  16312     1   0.14233 265014.560000
  16303  16304     1   0.15375 251793.120000
  16303  16311     1   0.14233 265014.560000
  16304  16305     1   0.15375 251793.120000
  16304  16310     1   0.14233 265014.560000
  16305  16309     1   0.14316 258236.480000
  16305  16321     1   0.14316 258236.480000
  16313  16319     1   0.14233 265014.560000
  16322  16323     1   0.15375 251793.120000
  16322  16336     1   0.15375 251793.120000
  16322  16344     1   0.14316 258236.480000
  16323  16326     1   0.15375 251793.120000
  16323  16335     1   0.14233 265014.560000
  16326  16327     1   0.15375 251793.120000
  16326  16334     1   0.14233 265014.560000
  16327  16328     1   0.15375 251793.120000
  16327  16333     1   0.14233 265014.560000
  16328  16332     1   0.14316 258236.480000
  16328  16344     1   0.14316 258236.480000
  16336  16342     1   0.14233 265014.560000
  16345  16346     1   0.15375 251793.120000
  16345  16359     1   0.15375 251793.120000
  16345  16367     1   0.14316 258236.480000
  16346  16349     1   0.15375 251793.120000
  16346  16358     1   0.14233 265014.560000
  16349  16350     1   0.15375 251793.120000
  16349  16357     1   0.14233 265014.560000
  16350  16351     1   0.15375 251793.120000
  16350  16356     1   0.14233 265014.560000
  16351  16355     1   0.14316 258236.480000
  16351  16367     1   0.14316 258236.480000
  16359  16365     1   0.14233 265014.560000
  16368  16369     1   0.15375 251793.120000
  16368  16382     1   0.15375 251793.120000
  16368  16390     1   0.14316 258236.480000
  16369  16372     1   0.15375 251793.120000
  16369  16381     1   0.14233 265014.560000
  16372  16373     1   0.15375 251793.120000
  16372  16380     1   0.14233 265014.560000
  16373  16374     1   0.15375 251793.120000
  16373  16379     1   0.14233 265014.560000
  16374  16378     1   0.14316 258236.480000
  16374  16390     1   0.14316 258236.480000
  16382  16388     1   0.14233 265014.560000
  16391  16392     1   0.15375 251793.120000
  16391  16405     1   0.15375 251793.120000
  16391  16413     1   0.14316 258236.480000
  16392  16395     1   0.15375 251793.120000
  16392  16404     1   0.14233 265014.560000
  16395  16396     1   0.15375 251793.120000
  16395  16403     1   0.14233 265014.560000
  16396  16397     1   0.15375 251793.120000
  16396  16402     1   0.14233 265014.560000
  16397  16401     1   0.14316 258236.480000
  16397  16413     1   0.14316 258236.480000
  16405  16411     1   0.14233 265014.560000
  16414  16415     1   0.15375 251793.120000
  16414  16428     1   0.15375 251793.120000
  16414  16436     1   0.14316 258236.480000
  16415  16418     1   0.15375 251793.120000
  16415  16427     1   0.14233 265014.560000
  16418  16419     1   0.15375 251793.120000
  16418  16426     1   0.14233 265014.560000
  16419  16420     1   0.15375 251793.120000
  16419  16425     1   0.14233 265014.560000
  16420  16424     1   0.14316 258236.480000
  16420  16436     1   0.14316 258236.480000
  16428  16434     1   0.14233 265014.560000
  16437  16438     1   0.15375 251793.120000
  16437  16451     1   0.15375 251793.120000
  16437  16459     1   0.14316 258236.480000
  16438  16441     1   0.15375 251793.120000
  16438  16450     1   0.14233 265014.560000
  16441  16442     1   0.15375 251793.120000
  16441  16449     1   0.14233 265014.560000
  16442  16443     1   0.15375 251793.120000
  16442  16448     1   0.14233 265014.560000
  16443  16447     1   0.14316 258236.480000
  16443  16459     1   0.14316 258236.480000
  16451  16457     1   0.14233 265014.560000
  16460  16461     1   0.15375 251793.120000
  16460  16474     1   0.15375 251793.120000
  16460  16482     1   0.14316 258236.480000
  16461  16464     1   0.15375 251793.120000
  16461  16473     1   0.14233 265014.560000
  16464  16465     1   0.15375 251793.120000
  16464  16472     1   0.14233 265014.560000
  16465  16466     1   0.15375 251793.120000
  16465  16471     1   0.14233 265014.560000
  16466  16470     1   0.14316 258236.480000
  16466  16482     1   0.14316 258236.480000
  16474  16480     1   0.14233 265014.560000
  16483  16484     1   0.15375 251793.120000
  16483  16497     1   0.15375 251793.120000
  16483  16505     1   0.14316 258236.480000
  16484  16487     1   0.15375 251793.120000
  16484  16496     1   0.14233 265014.560000
  16487  16488     1   0.15375 251793.120000
  16487  16495     1   0.14233 265014.560000
  16488  16489     1   0.15375 251793.120000
  16488  16494     1   0.14233 265014.560000
  16489  16493     1   0.14316 258236.480000
  16489  16505     1   0.14316 258236.480000
  16497  16503     1   0.14233 265014.560000
  16506  16507     1   0.15375 251793.120000
  16506  16520     1   0.15375 251793.120000
  16506  16528     1   0.14316 258236.480000
  16507  16510     1   0.15375 251793.120000
  16507  16519     1   0.14233 265014.560000
  16510  16511     1   0.15375 251793.120000
  16510  16518     1   0.14233 265014.560000
  16511  16512     1   0.15375 251793.120000
  16511  16517     1   0.14233 265014.560000
  16512  16516     1   0.14316 258236.480000
  16512  16528     1   0.14316 258236.480000
  16520  16526     1   0.14233 265014.560000
  16529  16530     1   0.15375 251793.120000
  16529  16543     1   0.15375 251793.120000
  16529  16551     1   0.14316 258236.480000
  16530  16533     1   0.15375 251793.120000
  16530  16542     1   0.14233 265014.560000
  16533  16534     1   0.15375 251793.120000
  16533  16541     1   0.14233 265014.560000
  16534  16535     1   0.15375 251793.120000
  16534  16540     1   0.14233 265014.560000
  16535  16539     1   0.14316 258236.480000
  16535  16551     1   0.14316 258236.480000
  16543  16549     1   0.14233 265014.560000
  16552  16553     1   0.15375 251793.120000
  16552  16566     1   0.15375 251793.120000
  16552  16574     1   0.14316 258236.480000
  16553  16556     1   0.15375 251793.120000
  16553  16565     1   0.14233 265014.560000
  16556  16557     1   0.15375 251793.120000
  16556  16564     1   0.14233 265014.560000
  16557  16558     1   0.15375 251793.120000
  16557  16563     1   0.14233 265014.560000
  16558  16562     1   0.14316 258236.480000
  16558  16574     1   0.14316 258236.480000
  16566  16572     1   0.14233 265014.560000
  16575  16576     1   0.15375 251793.120000
  16575  16589     1   0.15375 251793.120000
  16575  16597     1   0.14316 258236.480000
  16576  16579     1   0.15375 251793.120000
  16576  16588     1   0.14233 265014.560000
  16579  16580     1   0.15375 251793.120000
  16579  16587     1   0.14233 265014.560000
  16580  16581     1   0.15375 251793.120000
  16580  16586     1   0.14233 265014.560000
  16581  16585     1   0.14316 258236.480000
  16581  16597     1   0.14316 258236.480000
  16589  16595     1   0.14233 265014.560000
  16598  16599     1   0.15375 251793.120000
  16598  16612     1   0.15375 251793.120000
  16598  16620     1   0.14316 258236.480000
  16599  16602     1   0.15375 251793.120000
  16599  16611     1   0.14233 265014.560000
  16602  16603     1   0.15375 251793.120000
  16602  16610     1   0.14233 265014.560000
  16603  16604     1   0.15375 251793.120000
  16603  16609     1   0.14233 265014.560000
  16604  16608     1   0.14316 258236.480000
  16604  16620     1   0.14316 258236.480000
  16612  16618     1   0.14233 265014.560000
  16621  16622     1   0.15375 251793.120000
  16621  16635     1   0.15375 251793.120000
  16621  16643     1   0.14316 258236.480000
  16622  16625     1   0.15375 251793.120000
  16622  16634     1   0.14233 265014.560000
  16625  16626     1   0.15375 251793.120000
  16625  16633     1   0.14233 265014.560000
  16626  16627     1   0.15375 251793.120000
  16626  16632     1   0.14233 265014.560000
  16627  16631     1   0.14316 258236.480000
  16627  16643     1   0.14316 258236.480000
  16635  16641     1   0.14233 265014.560000
  16644  16645     1   0.15375 251793.120000
  16644  16658     1   0.15375 251793.120000
  16644  16666     1   0.14316 258236.480000
  16645  16648     1   0.15375 251793.120000
  16645  16657     1   0.14233 265014.560000
  16648  16649     1   0.15375 251793.120000
  16648  16656     1   0.14233 265014.560000
  16649  16650     1   0.15375 251793.120000
  16649  16655     1   0.14233 265014.560000
  16650  16654     1   0.14316 258236.480000
  16650  16666     1   0.14316 258236.480000
  16658  16664     1   0.14233 265014.560000
  16667  16668     1   0.15375 251793.120000
  16667  16681     1   0.15375 251793.120000
  16667  16689     1   0.14316 258236.480000
  16668  16671     1   0.15375 251793.120000
  16668  16680     1   0.14233 265014.560000
  16671  16672     1   0.15375 251793.120000
  16671  16679     1   0.14233 265014.560000
  16672  16673     1   0.15375 251793.120000
  16672  16678     1   0.14233 265014.560000
  16673  16677     1   0.14316 258236.480000
  16673  16689     1   0.14316 258236.480000
  16681  16687     1   0.14233 265014.560000
  16690  16691     1   0.15375 251793.120000
  16690  16704     1   0.15375 251793.120000
  16690  16712     1   0.14316 258236.480000
  16691  16694     1   0.15375 251793.120000
  16691  16703     1   0.14233 265014.560000
  16694  16695     1   0.15375 251793.120000
  16694  16702     1   0.14233 265014.560000
  16695  16696     1   0.15375 251793.120000
  16695  16701     1   0.14233 265014.560000
  16696  16700     1   0.14316 258236.480000
  16696  16712     1   0.14316 258236.480000
  16704  16710     1   0.14233 265014.560000
  16713  16714     1   0.15375 251793.120000
  16713  16727     1   0.15375 251793.120000
  16713  16735     1   0.14316 258236.480000
  16714  16717     1   0.15375 251793.120000
  16714  16726     1   0.14233 265014.560000
  16717  16718     1   0.15375 251793.120000
  16717  16725     1   0.14233 265014.560000
  16718  16719     1   0.15375 251793.120000
  16718  16724     1   0.14233 265014.560000
  16719  16723     1   0.14316 258236.480000
  16719  16735     1   0.14316 258236.480000
  16727  16733     1   0.14233 265014.560000
  16736  16737     1   0.15375 251793.120000
  16736  16750     1   0.15375 251793.120000
  16736  16758     1   0.14316 258236.480000
  16737  16740     1   0.15375 251793.120000
  16737  16749     1   0.14233 265014.560000
  16740  16741     1   0.15375 251793.120000
  16740  16748     1   0.14233 265014.560000
  16741  16742     1   0.15375 251793.120000
  16741  16747     1   0.14233 265014.560000
  16742  16746     1   0.14316 258236.480000
  16742  16758     1   0.14316 258236.480000
  16750  16756     1   0.14233 265014.560000
  16759  16760     1   0.15375 251793.120000
  16759  16773     1   0.15375 251793.120000
  16759  16781     1   0.14316 258236.480000
  16760  16763     1   0.15375 251793.120000
  16760  16772     1   0.14233 265014.560000
  16763  16764     1   0.15375 251793.120000
  16763  16771     1   0.14233 265014.560000
  16764  16765     1   0.15375 251793.120000
  16764  16770     1   0.14233 265014.560000
  16765  16769     1   0.14316 258236.480000
  16765  16781     1   0.14316 258236.480000
  16773  16779     1   0.14233 265014.560000
  16782  16783     1   0.15375 251793.120000
  16782  16796     1   0.15375 251793.120000
  16782  16804     1   0.14316 258236.480000
  16783  16786     1   0.15375 251793.120000
  16783  16795     1   0.14233 265014.560000
  16786  16787     1   0.15375 251793.120000
  16786  16794     1   0.14233 265014.560000
  16787  16788     1   0.15375 251793.120000
  16787  16793     1   0.14233 265014.560000
  16788  16792     1   0.14316 258236.480000
  16788  16804     1   0.14316 258236.480000
  16796  16802     1   0.14233 265014.560000
  16805  16806     1   0.15375 251793.120000
  16805  16819     1   0.15375 251793.120000
  16805  16827     1   0.14316 258236.480000
  16806  16809     1   0.15375 251793.120000
  16806  16818     1   0.14233 265014.560000
  16809  16810     1   0.15375 251793.120000
  16809  16817     1   0.14233 265014.560000
  16810  16811     1   0.15375 251793.120000
  16810  16816     1   0.14233 265014.560000
  16811  16815     1   0.14316 258236.480000
  16811  16827     1   0.14316 258236.480000
  16819  16825     1   0.14233 265014.560000
  16828  16829     1   0.15375 251793.120000
  16828  16842     1   0.15375 251793.120000
  16828  16850     1   0.14316 258236.480000
  16829  16832     1   0.15375 251793.120000
  16829  16841     1   0.14233 265014.560000
  16832  16833     1   0.15375 251793.120000
  16832  16840     1   0.14233 265014.560000
  16833  16834     1   0.15375 251793.120000
  16833  16839     1   0.14233 265014.560000
  16834  16838     1   0.14316 258236.480000
  16834  16850     1   0.14316 258236.480000
  16842  16848     1   0.14233 265014.560000
  16851  16852     1   0.15375 251793.120000
  16851  16865     1   0.15375 251793.120000
  16851  16873     1   0.14316 258236.480000
  16852  16855     1   0.15375 251793.120000
  16852  16864     1   0.14233 265014.560000
  16855  16856     1   0.15375 251793.120000
  16855  16863     1   0.14233 265014.560000
  16856  16857     1   0.15375 251793.120000
  16856  16862     1   0.14233 265014.560000
  16857  16861     1   0.14316 258236.480000
  16857  16873     1   0.14316 258236.480000
  16865  16871     1   0.14233 265014.560000
  16874  16875     1   0.15375 251793.120000
  16874  16888     1   0.15375 251793.120000
  16874  16896     1   0.14316 258236.480000
  16875  16878     1   0.15375 251793.120000
  16875  16887     1   0.14233 265014.560000
  16878  16879     1   0.15375 251793.120000
  16878  16886     1   0.14233 265014.560000
  16879  16880     1   0.15375 251793.120000
  16879  16885     1   0.14233 265014.560000
  16880  16884     1   0.14316 258236.480000
  16880  16896     1   0.14316 258236.480000
  16888  16894     1   0.14233 265014.560000
  16897  16898     1   0.15375 251793.120000
  16897  16911     1   0.15375 251793.120000
  16897  16919     1   0.14316 258236.480000
  16898  16901     1   0.15375 251793.120000
  16898  16910     1   0.14233 265014.560000
  16901  16902     1   0.15375 251793.120000
  16901  16909     1   0.14233 265014.560000
  16902  16903     1   0.15375 251793.120000
  16902  16908     1   0.14233 265014.560000
  16903  16907     1   0.14316 258236.480000
  16903  16919     1   0.14316 258236.480000
  16911  16917     1   0.14233 265014.560000
  16920  16921     1   0.15375 251793.120000
  16920  16934     1   0.15375 251793.120000
  16920  16942     1   0.14316 258236.480000
  16921  16924     1   0.15375 251793.120000
  16921  16933     1   0.14233 265014.560000
  16924  16925     1   0.15375 251793.120000
  16924  16932     1   0.14233 265014.560000
  16925  16926     1   0.15375 251793.120000
  16925  16931     1   0.14233 265014.560000
  16926  16930     1   0.14316 258236.480000
  16926  16942     1   0.14316 258236.480000
  16934  16940     1   0.14233 265014.560000
  16943  16944     1   0.15375 251793.120000
  16943  16957     1   0.15375 251793.120000
  16943  16965     1   0.14316 258236.480000
  16944  16947     1   0.15375 251793.120000
  16944  16956     1   0.14233 265014.560000
  16947  16948     1   0.15375 251793.120000
  16947  16955     1   0.14233 265014.560000
  16948  16949     1   0.15375 251793.120000
  16948  16954     1   0.14233 265014.560000
  16949  16953     1   0.14316 258236.480000
  16949  16965     1   0.14316 258236.480000
  16957  16963     1   0.14233 265014.560000
  16966  16967     1   0.15375 251793.120000
  16966  16980     1   0.15375 251793.120000
  16966  16988     1   0.14316 258236.480000
  16967  16970     1   0.15375 251793.120000
  16967  16979     1   0.14233 265014.560000
  16970  16971     1   0.15375 251793.120000
  16970  16978     1   0.14233 265014.560000
  16971  16972     1   0.15375 251793.120000
  16971  16977     1   0.14233 265014.560000
  16972  16976     1   0.14316 258236.480000
  16972  16988     1   0.14316 258236.480000
  16980  16986     1   0.14233 265014.560000
  16989  16990     1   0.15375 251793.120000
  16989  17003     1   0.15375 251793.120000
  16989  17011     1   0.14316 258236.480000
  16990  16993     1   0.15375 251793.120000
  16990  17002     1   0.14233 265014.560000
  16993  16994     1   0.15375 251793.120000
  16993  17001     1   0.14233 265014.560000
  16994  16995     1   0.15375 251793.120000
  16994  17000     1   0.14233 265014.560000
  16995  16999     1   0.14316 258236.480000
  16995  17011     1   0.14316 258236.480000
  17003  17009     1   0.14233 265014.560000
  17012  17013     1   0.15375 251793.120000
  17012  17026     1   0.15375 251793.120000
  17012  17034     1   0.14316 258236.480000
  17013  17016     1   0.15375 251793.120000
  17013  17025     1   0.14233 265014.560000
  17016  17017     1   0.15375 251793.120000
  17016  17024     1   0.14233 265014.560000
  17017  17018     1   0.15375 251793.120000
  17017  17023     1   0.14233 265014.560000
  17018  17022     1   0.14316 258236.480000
  17018  17034     1   0.14316 258236.480000
  17026  17032     1   0.14233 265014.560000
  17035  17036     1   0.15375 251793.120000
  17035  17049     1   0.15375 251793.120000
  17035  17057     1   0.14316 258236.480000
  17036  17039     1   0.15375 251793.120000
  17036  17048     1   0.14233 265014.560000
  17039  17040     1   0.15375 251793.120000
  17039  17047     1   0.14233 265014.560000
  17040  17041     1   0.15375 251793.120000
  17040  17046     1   0.14233 265014.560000
  17041  17045     1   0.14316 258236.480000
  17041  17057     1   0.14316 258236.480000
  17049  17055     1   0.14233 265014.560000
  17058  17059     1   0.15375 251793.120000
  17058  17072     1   0.15375 251793.120000
  17058  17080     1   0.14316 258236.480000
  17059  17062     1   0.15375 251793.120000
  17059  17071     1   0.14233 265014.560000
  17062  17063     1   0.15375 251793.120000
  17062  17070     1   0.14233 265014.560000
  17063  17064     1   0.15375 251793.120000
  17063  17069     1   0.14233 265014.560000
  17064  17068     1   0.14316 258236.480000
  17064  17080     1   0.14316 258236.480000
  17072  17078     1   0.14233 265014.560000
  17081  17082     1   0.15375 251793.120000
  17081  17095     1   0.15375 251793.120000
  17081  17103     1   0.14316 258236.480000
  17082  17085     1   0.15375 251793.120000
  17082  17094     1   0.14233 265014.560000
  17085  17086     1   0.15375 251793.120000
  17085  17093     1   0.14233 265014.560000
  17086  17087     1   0.15375 251793.120000
  17086  17092     1   0.14233 265014.560000
  17087  17091     1   0.14316 258236.480000
  17087  17103     1   0.14316 258236.480000
  17095  17101     1   0.14233 265014.560000
  17104  17105     1   0.15375 251793.120000
  17104  17118     1   0.15375 251793.120000
  17104  17126     1   0.14316 258236.480000
  17105  17108     1   0.15375 251793.120000
  17105  17117     1   0.14233 265014.560000
  17108  17109     1   0.15375 251793.120000
  17108  17116     1   0.14233 265014.560000
  17109  17110     1   0.15375 251793.120000
  17109  17115     1   0.14233 265014.560000
  17110  17114     1   0.14316 258236.480000
  17110  17126     1   0.14316 258236.480000
  17118  17124     1   0.14233 265014.560000
  17127  17128     1   0.15375 251793.120000
  17127  17141     1   0.15375 251793.120000
  17127  17149     1   0.14316 258236.480000
  17128  17131     1   0.15375 251793.120000
  17128  17140     1   0.14233 265014.560000
  17131  17132     1   0.15375 251793.120000
  17131  17139     1   0.14233 265014.560000
  17132  17133     1   0.15375 251793.120000
  17132  17138     1   0.14233 265014.560000
  17133  17137     1   0.14316 258236.480000
  17133  17149     1   0.14316 258236.480000
  17141  17147     1   0.14233 265014.560000
  17150  17151     1   0.15375 251793.120000
  17150  17164     1   0.15375 251793.120000
  17150  17172     1   0.14316 258236.480000
  17151  17154     1   0.15375 251793.120000
  17151  17163     1   0.14233 265014.560000
  17154  17155     1   0.15375 251793.120000
  17154  17162     1   0.14233 265014.560000
  17155  17156     1   0.15375 251793.120000
  17155  17161     1   0.14233 265014.560000
  17156  17160     1   0.14316 258236.480000
  17156  17172     1   0.14316 258236.480000
  17164  17170     1   0.14233 265014.560000
  17173  17174     1   0.15375 251793.120000
  17173  17187     1   0.15375 251793.120000
  17173  17195     1   0.14316 258236.480000
  17174  17177     1   0.15375 251793.120000
  17174  17186     1   0.14233 265014.560000
  17177  17178     1   0.15375 251793.120000
  17177  17185     1   0.14233 265014.560000
  17178  17179     1   0.15375 251793.120000
  17178  17184     1   0.14233 265014.560000
  17179  17183     1   0.14316 258236.480000
  17179  17195     1   0.14316 258236.480000
  17187  17193     1   0.14233 265014.560000
  17196  17197     1   0.15375 251793.120000
  17196  17210     1   0.15375 251793.120000
  17196  17218     1   0.14316 258236.480000
  17197  17200     1   0.15375 251793.120000
  17197  17209     1   0.14233 265014.560000
  17200  17201     1   0.15375 251793.120000
  17200  17208     1   0.14233 265014.560000
  17201  17202     1   0.15375 251793.120000
  17201  17207     1   0.14233 265014.560000
  17202  17206     1   0.14316 258236.480000
  17202  17218     1   0.14316 258236.480000
  17210  17216     1   0.14233 265014.560000
  17219  17220     1   0.15375 251793.120000
  17219  17233     1   0.15375 251793.120000
  17219  17241     1   0.14316 258236.480000
  17220  17223     1   0.15375 251793.120000
  17220  17232     1   0.14233 265014.560000
  17223  17224     1   0.15375 251793.120000
  17223  17231     1   0.14233 265014.560000
  17224  17225     1   0.15375 251793.120000
  17224  17230     1   0.14233 265014.560000
  17225  17229     1   0.14316 258236.480000
  17225  17241     1   0.14316 258236.480000
  17233  17239     1   0.14233 265014.560000
  17242  17243     1   0.15375 251793.120000
  17242  17256     1   0.15375 251793.120000
  17242  17264     1   0.14316 258236.480000
  17243  17246     1   0.15375 251793.120000
  17243  17255     1   0.14233 265014.560000
  17246  17247     1   0.15375 251793.120000
  17246  17254     1   0.14233 265014.560000
  17247  17248     1   0.15375 251793.120000
  17247  17253     1   0.14233 265014.560000
  17248  17252     1   0.14316 258236.480000
  17248  17264     1   0.14316 258236.480000
  17256  17262     1   0.14233 265014.560000
  17265  17266     1   0.15375 251793.120000
  17265  17279     1   0.15375 251793.120000
  17265  17287     1   0.14316 258236.480000
  17266  17269     1   0.15375 251793.120000
  17266  17278     1   0.14233 265014.560000
  17269  17270     1   0.15375 251793.120000
  17269  17277     1   0.14233 265014.560000
  17270  17271     1   0.15375 251793.120000
  17270  17276     1   0.14233 265014.560000
  17271  17275     1   0.14316 258236.480000
  17271  17287     1   0.14316 258236.480000
  17279  17285     1   0.14233 265014.560000
  17288  17289     1   0.15375 251793.120000
  17288  17302     1   0.15375 251793.120000
  17288  17310     1   0.14316 258236.480000
  17289  17292     1   0.15375 251793.120000
  17289  17301     1   0.14233 265014.560000
  17292  17293     1   0.15375 251793.120000
  17292  17300     1   0.14233 265014.560000
  17293  17294     1   0.15375 251793.120000
  17293  17299     1   0.14233 265014.560000
  17294  17298     1   0.14316 258236.480000
  17294  17310     1   0.14316 258236.480000
  17302  17308     1   0.14233 265014.560000
  17311  17312     1   0.15375 251793.120000
  17311  17325     1   0.15375 251793.120000
  17311  17333     1   0.14316 258236.480000
  17312  17315     1   0.15375 251793.120000
  17312  17324     1   0.14233 265014.560000
  17315  17316     1   0.15375 251793.120000
  17315  17323     1   0.14233 265014.560000
  17316  17317     1   0.15375 251793.120000
  17316  17322     1   0.14233 265014.560000
  17317  17321     1   0.14316 258236.480000
  17317  17333     1   0.14316 258236.480000
  17325  17331     1   0.14233 265014.560000
  17334  17335     1   0.15375 251793.120000
  17334  17348     1   0.15375 251793.120000
  17334  17356     1   0.14316 258236.480000
  17335  17338     1   0.15375 251793.120000
  17335  17347     1   0.14233 265014.560000
  17338  17339     1   0.15375 251793.120000
  17338  17346     1   0.14233 265014.560000
  17339  17340     1   0.15375 251793.120000
  17339  17345     1   0.14233 265014.560000
  17340  17344     1   0.14316 258236.480000
  17340  17356     1   0.14316 258236.480000
  17348  17354     1   0.14233 265014.560000
  17357  17358     1   0.15375 251793.120000
  17357  17371     1   0.15375 251793.120000
  17357  17379     1   0.14316 258236.480000
  17358  17361     1   0.15375 251793.120000
  17358  17370     1   0.14233 265014.560000
  17361  17362     1   0.15375 251793.120000
  17361  17369     1   0.14233 265014.560000
  17362  17363     1   0.15375 251793.120000
  17362  17368     1   0.14233 265014.560000
  17363  17367     1   0.14316 258236.480000
  17363  17379     1   0.14316 258236.480000
  17371  17377     1   0.14233 265014.560000
  17380  17381     1   0.15375 251793.120000
  17380  17394     1   0.15375 251793.120000
  17380  17402     1   0.14316 258236.480000
  17381  17384     1   0.15375 251793.120000
  17381  17393     1   0.14233 265014.560000
  17384  17385     1   0.15375 251793.120000
  17384  17392     1   0.14233 265014.560000
  17385  17386     1   0.15375 251793.120000
  17385  17391     1   0.14233 265014.560000
  17386  17390     1   0.14316 258236.480000
  17386  17402     1   0.14316 258236.480000
  17394  17400     1   0.14233 265014.560000
  17403  17404     1   0.15375 251793.120000
  17403  17417     1   0.15375 251793.120000
  17403  17425     1   0.14316 258236.480000
  17404  17407     1   0.15375 251793.120000
  17404  17416     1   0.14233 265014.560000
  17407  17408     1   0.15375 251793.120000
  17407  17415     1   0.14233 265014.560000
  17408  17409     1   0.15375 251793.120000
  17408  17414     1   0.14233 265014.560000
  17409  17413     1   0.14316 258236.480000
  17409  17425     1   0.14316 258236.480000
  17417  17423     1   0.14233 265014.560000
  17426  17427     1   0.15375 251793.120000
  17426  17440     1   0.15375 251793.120000
  17426  17448     1   0.14316 258236.480000
  17427  17430     1   0.15375 251793.120000
  17427  17439     1   0.14233 265014.560000
  17430  17431     1   0.15375 251793.120000
  17430  17438     1   0.14233 265014.560000
  17431  17432     1   0.15375 251793.120000
  17431  17437     1   0.14233 265014.560000
  17432  17436     1   0.14316 258236.480000
  17432  17448     1   0.14316 258236.480000
  17440  17446     1   0.14233 265014.560000
  17449  17450     1   0.15375 251793.120000
  17449  17463     1   0.15375 251793.120000
  17449  17471     1   0.14316 258236.480000
  17450  17453     1   0.15375 251793.120000
  17450  17462     1   0.14233 265014.560000
  17453  17454     1   0.15375 251793.120000
  17453  17461     1   0.14233 265014.560000
  17454  17455     1   0.15375 251793.120000
  17454  17460     1   0.14233 265014.560000
  17455  17459     1   0.14316 258236.480000
  17455  17471     1   0.14316 258236.480000
  17463  17469     1   0.14233 265014.560000
  17472  17473     1   0.15375 251793.120000
  17472  17486     1   0.15375 251793.120000
  17472  17494     1   0.14316 258236.480000
  17473  17476     1   0.15375 251793.120000
  17473  17485     1   0.14233 265014.560000
  17476  17477     1   0.15375 251793.120000
  17476  17484     1   0.14233 265014.560000
  17477  17478     1   0.15375 251793.120000
  17477  17483     1   0.14233 265014.560000
  17478  17482     1   0.14316 258236.480000
  17478  17494     1   0.14316 258236.480000
  17486  17492     1   0.14233 265014.560000
  17495  17496     1   0.15375 251793.120000
  17495  17509     1   0.15375 251793.120000
  17495  17517     1   0.14316 258236.480000
  17496  17499     1   0.15375 251793.120000
  17496  17508     1   0.14233 265014.560000
  17499  17500     1   0.15375 251793.120000
  17499  17507     1   0.14233 265014.560000
  17500  17501     1   0.15375 251793.120000
  17500  17506     1   0.14233 265014.560000
  17501  17505     1   0.14316 258236.480000
  17501  17517     1   0.14316 258236.480000
  17509  17515     1   0.14233 265014.560000
  17518  17519     1   0.15375 251793.120000
  17518  17532     1   0.15375 251793.120000
  17518  17540     1   0.14316 258236.480000
  17519  17522     1   0.15375 251793.120000
  17519  17531     1   0.14233 265014.560000
  17522  17523     1   0.15375 251793.120000
  17522  17530     1   0.14233 265014.560000
  17523  17524     1   0.15375 251793.120000
  17523  17529     1   0.14233 265014.560000
  17524  17528     1   0.14316 258236.480000
  17524  17540     1   0.14316 258236.480000
  17532  17538     1   0.14233 265014.560000
  17541  17542     1   0.15375 251793.120000
  17541  17555     1   0.15375 251793.120000
  17541  17563     1   0.14316 258236.480000
  17542  17545     1   0.15375 251793.120000
  17542  17554     1   0.14233 265014.560000
  17545  17546     1   0.15375 251793.120000
  17545  17553     1   0.14233 265014.560000
  17546  17547     1   0.15375 251793.120000
  17546  17552     1   0.14233 265014.560000
  17547  17551     1   0.14316 258236.480000
  17547  17563     1   0.14316 258236.480000
  17555  17561     1   0.14233 265014.560000
  17564  17565     1   0.15375 251793.120000
  17564  17578     1   0.15375 251793.120000
  17564  17586     1   0.14316 258236.480000
  17565  17568     1   0.15375 251793.120000
  17565  17577     1   0.14233 265014.560000
  17568  17569     1   0.15375 251793.120000
  17568  17576     1   0.14233 265014.560000
  17569  17570     1   0.15375 251793.120000
  17569  17575     1   0.14233 265014.560000
  17570  17574     1   0.14316 258236.480000
  17570  17586     1   0.14316 258236.480000
  17578  17584     1   0.14233 265014.560000
  17587  17588     1   0.15375 251793.120000
  17587  17601     1   0.15375 251793.120000
  17587  17609     1   0.14316 258236.480000
  17588  17591     1   0.15375 251793.120000
  17588  17600     1   0.14233 265014.560000
  17591  17592     1   0.15375 251793.120000
  17591  17599     1   0.14233 265014.560000
  17592  17593     1   0.15375 251793.120000
  17592  17598     1   0.14233 265014.560000
  17593  17597     1   0.14316 258236.480000
  17593  17609     1   0.14316 258236.480000
  17601  17607     1   0.14233 265014.560000
  17610  17611     1   0.15375 251793.120000
  17610  17624     1   0.15375 251793.120000
  17610  17632     1   0.14316 258236.480000
  17611  17614     1   0.15375 251793.120000
  17611  17623     1   0.14233 265014.560000
  17614  17615     1   0.15375 251793.120000
  17614  17622     1   0.14233 265014.560000
  17615  17616     1   0.15375 251793.120000
  17615  17621     1   0.14233 265014.560000
  17616  17620     1   0.14316 258236.480000
  17616  17632     1   0.14316 258236.480000
  17624  17630     1   0.14233 265014.560000
  17633  17634     1   0.15375 251793.120000
  17633  17647     1   0.15375 251793.120000
  17633  17655     1   0.14316 258236.480000
  17634  17637     1   0.15375 251793.120000
  17634  17646     1   0.14233 265014.560000
  17637  17638     1   0.15375 251793.120000
  17637  17645     1   0.14233 265014.560000
  17638  17639     1   0.15375 251793.120000
  17638  17644     1   0.14233 265014.560000
  17639  17643     1   0.14316 258236.480000
  17639  17655     1   0.14316 258236.480000
  17647  17653     1   0.14233 265014.560000
  17656  17657     1   0.15375 251793.120000
  17656  17670     1   0.15375 251793.120000
  17656  17678     1   0.14316 258236.480000
  17657  17660     1   0.15375 251793.120000
  17657  17669     1   0.14233 265014.560000
  17660  17661     1   0.15375 251793.120000
  17660  17668     1   0.14233 265014.560000
  17661  17662     1   0.15375 251793.120000
  17661  17667     1   0.14233 265014.560000
  17662  17666     1   0.14316 258236.480000
  17662  17678     1   0.14316 258236.480000
  17670  17676     1   0.14233 265014.560000
  17679  17680     1   0.15375 251793.120000
  17679  17693     1   0.15375 251793.120000
  17679  17701     1   0.14316 258236.480000
  17680  17683     1   0.15375 251793.120000
  17680  17692     1   0.14233 265014.560000
  17683  17684     1   0.15375 251793.120000
  17683  17691     1   0.14233 265014.560000
  17684  17685     1   0.15375 251793.120000
  17684  17690     1   0.14233 265014.560000
  17685  17689     1   0.14316 258236.480000
  17685  17701     1   0.14316 258236.480000
  17693  17699     1   0.14233 265014.560000
  17702  17703     1   0.15375 251793.120000
  17702  17716     1   0.15375 251793.120000
  17702  17724     1   0.14316 258236.480000
  17703  17706     1   0.15375 251793.120000
  17703  17715     1   0.14233 265014.560000
  17706  17707     1   0.15375 251793.120000
  17706  17714     1   0.14233 265014.560000
  17707  17708     1   0.15375 251793.120000
  17707  17713     1   0.14233 265014.560000
  17708  17712     1   0.14316 258236.480000
  17708  17724     1   0.14316 258236.480000
  17716  17722     1   0.14233 265014.560000
  17725  17726     1   0.15375 251793.120000
  17725  17739     1   0.15375 251793.120000
  17725  17747     1   0.14316 258236.480000
  17726  17729     1   0.15375 251793.120000
  17726  17738     1   0.14233 265014.560000
  17729  17730     1   0.15375 251793.120000
  17729  17737     1   0.14233 265014.560000
  17730  17731     1   0.15375 251793.120000
  17730  17736     1   0.14233 265014.560000
  17731  17735     1   0.14316 258236.480000
  17731  17747     1   0.14316 258236.480000
  17739  17745     1   0.14233 265014.560000
  17748  17749     1   0.15375 251793.120000
  17748  17762     1   0.15375 251793.120000
  17748  17770     1   0.14316 258236.480000
  17749  17752     1   0.15375 251793.120000
  17749  17761     1   0.14233 265014.560000
  17752  17753     1   0.15375 251793.120000
  17752  17760     1   0.14233 265014.560000
  17753  17754     1   0.15375 251793.120000
  17753  17759     1   0.14233 265014.560000
  17754  17758     1   0.14316 258236.480000
  17754  17770     1   0.14316 258236.480000
  17762  17768     1   0.14233 265014.560000
  17771  17772     1   0.15375 251793.120000
  17771  17785     1   0.15375 251793.120000
  17771  17793     1   0.14316 258236.480000
  17772  17775     1   0.15375 251793.120000
  17772  17784     1   0.14233 265014.560000
  17775  17776     1   0.15375 251793.120000
  17775  17783     1   0.14233 265014.560000
  17776  17777     1   0.15375 251793.120000
  17776  17782     1   0.14233 265014.560000
  17777  17781     1   0.14316 258236.480000
  17777  17793     1   0.14316 258236.480000
  17785  17791     1   0.14233 265014.560000
  17794  17795     1   0.15375 251793.120000
  17794  17808     1   0.15375 251793.120000
  17794  17816     1   0.14316 258236.480000
  17795  17798     1   0.15375 251793.120000
  17795  17807     1   0.14233 265014.560000
  17798  17799     1   0.15375 251793.120000
  17798  17806     1   0.14233 265014.560000
  17799  17800     1   0.15375 251793.120000
  17799  17805     1   0.14233 265014.560000
  17800  17804     1   0.14316 258236.480000
  17800  17816     1   0.14316 258236.480000
  17808  17814     1   0.14233 265014.560000
  17817  17818     1   0.15375 251793.120000
  17817  17831     1   0.15375 251793.120000
  17817  17839     1   0.14316 258236.480000
  17818  17821     1   0.15375 251793.120000
  17818  17830     1   0.14233 265014.560000
  17821  17822     1   0.15375 251793.120000
  17821  17829     1   0.14233 265014.560000
  17822  17823     1   0.15375 251793.120000
  17822  17828     1   0.14233 265014.560000
  17823  17827     1   0.14316 258236.480000
  17823  17839     1   0.14316 258236.480000
  17831  17837     1   0.14233 265014.560000
  17840  17841     1   0.15375 251793.120000
  17840  17854     1   0.15375 251793.120000
  17840  17862     1   0.14316 258236.480000
  17841  17844     1   0.15375 251793.120000
  17841  17853     1   0.14233 265014.560000
  17844  17845     1   0.15375 251793.120000
  17844  17852     1   0.14233 265014.560000
  17845  17846     1   0.15375 251793.120000
  17845  17851     1   0.14233 265014.560000
  17846  17850     1   0.14316 258236.480000
  17846  17862     1   0.14316 258236.480000
  17854  17860     1   0.14233 265014.560000
  17863  17864     1   0.15375 251793.120000
  17863  17877     1   0.15375 251793.120000
  17863  17885     1   0.14316 258236.480000
  17864  17867     1   0.15375 251793.120000
  17864  17876     1   0.14233 265014.560000
  17867  17868     1   0.15375 251793.120000
  17867  17875     1   0.14233 265014.560000
  17868  17869     1   0.15375 251793.120000
  17868  17874     1   0.14233 265014.560000
  17869  17873     1   0.14316 258236.480000
  17869  17885     1   0.14316 258236.480000
  17877  17883     1   0.14233 265014.560000
  17886  17887     1   0.15375 251793.120000
  17886  17900     1   0.15375 251793.120000
  17886  17908     1   0.14316 258236.480000
  17887  17890     1   0.15375 251793.120000
  17887  17899     1   0.14233 265014.560000
  17890  17891     1   0.15375 251793.120000
  17890  17898     1   0.14233 265014.560000
  17891  17892     1   0.15375 251793.120000
  17891  17897     1   0.14233 265014.560000
  17892  17896     1   0.14316 258236.480000
  17892  17908     1   0.14316 258236.480000
  17900  17906     1   0.14233 265014.560000
  17909  17910     1   0.15375 251793.120000
  17909  17923     1   0.15375 251793.120000
  17909  17931     1   0.14316 258236.480000
  17910  17913     1   0.15375 251793.120000
  17910  17922     1   0.14233 265014.560000
  17913  17914     1   0.15375 251793.120000
  17913  17921     1   0.14233 265014.560000
  17914  17915     1   0.15375 251793.120000
  17914  17920     1   0.14233 265014.560000
  17915  17919     1   0.14316 258236.480000
  17915  17931     1   0.14316 258236.480000
  17923  17929     1   0.14233 265014.560000
  17932  17933     1   0.15375 251793.120000
  17932  17946     1   0.15375 251793.120000
  17932  17954     1   0.14316 258236.480000
  17933  17936     1   0.15375 251793.120000
  17933  17945     1   0.14233 265014.560000
  17936  17937     1   0.15375 251793.120000
  17936  17944     1   0.14233 265014.560000
  17937  17938     1   0.15375 251793.120000
  17937  17943     1   0.14233 265014.560000
  17938  17942     1   0.14316 258236.480000
  17938  17954     1   0.14316 258236.480000
  17946  17952     1   0.14233 265014.560000
  17955  17956     1   0.15375 251793.120000
  17955  17969     1   0.15375 251793.120000
  17955  17977     1   0.14316 258236.480000
  17956  17959     1   0.15375 251793.120000
  17956  17968     1   0.14233 265014.560000
  17959  17960     1   0.15375 251793.120000
  17959  17967     1   0.14233 265014.560000
  17960  17961     1   0.15375 251793.120000
  17960  17966     1   0.14233 265014.560000
  17961  17965     1   0.14316 258236.480000
  17961  17977     1   0.14316 258236.480000
  17969  17975     1   0.14233 265014.560000
  17978  17979     1   0.15375 251793.120000
  17978  17992     1   0.15375 251793.120000
  17978  18000     1   0.14316 258236.480000
  17979  17982     1   0.15375 251793.120000
  17979  17991     1   0.14233 265014.560000
  17982  17983     1   0.15375 251793.120000
  17982  17990     1   0.14233 265014.560000
  17983  17984     1   0.15375 251793.120000
  17983  17989     1   0.14233 265014.560000
  17984  17988     1   0.14316 258236.480000
  17984  18000     1   0.14316 258236.480000
  17992  17998     1   0.14233 265014.560000
  18001  18002     1   0.15375 251793.120000
  18001  18015     1   0.15375 251793.120000
  18001  18023     1   0.14316 258236.480000
  18002  18005     1   0.15375 251793.120000
  18002  18014     1   0.14233 265014.560000
  18005  18006     1   0.15375 251793.120000
  18005  18013     1   0.14233 265014.560000
  18006  18007     1   0.15375 251793.120000
  18006  18012     1   0.14233 265014.560000
  18007  18011     1   0.14316 258236.480000
  18007  18023     1   0.14316 258236.480000
  18015  18021     1   0.14233 265014.560000
  18024  18025     1   0.15375 251793.120000
  18024  18038     1   0.15375 251793.120000
  18024  18046     1   0.14316 258236.480000
  18025  18028     1   0.15375 251793.120000
  18025  18037     1   0.14233 265014.560000
  18028  18029     1   0.15375 251793.120000
  18028  18036     1   0.14233 265014.560000
  18029  18030     1   0.15375 251793.120000
  18029  18035     1   0.14233 265014.560000
  18030  18034     1   0.14316 258236.480000
  18030  18046     1   0.14316 258236.480000
  18038  18044     1   0.14233 265014.560000
  18047  18048     1   0.15375 251793.120000
  18047  18061     1   0.15375 251793.120000
  18047  18069     1   0.14316 258236.480000
  18048  18051     1   0.15375 251793.120000
  18048  18060     1   0.14233 265014.560000
  18051  18052     1   0.15375 251793.120000
  18051  18059     1   0.14233 265014.560000
  18052  18053     1   0.15375 251793.120000
  18052  18058     1   0.14233 265014.560000
  18053  18057     1   0.14316 258236.480000
  18053  18069     1   0.14316 258236.480000
  18061  18067     1   0.14233 265014.560000
  18070  18071     1   0.15375 251793.120000
  18070  18084     1   0.15375 251793.120000
  18070  18092     1   0.14316 258236.480000
  18071  18074     1   0.15375 251793.120000
  18071  18083     1   0.14233 265014.560000
  18074  18075     1   0.15375 251793.120000
  18074  18082     1   0.14233 265014.560000
  18075  18076     1   0.15375 251793.120000
  18075  18081     1   0.14233 265014.560000
  18076  18080     1   0.14316 258236.480000
  18076  18092     1   0.14316 258236.480000
  18084  18090     1   0.14233 265014.560000
  18093  18094     1   0.15375 251793.120000
  18093  18107     1   0.15375 251793.120000
  18093  18115     1   0.14316 258236.480000
  18094  18097     1   0.15375 251793.120000
  18094  18106     1   0.14233 265014.560000
  18097  18098     1   0.15375 251793.120000
  18097  18105     1   0.14233 265014.560000
  18098  18099     1   0.15375 251793.120000
  18098  18104     1   0.14233 265014.560000
  18099  18103     1   0.14316 258236.480000
  18099  18115     1   0.14316 258236.480000
  18107  18113     1   0.14233 265014.560000
  18116  18117     1   0.15375 251793.120000
  18116  18130     1   0.15375 251793.120000
  18116  18138     1   0.14316 258236.480000
  18117  18120     1   0.15375 251793.120000
  18117  18129     1   0.14233 265014.560000
  18120  18121     1   0.15375 251793.120000
  18120  18128     1   0.14233 265014.560000
  18121  18122     1   0.15375 251793.120000
  18121  18127     1   0.14233 265014.560000
  18122  18126     1   0.14316 258236.480000
  18122  18138     1   0.14316 258236.480000
  18130  18136     1   0.14233 265014.560000
  18139  18140     1   0.15375 251793.120000
  18139  18153     1   0.15375 251793.120000
  18139  18161     1   0.14316 258236.480000
  18140  18143     1   0.15375 251793.120000
  18140  18152     1   0.14233 265014.560000
  18143  18144     1   0.15375 251793.120000
  18143  18151     1   0.14233 265014.560000
  18144  18145     1   0.15375 251793.120000
  18144  18150     1   0.14233 265014.560000
  18145  18149     1   0.14316 258236.480000
  18145  18161     1   0.14316 258236.480000
  18153  18159     1   0.14233 265014.560000
  18162  18163     1   0.15375 251793.120000
  18162  18176     1   0.15375 251793.120000
  18162  18184     1   0.14316 258236.480000
  18163  18166     1   0.15375 251793.120000
  18163  18175     1   0.14233 265014.560000
  18166  18167     1   0.15375 251793.120000
  18166  18174     1   0.14233 265014.560000
  18167  18168     1   0.15375 251793.120000
  18167  18173     1   0.14233 265014.560000
  18168  18172     1   0.14316 258236.480000
  18168  18184     1   0.14316 258236.480000
  18176  18182     1   0.14233 265014.560000
  18185  18186     1   0.15375 251793.120000
  18185  18199     1   0.15375 251793.120000
  18185  18207     1   0.14316 258236.480000
  18186  18189     1   0.15375 251793.120000
  18186  18198     1   0.14233 265014.560000
  18189  18190     1   0.15375 251793.120000
  18189  18197     1   0.14233 265014.560000
  18190  18191     1   0.15375 251793.120000
  18190  18196     1   0.14233 265014.560000
  18191  18195     1   0.14316 258236.480000
  18191  18207     1   0.14316 258236.480000
  18199  18205     1   0.14233 265014.560000
  18208  18209     1   0.15375 251793.120000
  18208  18222     1   0.15375 251793.120000
  18208  18230     1   0.14316 258236.480000
  18209  18212     1   0.15375 251793.120000
  18209  18221     1   0.14233 265014.560000
  18212  18213     1   0.15375 251793.120000
  18212  18220     1   0.14233 265014.560000
  18213  18214     1   0.15375 251793.120000
  18213  18219     1   0.14233 265014.560000
  18214  18218     1   0.14316 258236.480000
  18214  18230     1   0.14316 258236.480000
  18222  18228     1   0.14233 265014.560000
  18231  18232     1   0.15375 251793.120000
  18231  18245     1   0.15375 251793.120000
  18231  18253     1   0.14316 258236.480000
  18232  18235     1   0.15375 251793.120000
  18232  18244     1   0.14233 265014.560000
  18235  18236     1   0.15375 251793.120000
  18235  18243     1   0.14233 265014.560000
  18236  18237     1   0.15375 251793.120000
  18236  18242     1   0.14233 265014.560000
  18237  18241     1   0.14316 258236.480000
  18237  18253     1   0.14316 258236.480000
  18245  18251     1   0.14233 265014.560000
  18254  18255     1   0.15375 251793.120000
  18254  18268     1   0.15375 251793.120000
  18254  18276     1   0.14316 258236.480000
  18255  18258     1   0.15375 251793.120000
  18255  18267     1   0.14233 265014.560000
  18258  18259     1   0.15375 251793.120000
  18258  18266     1   0.14233 265014.560000
  18259  18260     1   0.15375 251793.120000
  18259  18265     1   0.14233 265014.560000
  18260  18264     1   0.14316 258236.480000
  18260  18276     1   0.14316 258236.480000
  18268  18274     1   0.14233 265014.560000
  18277  18278     1   0.15375 251793.120000
  18277  18291     1   0.15375 251793.120000
  18277  18299     1   0.14316 258236.480000
  18278  18281     1   0.15375 251793.120000
  18278  18290     1   0.14233 265014.560000
  18281  18282     1   0.15375 251793.120000
  18281  18289     1   0.14233 265014.560000
  18282  18283     1   0.15375 251793.120000
  18282  18288     1   0.14233 265014.560000
  18283  18287     1   0.14316 258236.480000
  18283  18299     1   0.14316 258236.480000
  18291  18297     1   0.14233 265014.560000
  18300  18301     1   0.15375 251793.120000
  18300  18314     1   0.15375 251793.120000
  18300  18322     1   0.14316 258236.480000
  18301  18304     1   0.15375 251793.120000
  18301  18313     1   0.14233 265014.560000
  18304  18305     1   0.15375 251793.120000
  18304  18312     1   0.14233 265014.560000
  18305  18306     1   0.15375 251793.120000
  18305  18311     1   0.14233 265014.560000
  18306  18310     1   0.14316 258236.480000
  18306  18322     1   0.14316 258236.480000
  18314  18320     1   0.14233 265014.560000
  18323  18324     1   0.15375 251793.120000
  18323  18337     1   0.15375 251793.120000
  18323  18345     1   0.14316 258236.480000
  18324  18327     1   0.15375 251793.120000
  18324  18336     1   0.14233 265014.560000
  18327  18328     1   0.15375 251793.120000
  18327  18335     1   0.14233 265014.560000
  18328  18329     1   0.15375 251793.120000
  18328  18334     1   0.14233 265014.560000
  18329  18333     1   0.14316 258236.480000
  18329  18345     1   0.14316 258236.480000
  18337  18343     1   0.14233 265014.560000
  18346  18347     1   0.15375 251793.120000
  18346  18360     1   0.15375 251793.120000
  18346  18368     1   0.14316 258236.480000
  18347  18350     1   0.15375 251793.120000
  18347  18359     1   0.14233 265014.560000
  18350  18351     1   0.15375 251793.120000
  18350  18358     1   0.14233 265014.560000
  18351  18352     1   0.15375 251793.120000
  18351  18357     1   0.14233 265014.560000
  18352  18356     1   0.14316 258236.480000
  18352  18368     1   0.14316 258236.480000
  18360  18366     1   0.14233 265014.560000
  18369  18370     1   0.15375 251793.120000
  18369  18383     1   0.15375 251793.120000
  18369  18391     1   0.14316 258236.480000
  18370  18373     1   0.15375 251793.120000
  18370  18382     1   0.14233 265014.560000
  18373  18374     1   0.15375 251793.120000
  18373  18381     1   0.14233 265014.560000
  18374  18375     1   0.15375 251793.120000
  18374  18380     1   0.14233 265014.560000
  18375  18379     1   0.14316 258236.480000
  18375  18391     1   0.14316 258236.480000
  18383  18389     1   0.14233 265014.560000
  18392  18393     1   0.15375 251793.120000
  18392  18406     1   0.15375 251793.120000
  18392  18414     1   0.14316 258236.480000
  18393  18396     1   0.15375 251793.120000
  18393  18405     1   0.14233 265014.560000
  18396  18397     1   0.15375 251793.120000
  18396  18404     1   0.14233 265014.560000
  18397  18398     1   0.15375 251793.120000
  18397  18403     1   0.14233 265014.560000
  18398  18402     1   0.14316 258236.480000
  18398  18414     1   0.14316 258236.480000
  18406  18412     1   0.14233 265014.560000
  18415  18416     1   0.15375 251793.120000
  18415  18429     1   0.15375 251793.120000
  18415  18437     1   0.14316 258236.480000
  18416  18419     1   0.15375 251793.120000
  18416  18428     1   0.14233 265014.560000
  18419  18420     1   0.15375 251793.120000
  18419  18427     1   0.14233 265014.560000
  18420  18421     1   0.15375 251793.120000
  18420  18426     1   0.14233 265014.560000
  18421  18425     1   0.14316 258236.480000
  18421  18437     1   0.14316 258236.480000
  18429  18435     1   0.14233 265014.560000
  18438  18439     1   0.15375 251793.120000
  18438  18452     1   0.15375 251793.120000
  18438  18460     1   0.14316 258236.480000
  18439  18442     1   0.15375 251793.120000
  18439  18451     1   0.14233 265014.560000
  18442  18443     1   0.15375 251793.120000
  18442  18450     1   0.14233 265014.560000
  18443  18444     1   0.15375 251793.120000
  18443  18449     1   0.14233 265014.560000
  18444  18448     1   0.14316 258236.480000
  18444  18460     1   0.14316 258236.480000
  18452  18458     1   0.14233 265014.560000
  18461  18462     1   0.15375 251793.120000
  18461  18475     1   0.15375 251793.120000
  18461  18483     1   0.14316 258236.480000
  18462  18465     1   0.15375 251793.120000
  18462  18474     1   0.14233 265014.560000
  18465  18466     1   0.15375 251793.120000
  18465  18473     1   0.14233 265014.560000
  18466  18467     1   0.15375 251793.120000
  18466  18472     1   0.14233 265014.560000
  18467  18471     1   0.14316 258236.480000
  18467  18483     1   0.14316 258236.480000
  18475  18481     1   0.14233 265014.560000
  18484  18485     1   0.15375 251793.120000
  18484  18498     1   0.15375 251793.120000
  18484  18506     1   0.14316 258236.480000
  18485  18488     1   0.15375 251793.120000
  18485  18497     1   0.14233 265014.560000
  18488  18489     1   0.15375 251793.120000
  18488  18496     1   0.14233 265014.560000
  18489  18490     1   0.15375 251793.120000
  18489  18495     1   0.14233 265014.560000
  18490  18494     1   0.14316 258236.480000
  18490  18506     1   0.14316 258236.480000
  18498  18504     1   0.14233 265014.560000
  18507  18508     1   0.15375 251793.120000
  18507  18521     1   0.15375 251793.120000
  18507  18529     1   0.14316 258236.480000
  18508  18511     1   0.15375 251793.120000
  18508  18520     1   0.14233 265014.560000
  18511  18512     1   0.15375 251793.120000
  18511  18519     1   0.14233 265014.560000
  18512  18513     1   0.15375 251793.120000
  18512  18518     1   0.14233 265014.560000
  18513  18517     1   0.14316 258236.480000
  18513  18529     1   0.14316 258236.480000
  18521  18527     1   0.14233 265014.560000
  18530  18531     1   0.15375 251793.120000
  18530  18544     1   0.15375 251793.120000
  18530  18552     1   0.14316 258236.480000
  18531  18534     1   0.15375 251793.120000
  18531  18543     1   0.14233 265014.560000
  18534  18535     1   0.15375 251793.120000
  18534  18542     1   0.14233 265014.560000
  18535  18536     1   0.15375 251793.120000
  18535  18541     1   0.14233 265014.560000
  18536  18540     1   0.14316 258236.480000
  18536  18552     1   0.14316 258236.480000
  18544  18550     1   0.14233 265014.560000
  18553  18554     1   0.15375 251793.120000
  18553  18567     1   0.15375 251793.120000
  18553  18575     1   0.14316 258236.480000
  18554  18557     1   0.15375 251793.120000
  18554  18566     1   0.14233 265014.560000
  18557  18558     1   0.15375 251793.120000
  18557  18565     1   0.14233 265014.560000
  18558  18559     1   0.15375 251793.120000
  18558  18564     1   0.14233 265014.560000
  18559  18563     1   0.14316 258236.480000
  18559  18575     1   0.14316 258236.480000
  18567  18573     1   0.14233 265014.560000
  18576  18577     1   0.15375 251793.120000
  18576  18590     1   0.15375 251793.120000
  18576  18598     1   0.14316 258236.480000
  18577  18580     1   0.15375 251793.120000
  18577  18589     1   0.14233 265014.560000
  18580  18581     1   0.15375 251793.120000
  18580  18588     1   0.14233 265014.560000
  18581  18582     1   0.15375 251793.120000
  18581  18587     1   0.14233 265014.560000
  18582  18586     1   0.14316 258236.480000
  18582  18598     1   0.14316 258236.480000
  18590  18596     1   0.14233 265014.560000
  18599  18600     1   0.15375 251793.120000
  18599  18613     1   0.15375 251793.120000
  18599  18621     1   0.14316 258236.480000
  18600  18603     1   0.15375 251793.120000
  18600  18612     1   0.14233 265014.560000
  18603  18604     1   0.15375 251793.120000
  18603  18611     1   0.14233 265014.560000
  18604  18605     1   0.15375 251793.120000
  18604  18610     1   0.14233 265014.560000
  18605  18609     1   0.14316 258236.480000
  18605  18621     1   0.14316 258236.480000
  18613  18619     1   0.14233 265014.560000
  18622  18623     1   0.15375 251793.120000
  18622  18636     1   0.15375 251793.120000
  18622  18644     1   0.14316 258236.480000
  18623  18626     1   0.15375 251793.120000
  18623  18635     1   0.14233 265014.560000
  18626  18627     1   0.15375 251793.120000
  18626  18634     1   0.14233 265014.560000
  18627  18628     1   0.15375 251793.120000
  18627  18633     1   0.14233 265014.560000
  18628  18632     1   0.14316 258236.480000
  18628  18644     1   0.14316 258236.480000
  18636  18642     1   0.14233 265014.560000
  18645  18646     1   0.15375 251793.120000
  18645  18659     1   0.15375 251793.120000
  18645  18667     1   0.14316 258236.480000
  18646  18649     1   0.15375 251793.120000
  18646  18658     1   0.14233 265014.560000
  18649  18650     1   0.15375 251793.120000
  18649  18657     1   0.14233 265014.560000
  18650  18651     1   0.15375 251793.120000
  18650  18656     1   0.14233 265014.560000
  18651  18655     1   0.14316 258236.480000
  18651  18667     1   0.14316 258236.480000
  18659  18665     1   0.14233 265014.560000
  18668  18669     1   0.15375 251793.120000
  18668  18682     1   0.15375 251793.120000
  18668  18690     1   0.14316 258236.480000
  18669  18672     1   0.15375 251793.120000
  18669  18681     1   0.14233 265014.560000
  18672  18673     1   0.15375 251793.120000
  18672  18680     1   0.14233 265014.560000
  18673  18674     1   0.15375 251793.120000
  18673  18679     1   0.14233 265014.560000
  18674  18678     1   0.14316 258236.480000
  18674  18690     1   0.14316 258236.480000
  18682  18688     1   0.14233 265014.560000
  18691  18692     1   0.15375 251793.120000
  18691  18705     1   0.15375 251793.120000
  18691  18713     1   0.14316 258236.480000
  18692  18695     1   0.15375 251793.120000
  18692  18704     1   0.14233 265014.560000
  18695  18696     1   0.15375 251793.120000
  18695  18703     1   0.14233 265014.560000
  18696  18697     1   0.15375 251793.120000
  18696  18702     1   0.14233 265014.560000
  18697  18701     1   0.14316 258236.480000
  18697  18713     1   0.14316 258236.480000
  18705  18711     1   0.14233 265014.560000
  18714  18715     1   0.15375 251793.120000
  18714  18728     1   0.15375 251793.120000
  18714  18736     1   0.14316 258236.480000
  18715  18718     1   0.15375 251793.120000
  18715  18727     1   0.14233 265014.560000
  18718  18719     1   0.15375 251793.120000
  18718  18726     1   0.14233 265014.560000
  18719  18720     1   0.15375 251793.120000
  18719  18725     1   0.14233 265014.560000
  18720  18724     1   0.14316 258236.480000
  18720  18736     1   0.14316 258236.480000
  18728  18734     1   0.14233 265014.560000
  18737  18738     1   0.15375 251793.120000
  18737  18751     1   0.15375 251793.120000
  18737  18759     1   0.14316 258236.480000
  18738  18741     1   0.15375 251793.120000
  18738  18750     1   0.14233 265014.560000
  18741  18742     1   0.15375 251793.120000
  18741  18749     1   0.14233 265014.560000
  18742  18743     1   0.15375 251793.120000
  18742  18748     1   0.14233 265014.560000
  18743  18747     1   0.14316 258236.480000
  18743  18759     1   0.14316 258236.480000
  18751  18757     1   0.14233 265014.560000
  18760  18761     1   0.15375 251793.120000
  18760  18774     1   0.15375 251793.120000
  18760  18782     1   0.14316 258236.480000
  18761  18764     1   0.15375 251793.120000
  18761  18773     1   0.14233 265014.560000
  18764  18765     1   0.15375 251793.120000
  18764  18772     1   0.14233 265014.560000
  18765  18766     1   0.15375 251793.120000
  18765  18771     1   0.14233 265014.560000
  18766  18770     1   0.14316 258236.480000
  18766  18782     1   0.14316 258236.480000
  18774  18780     1   0.14233 265014.560000
  18783  18784     1   0.15375 251793.120000
  18783  18797     1   0.15375 251793.120000
  18783  18805     1   0.14316 258236.480000
  18784  18787     1   0.15375 251793.120000
  18784  18796     1   0.14233 265014.560000
  18787  18788     1   0.15375 251793.120000
  18787  18795     1   0.14233 265014.560000
  18788  18789     1   0.15375 251793.120000
  18788  18794     1   0.14233 265014.560000
  18789  18793     1   0.14316 258236.480000
  18789  18805     1   0.14316 258236.480000
  18797  18803     1   0.14233 265014.560000
  18806  18807     1   0.15375 251793.120000
  18806  18820     1   0.15375 251793.120000
  18806  18828     1   0.14316 258236.480000
  18807  18810     1   0.15375 251793.120000
  18807  18819     1   0.14233 265014.560000
  18810  18811     1   0.15375 251793.120000
  18810  18818     1   0.14233 265014.560000
  18811  18812     1   0.15375 251793.120000
  18811  18817     1   0.14233 265014.560000
  18812  18816     1   0.14316 258236.480000
  18812  18828     1   0.14316 258236.480000
  18820  18826     1   0.14233 265014.560000
  18829  18830     1   0.15375 251793.120000
  18829  18843     1   0.15375 251793.120000
  18829  18851     1   0.14316 258236.480000
  18830  18833     1   0.15375 251793.120000
  18830  18842     1   0.14233 265014.560000
  18833  18834     1   0.15375 251793.120000
  18833  18841     1   0.14233 265014.560000
  18834  18835     1   0.15375 251793.120000
  18834  18840     1   0.14233 265014.560000
  18835  18839     1   0.14316 258236.480000
  18835  18851     1   0.14316 258236.480000
  18843  18849     1   0.14233 265014.560000
  18852  18853     1   0.15375 251793.120000
  18852  18866     1   0.15375 251793.120000
  18852  18874     1   0.14316 258236.480000
  18853  18856     1   0.15375 251793.120000
  18853  18865     1   0.14233 265014.560000
  18856  18857     1   0.15375 251793.120000
  18856  18864     1   0.14233 265014.560000
  18857  18858     1   0.15375 251793.120000
  18857  18863     1   0.14233 265014.560000
  18858  18862     1   0.14316 258236.480000
  18858  18874     1   0.14316 258236.480000
  18866  18872     1   0.14233 265014.560000
  18875  18876     1   0.15375 251793.120000
  18875  18889     1   0.15375 251793.120000
  18875  18897     1   0.14316 258236.480000
  18876  18879     1   0.15375 251793.120000
  18876  18888     1   0.14233 265014.560000
  18879  18880     1   0.15375 251793.120000
  18879  18887     1   0.14233 265014.560000
  18880  18881     1   0.15375 251793.120000
  18880  18886     1   0.14233 265014.560000
  18881  18885     1   0.14316 258236.480000
  18881  18897     1   0.14316 258236.480000
  18889  18895     1   0.14233 265014.560000
  18898  18899     1   0.15375 251793.120000
  18898  18912     1   0.15375 251793.120000
  18898  18920     1   0.14316 258236.480000
  18899  18902     1   0.15375 251793.120000
  18899  18911     1   0.14233 265014.560000
  18902  18903     1   0.15375 251793.120000
  18902  18910     1   0.14233 265014.560000
  18903  18904     1   0.15375 251793.120000
  18903  18909     1   0.14233 265014.560000
  18904  18908     1   0.14316 258236.480000
  18904  18920     1   0.14316 258236.480000
  18912  18918     1   0.14233 265014.560000
  18921  18922     1   0.15375 251793.120000
  18921  18935     1   0.15375 251793.120000
  18921  18943     1   0.14316 258236.480000
  18922  18925     1   0.15375 251793.120000
  18922  18934     1   0.14233 265014.560000
  18925  18926     1   0.15375 251793.120000
  18925  18933     1   0.14233 265014.560000
  18926  18927     1   0.15375 251793.120000
  18926  18932     1   0.14233 265014.560000
  18927  18931     1   0.14316 258236.480000
  18927  18943     1   0.14316 258236.480000
  18935  18941     1   0.14233 265014.560000
  18944  18945     1   0.15375 251793.120000
  18944  18958     1   0.15375 251793.120000
  18944  18966     1   0.14316 258236.480000
  18945  18948     1   0.15375 251793.120000
  18945  18957     1   0.14233 265014.560000
  18948  18949     1   0.15375 251793.120000
  18948  18956     1   0.14233 265014.560000
  18949  18950     1   0.15375 251793.120000
  18949  18955     1   0.14233 265014.560000
  18950  18954     1   0.14316 258236.480000
  18950  18966     1   0.14316 258236.480000
  18958  18964     1   0.14233 265014.560000
  18967  18968     1   0.15375 251793.120000
  18967  18981     1   0.15375 251793.120000
  18967  18989     1   0.14316 258236.480000
  18968  18971     1   0.15375 251793.120000
  18968  18980     1   0.14233 265014.560000
  18971  18972     1   0.15375 251793.120000
  18971  18979     1   0.14233 265014.560000
  18972  18973     1   0.15375 251793.120000
  18972  18978     1   0.14233 265014.560000
  18973  18977     1   0.14316 258236.480000
  18973  18989     1   0.14316 258236.480000
  18981  18987     1   0.14233 265014.560000
  18990  18991     1   0.15375 251793.120000
  18990  19004     1   0.15375 251793.120000
  18990  19012     1   0.14316 258236.480000
  18991  18994     1   0.15375 251793.120000
  18991  19003     1   0.14233 265014.560000
  18994  18995     1   0.15375 251793.120000
  18994  19002     1   0.14233 265014.560000
  18995  18996     1   0.15375 251793.120000
  18995  19001     1   0.14233 265014.560000
  18996  19000     1   0.14316 258236.480000
  18996  19012     1   0.14316 258236.480000
  19004  19010     1   0.14233 265014.560000
  19013  19014     1   0.15375 251793.120000
  19013  19027     1   0.15375 251793.120000
  19013  19035     1   0.14316 258236.480000
  19014  19017     1   0.15375 251793.120000
  19014  19026     1   0.14233 265014.560000
  19017  19018     1   0.15375 251793.120000
  19017  19025     1   0.14233 265014.560000
  19018  19019     1   0.15375 251793.120000
  19018  19024     1   0.14233 265014.560000
  19019  19023     1   0.14316 258236.480000
  19019  19035     1   0.14316 258236.480000
  19027  19033     1   0.14233 265014.560000
  19036  19037     1   0.15375 251793.120000
  19036  19050     1   0.15375 251793.120000
  19036  19058     1   0.14316 258236.480000
  19037  19040     1   0.15375 251793.120000
  19037  19049     1   0.14233 265014.560000
  19040  19041     1   0.15375 251793.120000
  19040  19048     1   0.14233 265014.560000
  19041  19042     1   0.15375 251793.120000
  19041  19047     1   0.14233 265014.560000
  19042  19046     1   0.14316 258236.480000
  19042  19058     1   0.14316 258236.480000
  19050  19056     1   0.14233 265014.560000
  19059  19060     1   0.15375 251793.120000
  19059  19073     1   0.15375 251793.120000
  19059  19081     1   0.14316 258236.480000
  19060  19063     1   0.15375 251793.120000
  19060  19072     1   0.14233 265014.560000
  19063  19064     1   0.15375 251793.120000
  19063  19071     1   0.14233 265014.560000
  19064  19065     1   0.15375 251793.120000
  19064  19070     1   0.14233 265014.560000
  19065  19069     1   0.14316 258236.480000
  19065  19081     1   0.14316 258236.480000
  19073  19079     1   0.14233 265014.560000
  19082  19083     1   0.15375 251793.120000
  19082  19096     1   0.15375 251793.120000
  19082  19104     1   0.14316 258236.480000
  19083  19086     1   0.15375 251793.120000
  19083  19095     1   0.14233 265014.560000
  19086  19087     1   0.15375 251793.120000
  19086  19094     1   0.14233 265014.560000
  19087  19088     1   0.15375 251793.120000
  19087  19093     1   0.14233 265014.560000
  19088  19092     1   0.14316 258236.480000
  19088  19104     1   0.14316 258236.480000
  19096  19102     1   0.14233 265014.560000
  19105  19106     1   0.15375 251793.120000
  19105  19119     1   0.15375 251793.120000
  19105  19127     1   0.14316 258236.480000
  19106  19109     1   0.15375 251793.120000
  19106  19118     1   0.14233 265014.560000
  19109  19110     1   0.15375 251793.120000
  19109  19117     1   0.14233 265014.560000
  19110  19111     1   0.15375 251793.120000
  19110  19116     1   0.14233 265014.560000
  19111  19115     1   0.14316 258236.480000
  19111  19127     1   0.14316 258236.480000
  19119  19125     1   0.14233 265014.560000
  19128  19129     1   0.15375 251793.120000
  19128  19142     1   0.15375 251793.120000
  19128  19150     1   0.14316 258236.480000
  19129  19132     1   0.15375 251793.120000
  19129  19141     1   0.14233 265014.560000
  19132  19133     1   0.15375 251793.120000
  19132  19140     1   0.14233 265014.560000
  19133  19134     1   0.15375 251793.120000
  19133  19139     1   0.14233 265014.560000
  19134  19138     1   0.14316 258236.480000
  19134  19150     1   0.14316 258236.480000
  19142  19148     1   0.14233 265014.560000
  19151  19152     1   0.15375 251793.120000
  19151  19165     1   0.15375 251793.120000
  19151  19173     1   0.14316 258236.480000
  19152  19155     1   0.15375 251793.120000
  19152  19164     1   0.14233 265014.560000
  19155  19156     1   0.15375 251793.120000
  19155  19163     1   0.14233 265014.560000
  19156  19157     1   0.15375 251793.120000
  19156  19162     1   0.14233 265014.560000
  19157  19161     1   0.14316 258236.480000
  19157  19173     1   0.14316 258236.480000
  19165  19171     1   0.14233 265014.560000
  19174  19175     1   0.15375 251793.120000
  19174  19188     1   0.15375 251793.120000
  19174  19196     1   0.14316 258236.480000
  19175  19178     1   0.15375 251793.120000
  19175  19187     1   0.14233 265014.560000
  19178  19179     1   0.15375 251793.120000
  19178  19186     1   0.14233 265014.560000
  19179  19180     1   0.15375 251793.120000
  19179  19185     1   0.14233 265014.560000
  19180  19184     1   0.14316 258236.480000
  19180  19196     1   0.14316 258236.480000
  19188  19194     1   0.14233 265014.560000
  19197  19198     1   0.15375 251793.120000
  19197  19211     1   0.15375 251793.120000
  19197  19219     1   0.14316 258236.480000
  19198  19201     1   0.15375 251793.120000
  19198  19210     1   0.14233 265014.560000
  19201  19202     1   0.15375 251793.120000
  19201  19209     1   0.14233 265014.560000
  19202  19203     1   0.15375 251793.120000
  19202  19208     1   0.14233 265014.560000
  19203  19207     1   0.14316 258236.480000
  19203  19219     1   0.14316 258236.480000
  19211  19217     1   0.14233 265014.560000
  19220  19221     1   0.15375 251793.120000
  19220  19234     1   0.15375 251793.120000
  19220  19242     1   0.14316 258236.480000
  19221  19224     1   0.15375 251793.120000
  19221  19233     1   0.14233 265014.560000
  19224  19225     1   0.15375 251793.120000
  19224  19232     1   0.14233 265014.560000
  19225  19226     1   0.15375 251793.120000
  19225  19231     1   0.14233 265014.560000
  19226  19230     1   0.14316 258236.480000
  19226  19242     1   0.14316 258236.480000
  19234  19240     1   0.14233 265014.560000
  19243  19244     1   0.15375 251793.120000
  19243  19257     1   0.15375 251793.120000
  19243  19265     1   0.14316 258236.480000
  19244  19247     1   0.15375 251793.120000
  19244  19256     1   0.14233 265014.560000
  19247  19248     1   0.15375 251793.120000
  19247  19255     1   0.14233 265014.560000
  19248  19249     1   0.15375 251793.120000
  19248  19254     1   0.14233 265014.560000
  19249  19253     1   0.14316 258236.480000
  19249  19265     1   0.14316 258236.480000
  19257  19263     1   0.14233 265014.560000
  19266  19267     1   0.15375 251793.120000
  19266  19280     1   0.15375 251793.120000
  19266  19288     1   0.14316 258236.480000
  19267  19270     1   0.15375 251793.120000
  19267  19279     1   0.14233 265014.560000
  19270  19271     1   0.15375 251793.120000
  19270  19278     1   0.14233 265014.560000
  19271  19272     1   0.15375 251793.120000
  19271  19277     1   0.14233 265014.560000
  19272  19276     1   0.14316 258236.480000
  19272  19288     1   0.14316 258236.480000
  19280  19286     1   0.14233 265014.560000
  19289  19290     1   0.15375 251793.120000
  19289  19303     1   0.15375 251793.120000
  19289  19311     1   0.14316 258236.480000
  19290  19293     1   0.15375 251793.120000
  19290  19302     1   0.14233 265014.560000
  19293  19294     1   0.15375 251793.120000
  19293  19301     1   0.14233 265014.560000
  19294  19295     1   0.15375 251793.120000
  19294  19300     1   0.14233 265014.560000
  19295  19299     1   0.14316 258236.480000
  19295  19311     1   0.14316 258236.480000
  19303  19309     1   0.14233 265014.560000
  19312  19313     1   0.15375 251793.120000
  19312  19326     1   0.15375 251793.120000
  19312  19334     1   0.14316 258236.480000
  19313  19316     1   0.15375 251793.120000
  19313  19325     1   0.14233 265014.560000
  19316  19317     1   0.15375 251793.120000
  19316  19324     1   0.14233 265014.560000
  19317  19318     1   0.15375 251793.120000
  19317  19323     1   0.14233 265014.560000
  19318  19322     1   0.14316 258236.480000
  19318  19334     1   0.14316 258236.480000
  19326  19332     1   0.14233 265014.560000
  19335  19336     1   0.15375 251793.120000
  19335  19349     1   0.15375 251793.120000
  19335  19357     1   0.14316 258236.480000
  19336  19339     1   0.15375 251793.120000
  19336  19348     1   0.14233 265014.560000
  19339  19340     1   0.15375 251793.120000
  19339  19347     1   0.14233 265014.560000
  19340  19341     1   0.15375 251793.120000
  19340  19346     1   0.14233 265014.560000
  19341  19345     1   0.14316 258236.480000
  19341  19357     1   0.14316 258236.480000
  19349  19355     1   0.14233 265014.560000
  19358  19359     1   0.15375 251793.120000
  19358  19372     1   0.15375 251793.120000
  19358  19380     1   0.14316 258236.480000
  19359  19362     1   0.15375 251793.120000
  19359  19371     1   0.14233 265014.560000
  19362  19363     1   0.15375 251793.120000
  19362  19370     1   0.14233 265014.560000
  19363  19364     1   0.15375 251793.120000
  19363  19369     1   0.14233 265014.560000
  19364  19368     1   0.14316 258236.480000
  19364  19380     1   0.14316 258236.480000
  19372  19378     1   0.14233 265014.560000
  19381  19382     1   0.15375 251793.120000
  19381  19395     1   0.15375 251793.120000
  19381  19403     1   0.14316 258236.480000
  19382  19385     1   0.15375 251793.120000
  19382  19394     1   0.14233 265014.560000
  19385  19386     1   0.15375 251793.120000
  19385  19393     1   0.14233 265014.560000
  19386  19387     1   0.15375 251793.120000
  19386  19392     1   0.14233 265014.560000
  19387  19391     1   0.14316 258236.480000
  19387  19403     1   0.14316 258236.480000
  19395  19401     1   0.14233 265014.560000
  19404  19405     1   0.15375 251793.120000
  19404  19418     1   0.15375 251793.120000
  19404  19426     1   0.14316 258236.480000
  19405  19408     1   0.15375 251793.120000
  19405  19417     1   0.14233 265014.560000
  19408  19409     1   0.15375 251793.120000
  19408  19416     1   0.14233 265014.560000
  19409  19410     1   0.15375 251793.120000
  19409  19415     1   0.14233 265014.560000
  19410  19414     1   0.14316 258236.480000
  19410  19426     1   0.14316 258236.480000
  19418  19424     1   0.14233 265014.560000
  19427  19428     1   0.15375 251793.120000
  19427  19441     1   0.15375 251793.120000
  19427  19449     1   0.14316 258236.480000
  19428  19431     1   0.15375 251793.120000
  19428  19440     1   0.14233 265014.560000
  19431  19432     1   0.15375 251793.120000
  19431  19439     1   0.14233 265014.560000
  19432  19433     1   0.15375 251793.120000
  19432  19438     1   0.14233 265014.560000
  19433  19437     1   0.14316 258236.480000
  19433  19449     1   0.14316 258236.480000
  19441  19447     1   0.14233 265014.560000
  19450  19451     1   0.15375 251793.120000
  19450  19464     1   0.15375 251793.120000
  19450  19472     1   0.14316 258236.480000
  19451  19454     1   0.15375 251793.120000
  19451  19463     1   0.14233 265014.560000
  19454  19455     1   0.15375 251793.120000
  19454  19462     1   0.14233 265014.560000
  19455  19456     1   0.15375 251793.120000
  19455  19461     1   0.14233 265014.560000
  19456  19460     1   0.14316 258236.480000
  19456  19472     1   0.14316 258236.480000
  19464  19470     1   0.14233 265014.560000
  19473  19474     1   0.15375 251793.120000
  19473  19487     1   0.15375 251793.120000
  19473  19495     1   0.14316 258236.480000
  19474  19477     1   0.15375 251793.120000
  19474  19486     1   0.14233 265014.560000
  19477  19478     1   0.15375 251793.120000
  19477  19485     1   0.14233 265014.560000
  19478  19479     1   0.15375 251793.120000
  19478  19484     1   0.14233 265014.560000
  19479  19483     1   0.14316 258236.480000
  19479  19495     1   0.14316 258236.480000
  19487  19493     1   0.14233 265014.560000
  19496  19497     1   0.15375 251793.120000
  19496  19510     1   0.15375 251793.120000
  19496  19518     1   0.14316 258236.480000
  19497  19500     1   0.15375 251793.120000
  19497  19509     1   0.14233 265014.560000
  19500  19501     1   0.15375 251793.120000
  19500  19508     1   0.14233 265014.560000
  19501  19502     1   0.15375 251793.120000
  19501  19507     1   0.14233 265014.560000
  19502  19506     1   0.14316 258236.480000
  19502  19518     1   0.14316 258236.480000
  19510  19516     1   0.14233 265014.560000
  19519  19520     1   0.15375 251793.120000
  19519  19533     1   0.15375 251793.120000
  19519  19541     1   0.14316 258236.480000
  19520  19523     1   0.15375 251793.120000
  19520  19532     1   0.14233 265014.560000
  19523  19524     1   0.15375 251793.120000
  19523  19531     1   0.14233 265014.560000
  19524  19525     1   0.15375 251793.120000
  19524  19530     1   0.14233 265014.560000
  19525  19529     1   0.14316 258236.480000
  19525  19541     1   0.14316 258236.480000
  19533  19539     1   0.14233 265014.560000
  19542  19543     1   0.15375 251793.120000
  19542  19556     1   0.15375 251793.120000
  19542  19564     1   0.14316 258236.480000
  19543  19546     1   0.15375 251793.120000
  19543  19555     1   0.14233 265014.560000
  19546  19547     1   0.15375 251793.120000
  19546  19554     1   0.14233 265014.560000
  19547  19548     1   0.15375 251793.120000
  19547  19553     1   0.14233 265014.560000
  19548  19552     1   0.14316 258236.480000
  19548  19564     1   0.14316 258236.480000
  19556  19562     1   0.14233 265014.560000
  19565  19566     1   0.15375 251793.120000
  19565  19579     1   0.15375 251793.120000
  19565  19587     1   0.14316 258236.480000
  19566  19569     1   0.15375 251793.120000
  19566  19578     1   0.14233 265014.560000
  19569  19570     1   0.15375 251793.120000
  19569  19577     1   0.14233 265014.560000
  19570  19571     1   0.15375 251793.120000
  19570  19576     1   0.14233 265014.560000
  19571  19575     1   0.14316 258236.480000
  19571  19587     1   0.14316 258236.480000
  19579  19585     1   0.14233 265014.560000
  19588  19589     1   0.15375 251793.120000
  19588  19602     1   0.15375 251793.120000
  19588  19610     1   0.14316 258236.480000
  19589  19592     1   0.15375 251793.120000
  19589  19601     1   0.14233 265014.560000
  19592  19593     1   0.15375 251793.120000
  19592  19600     1   0.14233 265014.560000
  19593  19594     1   0.15375 251793.120000
  19593  19599     1   0.14233 265014.560000
  19594  19598     1   0.14316 258236.480000
  19594  19610     1   0.14316 258236.480000
  19602  19608     1   0.14233 265014.560000
  19611  19612     1   0.15375 251793.120000
  19611  19625     1   0.15375 251793.120000
  19611  19633     1   0.14316 258236.480000
  19612  19615     1   0.15375 251793.120000
  19612  19624     1   0.14233 265014.560000
  19615  19616     1   0.15375 251793.120000
  19615  19623     1   0.14233 265014.560000
  19616  19617     1   0.15375 251793.120000
  19616  19622     1   0.14233 265014.560000
  19617  19621     1   0.14316 258236.480000
  19617  19633     1   0.14316 258236.480000
  19625  19631     1   0.14233 265014.560000
  19634  19635     1   0.15375 251793.120000
  19634  19648     1   0.15375 251793.120000
  19634  19656     1   0.14316 258236.480000
  19635  19638     1   0.15375 251793.120000
  19635  19647     1   0.14233 265014.560000
  19638  19639     1   0.15375 251793.120000
  19638  19646     1   0.14233 265014.560000
  19639  19640     1   0.15375 251793.120000
  19639  19645     1   0.14233 265014.560000
  19640  19644     1   0.14316 258236.480000
  19640  19656     1   0.14316 258236.480000
  19648  19654     1   0.14233 265014.560000
  19657  19658     1   0.15375 251793.120000
  19657  19671     1   0.15375 251793.120000
  19657  19679     1   0.14316 258236.480000
  19658  19661     1   0.15375 251793.120000
  19658  19670     1   0.14233 265014.560000
  19661  19662     1   0.15375 251793.120000
  19661  19669     1   0.14233 265014.560000
  19662  19663     1   0.15375 251793.120000
  19662  19668     1   0.14233 265014.560000
  19663  19667     1   0.14316 258236.480000
  19663  19679     1   0.14316 258236.480000
  19671  19677     1   0.14233 265014.560000
  19680  19681     1   0.15375 251793.120000
  19680  19694     1   0.15375 251793.120000
  19680  19702     1   0.14316 258236.480000
  19681  19684     1   0.15375 251793.120000
  19681  19693     1   0.14233 265014.560000
  19684  19685     1   0.15375 251793.120000
  19684  19692     1   0.14233 265014.560000
  19685  19686     1   0.15375 251793.120000
  19685  19691     1   0.14233 265014.560000
  19686  19690     1   0.14316 258236.480000
  19686  19702     1   0.14316 258236.480000
  19694  19700     1   0.14233 265014.560000
  19703  19704     1   0.15375 251793.120000
  19703  19717     1   0.15375 251793.120000
  19703  19725     1   0.14316 258236.480000
  19704  19707     1   0.15375 251793.120000
  19704  19716     1   0.14233 265014.560000
  19707  19708     1   0.15375 251793.120000
  19707  19715     1   0.14233 265014.560000
  19708  19709     1   0.15375 251793.120000
  19708  19714     1   0.14233 265014.560000
  19709  19713     1   0.14316 258236.480000
  19709  19725     1   0.14316 258236.480000
  19717  19723     1   0.14233 265014.560000
  19726  19727     1   0.15375 251793.120000
  19726  19740     1   0.15375 251793.120000
  19726  19748     1   0.14316 258236.480000
  19727  19730     1   0.15375 251793.120000
  19727  19739     1   0.14233 265014.560000
  19730  19731     1   0.15375 251793.120000
  19730  19738     1   0.14233 265014.560000
  19731  19732     1   0.15375 251793.120000
  19731  19737     1   0.14233 265014.560000
  19732  19736     1   0.14316 258236.480000
  19732  19748     1   0.14316 258236.480000
  19740  19746     1   0.14233 265014.560000
  19749  19750     1   0.15375 251793.120000
  19749  19763     1   0.15375 251793.120000
  19749  19771     1   0.14316 258236.480000
  19750  19753     1   0.15375 251793.120000
  19750  19762     1   0.14233 265014.560000
  19753  19754     1   0.15375 251793.120000
  19753  19761     1   0.14233 265014.560000
  19754  19755     1   0.15375 251793.120000
  19754  19760     1   0.14233 265014.560000
  19755  19759     1   0.14316 258236.480000
  19755  19771     1   0.14316 258236.480000
  19763  19769     1   0.14233 265014.560000
  19772  19773     1   0.15375 251793.120000
  19772  19786     1   0.15375 251793.120000
  19772  19794     1   0.14316 258236.480000
  19773  19776     1   0.15375 251793.120000
  19773  19785     1   0.14233 265014.560000
  19776  19777     1   0.15375 251793.120000
  19776  19784     1   0.14233 265014.560000
  19777  19778     1   0.15375 251793.120000
  19777  19783     1   0.14233 265014.560000
  19778  19782     1   0.14316 258236.480000
  19778  19794     1   0.14316 258236.480000
  19786  19792     1   0.14233 265014.560000
  19795  19796     1   0.15375 251793.120000
  19795  19809     1   0.15375 251793.120000
  19795  19817     1   0.14316 258236.480000
  19796  19799     1   0.15375 251793.120000
  19796  19808     1   0.14233 265014.560000
  19799  19800     1   0.15375 251793.120000
  19799  19807     1   0.14233 265014.560000
  19800  19801     1   0.15375 251793.120000
  19800  19806     1   0.14233 265014.560000
  19801  19805     1   0.14316 258236.480000
  19801  19817     1   0.14316 258236.480000
  19809  19815     1   0.14233 265014.560000
  19818  19819     1   0.15375 251793.120000
  19818  19832     1   0.15375 251793.120000
  19818  19840     1   0.14316 258236.480000
  19819  19822     1   0.15375 251793.120000
  19819  19831     1   0.14233 265014.560000
  19822  19823     1   0.15375 251793.120000
  19822  19830     1   0.14233 265014.560000
  19823  19824     1   0.15375 251793.120000
  19823  19829     1   0.14233 265014.560000
  19824  19828     1   0.14316 258236.480000
  19824  19840     1   0.14316 258236.480000
  19832  19838     1   0.14233 265014.560000
  19841  19842     1   0.15375 251793.120000
  19841  19855     1   0.15375 251793.120000
  19841  19863     1   0.14316 258236.480000
  19842  19845     1   0.15375 251793.120000
  19842  19854     1   0.14233 265014.560000
  19845  19846     1   0.15375 251793.120000
  19845  19853     1   0.14233 265014.560000
  19846  19847     1   0.15375 251793.120000
  19846  19852     1   0.14233 265014.560000
  19847  19851     1   0.14316 258236.480000
  19847  19863     1   0.14316 258236.480000
  19855  19861     1   0.14233 265014.560000
  19864  19865     1   0.15375 251793.120000
  19864  19878     1   0.15375 251793.120000
  19864  19886     1   0.14316 258236.480000
  19865  19868     1   0.15375 251793.120000
  19865  19877     1   0.14233 265014.560000
  19868  19869     1   0.15375 251793.120000
  19868  19876     1   0.14233 265014.560000
  19869  19870     1   0.15375 251793.120000
  19869  19875     1   0.14233 265014.560000
  19870  19874     1   0.14316 258236.480000
  19870  19886     1   0.14316 258236.480000
  19878  19884     1   0.14233 265014.560000
  19887  19888     1   0.15375 251793.120000
  19887  19901     1   0.15375 251793.120000
  19887  19909     1   0.14316 258236.480000
  19888  19891     1   0.15375 251793.120000
  19888  19900     1   0.14233 265014.560000
  19891  19892     1   0.15375 251793.120000
  19891  19899     1   0.14233 265014.560000
  19892  19893     1   0.15375 251793.120000
  19892  19898     1   0.14233 265014.560000
  19893  19897     1   0.14316 258236.480000
  19893  19909     1   0.14316 258236.480000
  19901  19907     1   0.14233 265014.560000
      2      3     1   0.10969 276646.080000
      2      4     1   0.10969 276646.080000
      5      6     1   0.10969 276646.080000
      5      7     1   0.10969 276646.080000
      8      9     1   0.10969 276646.080000
      8     10     1   0.10969 276646.080000
     11     12     1   0.10969 276646.080000
     11     13     1   0.10969 276646.080000
     14     15     1   0.10969 276646.080000
     14     16     1   0.10969 276646.080000
     17     18     1   0.10969 276646.080000
     17     19     1   0.10969 276646.080000
     20     21     1   0.10969 276646.080000
     20     22     1   0.10969 276646.080000
     23     24     1   0.10969 276646.080000
     23     25     1   0.10969 276646.080000
     26     27     1   0.10969 276646.080000
     26     28     1   0.10969 276646.080000
     30     31     1   0.10969 276646.080000
     30     32     1   0.10969 276646.080000
     33     34     1   0.10969 276646.080000
     33     35     1   0.10969 276646.080000
     36     37     1   0.10969 276646.080000
     36     38     1   0.10969 276646.080000
     39     40     1   0.10969 276646.080000
     39     41     1   0.10969 276646.080000
     42     43     1   0.10969 276646.080000
     42     44     1   0.10969 276646.080000
     45     46     1   0.10969 276646.080000
     45     47     1   0.10969 276646.080000
     48     49     1   0.10969 276646.080000
     48     50     1   0.10969 276646.080000
     51     52     1   0.10969 276646.080000
     51     53     1   0.10969 276646.080000
     54     55     1   0.10969 276646.080000
     54     56     1   0.10969 276646.080000
     59     60     1   0.10969 276646.080000
     59     61     1   0.10969 276646.080000
     62     63     1   0.10969 276646.080000
     62     64     1   0.10969 276646.080000
     65     66     1   0.10969 276646.080000
     65     67     1   0.10969 276646.080000
     68     69     1   0.10969 276646.080000
     68     70     1   0.10969 276646.080000
     71     72     1   0.10969 276646.080000
     71     73     1   0.10969 276646.080000
     74     75     1   0.10969 276646.080000
     74     76     1   0.10969 276646.080000
     77     78     1   0.10969 276646.080000
     77     79     1   0.10969 276646.080000
     80     81     1   0.10969 276646.080000
     80     82     1   0.10969 276646.080000
     83     84     1   0.10969 276646.080000
     83     85     1   0.10969 276646.080000
     88     89     1   0.10969 276646.080000
     88     90     1   0.10969 276646.080000
     91     92     1   0.10969 276646.080000
     91     93     1   0.10969 276646.080000
     94     95     1   0.10969 276646.080000
     94     96     1   0.10969 276646.080000
     97     98     1   0.10969 276646.080000
     97     99     1   0.10969 276646.080000
    100    101     1   0.10969 276646.080000
    100    102     1   0.10969 276646.080000
    103    104     1   0.10969 276646.080000
    103    105     1   0.10969 276646.080000
    106    107     1   0.10969 276646.080000
    106    108     1   0.10969 276646.080000
    109    110     1   0.10969 276646.080000
    109    111     1   0.10969 276646.080000
    112    113     1   0.10969 276646.080000
    112    114     1   0.10969 276646.080000
    117    118     1   0.10969 276646.080000
    117    119     1   0.10969 276646.080000
    120    121     1   0.10969 276646.080000
    120    122     1   0.10969 276646.080000
    123    124     1   0.10969 276646.080000
    123    125     1   0.10969 276646.080000
    126    127     1   0.10969 276646.080000
    126    128     1   0.10969 276646.080000
    129    130     1   0.10969 276646.080000
    129    131     1   0.10969 276646.080000
    132    133     1   0.10969 276646.080000
    132    134     1   0.10969 276646.080000
    135    136     1   0.10969 276646.080000
    135    137     1   0.10969 276646.080000
    138    139     1   0.10969 276646.080000
    138    140     1   0.10969 276646.080000
    141    142     1   0.10969 276646.080000
    141    143     1   0.10969 276646.080000
    146    147     1   0.10969 276646.080000
    146    148     1   0.10969 276646.080000
    149    150     1   0.10969 276646.080000
    149    151     1   0.10969 276646.080000
    152    153     1   0.10969 276646.080000
    152    154     1   0.10969 276646.080000
    155    156     1   0.10969 276646.080000
    155    157     1   0.10969 276646.080000
    158    159     1   0.10969 276646.080000
    158    160     1   0.10969 276646.080000
    161    162     1   0.10969 276646.080000
    161    163     1   0.10969 276646.080000
    164    165     1   0.10969 276646.080000
    164    166     1   0.10969 276646.080000
    167    168     1   0.10969 276646.080000
    167    169     1   0.10969 276646.080000
    170    171     1   0.10969 276646.080000
    170    172     1   0.10969 276646.080000
    175    176     1   0.10969 276646.080000
    175    177     1   0.10969 276646.080000
    178    179     1   0.10969 276646.080000
    178    180     1   0.10969 276646.080000
    181    182     1   0.10969 276646.080000
    181    183     1   0.10969 276646.080000
    184    185     1   0.10969 276646.080000
    184    186     1   0.10969 276646.080000
    187    188     1   0.10969 276646.080000
    187    189     1   0.10969 276646.080000
    190    191     1   0.10969 276646.080000
    190    192     1   0.10969 276646.080000
    193    194     1   0.10969 276646.080000
    193    195     1   0.10969 276646.080000
    196    197     1   0.10969 276646.080000
    196    198     1   0.10969 276646.080000
    199    200     1   0.10969 276646.080000
    199    201     1   0.10969 276646.080000
    204    205     1   0.10969 276646.080000
    204    206     1   0.10969 276646.080000
    207    208     1   0.10969 276646.080000
    207    209     1   0.10969 276646.080000
    210    211     1   0.10969 276646.080000
    210    212     1   0.10969 276646.080000
    213    214     1   0.10969 276646.080000
    213    215     1   0.10969 276646.080000
    216    217     1   0.10969 276646.080000
    216    218     1   0.10969 276646.080000
    219    220     1   0.10969 276646.080000
    219    221     1   0.10969 276646.080000
    222    223     1   0.10969 276646.080000
    222    224     1   0.10969 276646.080000
    225    226     1   0.10969 276646.080000
    225    227     1   0.10969 276646.080000
    228    229     1   0.10969 276646.080000
    228    230     1   0.10969 276646.080000
    233    234     1   0.10969 276646.080000
    233    235     1   0.10969 276646.080000
    236    237     1   0.10969 276646.080000
    236    238     1   0.10969 276646.080000
    239    240     1   0.10969 276646.080000
    239    241     1   0.10969 276646.080000
    242    243     1   0.10969 276646.080000
    242    244     1   0.10969 276646.080000
    245    246     1   0.10969 276646.080000
    245    247     1   0.10969 276646.080000
    248    249     1   0.10969 276646.080000
    248    250     1   0.10969 276646.080000
    251    252     1   0.10969 276646.080000
    251    253     1   0.10969 276646.080000
    254    255     1   0.10969 276646.080000
    254    256     1   0.10969 276646.080000
    257    258     1   0.10969 276646.080000
    257    259     1   0.10969 276646.080000
    262    263     1   0.10969 276646.080000
    262    264     1   0.10969 276646.080000
    265    266     1   0.10969 276646.080000
    265    267     1   0.10969 276646.080000
    268    269     1   0.10969 276646.080000
    268    270     1   0.10969 276646.080000
    271    272     1   0.10969 276646.080000
    271    273     1   0.10969 276646.080000
    274    275     1   0.10969 276646.080000
    274    276     1   0.10969 276646.080000
    277    278     1   0.10969 276646.080000
    277    279     1   0.10969 276646.080000
    280    281     1   0.10969 276646.080000
    280    282     1   0.10969 276646.080000
    283    284     1   0.10969 276646.080000
    283    285     1   0.10969 276646.080000
    286    287     1   0.10969 276646.080000
    286    288     1   0.10969 276646.080000
    291    292     1   0.10969 276646.080000
    291    293     1   0.10969 276646.080000
    294    295     1   0.10969 276646.080000
    294    296     1   0.10969 276646.080000
    297    298     1   0.10969 276646.080000
    297    299     1   0.10969 276646.080000
    300    301     1   0.10969 276646.080000
    300    302     1   0.10969 276646.080000
    303    304     1   0.10969 276646.080000
    303    305     1   0.10969 276646.080000
    306    307     1   0.10969 276646.080000
    306    308     1   0.10969 276646.080000
    309    310     1   0.10969 276646.080000
    309    311     1   0.10969 276646.080000
    312    313     1   0.10969 276646.080000
    312    314     1   0.10969 276646.080000
    315    316     1   0.10969 276646.080000
    315    317     1   0.10969 276646.080000
    320    321     1   0.10969 276646.080000
    320    322     1   0.10969 276646.080000
    323    324     1   0.10969 276646.080000
    323    325     1   0.10969 276646.080000
    326    327     1   0.10969 276646.080000
    326    328     1   0.10969 276646.080000
    329    330     1   0.10969 276646.080000
    329    331     1   0.10969 276646.080000
    332    333     1   0.10969 276646.080000
    332    334     1   0.10969 276646.080000
    335    336     1   0.10969 276646.080000
    335    337     1   0.10969 276646.080000
    338    339     1   0.10969 276646.080000
    338    340     1   0.10969 276646.080000
    341    342     1   0.10969 276646.080000
    341    343     1   0.10969 276646.080000
    344    345     1   0.10969 276646.080000
    344    346     1   0.10969 276646.080000
    349    350     1   0.10969 276646.080000
    349    351     1   0.10969 276646.080000
    352    353     1   0.10969 276646.080000
    352    354     1   0.10969 276646.080000
    355    356     1   0.10969 276646.080000
    355    357     1   0.10969 276646.080000
    358    359     1   0.10969 276646.080000
    358    360     1   0.10969 276646.080000
    361    362     1   0.10969 276646.080000
    361    363     1   0.10969 276646.080000
    364    365     1   0.10969 276646.080000
    364    366     1   0.10969 276646.080000
    367    368     1   0.10969 276646.080000
    367    369     1   0.10969 276646.080000
    370    371     1   0.10969 276646.080000
    370    372     1   0.10969 276646.080000
    373    374     1   0.10969 276646.080000
    373    375     1   0.10969 276646.080000
    378    379     1   0.10969 276646.080000
    378    380     1   0.10969 276646.080000
    381    382     1   0.10969 276646.080000
    381    383     1   0.10969 276646.080000
    384    385     1   0.10969 276646.080000
    384    386     1   0.10969 276646.080000
    387    388     1   0.10969 276646.080000
    387    389     1   0.10969 276646.080000
    390    391     1   0.10969 276646.080000
    390    392     1   0.10969 276646.080000
    393    394     1   0.10969 276646.080000
    393    395     1   0.10969 276646.080000
    396    397     1   0.10969 276646.080000
    396    398     1   0.10969 276646.080000
    399    400     1   0.10969 276646.080000
    399    401     1   0.10969 276646.080000
    402    403     1   0.10969 276646.080000
    402    404     1   0.10969 276646.080000
    407    408     1   0.10969 276646.080000
    407    409     1   0.10969 276646.080000
    410    411     1   0.10969 276646.080000
    410    412     1   0.10969 276646.080000
    413    414     1   0.10969 276646.080000
    413    415     1   0.10969 276646.080000
    416    417     1   0.10969 276646.080000
    416    418     1   0.10969 276646.080000
    419    420     1   0.10969 276646.080000
    419    421     1   0.10969 276646.080000
    422    423     1   0.10969 276646.080000
    422    424     1   0.10969 276646.080000
    425    426     1   0.10969 276646.080000
    425    427     1   0.10969 276646.080000
    428    429     1   0.10969 276646.080000
    428    430     1   0.10969 276646.080000
    431    432     1   0.10969 276646.080000
    431    433     1   0.10969 276646.080000
    436    437     1   0.10969 276646.080000
    436    438     1   0.10969 276646.080000
    439    440     1   0.10969 276646.080000
    439    441     1   0.10969 276646.080000
    442    443     1   0.10969 276646.080000
    442    444     1   0.10969 276646.080000
    445    446     1   0.10969 276646.080000
    445    447     1   0.10969 276646.080000
    448    449     1   0.10969 276646.080000
    448    450     1   0.10969 276646.080000
    451    452     1   0.10969 276646.080000
    451    453     1   0.10969 276646.080000
    454    455     1   0.10969 276646.080000
    454    456     1   0.10969 276646.080000
    457    458     1   0.10969 276646.080000
    457    459     1   0.10969 276646.080000
    460    461     1   0.10969 276646.080000
    460    462     1   0.10969 276646.080000
    465    466     1   0.10969 276646.080000
    465    467     1   0.10969 276646.080000
    468    469     1   0.10969 276646.080000
    468    470     1   0.10969 276646.080000
    471    472     1   0.10969 276646.080000
    471    473     1   0.10969 276646.080000
    474    475     1   0.10969 276646.080000
    474    476     1   0.10969 276646.080000
    477    478     1   0.10969 276646.080000
    477    479     1   0.10969 276646.080000
    480    481     1   0.10969 276646.080000
    480    482     1   0.10969 276646.080000
    483    484     1   0.10969 276646.080000
    483    485     1   0.10969 276646.080000
    486    487     1   0.10969 276646.080000
    486    488     1   0.10969 276646.080000
    489    490     1   0.10969 276646.080000
    489    491     1   0.10969 276646.080000
    494    495     1   0.10969 276646.080000
    494    496     1   0.10969 276646.080000
    497    498     1   0.10969 276646.080000
    497    499     1   0.10969 276646.080000
    500    501     1   0.10969 276646.080000
    500    502     1   0.10969 276646.080000
    503    504     1   0.10969 276646.080000
    503    505     1   0.10969 276646.080000
    506    507     1   0.10969 276646.080000
    506    508     1   0.10969 276646.080000
    509    510     1   0.10969 276646.080000
    509    511     1   0.10969 276646.080000
    512    513     1   0.10969 276646.080000
    512    514     1   0.10969 276646.080000
    515    516     1   0.10969 276646.080000
    515    517     1   0.10969 276646.080000
    518    519     1   0.10969 276646.080000
    518    520     1   0.10969 276646.080000
    523    524     1   0.10969 276646.080000
    523    525     1   0.10969 276646.080000
    526    527     1   0.10969 276646.080000
    526    528     1   0.10969 276646.080000
    529    530     1   0.10969 276646.080000
    529    531     1   0.10969 276646.080000
    532    533     1   0.10969 276646.080000
    532    534     1   0.10969 276646.080000
    535    536     1   0.10969 276646.080000
    535    537     1   0.10969 276646.080000
    538    539     1   0.10969 276646.080000
    538    540     1   0.10969 276646.080000
    541    542     1   0.10969 276646.080000
    541    543     1   0.10969 276646.080000
    544    545     1   0.10969 276646.080000
    544    546     1   0.10969 276646.080000
    547    548     1   0.10969 276646.080000
    547    549     1   0.10969 276646.080000
    552    553     1   0.10969 276646.080000
    552    554     1   0.10969 276646.080000
    555    556     1   0.10969 276646.080000
    555    557     1   0.10969 276646.080000
    558    559     1   0.10969 276646.080000
    558    560     1   0.10969 276646.080000
    561    562     1   0.10969 276646.080000
    561    563     1   0.10969 276646.080000
    564    565     1   0.10969 276646.080000
    564    566     1   0.10969 276646.080000
    567    568     1   0.10969 276646.080000
    567    569     1   0.10969 276646.080000
    570    571     1   0.10969 276646.080000
    570    572     1   0.10969 276646.080000
    573    574     1   0.10969 276646.080000
    573    575     1   0.10969 276646.080000
    576    577     1   0.10969 276646.080000
    576    578     1   0.10969 276646.080000
    581    582     1   0.10969 276646.080000
    581    583     1   0.10969 276646.080000
    584    585     1   0.10969 276646.080000
    584    586     1   0.10969 276646.080000
    587    588     1   0.10969 276646.080000
    587    589     1   0.10969 276646.080000
    590    591     1   0.10969 276646.080000
    590    592     1   0.10969 276646.080000
    593    594     1   0.10969 276646.080000
    593    595     1   0.10969 276646.080000
    596    597     1   0.10969 276646.080000
    596    598     1   0.10969 276646.080000
    599    600     1   0.10969 276646.080000
    599    601     1   0.10969 276646.080000
    602    603     1   0.10969 276646.080000
    602    604     1   0.10969 276646.080000
    605    606     1   0.10969 276646.080000
    605    607     1   0.10969 276646.080000
    610    611     1   0.10969 276646.080000
    610    612     1   0.10969 276646.080000
    613    614     1   0.10969 276646.080000
    613    615     1   0.10969 276646.080000
    616    617     1   0.10969 276646.080000
    616    618     1   0.10969 276646.080000
    619    620     1   0.10969 276646.080000
    619    621     1   0.10969 276646.080000
    622    623     1   0.10969 276646.080000
    622    624     1   0.10969 276646.080000
    625    626     1   0.10969 276646.080000
    625    627     1   0.10969 276646.080000
    628    629     1   0.10969 276646.080000
    628    630     1   0.10969 276646.080000
    631    632     1   0.10969 276646.080000
    631    633     1   0.10969 276646.080000
    634    635     1   0.10969 276646.080000
    634    636     1   0.10969 276646.080000
    639    640     1   0.10969 276646.080000
    639    641     1   0.10969 276646.080000
    642    643     1   0.10969 276646.080000
    642    644     1   0.10969 276646.080000
    645    646     1   0.10969 276646.080000
    645    647     1   0.10969 276646.080000
    648    649     1   0.10969 276646.080000
    648    650     1   0.10969 276646.080000
    651    652     1   0.10969 276646.080000
    651    653     1   0.10969 276646.080000
    654    655     1   0.10969 276646.080000
    654    656     1   0.10969 276646.080000
    657    658     1   0.10969 276646.080000
    657    659     1   0.10969 276646.080000
    660    661     1   0.10969 276646.080000
    660    662     1   0.10969 276646.080000
    663    664     1   0.10969 276646.080000
    663    665     1   0.10969 276646.080000
    668    669     1   0.10969 276646.080000
    668    670     1   0.10969 276646.080000
    671    672     1   0.10969 276646.080000
    671    673     1   0.10969 276646.080000
    674    675     1   0.10969 276646.080000
    674    676     1   0.10969 276646.080000
    677    678     1   0.10969 276646.080000
    677    679     1   0.10969 276646.080000
    680    681     1   0.10969 276646.080000
    680    682     1   0.10969 276646.080000
    683    684     1   0.10969 276646.080000
    683    685     1   0.10969 276646.080000
    686    687     1   0.10969 276646.080000
    686    688     1   0.10969 276646.080000
    689    690     1   0.10969 276646.080000
    689    691     1   0.10969 276646.080000
    692    693     1   0.10969 276646.080000
    692    694     1   0.10969 276646.080000
    697    698     1   0.10969 276646.080000
    697    699     1   0.10969 276646.080000
    700    701     1   0.10969 276646.080000
    700    702     1   0.10969 276646.080000
    703    704     1   0.10969 276646.080000
    703    705     1   0.10969 276646.080000
    706    707     1   0.10969 276646.080000
    706    708     1   0.10969 276646.080000
    709    710     1   0.10969 276646.080000
    709    711     1   0.10969 276646.080000
    712    713     1   0.10969 276646.080000
    712    714     1   0.10969 276646.080000
    715    716     1   0.10969 276646.080000
    715    717     1   0.10969 276646.080000
    718    719     1   0.10969 276646.080000
    718    720     1   0.10969 276646.080000
    721    722     1   0.10969 276646.080000
    721    723     1   0.10969 276646.080000
    726    727     1   0.10969 276646.080000
    726    728     1   0.10969 276646.080000
    729    730     1   0.10969 276646.080000
    729    731     1   0.10969 276646.080000
    732    733     1   0.10969 276646.080000
    732    734     1   0.10969 276646.080000
    735    736     1   0.10969 276646.080000
    735    737     1   0.10969 276646.080000
    738    739     1   0.10969 276646.080000
    738    740     1   0.10969 276646.080000
    741    742     1   0.10969 276646.080000
    741    743     1   0.10969 276646.080000
    744    745     1   0.10969 276646.080000
    744    746     1   0.10969 276646.080000
    747    748     1   0.10969 276646.080000
    747    749     1   0.10969 276646.080000
    750    751     1   0.10969 276646.080000
    750    752     1   0.10969 276646.080000
    755    756     1   0.10969 276646.080000
    755    757     1   0.10969 276646.080000
    758    759     1   0.10969 276646.080000
    758    760     1   0.10969 276646.080000
    761    762     1   0.10969 276646.080000
    761    763     1   0.10969 276646.080000
    764    765     1   0.10969 276646.080000
    764    766     1   0.10969 276646.080000
    767    768     1   0.10969 276646.080000
    767    769     1   0.10969 276646.080000
    770    771     1   0.10969 276646.080000
    770    772     1   0.10969 276646.080000
    773    774     1   0.10969 276646.080000
    773    775     1   0.10969 276646.080000
    776    777     1   0.10969 276646.080000
    776    778     1   0.10969 276646.080000
    779    780     1   0.10969 276646.080000
    779    781     1   0.10969 276646.080000
    784    785     1   0.10969 276646.080000
    784    786     1   0.10969 276646.080000
    787    788     1   0.10969 276646.080000
    787    789     1   0.10969 276646.080000
    790    791     1   0.10969 276646.080000
    790    792     1   0.10969 276646.080000
    793    794     1   0.10969 276646.080000
    793    795     1   0.10969 276646.080000
    796    797     1   0.10969 276646.080000
    796    798     1   0.10969 276646.080000
    799    800     1   0.10969 276646.080000
    799    801     1   0.10969 276646.080000
    802    803     1   0.10969 276646.080000
    802    804     1   0.10969 276646.080000
    805    806     1   0.10969 276646.080000
    805    807     1   0.10969 276646.080000
    808    809     1   0.10969 276646.080000
    808    810     1   0.10969 276646.080000
    813    814     1   0.10969 276646.080000
    813    815     1   0.10969 276646.080000
    816    817     1   0.10969 276646.080000
    816    818     1   0.10969 276646.080000
    819    820     1   0.10969 276646.080000
    819    821     1   0.10969 276646.080000
    822    823     1   0.10969 276646.080000
    822    824     1   0.10969 276646.080000
    825    826     1   0.10969 276646.080000
    825    827     1   0.10969 276646.080000
    828    829     1   0.10969 276646.080000
    828    830     1   0.10969 276646.080000
    831    832     1   0.10969 276646.080000
    831    833     1   0.10969 276646.080000
    834    835     1   0.10969 276646.080000
    834    836     1   0.10969 276646.080000
    837    838     1   0.10969 276646.080000
    837    839     1   0.10969 276646.080000
    842    843     1   0.10969 276646.080000
    842    844     1   0.10969 276646.080000
    845    846     1   0.10969 276646.080000
    845    847     1   0.10969 276646.080000
    848    849     1   0.10969 276646.080000
    848    850     1   0.10969 276646.080000
    851    852     1   0.10969 276646.080000
    851    853     1   0.10969 276646.080000
    854    855     1   0.10969 276646.080000
    854    856     1   0.10969 276646.080000
    857    858     1   0.10969 276646.080000
    857    859     1   0.10969 276646.080000
    860    861     1   0.10969 276646.080000
    860    862     1   0.10969 276646.080000
    863    864     1   0.10969 276646.080000
    863    865     1   0.10969 276646.080000
    866    867     1   0.10969 276646.080000
    866    868     1   0.10969 276646.080000
    871    872     1   0.10969 276646.080000
    871    873     1   0.10969 276646.080000
    874    875     1   0.10969 276646.080000
    874    876     1   0.10969 276646.080000
    877    878     1   0.10969 276646.080000
    877    879     1   0.10969 276646.080000
    880    881     1   0.10969 276646.080000
    880    882     1   0.10969 276646.080000
    883    884     1   0.10969 276646.080000
    883    885     1   0.10969 276646.080000
    886    887     1   0.10969 276646.080000
    886    888     1   0.10969 276646.080000
    889    890     1   0.10969 276646.080000
    889    891     1   0.10969 276646.080000
    892    893     1   0.10969 276646.080000
    892    894     1   0.10969 276646.080000
    895    896     1   0.10969 276646.080000
    895    897     1   0.10969 276646.080000
    900    901     1   0.10969 276646.080000
    900    902     1   0.10969 276646.080000
    903    904     1   0.10969 276646.080000
    903    905     1   0.10969 276646.080000
    906    907     1   0.10969 276646.080000
    906    908     1   0.10969 276646.080000
    909    910     1   0.10969 276646.080000
    909    911     1   0.10969 276646.080000
    912    913     1   0.10969 276646.080000
    912    914     1   0.10969 276646.080000
    915    916     1   0.10969 276646.080000
    915    917     1   0.10969 276646.080000
    918    919     1   0.10969 276646.080000
    918    920     1   0.10969 276646.080000
    921    922     1   0.10969 276646.080000
    921    923     1   0.10969 276646.080000
    924    925     1   0.10969 276646.080000
    924    926     1   0.10969 276646.080000
    929    930     1   0.10969 276646.080000
    929    931     1   0.10969 276646.080000
    932    933     1   0.10969 276646.080000
    932    934     1   0.10969 276646.080000
    935    936     1   0.10969 276646.080000
    935    937     1   0.10969 276646.080000
    938    939     1   0.10969 276646.080000
    938    940     1   0.10969 276646.080000
    941    942     1   0.10969 276646.080000
    941    943     1   0.10969 276646.080000
    944    945     1   0.10969 276646.080000
    944    946     1   0.10969 276646.080000
    947    948     1   0.10969 276646.080000
    947    949     1   0.10969 276646.080000
    950    951     1   0.10969 276646.080000
    950    952     1   0.10969 276646.080000
    953    954     1   0.10969 276646.080000
    953    955     1   0.10969 276646.080000
    958    959     1   0.10969 276646.080000
    958    960     1   0.10969 276646.080000
    961    962     1   0.10969 276646.080000
    961    963     1   0.10969 276646.080000
    964    965     1   0.10969 276646.080000
    964    966     1   0.10969 276646.080000
    967    968     1   0.10969 276646.080000
    967    969     1   0.10969 276646.080000
    970    971     1   0.10969 276646.080000
    970    972     1   0.10969 276646.080000
    973    974     1   0.10969 276646.080000
    973    975     1   0.10969 276646.080000
    976    977     1   0.10969 276646.080000
    976    978     1   0.10969 276646.080000
    979    980     1   0.10969 276646.080000
    979    981     1   0.10969 276646.080000
    982    983     1   0.10969 276646.080000
    982    984     1   0.10969 276646.080000
    987    988     1   0.10969 276646.080000
    987    989     1   0.10969 276646.080000
    990    991     1   0.10969 276646.080000
    990    992     1   0.10969 276646.080000
    993    994     1   0.10969 276646.080000
    993    995     1   0.10969 276646.080000
    996    997     1   0.10969 276646.080000
    996    998     1   0.10969 276646.080000
    999   1000     1   0.10969 276646.080000
    999   1001     1   0.10969 276646.080000
   1002   1003     1   0.10969 276646.080000
   1002   1004     1   0.10969 276646.080000
   1005   1006     1   0.10969 276646.080000
   1005   1007     1   0.10969 276646.080000
   1008   1009     1   0.10969 276646.080000
   1008   1010     1   0.10969 276646.080000
   1011   1012     1   0.10969 276646.080000
   1011   1013     1   0.10969 276646.080000
   1016   1017     1   0.10969 276646.080000
   1016   1018     1   0.10969 276646.080000
   1019   1020     1   0.10969 276646.080000
   1019   1021     1   0.10969 276646.080000
   1022   1023     1   0.10969 276646.080000
   1022   1024     1   0.10969 276646.080000
   1025   1026     1   0.10969 276646.080000
   1025   1027     1   0.10969 276646.080000
   1028   1029     1   0.10969 276646.080000
   1028   1030     1   0.10969 276646.080000
   1031   1032     1   0.10969 276646.080000
   1031   1033     1   0.10969 276646.080000
   1034   1035     1   0.10969 276646.080000
   1034   1036     1   0.10969 276646.080000
   1037   1038     1   0.10969 276646.080000
   1037   1039     1   0.10969 276646.080000
   1040   1041     1   0.10969 276646.080000
   1040   1042     1   0.10969 276646.080000
   1045   1046     1   0.10969 276646.080000
   1045   1047     1   0.10969 276646.080000
   1048   1049     1   0.10969 276646.080000
   1048   1050     1   0.10969 276646.080000
   1051   1052     1   0.10969 276646.080000
   1051   1053     1   0.10969 276646.080000
   1054   1055     1   0.10969 276646.080000
   1054   1056     1   0.10969 276646.080000
   1057   1058     1   0.10969 276646.080000
   1057   1059     1   0.10969 276646.080000
   1060   1061     1   0.10969 276646.080000
   1060   1062     1   0.10969 276646.080000
   1063   1064     1   0.10969 276646.080000
   1063   1065     1   0.10969 276646.080000
   1066   1067     1   0.10969 276646.080000
   1066   1068     1   0.10969 276646.080000
   1069   1070     1   0.10969 276646.080000
   1069   1071     1   0.10969 276646.080000
   1074   1075     1   0.10969 276646.080000
   1074   1076     1   0.10969 276646.080000
   1077   1078     1   0.10969 276646.080000
   1077   1079     1   0.10969 276646.080000
   1080   1081     1   0.10969 276646.080000
   1080   1082     1   0.10969 276646.080000
   1083   1084     1   0.10969 276646.080000
   1083   1085     1   0.10969 276646.080000
   1086   1087     1   0.10969 276646.080000
   1086   1088     1   0.10969 276646.080000
   1089   1090     1   0.10969 276646.080000
   1089   1091     1   0.10969 276646.080000
   1092   1093     1   0.10969 276646.080000
   1092   1094     1   0.10969 276646.080000
   1095   1096     1   0.10969 276646.080000
   1095   1097     1   0.10969 276646.080000
   1098   1099     1   0.10969 276646.080000
   1098   1100     1   0.10969 276646.080000
   1103   1104     1   0.10969 276646.080000
   1103   1105     1   0.10969 276646.080000
   1106   1107     1   0.10969 276646.080000
   1106   1108     1   0.10969 276646.080000
   1109   1110     1   0.10969 276646.080000
   1109   1111     1   0.10969 276646.080000
   1112   1113     1   0.10969 276646.080000
   1112   1114     1   0.10969 276646.080000
   1115   1116     1   0.10969 276646.080000
   1115   1117     1   0.10969 276646.080000
   1118   1119     1   0.10969 276646.080000
   1118   1120     1   0.10969 276646.080000
   1121   1122     1   0.10969 276646.080000
   1121   1123     1   0.10969 276646.080000
   1124   1125     1   0.10969 276646.080000
   1124   1126     1   0.10969 276646.080000
   1127   1128     1   0.10969 276646.080000
   1127   1129     1   0.10969 276646.080000
   1132   1133     1   0.10969 276646.080000
   1132   1134     1   0.10969 276646.080000
   1135   1136     1   0.10969 276646.080000
   1135   1137     1   0.10969 276646.080000
   1138   1139     1   0.10969 276646.080000
   1138   1140     1   0.10969 276646.080000
   1141   1142     1   0.10969 276646.080000
   1141   1143     1   0.10969 276646.080000
   1144   1145     1   0.10969 276646.080000
   1144   1146     1   0.10969 276646.080000
   1147   1148     1   0.10969 276646.080000
   1147   1149     1   0.10969 276646.080000
   1150   1151     1   0.10969 276646.080000
   1150   1152     1   0.10969 276646.080000
   1153   1154     1   0.10969 276646.080000
   1153   1155     1   0.10969 276646.080000
   1156   1157     1   0.10969 276646.080000
   1156   1158     1   0.10969 276646.080000
   1161   1162     1   0.10969 276646.080000
   1161   1163     1   0.10969 276646.080000
   1164   1165     1   0.10969 276646.080000
   1164   1166     1   0.10969 276646.080000
   1167   1168     1   0.10969 276646.080000
   1167   1169     1   0.10969 276646.080000
   1170   1171     1   0.10969 276646.080000
   1170   1172     1   0.10969 276646.080000
   1173   1174     1   0.10969 276646.080000
   1173   1175     1   0.10969 276646.080000
   1176   1177     1   0.10969 276646.080000
   1176   1178     1   0.10969 276646.080000
   1179   1180     1   0.10969 276646.080000
   1179   1181     1   0.10969 276646.080000
   1182   1183     1   0.10969 276646.080000
   1182   1184     1   0.10969 276646.080000
   1185   1186     1   0.10969 276646.080000
   1185   1187     1   0.10969 276646.080000
   1190   1191     1   0.10969 276646.080000
   1190   1192     1   0.10969 276646.080000
   1193   1194     1   0.10969 276646.080000
   1193   1195     1   0.10969 276646.080000
   1196   1197     1   0.10969 276646.080000
   1196   1198     1   0.10969 276646.080000
   1199   1200     1   0.10969 276646.080000
   1199   1201     1   0.10969 276646.080000
   1202   1203     1   0.10969 276646.080000
   1202   1204     1   0.10969 276646.080000
   1205   1206     1   0.10969 276646.080000
   1205   1207     1   0.10969 276646.080000
   1208   1209     1   0.10969 276646.080000
   1208   1210     1   0.10969 276646.080000
   1211   1212     1   0.10969 276646.080000
   1211   1213     1   0.10969 276646.080000
   1214   1215     1   0.10969 276646.080000
   1214   1216     1   0.10969 276646.080000
   1219   1220     1   0.10969 276646.080000
   1219   1221     1   0.10969 276646.080000
   1222   1223     1   0.10969 276646.080000
   1222   1224     1   0.10969 276646.080000
   1225   1226     1   0.10969 276646.080000
   1225   1227     1   0.10969 276646.080000
   1228   1229     1   0.10969 276646.080000
   1228   1230     1   0.10969 276646.080000
   1231   1232     1   0.10969 276646.080000
   1231   1233     1   0.10969 276646.080000
   1234   1235     1   0.10969 276646.080000
   1234   1236     1   0.10969 276646.080000
   1237   1238     1   0.10969 276646.080000
   1237   1239     1   0.10969 276646.080000
   1240   1241     1   0.10969 276646.080000
   1240   1242     1   0.10969 276646.080000
   1243   1244     1   0.10969 276646.080000
   1243   1245     1   0.10969 276646.080000
   1248   1249     1   0.10969 276646.080000
   1248   1250     1   0.10969 276646.080000
   1251   1252     1   0.10969 276646.080000
   1251   1253     1   0.10969 276646.080000
   1254   1255     1   0.10969 276646.080000
   1254   1256     1   0.10969 276646.080000
   1257   1258     1   0.10969 276646.080000
   1257   1259     1   0.10969 276646.080000
   1260   1261     1   0.10969 276646.080000
   1260   1262     1   0.10969 276646.080000
   1263   1264     1   0.10969 276646.080000
   1263   1265     1   0.10969 276646.080000
   1266   1267     1   0.10969 276646.080000
   1266   1268     1   0.10969 276646.080000
   1269   1270     1   0.10969 276646.080000
   1269   1271     1   0.10969 276646.080000
   1272   1273     1   0.10969 276646.080000
   1272   1274     1   0.10969 276646.080000
   1277   1278     1   0.10969 276646.080000
   1277   1279     1   0.10969 276646.080000
   1280   1281     1   0.10969 276646.080000
   1280   1282     1   0.10969 276646.080000
   1283   1284     1   0.10969 276646.080000
   1283   1285     1   0.10969 276646.080000
   1286   1287     1   0.10969 276646.080000
   1286   1288     1   0.10969 276646.080000
   1289   1290     1   0.10969 276646.080000
   1289   1291     1   0.10969 276646.080000
   1292   1293     1   0.10969 276646.080000
   1292   1294     1   0.10969 276646.080000
   1295   1296     1   0.10969 276646.080000
   1295   1297     1   0.10969 276646.080000
   1298   1299     1   0.10969 276646.080000
   1298   1300     1   0.10969 276646.080000
   1301   1302     1   0.10969 276646.080000
   1301   1303     1   0.10969 276646.080000
   1306   1307     1   0.10969 276646.080000
   1306   1308     1   0.10969 276646.080000
   1309   1310     1   0.10969 276646.080000
   1309   1311     1   0.10969 276646.080000
   1312   1313     1   0.10969 276646.080000
   1312   1314     1   0.10969 276646.080000
   1315   1316     1   0.10969 276646.080000
   1315   1317     1   0.10969 276646.080000
   1318   1319     1   0.10969 276646.080000
   1318   1320     1   0.10969 276646.080000
   1321   1322     1   0.10969 276646.080000
   1321   1323     1   0.10969 276646.080000
   1324   1325     1   0.10969 276646.080000
   1324   1326     1   0.10969 276646.080000
   1327   1328     1   0.10969 276646.080000
   1327   1329     1   0.10969 276646.080000
   1330   1331     1   0.10969 276646.080000
   1330   1332     1   0.10969 276646.080000
   1335   1336     1   0.10969 276646.080000
   1335   1337     1   0.10969 276646.080000
   1338   1339     1   0.10969 276646.080000
   1338   1340     1   0.10969 276646.080000
   1341   1342     1   0.10969 276646.080000
   1341   1343     1   0.10969 276646.080000
   1344   1345     1   0.10969 276646.080000
   1344   1346     1   0.10969 276646.080000
   1347   1348     1   0.10969 276646.080000
   1347   1349     1   0.10969 276646.080000
   1350   1351     1   0.10969 276646.080000
   1350   1352     1   0.10969 276646.080000
   1353   1354     1   0.10969 276646.080000
   1353   1355     1   0.10969 276646.080000
   1356   1357     1   0.10969 276646.080000
   1356   1358     1   0.10969 276646.080000
   1359   1360     1   0.10969 276646.080000
   1359   1361     1   0.10969 276646.080000
   1364   1365     1   0.10969 276646.080000
   1364   1366     1   0.10969 276646.080000
   1367   1368     1   0.10969 276646.080000
   1367   1369     1   0.10969 276646.080000
   1370   1371     1   0.10969 276646.080000
   1370   1372     1   0.10969 276646.080000
   1373   1374     1   0.10969 276646.080000
   1373   1375     1   0.10969 276646.080000
   1376   1377     1   0.10969 276646.080000
   1376   1378     1   0.10969 276646.080000
   1379   1380     1   0.10969 276646.080000
   1379   1381     1   0.10969 276646.080000
   1382   1383     1   0.10969 276646.080000
   1382   1384     1   0.10969 276646.080000
   1385   1386     1   0.10969 276646.080000
   1385   1387     1   0.10969 276646.080000
   1388   1389     1   0.10969 276646.080000
   1388   1390     1   0.10969 276646.080000
   1393   1394     1   0.10969 276646.080000
   1393   1395     1   0.10969 276646.080000
   1396   1397     1   0.10969 276646.080000
   1396   1398     1   0.10969 276646.080000
   1399   1400     1   0.10969 276646.080000
   1399   1401     1   0.10969 276646.080000
   1402   1403     1   0.10969 276646.080000
   1402   1404     1   0.10969 276646.080000
   1405   1406     1   0.10969 276646.080000
   1405   1407     1   0.10969 276646.080000
   1408   1409     1   0.10969 276646.080000
   1408   1410     1   0.10969 276646.080000
   1411   1412     1   0.10969 276646.080000
   1411   1413     1   0.10969 276646.080000
   1414   1415     1   0.10969 276646.080000
   1414   1416     1   0.10969 276646.080000
   1417   1418     1   0.10969 276646.080000
   1417   1419     1   0.10969 276646.080000
   1422   1423     1   0.10969 276646.080000
   1422   1424     1   0.10969 276646.080000
   1425   1426     1   0.10969 276646.080000
   1425   1427     1   0.10969 276646.080000
   1428   1429     1   0.10969 276646.080000
   1428   1430     1   0.10969 276646.080000
   1431   1432     1   0.10969 276646.080000
   1431   1433     1   0.10969 276646.080000
   1434   1435     1   0.10969 276646.080000
   1434   1436     1   0.10969 276646.080000
   1437   1438     1   0.10969 276646.080000
   1437   1439     1   0.10969 276646.080000
   1440   1441     1   0.10969 276646.080000
   1440   1442     1   0.10969 276646.080000
   1443   1444     1   0.10969 276646.080000
   1443   1445     1   0.10969 276646.080000
   1446   1447     1   0.10969 276646.080000
   1446   1448     1   0.10969 276646.080000
   1451   1452     1   0.10969 276646.080000
   1451   1453     1   0.10969 276646.080000
   1454   1455     1   0.10969 276646.080000
   1454   1456     1   0.10969 276646.080000
   1457   1458     1   0.10969 276646.080000
   1457   1459     1   0.10969 276646.080000
   1460   1461     1   0.10969 276646.080000
   1460   1462     1   0.10969 276646.080000
   1463   1464     1   0.10969 276646.080000
   1463   1465     1   0.10969 276646.080000
   1466   1467     1   0.10969 276646.080000
   1466   1468     1   0.10969 276646.080000
   1469   1470     1   0.10969 276646.080000
   1469   1471     1   0.10969 276646.080000
   1472   1473     1   0.10969 276646.080000
   1472   1474     1   0.10969 276646.080000
   1475   1476     1   0.10969 276646.080000
   1475   1477     1   0.10969 276646.080000
   1480   1481     1   0.10969 276646.080000
   1480   1482     1   0.10969 276646.080000
   1483   1484     1   0.10969 276646.080000
   1483   1485     1   0.10969 276646.080000
   1486   1487     1   0.10969 276646.080000
   1486   1488     1   0.10969 276646.080000
   1489   1490     1   0.10969 276646.080000
   1489   1491     1   0.10969 276646.080000
   1492   1493     1   0.10969 276646.080000
   1492   1494     1   0.10969 276646.080000
   1495   1496     1   0.10969 276646.080000
   1495   1497     1   0.10969 276646.080000
   1498   1499     1   0.10969 276646.080000
   1498   1500     1   0.10969 276646.080000
   1501   1502     1   0.10969 276646.080000
   1501   1503     1   0.10969 276646.080000
   1504   1505     1   0.10969 276646.080000
   1504   1506     1   0.10969 276646.080000
   1509   1510     1   0.10969 276646.080000
   1509   1511     1   0.10969 276646.080000
   1512   1513     1   0.10969 276646.080000
   1512   1514     1   0.10969 276646.080000
   1515   1516     1   0.10969 276646.080000
   1515   1517     1   0.10969 276646.080000
   1518   1519     1   0.10969 276646.080000
   1518   1520     1   0.10969 276646.080000
   1521   1522     1   0.10969 276646.080000
   1521   1523     1   0.10969 276646.080000
   1524   1525     1   0.10969 276646.080000
   1524   1526     1   0.10969 276646.080000
   1527   1528     1   0.10969 276646.080000
   1527   1529     1   0.10969 276646.080000
   1530   1531     1   0.10969 276646.080000
   1530   1532     1   0.10969 276646.080000
   1533   1534     1   0.10969 276646.080000
   1533   1535     1   0.10969 276646.080000
   1538   1539     1   0.10969 276646.080000
   1538   1540     1   0.10969 276646.080000
   1541   1542     1   0.10969 276646.080000
   1541   1543     1   0.10969 276646.080000
   1544   1545     1   0.10969 276646.080000
   1544   1546     1   0.10969 276646.080000
   1547   1548     1   0.10969 276646.080000
   1547   1549     1   0.10969 276646.080000
   1550   1551     1   0.10969 276646.080000
   1550   1552     1   0.10969 276646.080000
   1553   1554     1   0.10969 276646.080000
   1553   1555     1   0.10969 276646.080000
   1556   1557     1   0.10969 276646.080000
   1556   1558     1   0.10969 276646.080000
   1559   1560     1   0.10969 276646.080000
   1559   1561     1   0.10969 276646.080000
   1562   1563     1   0.10969 276646.080000
   1562   1564     1   0.10969 276646.080000
   1567   1568     1   0.10969 276646.080000
   1567   1569     1   0.10969 276646.080000
   1570   1571     1   0.10969 276646.080000
   1570   1572     1   0.10969 276646.080000
   1573   1574     1   0.10969 276646.080000
   1573   1575     1   0.10969 276646.080000
   1576   1577     1   0.10969 276646.080000
   1576   1578     1   0.10969 276646.080000
   1579   1580     1   0.10969 276646.080000
   1579   1581     1   0.10969 276646.080000
   1582   1583     1   0.10969 276646.080000
   1582   1584     1   0.10969 276646.080000
   1585   1586     1   0.10969 276646.080000
   1585   1587     1   0.10969 276646.080000
   1588   1589     1   0.10969 276646.080000
   1588   1590     1   0.10969 276646.080000
   1591   1592     1   0.10969 276646.080000
   1591   1593     1   0.10969 276646.080000
   1596   1597     1   0.10969 276646.080000
   1596   1598     1   0.10969 276646.080000
   1599   1600     1   0.10969 276646.080000
   1599   1601     1   0.10969 276646.080000
   1602   1603     1   0.10969 276646.080000
   1602   1604     1   0.10969 276646.080000
   1605   1606     1   0.10969 276646.080000
   1605   1607     1   0.10969 276646.080000
   1608   1609     1   0.10969 276646.080000
   1608   1610     1   0.10969 276646.080000
   1611   1612     1   0.10969 276646.080000
   1611   1613     1   0.10969 276646.080000
   1614   1615     1   0.10969 276646.080000
   1614   1616     1   0.10969 276646.080000
   1617   1618     1   0.10969 276646.080000
   1617   1619     1   0.10969 276646.080000
   1620   1621     1   0.10969 276646.080000
   1620   1622     1   0.10969 276646.080000
   1625   1626     1   0.10969 276646.080000
   1625   1627     1   0.10969 276646.080000
   1628   1629     1   0.10969 276646.080000
   1628   1630     1   0.10969 276646.080000
   1631   1632     1   0.10969 276646.080000
   1631   1633     1   0.10969 276646.080000
   1634   1635     1   0.10969 276646.080000
   1634   1636     1   0.10969 276646.080000
   1637   1638     1   0.10969 276646.080000
   1637   1639     1   0.10969 276646.080000
   1640   1641     1   0.10969 276646.080000
   1640   1642     1   0.10969 276646.080000
   1643   1644     1   0.10969 276646.080000
   1643   1645     1   0.10969 276646.080000
   1646   1647     1   0.10969 276646.080000
   1646   1648     1   0.10969 276646.080000
   1649   1650     1   0.10969 276646.080000
   1649   1651     1   0.10969 276646.080000
   1654   1655     1   0.10969 276646.080000
   1654   1656     1   0.10969 276646.080000
   1657   1658     1   0.10969 276646.080000
   1657   1659     1   0.10969 276646.080000
   1660   1661     1   0.10969 276646.080000
   1660   1662     1   0.10969 276646.080000
   1663   1664     1   0.10969 276646.080000
   1663   1665     1   0.10969 276646.080000
   1666   1667     1   0.10969 276646.080000
   1666   1668     1   0.10969 276646.080000
   1669   1670     1   0.10969 276646.080000
   1669   1671     1   0.10969 276646.080000
   1672   1673     1   0.10969 276646.080000
   1672   1674     1   0.10969 276646.080000
   1675   1676     1   0.10969 276646.080000
   1675   1677     1   0.10969 276646.080000
   1678   1679     1   0.10969 276646.080000
   1678   1680     1   0.10969 276646.080000
   1683   1684     1   0.10969 276646.080000
   1683   1685     1   0.10969 276646.080000
   1686   1687     1   0.10969 276646.080000
   1686   1688     1   0.10969 276646.080000
   1689   1690     1   0.10969 276646.080000
   1689   1691     1   0.10969 276646.080000
   1692   1693     1   0.10969 276646.080000
   1692   1694     1   0.10969 276646.080000
   1695   1696     1   0.10969 276646.080000
   1695   1697     1   0.10969 276646.080000
   1698   1699     1   0.10969 276646.080000
   1698   1700     1   0.10969 276646.080000
   1701   1702     1   0.10969 276646.080000
   1701   1703     1   0.10969 276646.080000
   1704   1705     1   0.10969 276646.080000
   1704   1706     1   0.10969 276646.080000
   1707   1708     1   0.10969 276646.080000
   1707   1709     1   0.10969 276646.080000
   1712   1713     1   0.10969 276646.080000
   1712   1714     1   0.10969 276646.080000
   1715   1716     1   0.10969 276646.080000
   1715   1717     1   0.10969 276646.080000
   1718   1719     1   0.10969 276646.080000
   1718   1720     1   0.10969 276646.080000
   1721   1722     1   0.10969 276646.080000
   1721   1723     1   0.10969 276646.080000
   1724   1725     1   0.10969 276646.080000
   1724   1726     1   0.10969 276646.080000
   1727   1728     1   0.10969 276646.080000
   1727   1729     1   0.10969 276646.080000
   1730   1731     1   0.10969 276646.080000
   1730   1732     1   0.10969 276646.080000
   1733   1734     1   0.10969 276646.080000
   1733   1735     1   0.10969 276646.080000
   1736   1737     1   0.10969 276646.080000
   1736   1738     1   0.10969 276646.080000
   1741   1742     1   0.10969 276646.080000
   1741   1743     1   0.10969 276646.080000
   1744   1745     1   0.10969 276646.080000
   1744   1746     1   0.10969 276646.080000
   1747   1748     1   0.10969 276646.080000
   1747   1749     1   0.10969 276646.080000
   1750   1751     1   0.10969 276646.080000
   1750   1752     1   0.10969 276646.080000
   1753   1754     1   0.10969 276646.080000
   1753   1755     1   0.10969 276646.080000
   1756   1757     1   0.10969 276646.080000
   1756   1758     1   0.10969 276646.080000
   1759   1760     1   0.10969 276646.080000
   1759   1761     1   0.10969 276646.080000
   1762   1763     1   0.10969 276646.080000
   1762   1764     1   0.10969 276646.080000
   1765   1766     1   0.10969 276646.080000
   1765   1767     1   0.10969 276646.080000
   1770   1771     1   0.10969 276646.080000
   1770   1772     1   0.10969 276646.080000
   1773   1774     1   0.10969 276646.080000
   1773   1775     1   0.10969 276646.080000
   1776   1777     1   0.10969 276646.080000
   1776   1778     1   0.10969 276646.080000
   1779   1780     1   0.10969 276646.080000
   1779   1781     1   0.10969 276646.080000
   1782   1783     1   0.10969 276646.080000
   1782   1784     1   0.10969 276646.080000
   1785   1786     1   0.10969 276646.080000
   1785   1787     1   0.10969 276646.080000
   1788   1789     1   0.10969 276646.080000
   1788   1790     1   0.10969 276646.080000
   1791   1792     1   0.10969 276646.080000
   1791   1793     1   0.10969 276646.080000
   1794   1795     1   0.10969 276646.080000
   1794   1796     1   0.10969 276646.080000
   1799   1800     1   0.10969 276646.080000
   1799   1801     1   0.10969 276646.080000
   1802   1803     1   0.10969 276646.080000
   1802   1804     1   0.10969 276646.080000
   1805   1806     1   0.10969 276646.080000
   1805   1807     1   0.10969 276646.080000
   1808   1809     1   0.10969 276646.080000
   1808   1810     1   0.10969 276646.080000
   1811   1812     1   0.10969 276646.080000
   1811   1813     1   0.10969 276646.080000
   1814   1815     1   0.10969 276646.080000
   1814   1816     1   0.10969 276646.080000
   1817   1818     1   0.10969 276646.080000
   1817   1819     1   0.10969 276646.080000
   1820   1821     1   0.10969 276646.080000
   1820   1822     1   0.10969 276646.080000
   1823   1824     1   0.10969 276646.080000
   1823   1825     1   0.10969 276646.080000
   1828   1829     1   0.10969 276646.080000
   1828   1830     1   0.10969 276646.080000
   1831   1832     1   0.10969 276646.080000
   1831   1833     1   0.10969 276646.080000
   1834   1835     1   0.10969 276646.080000
   1834   1836     1   0.10969 276646.080000
   1837   1838     1   0.10969 276646.080000
   1837   1839     1   0.10969 276646.080000
   1840   1841     1   0.10969 276646.080000
   1840   1842     1   0.10969 276646.080000
   1843   1844     1   0.10969 276646.080000
   1843   1845     1   0.10969 276646.080000
   1846   1847     1   0.10969 276646.080000
   1846   1848     1   0.10969 276646.080000
   1849   1850     1   0.10969 276646.080000
   1849   1851     1   0.10969 276646.080000
   1852   1853     1   0.10969 276646.080000
   1852   1854     1   0.10969 276646.080000
   1857   1858     1   0.10969 276646.080000
   1857   1859     1   0.10969 276646.080000
   1860   1861     1   0.10969 276646.080000
   1860   1862     1   0.10969 276646.080000
   1863   1864     1   0.10969 276646.080000
   1863   1865     1   0.10969 276646.080000
   1866   1867     1   0.10969 276646.080000
   1866   1868     1   0.10969 276646.080000
   1869   1870     1   0.10969 276646.080000
   1869   1871     1   0.10969 276646.080000
   1872   1873     1   0.10969 276646.080000
   1872   1874     1   0.10969 276646.080000
   1875   1876     1   0.10969 276646.080000
   1875   1877     1   0.10969 276646.080000
   1878   1879     1   0.10969 276646.080000
   1878   1880     1   0.10969 276646.080000
   1881   1882     1   0.10969 276646.080000
   1881   1883     1   0.10969 276646.080000
   1886   1887     1   0.10969 276646.080000
   1886   1888     1   0.10969 276646.080000
   1889   1890     1   0.10969 276646.080000
   1889   1891     1   0.10969 276646.080000
   1892   1893     1   0.10969 276646.080000
   1892   1894     1   0.10969 276646.080000
   1895   1896     1   0.10969 276646.080000
   1895   1897     1   0.10969 276646.080000
   1898   1899     1   0.10969 276646.080000
   1898   1900     1   0.10969 276646.080000
   1901   1902     1   0.10969 276646.080000
   1901   1903     1   0.10969 276646.080000
   1904   1905     1   0.10969 276646.080000
   1904   1906     1   0.10969 276646.080000
   1907   1908     1   0.10969 276646.080000
   1907   1909     1   0.10969 276646.080000
   1910   1911     1   0.10969 276646.080000
   1910   1912     1   0.10969 276646.080000
   1915   1916     1   0.10969 276646.080000
   1915   1917     1   0.10969 276646.080000
   1918   1919     1   0.10969 276646.080000
   1918   1920     1   0.10969 276646.080000
   1921   1922     1   0.10969 276646.080000
   1921   1923     1   0.10969 276646.080000
   1924   1925     1   0.10969 276646.080000
   1924   1926     1   0.10969 276646.080000
   1927   1928     1   0.10969 276646.080000
   1927   1929     1   0.10969 276646.080000
   1930   1931     1   0.10969 276646.080000
   1930   1932     1   0.10969 276646.080000
   1933   1934     1   0.10969 276646.080000
   1933   1935     1   0.10969 276646.080000
   1936   1937     1   0.10969 276646.080000
   1936   1938     1   0.10969 276646.080000
   1939   1940     1   0.10969 276646.080000
   1939   1941     1   0.10969 276646.080000
   1944   1945     1   0.10969 276646.080000
   1944   1946     1   0.10969 276646.080000
   1947   1948     1   0.10969 276646.080000
   1947   1949     1   0.10969 276646.080000
   1950   1951     1   0.10969 276646.080000
   1950   1952     1   0.10969 276646.080000
   1953   1954     1   0.10969 276646.080000
   1953   1955     1   0.10969 276646.080000
   1956   1957     1   0.10969 276646.080000
   1956   1958     1   0.10969 276646.080000
   1959   1960     1   0.10969 276646.080000
   1959   1961     1   0.10969 276646.080000
   1962   1963     1   0.10969 276646.080000
   1962   1964     1   0.10969 276646.080000
   1965   1966     1   0.10969 276646.080000
   1965   1967     1   0.10969 276646.080000
   1968   1969     1   0.10969 276646.080000
   1968   1970     1   0.10969 276646.080000
   1973   1974     1   0.10969 276646.080000
   1973   1975     1   0.10969 276646.080000
   1976   1977     1   0.10969 276646.080000
   1976   1978     1   0.10969 276646.080000
   1979   1980     1   0.10969 276646.080000
   1979   1981     1   0.10969 276646.080000
   1982   1983     1   0.10969 276646.080000
   1982   1984     1   0.10969 276646.080000
   1985   1986     1   0.10969 276646.080000
   1985   1987     1   0.10969 276646.080000
   1988   1989     1   0.10969 276646.080000
   1988   1990     1   0.10969 276646.080000
   1991   1992     1   0.10969 276646.080000
   1991   1993     1   0.10969 276646.080000
   1994   1995     1   0.10969 276646.080000
   1994   1996     1   0.10969 276646.080000
   1997   1998     1   0.10969 276646.080000
   1997   1999     1   0.10969 276646.080000
   2002   2003     1   0.10969 276646.080000
   2002   2004     1   0.10969 276646.080000
   2005   2006     1   0.10969 276646.080000
   2005   2007     1   0.10969 276646.080000
   2008   2009     1   0.10969 276646.080000
   2008   2010     1   0.10969 276646.080000
   2011   2012     1   0.10969 276646.080000
   2011   2013     1   0.10969 276646.080000
   2014   2015     1   0.10969 276646.080000
   2014   2016     1   0.10969 276646.080000
   2017   2018     1   0.10969 276646.080000
   2017   2019     1   0.10969 276646.080000
   2020   2021     1   0.10969 276646.080000
   2020   2022     1   0.10969 276646.080000
   2023   2024     1   0.10969 276646.080000
   2023   2025     1   0.10969 276646.080000
   2026   2027     1   0.10969 276646.080000
   2026   2028     1   0.10969 276646.080000
   2031   2032     1   0.10969 276646.080000
   2031   2033     1   0.10969 276646.080000
   2034   2035     1   0.10969 276646.080000
   2034   2036     1   0.10969 276646.080000
   2037   2038     1   0.10969 276646.080000
   2037   2039     1   0.10969 276646.080000
   2040   2041     1   0.10969 276646.080000
   2040   2042     1   0.10969 276646.080000
   2043   2044     1   0.10969 276646.080000
   2043   2045     1   0.10969 276646.080000
   2046   2047     1   0.10969 276646.080000
   2046   2048     1   0.10969 276646.080000
   2049   2050     1   0.10969 276646.080000
   2049   2051     1   0.10969 276646.080000
   2052   2053     1   0.10969 276646.080000
   2052   2054     1   0.10969 276646.080000
   2055   2056     1   0.10969 276646.080000
   2055   2057     1   0.10969 276646.080000
   2060   2061     1   0.10969 276646.080000
   2060   2062     1   0.10969 276646.080000
   2063   2064     1   0.10969 276646.080000
   2063   2065     1   0.10969 276646.080000
   2066   2067     1   0.10969 276646.080000
   2066   2068     1   0.10969 276646.080000
   2069   2070     1   0.10969 276646.080000
   2069   2071     1   0.10969 276646.080000
   2072   2073     1   0.10969 276646.080000
   2072   2074     1   0.10969 276646.080000
   2075   2076     1   0.10969 276646.080000
   2075   2077     1   0.10969 276646.080000
   2078   2079     1   0.10969 276646.080000
   2078   2080     1   0.10969 276646.080000
   2081   2082     1   0.10969 276646.080000
   2081   2083     1   0.10969 276646.080000
   2084   2085     1   0.10969 276646.080000
   2084   2086     1   0.10969 276646.080000
   2089   2090     1   0.10969 276646.080000
   2089   2091     1   0.10969 276646.080000
   2092   2093     1   0.10969 276646.080000
   2092   2094     1   0.10969 276646.080000
   2095   2096     1   0.10969 276646.080000
   2095   2097     1   0.10969 276646.080000
   2098   2099     1   0.10969 276646.080000
   2098   2100     1   0.10969 276646.080000
   2101   2102     1   0.10969 276646.080000
   2101   2103     1   0.10969 276646.080000
   2104   2105     1   0.10969 276646.080000
   2104   2106     1   0.10969 276646.080000
   2107   2108     1   0.10969 276646.080000
   2107   2109     1   0.10969 276646.080000
   2110   2111     1   0.10969 276646.080000
   2110   2112     1   0.10969 276646.080000
   2113   2114     1   0.10969 276646.080000
   2113   2115     1   0.10969 276646.080000
   2118   2119     1   0.10969 276646.080000
   2118   2120     1   0.10969 276646.080000
   2121   2122     1   0.10969 276646.080000
   2121   2123     1   0.10969 276646.080000
   2124   2125     1   0.10969 276646.080000
   2124   2126     1   0.10969 276646.080000
   2127   2128     1   0.10969 276646.080000
   2127   2129     1   0.10969 276646.080000
   2130   2131     1   0.10969 276646.080000
   2130   2132     1   0.10969 276646.080000
   2133   2134     1   0.10969 276646.080000
   2133   2135     1   0.10969 276646.080000
   2136   2137     1   0.10969 276646.080000
   2136   2138     1   0.10969 276646.080000
   2139   2140     1   0.10969 276646.080000
   2139   2141     1   0.10969 276646.080000
   2142   2143     1   0.10969 276646.080000
   2142   2144     1   0.10969 276646.080000
   2147   2148     1   0.10969 276646.080000
   2147   2149     1   0.10969 276646.080000
   2150   2151     1   0.10969 276646.080000
   2150   2152     1   0.10969 276646.080000
   2153   2154     1   0.10969 276646.080000
   2153   2155     1   0.10969 276646.080000
   2156   2157     1   0.10969 276646.080000
   2156   2158     1   0.10969 276646.080000
   2159   2160     1   0.10969 276646.080000
   2159   2161     1   0.10969 276646.080000
   2162   2163     1   0.10969 276646.080000
   2162   2164     1   0.10969 276646.080000
   2165   2166     1   0.10969 276646.080000
   2165   2167     1   0.10969 276646.080000
   2168   2169     1   0.10969 276646.080000
   2168   2170     1   0.10969 276646.080000
   2171   2172     1   0.10969 276646.080000
   2171   2173     1   0.10969 276646.080000
   2176   2177     1   0.10969 276646.080000
   2176   2178     1   0.10969 276646.080000
   2179   2180     1   0.10969 276646.080000
   2179   2181     1   0.10969 276646.080000
   2182   2183     1   0.10969 276646.080000
   2182   2184     1   0.10969 276646.080000
   2185   2186     1   0.10969 276646.080000
   2185   2187     1   0.10969 276646.080000
   2188   2189     1   0.10969 276646.080000
   2188   2190     1   0.10969 276646.080000
   2191   2192     1   0.10969 276646.080000
   2191   2193     1   0.10969 276646.080000
   2194   2195     1   0.10969 276646.080000
   2194   2196     1   0.10969 276646.080000
   2197   2198     1   0.10969 276646.080000
   2197   2199     1   0.10969 276646.080000
   2200   2201     1   0.10969 276646.080000
   2200   2202     1   0.10969 276646.080000
   2205   2206     1   0.10969 276646.080000
   2205   2207     1   0.10969 276646.080000
   2208   2209     1   0.10969 276646.080000
   2208   2210     1   0.10969 276646.080000
   2211   2212     1   0.10969 276646.080000
   2211   2213     1   0.10969 276646.080000
   2214   2215     1   0.10969 276646.080000
   2214   2216     1   0.10969 276646.080000
   2217   2218     1   0.10969 276646.080000
   2217   2219     1   0.10969 276646.080000
   2220   2221     1   0.10969 276646.080000
   2220   2222     1   0.10969 276646.080000
   2223   2224     1   0.10969 276646.080000
   2223   2225     1   0.10969 276646.080000
   2226   2227     1   0.10969 276646.080000
   2226   2228     1   0.10969 276646.080000
   2229   2230     1   0.10969 276646.080000
   2229   2231     1   0.10969 276646.080000
   2234   2235     1   0.10969 276646.080000
   2234   2236     1   0.10969 276646.080000
   2237   2238     1   0.10969 276646.080000
   2237   2239     1   0.10969 276646.080000
   2240   2241     1   0.10969 276646.080000
   2240   2242     1   0.10969 276646.080000
   2243   2244     1   0.10969 276646.080000
   2243   2245     1   0.10969 276646.080000
   2246   2247     1   0.10969 276646.080000
   2246   2248     1   0.10969 276646.080000
   2249   2250     1   0.10969 276646.080000
   2249   2251     1   0.10969 276646.080000
   2252   2253     1   0.10969 276646.080000
   2252   2254     1   0.10969 276646.080000
   2255   2256     1   0.10969 276646.080000
   2255   2257     1   0.10969 276646.080000
   2258   2259     1   0.10969 276646.080000
   2258   2260     1   0.10969 276646.080000
   2263   2264     1   0.10969 276646.080000
   2263   2265     1   0.10969 276646.080000
   2266   2267     1   0.10969 276646.080000
   2266   2268     1   0.10969 276646.080000
   2269   2270     1   0.10969 276646.080000
   2269   2271     1   0.10969 276646.080000
   2272   2273     1   0.10969 276646.080000
   2272   2274     1   0.10969 276646.080000
   2275   2276     1   0.10969 276646.080000
   2275   2277     1   0.10969 276646.080000
   2278   2279     1   0.10969 276646.080000
   2278   2280     1   0.10969 276646.080000
   2281   2282     1   0.10969 276646.080000
   2281   2283     1   0.10969 276646.080000
   2284   2285     1   0.10969 276646.080000
   2284   2286     1   0.10969 276646.080000
   2287   2288     1   0.10969 276646.080000
   2287   2289     1   0.10969 276646.080000
   2292   2293     1   0.10969 276646.080000
   2292   2294     1   0.10969 276646.080000
   2295   2296     1   0.10969 276646.080000
   2295   2297     1   0.10969 276646.080000
   2298   2299     1   0.10969 276646.080000
   2298   2300     1   0.10969 276646.080000
   2301   2302     1   0.10969 276646.080000
   2301   2303     1   0.10969 276646.080000
   2304   2305     1   0.10969 276646.080000
   2304   2306     1   0.10969 276646.080000
   2307   2308     1   0.10969 276646.080000
   2307   2309     1   0.10969 276646.080000
   2310   2311     1   0.10969 276646.080000
   2310   2312     1   0.10969 276646.080000
   2313   2314     1   0.10969 276646.080000
   2313   2315     1   0.10969 276646.080000
   2316   2317     1   0.10969 276646.080000
   2316   2318     1   0.10969 276646.080000
   2321   2322     1   0.10969 276646.080000
   2321   2323     1   0.10969 276646.080000
   2324   2325     1   0.10969 276646.080000
   2324   2326     1   0.10969 276646.080000
   2327   2328     1   0.10969 276646.080000
   2327   2329     1   0.10969 276646.080000
   2330   2331     1   0.10969 276646.080000
   2330   2332     1   0.10969 276646.080000
   2333   2334     1   0.10969 276646.080000
   2333   2335     1   0.10969 276646.080000
   2336   2337     1   0.10969 276646.080000
   2336   2338     1   0.10969 276646.080000
   2339   2340     1   0.10969 276646.080000
   2339   2341     1   0.10969 276646.080000
   2342   2343     1   0.10969 276646.080000
   2342   2344     1   0.10969 276646.080000
   2345   2346     1   0.10969 276646.080000
   2345   2347     1   0.10969 276646.080000
   2350   2351     1   0.10969 276646.080000
   2350   2352     1   0.10969 276646.080000
   2353   2354     1   0.10969 276646.080000
   2353   2355     1   0.10969 276646.080000
   2356   2357     1   0.10969 276646.080000
   2356   2358     1   0.10969 276646.080000
   2359   2360     1   0.10969 276646.080000
   2359   2361     1   0.10969 276646.080000
   2362   2363     1   0.10969 276646.080000
   2362   2364     1   0.10969 276646.080000
   2365   2366     1   0.10969 276646.080000
   2365   2367     1   0.10969 276646.080000
   2368   2369     1   0.10969 276646.080000
   2368   2370     1   0.10969 276646.080000
   2371   2372     1   0.10969 276646.080000
   2371   2373     1   0.10969 276646.080000
   2374   2375     1   0.10969 276646.080000
   2374   2376     1   0.10969 276646.080000
   2379   2380     1   0.10969 276646.080000
   2379   2381     1   0.10969 276646.080000
   2382   2383     1   0.10969 276646.080000
   2382   2384     1   0.10969 276646.080000
   2385   2386     1   0.10969 276646.080000
   2385   2387     1   0.10969 276646.080000
   2388   2389     1   0.10969 276646.080000
   2388   2390     1   0.10969 276646.080000
   2391   2392     1   0.10969 276646.080000
   2391   2393     1   0.10969 276646.080000
   2394   2395     1   0.10969 276646.080000
   2394   2396     1   0.10969 276646.080000
   2397   2398     1   0.10969 276646.080000
   2397   2399     1   0.10969 276646.080000
   2400   2401     1   0.10969 276646.080000
   2400   2402     1   0.10969 276646.080000
   2403   2404     1   0.10969 276646.080000
   2403   2405     1   0.10969 276646.080000
   2408   2409     1   0.10969 276646.080000
   2408   2410     1   0.10969 276646.080000
   2411   2412     1   0.10969 276646.080000
   2411   2413     1   0.10969 276646.080000
   2414   2415     1   0.10969 276646.080000
   2414   2416     1   0.10969 276646.080000
   2417   2418     1   0.10969 276646.080000
   2417   2419     1   0.10969 276646.080000
   2420   2421     1   0.10969 276646.080000
   2420   2422     1   0.10969 276646.080000
   2423   2424     1   0.10969 276646.080000
   2423   2425     1   0.10969 276646.080000
   2426   2427     1   0.10969 276646.080000
   2426   2428     1   0.10969 276646.080000
   2429   2430     1   0.10969 276646.080000
   2429   2431     1   0.10969 276646.080000
   2432   2433     1   0.10969 276646.080000
   2432   2434     1   0.10969 276646.080000
   2437   2438     1   0.10969 276646.080000
   2437   2439     1   0.10969 276646.080000
   2440   2441     1   0.10969 276646.080000
   2440   2442     1   0.10969 276646.080000
   2443   2444     1   0.10969 276646.080000
   2443   2445     1   0.10969 276646.080000
   2446   2447     1   0.10969 276646.080000
   2446   2448     1   0.10969 276646.080000
   2449   2450     1   0.10969 276646.080000
   2449   2451     1   0.10969 276646.080000
   2452   2453     1   0.10969 276646.080000
   2452   2454     1   0.10969 276646.080000
   2455   2456     1   0.10969 276646.080000
   2455   2457     1   0.10969 276646.080000
   2458   2459     1   0.10969 276646.080000
   2458   2460     1   0.10969 276646.080000
   2461   2462     1   0.10969 276646.080000
   2461   2463     1   0.10969 276646.080000
   2466   2467     1   0.10969 276646.080000
   2466   2468     1   0.10969 276646.080000
   2469   2470     1   0.10969 276646.080000
   2469   2471     1   0.10969 276646.080000
   2472   2473     1   0.10969 276646.080000
   2472   2474     1   0.10969 276646.080000
   2475   2476     1   0.10969 276646.080000
   2475   2477     1   0.10969 276646.080000
   2478   2479     1   0.10969 276646.080000
   2478   2480     1   0.10969 276646.080000
   2481   2482     1   0.10969 276646.080000
   2481   2483     1   0.10969 276646.080000
   2484   2485     1   0.10969 276646.080000
   2484   2486     1   0.10969 276646.080000
   2487   2488     1   0.10969 276646.080000
   2487   2489     1   0.10969 276646.080000
   2490   2491     1   0.10969 276646.080000
   2490   2492     1   0.10969 276646.080000
   2495   2496     1   0.10969 276646.080000
   2495   2497     1   0.10969 276646.080000
   2498   2499     1   0.10969 276646.080000
   2498   2500     1   0.10969 276646.080000
   2501   2502     1   0.10969 276646.080000
   2501   2503     1   0.10969 276646.080000
   2504   2505     1   0.10969 276646.080000
   2504   2506     1   0.10969 276646.080000
   2507   2508     1   0.10969 276646.080000
   2507   2509     1   0.10969 276646.080000
   2510   2511     1   0.10969 276646.080000
   2510   2512     1   0.10969 276646.080000
   2513   2514     1   0.10969 276646.080000
   2513   2515     1   0.10969 276646.080000
   2516   2517     1   0.10969 276646.080000
   2516   2518     1   0.10969 276646.080000
   2519   2520     1   0.10969 276646.080000
   2519   2521     1   0.10969 276646.080000
   2524   2525     1   0.10969 276646.080000
   2524   2526     1   0.10969 276646.080000
   2527   2528     1   0.10969 276646.080000
   2527   2529     1   0.10969 276646.080000
   2530   2531     1   0.10969 276646.080000
   2530   2532     1   0.10969 276646.080000
   2533   2534     1   0.10969 276646.080000
   2533   2535     1   0.10969 276646.080000
   2536   2537     1   0.10969 276646.080000
   2536   2538     1   0.10969 276646.080000
   2539   2540     1   0.10969 276646.080000
   2539   2541     1   0.10969 276646.080000
   2542   2543     1   0.10969 276646.080000
   2542   2544     1   0.10969 276646.080000
   2545   2546     1   0.10969 276646.080000
   2545   2547     1   0.10969 276646.080000
   2548   2549     1   0.10969 276646.080000
   2548   2550     1   0.10969 276646.080000
   2553   2554     1   0.10969 276646.080000
   2553   2555     1   0.10969 276646.080000
   2556   2557     1   0.10969 276646.080000
   2556   2558     1   0.10969 276646.080000
   2559   2560     1   0.10969 276646.080000
   2559   2561     1   0.10969 276646.080000
   2562   2563     1   0.10969 276646.080000
   2562   2564     1   0.10969 276646.080000
   2565   2566     1   0.10969 276646.080000
   2565   2567     1   0.10969 276646.080000
   2568   2569     1   0.10969 276646.080000
   2568   2570     1   0.10969 276646.080000
   2571   2572     1   0.10969 276646.080000
   2571   2573     1   0.10969 276646.080000
   2574   2575     1   0.10969 276646.080000
   2574   2576     1   0.10969 276646.080000
   2577   2578     1   0.10969 276646.080000
   2577   2579     1   0.10969 276646.080000
   2582   2583     1   0.10969 276646.080000
   2582   2584     1   0.10969 276646.080000
   2585   2586     1   0.10969 276646.080000
   2585   2587     1   0.10969 276646.080000
   2588   2589     1   0.10969 276646.080000
   2588   2590     1   0.10969 276646.080000
   2591   2592     1   0.10969 276646.080000
   2591   2593     1   0.10969 276646.080000
   2594   2595     1   0.10969 276646.080000
   2594   2596     1   0.10969 276646.080000
   2597   2598     1   0.10969 276646.080000
   2597   2599     1   0.10969 276646.080000
   2600   2601     1   0.10969 276646.080000
   2600   2602     1   0.10969 276646.080000
   2603   2604     1   0.10969 276646.080000
   2603   2605     1   0.10969 276646.080000
   2606   2607     1   0.10969 276646.080000
   2606   2608     1   0.10969 276646.080000
   2611   2612     1   0.10969 276646.080000
   2611   2613     1   0.10969 276646.080000
   2614   2615     1   0.10969 276646.080000
   2614   2616     1   0.10969 276646.080000
   2617   2618     1   0.10969 276646.080000
   2617   2619     1   0.10969 276646.080000
   2620   2621     1   0.10969 276646.080000
   2620   2622     1   0.10969 276646.080000
   2623   2624     1   0.10969 276646.080000
   2623   2625     1   0.10969 276646.080000
   2626   2627     1   0.10969 276646.080000
   2626   2628     1   0.10969 276646.080000
   2629   2630     1   0.10969 276646.080000
   2629   2631     1   0.10969 276646.080000
   2632   2633     1   0.10969 276646.080000
   2632   2634     1   0.10969 276646.080000
   2635   2636     1   0.10969 276646.080000
   2635   2637     1   0.10969 276646.080000
   2640   2641     1   0.10969 276646.080000
   2640   2642     1   0.10969 276646.080000
   2643   2644     1   0.10969 276646.080000
   2643   2645     1   0.10969 276646.080000
   2646   2647     1   0.10969 276646.080000
   2646   2648     1   0.10969 276646.080000
   2649   2650     1   0.10969 276646.080000
   2649   2651     1   0.10969 276646.080000
   2652   2653     1   0.10969 276646.080000
   2652   2654     1   0.10969 276646.080000
   2655   2656     1   0.10969 276646.080000
   2655   2657     1   0.10969 276646.080000
   2658   2659     1   0.10969 276646.080000
   2658   2660     1   0.10969 276646.080000
   2661   2662     1   0.10969 276646.080000
   2661   2663     1   0.10969 276646.080000
   2664   2665     1   0.10969 276646.080000
   2664   2666     1   0.10969 276646.080000
   2669   2670     1   0.10969 276646.080000
   2669   2671     1   0.10969 276646.080000
   2672   2673     1   0.10969 276646.080000
   2672   2674     1   0.10969 276646.080000
   2675   2676     1   0.10969 276646.080000
   2675   2677     1   0.10969 276646.080000
   2678   2679     1   0.10969 276646.080000
   2678   2680     1   0.10969 276646.080000
   2681   2682     1   0.10969 276646.080000
   2681   2683     1   0.10969 276646.080000
   2684   2685     1   0.10969 276646.080000
   2684   2686     1   0.10969 276646.080000
   2687   2688     1   0.10969 276646.080000
   2687   2689     1   0.10969 276646.080000
   2690   2691     1   0.10969 276646.080000
   2690   2692     1   0.10969 276646.080000
   2693   2694     1   0.10969 276646.080000
   2693   2695     1   0.10969 276646.080000
   2698   2699     1   0.10969 276646.080000
   2698   2700     1   0.10969 276646.080000
   2701   2702     1   0.10969 276646.080000
   2701   2703     1   0.10969 276646.080000
   2704   2705     1   0.10969 276646.080000
   2704   2706     1   0.10969 276646.080000
   2707   2708     1   0.10969 276646.080000
   2707   2709     1   0.10969 276646.080000
   2710   2711     1   0.10969 276646.080000
   2710   2712     1   0.10969 276646.080000
   2713   2714     1   0.10969 276646.080000
   2713   2715     1   0.10969 276646.080000
   2716   2717     1   0.10969 276646.080000
   2716   2718     1   0.10969 276646.080000
   2719   2720     1   0.10969 276646.080000
   2719   2721     1   0.10969 276646.080000
   2722   2723     1   0.10969 276646.080000
   2722   2724     1   0.10969 276646.080000
   2727   2728     1   0.10969 276646.080000
   2727   2729     1   0.10969 276646.080000
   2730   2731     1   0.10969 276646.080000
   2730   2732     1   0.10969 276646.080000
   2733   2734     1   0.10969 276646.080000
   2733   2735     1   0.10969 276646.080000
   2736   2737     1   0.10969 276646.080000
   2736   2738     1   0.10969 276646.080000
   2739   2740     1   0.10969 276646.080000
   2739   2741     1   0.10969 276646.080000
   2742   2743     1   0.10969 276646.080000
   2742   2744     1   0.10969 276646.080000
   2745   2746     1   0.10969 276646.080000
   2745   2747     1   0.10969 276646.080000
   2748   2749     1   0.10969 276646.080000
   2748   2750     1   0.10969 276646.080000
   2751   2752     1   0.10969 276646.080000
   2751   2753     1   0.10969 276646.080000
   2756   2757     1   0.10969 276646.080000
   2756   2758     1   0.10969 276646.080000
   2759   2760     1   0.10969 276646.080000
   2759   2761     1   0.10969 276646.080000
   2762   2763     1   0.10969 276646.080000
   2762   2764     1   0.10969 276646.080000
   2765   2766     1   0.10969 276646.080000
   2765   2767     1   0.10969 276646.080000
   2768   2769     1   0.10969 276646.080000
   2768   2770     1   0.10969 276646.080000
   2771   2772     1   0.10969 276646.080000
   2771   2773     1   0.10969 276646.080000
   2774   2775     1   0.10969 276646.080000
   2774   2776     1   0.10969 276646.080000
   2777   2778     1   0.10969 276646.080000
   2777   2779     1   0.10969 276646.080000
   2780   2781     1   0.10969 276646.080000
   2780   2782     1   0.10969 276646.080000
   2785   2786     1   0.10969 276646.080000
   2785   2787     1   0.10969 276646.080000
   2788   2789     1   0.10969 276646.080000
   2788   2790     1   0.10969 276646.080000
   2791   2792     1   0.10969 276646.080000
   2791   2793     1   0.10969 276646.080000
   2794   2795     1   0.10969 276646.080000
   2794   2796     1   0.10969 276646.080000
   2797   2798     1   0.10969 276646.080000
   2797   2799     1   0.10969 276646.080000
   2800   2801     1   0.10969 276646.080000
   2800   2802     1   0.10969 276646.080000
   2803   2804     1   0.10969 276646.080000
   2803   2805     1   0.10969 276646.080000
   2806   2807     1   0.10969 276646.080000
   2806   2808     1   0.10969 276646.080000
   2809   2810     1   0.10969 276646.080000
   2809   2811     1   0.10969 276646.080000
   2814   2815     1   0.10969 276646.080000
   2814   2816     1   0.10969 276646.080000
   2817   2818     1   0.10969 276646.080000
   2817   2819     1   0.10969 276646.080000
   2820   2821     1   0.10969 276646.080000
   2820   2822     1   0.10969 276646.080000
   2823   2824     1   0.10969 276646.080000
   2823   2825     1   0.10969 276646.080000
   2826   2827     1   0.10969 276646.080000
   2826   2828     1   0.10969 276646.080000
   2829   2830     1   0.10969 276646.080000
   2829   2831     1   0.10969 276646.080000
   2832   2833     1   0.10969 276646.080000
   2832   2834     1   0.10969 276646.080000
   2835   2836     1   0.10969 276646.080000
   2835   2837     1   0.10969 276646.080000
   2838   2839     1   0.10969 276646.080000
   2838   2840     1   0.10969 276646.080000
   2843   2844     1   0.10969 276646.080000
   2843   2845     1   0.10969 276646.080000
   2846   2847     1   0.10969 276646.080000
   2846   2848     1   0.10969 276646.080000
   2849   2850     1   0.10969 276646.080000
   2849   2851     1   0.10969 276646.080000
   2852   2853     1   0.10969 276646.080000
   2852   2854     1   0.10969 276646.080000
   2855   2856     1   0.10969 276646.080000
   2855   2857     1   0.10969 276646.080000
   2858   2859     1   0.10969 276646.080000
   2858   2860     1   0.10969 276646.080000
   2861   2862     1   0.10969 276646.080000
   2861   2863     1   0.10969 276646.080000
   2864   2865     1   0.10969 276646.080000
   2864   2866     1   0.10969 276646.080000
   2867   2868     1   0.10969 276646.080000
   2867   2869     1   0.10969 276646.080000
   2872   2873     1   0.10969 276646.080000
   2872   2874     1   0.10969 276646.080000
   2875   2876     1   0.10969 276646.080000
   2875   2877     1   0.10969 276646.080000
   2878   2879     1   0.10969 276646.080000
   2878   2880     1   0.10969 276646.080000
   2881   2882     1   0.10969 276646.080000
   2881   2883     1   0.10969 276646.080000
   2884   2885     1   0.10969 276646.080000
   2884   2886     1   0.10969 276646.080000
   2887   2888     1   0.10969 276646.080000
   2887   2889     1   0.10969 276646.080000
   2890   2891     1   0.10969 276646.080000
   2890   2892     1   0.10969 276646.080000
   2893   2894     1   0.10969 276646.080000
   2893   2895     1   0.10969 276646.080000
   2896   2897     1   0.10969 276646.080000
   2896   2898     1   0.10969 276646.080000
   2901   2902     1   0.10969 276646.080000
   2901   2903     1   0.10969 276646.080000
   2904   2905     1   0.10969 276646.080000
   2904   2906     1   0.10969 276646.080000
   2907   2908     1   0.10969 276646.080000
   2907   2909     1   0.10969 276646.080000
   2910   2911     1   0.10969 276646.080000
   2910   2912     1   0.10969 276646.080000
   2913   2914     1   0.10969 276646.080000
   2913   2915     1   0.10969 276646.080000
   2916   2917     1   0.10969 276646.080000
   2916   2918     1   0.10969 276646.080000
   2919   2920     1   0.10969 276646.080000
   2919   2921     1   0.10969 276646.080000
   2922   2923     1   0.10969 276646.080000
   2922   2924     1   0.10969 276646.080000
   2925   2926     1   0.10969 276646.080000
   2925   2927     1   0.10969 276646.080000
   2930   2931     1   0.10969 276646.080000
   2930   2932     1   0.10969 276646.080000
   2933   2934     1   0.10969 276646.080000
   2933   2935     1   0.10969 276646.080000
   2936   2937     1   0.10969 276646.080000
   2936   2938     1   0.10969 276646.080000
   2939   2940     1   0.10969 276646.080000
   2939   2941     1   0.10969 276646.080000
   2942   2943     1   0.10969 276646.080000
   2942   2944     1   0.10969 276646.080000
   2945   2946     1   0.10969 276646.080000
   2945   2947     1   0.10969 276646.080000
   2948   2949     1   0.10969 276646.080000
   2948   2950     1   0.10969 276646.080000
   2951   2952     1   0.10969 276646.080000
   2951   2953     1   0.10969 276646.080000
   2954   2955     1   0.10969 276646.080000
   2954   2956     1   0.10969 276646.080000
   2959   2960     1   0.10969 276646.080000
   2959   2961     1   0.10969 276646.080000
   2962   2963     1   0.10969 276646.080000
   2962   2964     1   0.10969 276646.080000
   2965   2966     1   0.10969 276646.080000
   2965   2967     1   0.10969 276646.080000
   2968   2969     1   0.10969 276646.080000
   2968   2970     1   0.10969 276646.080000
   2971   2972     1   0.10969 276646.080000
   2971   2973     1   0.10969 276646.080000
   2974   2975     1   0.10969 276646.080000
   2974   2976     1   0.10969 276646.080000
   2977   2978     1   0.10969 276646.080000
   2977   2979     1   0.10969 276646.080000
   2980   2981     1   0.10969 276646.080000
   2980   2982     1   0.10969 276646.080000
   2983   2984     1   0.10969 276646.080000
   2983   2985     1   0.10969 276646.080000
   2988   2989     1   0.10969 276646.080000
   2988   2990     1   0.10969 276646.080000
   2991   2992     1   0.10969 276646.080000
   2991   2993     1   0.10969 276646.080000
   2994   2995     1   0.10969 276646.080000
   2994   2996     1   0.10969 276646.080000
   2997   2998     1   0.10969 276646.080000
   2997   2999     1   0.10969 276646.080000
   3000   3001     1   0.10969 276646.080000
   3000   3002     1   0.10969 276646.080000
   3003   3004     1   0.10969 276646.080000
   3003   3005     1   0.10969 276646.080000
   3006   3007     1   0.10969 276646.080000
   3006   3008     1   0.10969 276646.080000
   3009   3010     1   0.10969 276646.080000
   3009   3011     1   0.10969 276646.080000
   3012   3013     1   0.10969 276646.080000
   3012   3014     1   0.10969 276646.080000
   3017   3018     1   0.10969 276646.080000
   3017   3019     1   0.10969 276646.080000
   3020   3021     1   0.10969 276646.080000
   3020   3022     1   0.10969 276646.080000
   3023   3024     1   0.10969 276646.080000
   3023   3025     1   0.10969 276646.080000
   3026   3027     1   0.10969 276646.080000
   3026   3028     1   0.10969 276646.080000
   3029   3030     1   0.10969 276646.080000
   3029   3031     1   0.10969 276646.080000
   3032   3033     1   0.10969 276646.080000
   3032   3034     1   0.10969 276646.080000
   3035   3036     1   0.10969 276646.080000
   3035   3037     1   0.10969 276646.080000
   3038   3039     1   0.10969 276646.080000
   3038   3040     1   0.10969 276646.080000
   3041   3042     1   0.10969 276646.080000
   3041   3043     1   0.10969 276646.080000
   3046   3047     1   0.10969 276646.080000
   3046   3048     1   0.10969 276646.080000
   3049   3050     1   0.10969 276646.080000
   3049   3051     1   0.10969 276646.080000
   3052   3053     1   0.10969 276646.080000
   3052   3054     1   0.10969 276646.080000
   3055   3056     1   0.10969 276646.080000
   3055   3057     1   0.10969 276646.080000
   3058   3059     1   0.10969 276646.080000
   3058   3060     1   0.10969 276646.080000
   3061   3062     1   0.10969 276646.080000
   3061   3063     1   0.10969 276646.080000
   3064   3065     1   0.10969 276646.080000
   3064   3066     1   0.10969 276646.080000
   3067   3068     1   0.10969 276646.080000
   3067   3069     1   0.10969 276646.080000
   3070   3071     1   0.10969 276646.080000
   3070   3072     1   0.10969 276646.080000
   3075   3076     1   0.10969 276646.080000
   3075   3077     1   0.10969 276646.080000
   3078   3079     1   0.10969 276646.080000
   3078   3080     1   0.10969 276646.080000
   3081   3082     1   0.10969 276646.080000
   3081   3083     1   0.10969 276646.080000
   3084   3085     1   0.10969 276646.080000
   3084   3086     1   0.10969 276646.080000
   3087   3088     1   0.10969 276646.080000
   3087   3089     1   0.10969 276646.080000
   3090   3091     1   0.10969 276646.080000
   3090   3092     1   0.10969 276646.080000
   3093   3094     1   0.10969 276646.080000
   3093   3095     1   0.10969 276646.080000
   3096   3097     1   0.10969 276646.080000
   3096   3098     1   0.10969 276646.080000
   3099   3100     1   0.10969 276646.080000
   3099   3101     1   0.10969 276646.080000
   3104   3105     1   0.10969 276646.080000
   3104   3106     1   0.10969 276646.080000
   3107   3108     1   0.10969 276646.080000
   3107   3109     1   0.10969 276646.080000
   3110   3111     1   0.10969 276646.080000
   3110   3112     1   0.10969 276646.080000
   3113   3114     1   0.10969 276646.080000
   3113   3115     1   0.10969 276646.080000
   3116   3117     1   0.10969 276646.080000
   3116   3118     1   0.10969 276646.080000
   3119   3120     1   0.10969 276646.080000
   3119   3121     1   0.10969 276646.080000
   3122   3123     1   0.10969 276646.080000
   3122   3124     1   0.10969 276646.080000
   3125   3126     1   0.10969 276646.080000
   3125   3127     1   0.10969 276646.080000
   3128   3129     1   0.10969 276646.080000
   3128   3130     1   0.10969 276646.080000
   3133   3134     1   0.10969 276646.080000
   3133   3135     1   0.10969 276646.080000
   3136   3137     1   0.10969 276646.080000
   3136   3138     1   0.10969 276646.080000
   3139   3140     1   0.10969 276646.080000
   3139   3141     1   0.10969 276646.080000
   3142   3143     1   0.10969 276646.080000
   3142   3144     1   0.10969 276646.080000
   3145   3146     1   0.10969 276646.080000
   3145   3147     1   0.10969 276646.080000
   3148   3149     1   0.10969 276646.080000
   3148   3150     1   0.10969 276646.080000
   3151   3152     1   0.10969 276646.080000
   3151   3153     1   0.10969 276646.080000
   3154   3155     1   0.10969 276646.080000
   3154   3156     1   0.10969 276646.080000
   3157   3158     1   0.10969 276646.080000
   3157   3159     1   0.10969 276646.080000
   3162   3163     1   0.10969 276646.080000
   3162   3164     1   0.10969 276646.080000
   3165   3166     1   0.10969 276646.080000
   3165   3167     1   0.10969 276646.080000
   3168   3169     1   0.10969 276646.080000
   3168   3170     1   0.10969 276646.080000
   3171   3172     1   0.10969 276646.080000
   3171   3173     1   0.10969 276646.080000
   3174   3175     1   0.10969 276646.080000
   3174   3176     1   0.10969 276646.080000
   3177   3178     1   0.10969 276646.080000
   3177   3179     1   0.10969 276646.080000
   3180   3181     1   0.10969 276646.080000
   3180   3182     1   0.10969 276646.080000
   3183   3184     1   0.10969 276646.080000
   3183   3185     1   0.10969 276646.080000
   3186   3187     1   0.10969 276646.080000
   3186   3188     1   0.10969 276646.080000
   3191   3192     1   0.10969 276646.080000
   3191   3193     1   0.10969 276646.080000
   3194   3195     1   0.10969 276646.080000
   3194   3196     1   0.10969 276646.080000
   3197   3198     1   0.10969 276646.080000
   3197   3199     1   0.10969 276646.080000
   3200   3201     1   0.10969 276646.080000
   3200   3202     1   0.10969 276646.080000
   3203   3204     1   0.10969 276646.080000
   3203   3205     1   0.10969 276646.080000
   3206   3207     1   0.10969 276646.080000
   3206   3208     1   0.10969 276646.080000
   3209   3210     1   0.10969 276646.080000
   3209   3211     1   0.10969 276646.080000
   3212   3213     1   0.10969 276646.080000
   3212   3214     1   0.10969 276646.080000
   3215   3216     1   0.10969 276646.080000
   3215   3217     1   0.10969 276646.080000
   3220   3221     1   0.10969 276646.080000
   3220   3222     1   0.10969 276646.080000
   3223   3224     1   0.10969 276646.080000
   3223   3225     1   0.10969 276646.080000
   3226   3227     1   0.10969 276646.080000
   3226   3228     1   0.10969 276646.080000
   3229   3230     1   0.10969 276646.080000
   3229   3231     1   0.10969 276646.080000
   3232   3233     1   0.10969 276646.080000
   3232   3234     1   0.10969 276646.080000
   3235   3236     1   0.10969 276646.080000
   3235   3237     1   0.10969 276646.080000
   3238   3239     1   0.10969 276646.080000
   3238   3240     1   0.10969 276646.080000
   3241   3242     1   0.10969 276646.080000
   3241   3243     1   0.10969 276646.080000
   3244   3245     1   0.10969 276646.080000
   3244   3246     1   0.10969 276646.080000
   3249   3250     1   0.10969 276646.080000
   3249   3251     1   0.10969 276646.080000
   3252   3253     1   0.10969 276646.080000
   3252   3254     1   0.10969 276646.080000
   3255   3256     1   0.10969 276646.080000
   3255   3257     1   0.10969 276646.080000
   3258   3259     1   0.10969 276646.080000
   3258   3260     1   0.10969 276646.080000
   3261   3262     1   0.10969 276646.080000
   3261   3263     1   0.10969 276646.080000
   3264   3265     1   0.10969 276646.080000
   3264   3266     1   0.10969 276646.080000
   3267   3268     1   0.10969 276646.080000
   3267   3269     1   0.10969 276646.080000
   3270   3271     1   0.10969 276646.080000
   3270   3272     1   0.10969 276646.080000
   3273   3274     1   0.10969 276646.080000
   3273   3275     1   0.10969 276646.080000
   3278   3279     1   0.10969 276646.080000
   3278   3280     1   0.10969 276646.080000
   3281   3282     1   0.10969 276646.080000
   3281   3283     1   0.10969 276646.080000
   3284   3285     1   0.10969 276646.080000
   3284   3286     1   0.10969 276646.080000
   3287   3288     1   0.10969 276646.080000
   3287   3289     1   0.10969 276646.080000
   3290   3291     1   0.10969 276646.080000
   3290   3292     1   0.10969 276646.080000
   3293   3294     1   0.10969 276646.080000
   3293   3295     1   0.10969 276646.080000
   3296   3297     1   0.10969 276646.080000
   3296   3298     1   0.10969 276646.080000
   3299   3300     1   0.10969 276646.080000
   3299   3301     1   0.10969 276646.080000
   3302   3303     1   0.10969 276646.080000
   3302   3304     1   0.10969 276646.080000
   3307   3308     1   0.10969 276646.080000
   3307   3309     1   0.10969 276646.080000
   3310   3311     1   0.10969 276646.080000
   3310   3312     1   0.10969 276646.080000
   3313   3314     1   0.10969 276646.080000
   3313   3315     1   0.10969 276646.080000
   3316   3317     1   0.10969 276646.080000
   3316   3318     1   0.10969 276646.080000
   3319   3320     1   0.10969 276646.080000
   3319   3321     1   0.10969 276646.080000
   3322   3323     1   0.10969 276646.080000
   3322   3324     1   0.10969 276646.080000
   3325   3326     1   0.10969 276646.080000
   3325   3327     1   0.10969 276646.080000
   3328   3329     1   0.10969 276646.080000
   3328   3330     1   0.10969 276646.080000
   3331   3332     1   0.10969 276646.080000
   3331   3333     1   0.10969 276646.080000
   3336   3337     1   0.10969 276646.080000
   3336   3338     1   0.10969 276646.080000
   3339   3340     1   0.10969 276646.080000
   3339   3341     1   0.10969 276646.080000
   3342   3343     1   0.10969 276646.080000
   3342   3344     1   0.10969 276646.080000
   3345   3346     1   0.10969 276646.080000
   3345   3347     1   0.10969 276646.080000
   3348   3349     1   0.10969 276646.080000
   3348   3350     1   0.10969 276646.080000
   3351   3352     1   0.10969 276646.080000
   3351   3353     1   0.10969 276646.080000
   3354   3355     1   0.10969 276646.080000
   3354   3356     1   0.10969 276646.080000
   3357   3358     1   0.10969 276646.080000
   3357   3359     1   0.10969 276646.080000
   3360   3361     1   0.10969 276646.080000
   3360   3362     1   0.10969 276646.080000
   3365   3366     1   0.10969 276646.080000
   3365   3367     1   0.10969 276646.080000
   3368   3369     1   0.10969 276646.080000
   3368   3370     1   0.10969 276646.080000
   3371   3372     1   0.10969 276646.080000
   3371   3373     1   0.10969 276646.080000
   3374   3375     1   0.10969 276646.080000
   3374   3376     1   0.10969 276646.080000
   3377   3378     1   0.10969 276646.080000
   3377   3379     1   0.10969 276646.080000
   3380   3381     1   0.10969 276646.080000
   3380   3382     1   0.10969 276646.080000
   3383   3384     1   0.10969 276646.080000
   3383   3385     1   0.10969 276646.080000
   3386   3387     1   0.10969 276646.080000
   3386   3388     1   0.10969 276646.080000
   3389   3390     1   0.10969 276646.080000
   3389   3391     1   0.10969 276646.080000
   3394   3395     1   0.10969 276646.080000
   3394   3396     1   0.10969 276646.080000
   3397   3398     1   0.10969 276646.080000
   3397   3399     1   0.10969 276646.080000
   3400   3401     1   0.10969 276646.080000
   3400   3402     1   0.10969 276646.080000
   3403   3404     1   0.10969 276646.080000
   3403   3405     1   0.10969 276646.080000
   3406   3407     1   0.10969 276646.080000
   3406   3408     1   0.10969 276646.080000
   3409   3410     1   0.10969 276646.080000
   3409   3411     1   0.10969 276646.080000
   3412   3413     1   0.10969 276646.080000
   3412   3414     1   0.10969 276646.080000
   3415   3416     1   0.10969 276646.080000
   3415   3417     1   0.10969 276646.080000
   3418   3419     1   0.10969 276646.080000
   3418   3420     1   0.10969 276646.080000
   3423   3424     1   0.10969 276646.080000
   3423   3425     1   0.10969 276646.080000
   3426   3427     1   0.10969 276646.080000
   3426   3428     1   0.10969 276646.080000
   3429   3430     1   0.10969 276646.080000
   3429   3431     1   0.10969 276646.080000
   3432   3433     1   0.10969 276646.080000
   3432   3434     1   0.10969 276646.080000
   3435   3436     1   0.10969 276646.080000
   3435   3437     1   0.10969 276646.080000
   3438   3439     1   0.10969 276646.080000
   3438   3440     1   0.10969 276646.080000
   3441   3442     1   0.10969 276646.080000
   3441   3443     1   0.10969 276646.080000
   3444   3445     1   0.10969 276646.080000
   3444   3446     1   0.10969 276646.080000
   3447   3448     1   0.10969 276646.080000
   3447   3449     1   0.10969 276646.080000
   3452   3453     1   0.10969 276646.080000
   3452   3454     1   0.10969 276646.080000
   3455   3456     1   0.10969 276646.080000
   3455   3457     1   0.10969 276646.080000
   3458   3459     1   0.10969 276646.080000
   3458   3460     1   0.10969 276646.080000
   3461   3462     1   0.10969 276646.080000
   3461   3463     1   0.10969 276646.080000
   3464   3465     1   0.10969 276646.080000
   3464   3466     1   0.10969 276646.080000
   3467   3468     1   0.10969 276646.080000
   3467   3469     1   0.10969 276646.080000
   3470   3471     1   0.10969 276646.080000
   3470   3472     1   0.10969 276646.080000
   3473   3474     1   0.10969 276646.080000
   3473   3475     1   0.10969 276646.080000
   3476   3477     1   0.10969 276646.080000
   3476   3478     1   0.10969 276646.080000
   3481   3482     1   0.10969 276646.080000
   3481   3483     1   0.10969 276646.080000
   3484   3485     1   0.10969 276646.080000
   3484   3486     1   0.10969 276646.080000
   3487   3488     1   0.10969 276646.080000
   3487   3489     1   0.10969 276646.080000
   3490   3491     1   0.10969 276646.080000
   3490   3492     1   0.10969 276646.080000
   3493   3494     1   0.10969 276646.080000
   3493   3495     1   0.10969 276646.080000
   3496   3497     1   0.10969 276646.080000
   3496   3498     1   0.10969 276646.080000
   3499   3500     1   0.10969 276646.080000
   3499   3501     1   0.10969 276646.080000
   3502   3503     1   0.10969 276646.080000
   3502   3504     1   0.10969 276646.080000
   3505   3506     1   0.10969 276646.080000
   3505   3507     1   0.10969 276646.080000
   3510   3511     1   0.10969 276646.080000
   3510   3512     1   0.10969 276646.080000
   3513   3514     1   0.10969 276646.080000
   3513   3515     1   0.10969 276646.080000
   3516   3517     1   0.10969 276646.080000
   3516   3518     1   0.10969 276646.080000
   3519   3520     1   0.10969 276646.080000
   3519   3521     1   0.10969 276646.080000
   3522   3523     1   0.10969 276646.080000
   3522   3524     1   0.10969 276646.080000
   3525   3526     1   0.10969 276646.080000
   3525   3527     1   0.10969 276646.080000
   3528   3529     1   0.10969 276646.080000
   3528   3530     1   0.10969 276646.080000
   3531   3532     1   0.10969 276646.080000
   3531   3533     1   0.10969 276646.080000
   3534   3535     1   0.10969 276646.080000
   3534   3536     1   0.10969 276646.080000
   3539   3540     1   0.10969 276646.080000
   3539   3541     1   0.10969 276646.080000
   3542   3543     1   0.10969 276646.080000
   3542   3544     1   0.10969 276646.080000
   3545   3546     1   0.10969 276646.080000
   3545   3547     1   0.10969 276646.080000
   3548   3549     1   0.10969 276646.080000
   3548   3550     1   0.10969 276646.080000
   3551   3552     1   0.10969 276646.080000
   3551   3553     1   0.10969 276646.080000
   3554   3555     1   0.10969 276646.080000
   3554   3556     1   0.10969 276646.080000
   3557   3558     1   0.10969 276646.080000
   3557   3559     1   0.10969 276646.080000
   3560   3561     1   0.10969 276646.080000
   3560   3562     1   0.10969 276646.080000
   3563   3564     1   0.10969 276646.080000
   3563   3565     1   0.10969 276646.080000
   3568   3569     1   0.10969 276646.080000
   3568   3570     1   0.10969 276646.080000
   3571   3572     1   0.10969 276646.080000
   3571   3573     1   0.10969 276646.080000
   3574   3575     1   0.10969 276646.080000
   3574   3576     1   0.10969 276646.080000
   3577   3578     1   0.10969 276646.080000
   3577   3579     1   0.10969 276646.080000
   3580   3581     1   0.10969 276646.080000
   3580   3582     1   0.10969 276646.080000
   3583   3584     1   0.10969 276646.080000
   3583   3585     1   0.10969 276646.080000
   3586   3587     1   0.10969 276646.080000
   3586   3588     1   0.10969 276646.080000
   3589   3590     1   0.10969 276646.080000
   3589   3591     1   0.10969 276646.080000
   3592   3593     1   0.10969 276646.080000
   3592   3594     1   0.10969 276646.080000
   3597   3598     1   0.10969 276646.080000
   3597   3599     1   0.10969 276646.080000
   3600   3601     1   0.10969 276646.080000
   3600   3602     1   0.10969 276646.080000
   3603   3604     1   0.10969 276646.080000
   3603   3605     1   0.10969 276646.080000
   3606   3607     1   0.10969 276646.080000
   3606   3608     1   0.10969 276646.080000
   3609   3610     1   0.10969 276646.080000
   3609   3611     1   0.10969 276646.080000
   3612   3613     1   0.10969 276646.080000
   3612   3614     1   0.10969 276646.080000
   3615   3616     1   0.10969 276646.080000
   3615   3617     1   0.10969 276646.080000
   3618   3619     1   0.10969 276646.080000
   3618   3620     1   0.10969 276646.080000
   3621   3622     1   0.10969 276646.080000
   3621   3623     1   0.10969 276646.080000
   3626   3627     1   0.10969 276646.080000
   3626   3628     1   0.10969 276646.080000
   3629   3630     1   0.10969 276646.080000
   3629   3631     1   0.10969 276646.080000
   3632   3633     1   0.10969 276646.080000
   3632   3634     1   0.10969 276646.080000
   3635   3636     1   0.10969 276646.080000
   3635   3637     1   0.10969 276646.080000
   3638   3639     1   0.10969 276646.080000
   3638   3640     1   0.10969 276646.080000
   3641   3642     1   0.10969 276646.080000
   3641   3643     1   0.10969 276646.080000
   3644   3645     1   0.10969 276646.080000
   3644   3646     1   0.10969 276646.080000
   3647   3648     1   0.10969 276646.080000
   3647   3649     1   0.10969 276646.080000
   3650   3651     1   0.10969 276646.080000
   3650   3652     1   0.10969 276646.080000
   3655   3656     1   0.10969 276646.080000
   3655   3657     1   0.10969 276646.080000
   3658   3659     1   0.10969 276646.080000
   3658   3660     1   0.10969 276646.080000
   3661   3662     1   0.10969 276646.080000
   3661   3663     1   0.10969 276646.080000
   3664   3665     1   0.10969 276646.080000
   3664   3666     1   0.10969 276646.080000
   3667   3668     1   0.10969 276646.080000
   3667   3669     1   0.10969 276646.080000
   3670   3671     1   0.10969 276646.080000
   3670   3672     1   0.10969 276646.080000
   3673   3674     1   0.10969 276646.080000
   3673   3675     1   0.10969 276646.080000
   3676   3677     1   0.10969 276646.080000
   3676   3678     1   0.10969 276646.080000
   3679   3680     1   0.10969 276646.080000
   3679   3681     1   0.10969 276646.080000
   3684   3685     1   0.10969 276646.080000
   3684   3686     1   0.10969 276646.080000
   3687   3688     1   0.10969 276646.080000
   3687   3689     1   0.10969 276646.080000
   3690   3691     1   0.10969 276646.080000
   3690   3692     1   0.10969 276646.080000
   3693   3694     1   0.10969 276646.080000
   3693   3695     1   0.10969 276646.080000
   3696   3697     1   0.10969 276646.080000
   3696   3698     1   0.10969 276646.080000
   3699   3700     1   0.10969 276646.080000
   3699   3701     1   0.10969 276646.080000
   3702   3703     1   0.10969 276646.080000
   3702   3704     1   0.10969 276646.080000
   3705   3706     1   0.10969 276646.080000
   3705   3707     1   0.10969 276646.080000
   3708   3709     1   0.10969 276646.080000
   3708   3710     1   0.10969 276646.080000
   3713   3714     1   0.10969 276646.080000
   3713   3715     1   0.10969 276646.080000
   3716   3717     1   0.10969 276646.080000
   3716   3718     1   0.10969 276646.080000
   3719   3720     1   0.10969 276646.080000
   3719   3721     1   0.10969 276646.080000
   3722   3723     1   0.10969 276646.080000
   3722   3724     1   0.10969 276646.080000
   3725   3726     1   0.10969 276646.080000
   3725   3727     1   0.10969 276646.080000
   3728   3729     1   0.10969 276646.080000
   3728   3730     1   0.10969 276646.080000
   3731   3732     1   0.10969 276646.080000
   3731   3733     1   0.10969 276646.080000
   3734   3735     1   0.10969 276646.080000
   3734   3736     1   0.10969 276646.080000
   3737   3738     1   0.10969 276646.080000
   3737   3739     1   0.10969 276646.080000
   3742   3743     1   0.10969 276646.080000
   3742   3744     1   0.10969 276646.080000
   3745   3746     1   0.10969 276646.080000
   3745   3747     1   0.10969 276646.080000
   3748   3749     1   0.10969 276646.080000
   3748   3750     1   0.10969 276646.080000
   3751   3752     1   0.10969 276646.080000
   3751   3753     1   0.10969 276646.080000
   3754   3755     1   0.10969 276646.080000
   3754   3756     1   0.10969 276646.080000
   3757   3758     1   0.10969 276646.080000
   3757   3759     1   0.10969 276646.080000
   3760   3761     1   0.10969 276646.080000
   3760   3762     1   0.10969 276646.080000
   3763   3764     1   0.10969 276646.080000
   3763   3765     1   0.10969 276646.080000
   3766   3767     1   0.10969 276646.080000
   3766   3768     1   0.10969 276646.080000
   3771   3772     1   0.10969 276646.080000
   3771   3773     1   0.10969 276646.080000
   3774   3775     1   0.10969 276646.080000
   3774   3776     1   0.10969 276646.080000
   3777   3778     1   0.10969 276646.080000
   3777   3779     1   0.10969 276646.080000
   3780   3781     1   0.10969 276646.080000
   3780   3782     1   0.10969 276646.080000
   3783   3784     1   0.10969 276646.080000
   3783   3785     1   0.10969 276646.080000
   3786   3787     1   0.10969 276646.080000
   3786   3788     1   0.10969 276646.080000
   3789   3790     1   0.10969 276646.080000
   3789   3791     1   0.10969 276646.080000
   3792   3793     1   0.10969 276646.080000
   3792   3794     1   0.10969 276646.080000
   3795   3796     1   0.10969 276646.080000
   3795   3797     1   0.10969 276646.080000
   3800   3801     1   0.10969 276646.080000
   3800   3802     1   0.10969 276646.080000
   3803   3804     1   0.10969 276646.080000
   3803   3805     1   0.10969 276646.080000
   3806   3807     1   0.10969 276646.080000
   3806   3808     1   0.10969 276646.080000
   3809   3810     1   0.10969 276646.080000
   3809   3811     1   0.10969 276646.080000
   3812   3813     1   0.10969 276646.080000
   3812   3814     1   0.10969 276646.080000
   3815   3816     1   0.10969 276646.080000
   3815   3817     1   0.10969 276646.080000
   3818   3819     1   0.10969 276646.080000
   3818   3820     1   0.10969 276646.080000
   3821   3822     1   0.10969 276646.080000
   3821   3823     1   0.10969 276646.080000
   3824   3825     1   0.10969 276646.080000
   3824   3826     1   0.10969 276646.080000
   3829   3830     1   0.10969 276646.080000
   3829   3831     1   0.10969 276646.080000
   3832   3833     1   0.10969 276646.080000
   3832   3834     1   0.10969 276646.080000
   3835   3836     1   0.10969 276646.080000
   3835   3837     1   0.10969 276646.080000
   3838   3839     1   0.10969 276646.080000
   3838   3840     1   0.10969 276646.080000
   3841   3842     1   0.10969 276646.080000
   3841   3843     1   0.10969 276646.080000
   3844   3845     1   0.10969 276646.080000
   3844   3846     1   0.10969 276646.080000
   3847   3848     1   0.10969 276646.080000
   3847   3849     1   0.10969 276646.080000
   3850   3851     1   0.10969 276646.080000
   3850   3852     1   0.10969 276646.080000
   3853   3854     1   0.10969 276646.080000
   3853   3855     1   0.10969 276646.080000
   3858   3859     1   0.10969 276646.080000
   3858   3860     1   0.10969 276646.080000
   3861   3862     1   0.10969 276646.080000
   3861   3863     1   0.10969 276646.080000
   3864   3865     1   0.10969 276646.080000
   3864   3866     1   0.10969 276646.080000
   3867   3868     1   0.10969 276646.080000
   3867   3869     1   0.10969 276646.080000
   3870   3871     1   0.10969 276646.080000
   3870   3872     1   0.10969 276646.080000
   3873   3874     1   0.10969 276646.080000
   3873   3875     1   0.10969 276646.080000
   3876   3877     1   0.10969 276646.080000
   3876   3878     1   0.10969 276646.080000
   3879   3880     1   0.10969 276646.080000
   3879   3881     1   0.10969 276646.080000
   3882   3883     1   0.10969 276646.080000
   3882   3884     1   0.10969 276646.080000
   3887   3888     1   0.10969 276646.080000
   3887   3889     1   0.10969 276646.080000
   3890   3891     1   0.10969 276646.080000
   3890   3892     1   0.10969 276646.080000
   3893   3894     1   0.10969 276646.080000
   3893   3895     1   0.10969 276646.080000
   3896   3897     1   0.10969 276646.080000
   3896   3898     1   0.10969 276646.080000
   3899   3900     1   0.10969 276646.080000
   3899   3901     1   0.10969 276646.080000
   3902   3903     1   0.10969 276646.080000
   3902   3904     1   0.10969 276646.080000
   3905   3906     1   0.10969 276646.080000
   3905   3907     1   0.10969 276646.080000
   3908   3909     1   0.10969 276646.080000
   3908   3910     1   0.10969 276646.080000
   3911   3912     1   0.10969 276646.080000
   3911   3913     1   0.10969 276646.080000
   3916   3917     1   0.10969 276646.080000
   3916   3918     1   0.10969 276646.080000
   3919   3920     1   0.10969 276646.080000
   3919   3921     1   0.10969 276646.080000
   3922   3923     1   0.10969 276646.080000
   3922   3924     1   0.10969 276646.080000
   3925   3926     1   0.10969 276646.080000
   3925   3927     1   0.10969 276646.080000
   3928   3929     1   0.10969 276646.080000
   3928   3930     1   0.10969 276646.080000
   3931   3932     1   0.10969 276646.080000
   3931   3933     1   0.10969 276646.080000
   3934   3935     1   0.10969 276646.080000
   3934   3936     1   0.10969 276646.080000
   3937   3938     1   0.10969 276646.080000
   3937   3939     1   0.10969 276646.080000
   3940   3941     1   0.10969 276646.080000
   3940   3942     1   0.10969 276646.080000
   3945   3946     1   0.10969 276646.080000
   3945   3947     1   0.10969 276646.080000
   3948   3949     1   0.10969 276646.080000
   3948   3950     1   0.10969 276646.080000
   3951   3952     1   0.10969 276646.080000
   3951   3953     1   0.10969 276646.080000
   3954   3955     1   0.10969 276646.080000
   3954   3956     1   0.10969 276646.080000
   3957   3958     1   0.10969 276646.080000
   3957   3959     1   0.10969 276646.080000
   3960   3961     1   0.10969 276646.080000
   3960   3962     1   0.10969 276646.080000
   3963   3964     1   0.10969 276646.080000
   3963   3965     1   0.10969 276646.080000
   3966   3967     1   0.10969 276646.080000
   3966   3968     1   0.10969 276646.080000
   3969   3970     1   0.10969 276646.080000
   3969   3971     1   0.10969 276646.080000
   3974   3975     1   0.10969 276646.080000
   3974   3976     1   0.10969 276646.080000
   3977   3978     1   0.10969 276646.080000
   3977   3979     1   0.10969 276646.080000
   3980   3981     1   0.10969 276646.080000
   3980   3982     1   0.10969 276646.080000
   3983   3984     1   0.10969 276646.080000
   3983   3985     1   0.10969 276646.080000
   3986   3987     1   0.10969 276646.080000
   3986   3988     1   0.10969 276646.080000
   3989   3990     1   0.10969 276646.080000
   3989   3991     1   0.10969 276646.080000
   3992   3993     1   0.10969 276646.080000
   3992   3994     1   0.10969 276646.080000
   3995   3996     1   0.10969 276646.080000
   3995   3997     1   0.10969 276646.080000
   3998   3999     1   0.10969 276646.080000
   3998   4000     1   0.10969 276646.080000
   4003   4004     1   0.10969 276646.080000
   4003   4005     1   0.10969 276646.080000
   4006   4007     1   0.10969 276646.080000
   4006   4008     1   0.10969 276646.080000
   4009   4010     1   0.10969 276646.080000
   4009   4011     1   0.10969 276646.080000
   4012   4013     1   0.10969 276646.080000
   4012   4014     1   0.10969 276646.080000
   4015   4016     1   0.10969 276646.080000
   4015   4017     1   0.10969 276646.080000
   4018   4019     1   0.10969 276646.080000
   4018   4020     1   0.10969 276646.080000
   4021   4022     1   0.10969 276646.080000
   4021   4023     1   0.10969 276646.080000
   4024   4025     1   0.10969 276646.080000
   4024   4026     1   0.10969 276646.080000
   4027   4028     1   0.10969 276646.080000
   4027   4029     1   0.10969 276646.080000
   4032   4033     1   0.10969 276646.080000
   4032   4034     1   0.10969 276646.080000
   4035   4036     1   0.10969 276646.080000
   4035   4037     1   0.10969 276646.080000
   4038   4039     1   0.10969 276646.080000
   4038   4040     1   0.10969 276646.080000
   4041   4042     1   0.10969 276646.080000
   4041   4043     1   0.10969 276646.080000
   4044   4045     1   0.10969 276646.080000
   4044   4046     1   0.10969 276646.080000
   4047   4048     1   0.10969 276646.080000
   4047   4049     1   0.10969 276646.080000
   4050   4051     1   0.10969 276646.080000
   4050   4052     1   0.10969 276646.080000
   4053   4054     1   0.10969 276646.080000
   4053   4055     1   0.10969 276646.080000
   4056   4057     1   0.10969 276646.080000
   4056   4058     1   0.10969 276646.080000
   4061   4062     1   0.10969 276646.080000
   4061   4063     1   0.10969 276646.080000
   4064   4065     1   0.10969 276646.080000
   4064   4066     1   0.10969 276646.080000
   4067   4068     1   0.10969 276646.080000
   4067   4069     1   0.10969 276646.080000
   4070   4071     1   0.10969 276646.080000
   4070   4072     1   0.10969 276646.080000
   4073   4074     1   0.10969 276646.080000
   4073   4075     1   0.10969 276646.080000
   4076   4077     1   0.10969 276646.080000
   4076   4078     1   0.10969 276646.080000
   4079   4080     1   0.10969 276646.080000
   4079   4081     1   0.10969 276646.080000
   4082   4083     1   0.10969 276646.080000
   4082   4084     1   0.10969 276646.080000
   4085   4086     1   0.10969 276646.080000
   4085   4087     1   0.10969 276646.080000
   4090   4091     1   0.10969 276646.080000
   4090   4092     1   0.10969 276646.080000
   4093   4094     1   0.10969 276646.080000
   4093   4095     1   0.10969 276646.080000
   4096   4097     1   0.10969 276646.080000
   4096   4098     1   0.10969 276646.080000
   4099   4100     1   0.10969 276646.080000
   4099   4101     1   0.10969 276646.080000
   4102   4103     1   0.10969 276646.080000
   4102   4104     1   0.10969 276646.080000
   4105   4106     1   0.10969 276646.080000
   4105   4107     1   0.10969 276646.080000
   4108   4109     1   0.10969 276646.080000
   4108   4110     1   0.10969 276646.080000
   4111   4112     1   0.10969 276646.080000
   4111   4113     1   0.10969 276646.080000
   4114   4115     1   0.10969 276646.080000
   4114   4116     1   0.10969 276646.080000
   4119   4120     1   0.10969 276646.080000
   4119   4121     1   0.10969 276646.080000
   4122   4123     1   0.10969 276646.080000
   4122   4124     1   0.10969 276646.080000
   4125   4126     1   0.10969 276646.080000
   4125   4127     1   0.10969 276646.080000
   4128   4129     1   0.10969 276646.080000
   4128   4130     1   0.10969 276646.080000
   4131   4132     1   0.10969 276646.080000
   4131   4133     1   0.10969 276646.080000
   4134   4135     1   0.10969 276646.080000
   4134   4136     1   0.10969 276646.080000
   4137   4138     1   0.10969 276646.080000
   4137   4139     1   0.10969 276646.080000
   4140   4141     1   0.10969 276646.080000
   4140   4142     1   0.10969 276646.080000
   4143   4144     1   0.10969 276646.080000
   4143   4145     1   0.10969 276646.080000
   4148   4149     1   0.10969 276646.080000
   4148   4150     1   0.10969 276646.080000
   4151   4152     1   0.10969 276646.080000
   4151   4153     1   0.10969 276646.080000
   4154   4155     1   0.10969 276646.080000
   4154   4156     1   0.10969 276646.080000
   4157   4158     1   0.10969 276646.080000
   4157   4159     1   0.10969 276646.080000
   4160   4161     1   0.10969 276646.080000
   4160   4162     1   0.10969 276646.080000
   4163   4164     1   0.10969 276646.080000
   4163   4165     1   0.10969 276646.080000
   4166   4167     1   0.10969 276646.080000
   4166   4168     1   0.10969 276646.080000
   4169   4170     1   0.10969 276646.080000
   4169   4171     1   0.10969 276646.080000
   4172   4173     1   0.10969 276646.080000
   4172   4174     1   0.10969 276646.080000
   4177   4178     1   0.10969 276646.080000
   4177   4179     1   0.10969 276646.080000
   4180   4181     1   0.10969 276646.080000
   4180   4182     1   0.10969 276646.080000
   4183   4184     1   0.10969 276646.080000
   4183   4185     1   0.10969 276646.080000
   4186   4187     1   0.10969 276646.080000
   4186   4188     1   0.10969 276646.080000
   4189   4190     1   0.10969 276646.080000
   4189   4191     1   0.10969 276646.080000
   4192   4193     1   0.10969 276646.080000
   4192   4194     1   0.10969 276646.080000
   4195   4196     1   0.10969 276646.080000
   4195   4197     1   0.10969 276646.080000
   4198   4199     1   0.10969 276646.080000
   4198   4200     1   0.10969 276646.080000
   4201   4202     1   0.10969 276646.080000
   4201   4203     1   0.10969 276646.080000
   4206   4207     1   0.10969 276646.080000
   4206   4208     1   0.10969 276646.080000
   4209   4210     1   0.10969 276646.080000
   4209   4211     1   0.10969 276646.080000
   4212   4213     1   0.10969 276646.080000
   4212   4214     1   0.10969 276646.080000
   4215   4216     1   0.10969 276646.080000
   4215   4217     1   0.10969 276646.080000
   4218   4219     1   0.10969 276646.080000
   4218   4220     1   0.10969 276646.080000
   4221   4222     1   0.10969 276646.080000
   4221   4223     1   0.10969 276646.080000
   4224   4225     1   0.10969 276646.080000
   4224   4226     1   0.10969 276646.080000
   4227   4228     1   0.10969 276646.080000
   4227   4229     1   0.10969 276646.080000
   4230   4231     1   0.10969 276646.080000
   4230   4232     1   0.10969 276646.080000
   4235   4236     1   0.10969 276646.080000
   4235   4237     1   0.10969 276646.080000
   4238   4239     1   0.10969 276646.080000
   4238   4240     1   0.10969 276646.080000
   4241   4242     1   0.10969 276646.080000
   4241   4243     1   0.10969 276646.080000
   4244   4245     1   0.10969 276646.080000
   4244   4246     1   0.10969 276646.080000
   4247   4248     1   0.10969 276646.080000
   4247   4249     1   0.10969 276646.080000
   4250   4251     1   0.10969 276646.080000
   4250   4252     1   0.10969 276646.080000
   4253   4254     1   0.10969 276646.080000
   4253   4255     1   0.10969 276646.080000
   4256   4257     1   0.10969 276646.080000
   4256   4258     1   0.10969 276646.080000
   4259   4260     1   0.10969 276646.080000
   4259   4261     1   0.10969 276646.080000
   4264   4265     1   0.10969 276646.080000
   4264   4266     1   0.10969 276646.080000
   4267   4268     1   0.10969 276646.080000
   4267   4269     1   0.10969 276646.080000
   4270   4271     1   0.10969 276646.080000
   4270   4272     1   0.10969 276646.080000
   4273   4274     1   0.10969 276646.080000
   4273   4275     1   0.10969 276646.080000
   4276   4277     1   0.10969 276646.080000
   4276   4278     1   0.10969 276646.080000
   4279   4280     1   0.10969 276646.080000
   4279   4281     1   0.10969 276646.080000
   4282   4283     1   0.10969 276646.080000
   4282   4284     1   0.10969 276646.080000
   4285   4286     1   0.10969 276646.080000
   4285   4287     1   0.10969 276646.080000
   4288   4289     1   0.10969 276646.080000
   4288   4290     1   0.10969 276646.080000
   4293   4294     1   0.10969 276646.080000
   4293   4295     1   0.10969 276646.080000
   4296   4297     1   0.10969 276646.080000
   4296   4298     1   0.10969 276646.080000
   4299   4300     1   0.10969 276646.080000
   4299   4301     1   0.10969 276646.080000
   4302   4303     1   0.10969 276646.080000
   4302   4304     1   0.10969 276646.080000
   4305   4306     1   0.10969 276646.080000
   4305   4307     1   0.10969 276646.080000
   4308   4309     1   0.10969 276646.080000
   4308   4310     1   0.10969 276646.080000
   4311   4312     1   0.10969 276646.080000
   4311   4313     1   0.10969 276646.080000
   4314   4315     1   0.10969 276646.080000
   4314   4316     1   0.10969 276646.080000
   4317   4318     1   0.10969 276646.080000
   4317   4319     1   0.10969 276646.080000
   4322   4323     1   0.10969 276646.080000
   4322   4324     1   0.10969 276646.080000
   4325   4326     1   0.10969 276646.080000
   4325   4327     1   0.10969 276646.080000
   4328   4329     1   0.10969 276646.080000
   4328   4330     1   0.10969 276646.080000
   4331   4332     1   0.10969 276646.080000
   4331   4333     1   0.10969 276646.080000
   4334   4335     1   0.10969 276646.080000
   4334   4336     1   0.10969 276646.080000
   4337   4338     1   0.10969 276646.080000
   4337   4339     1   0.10969 276646.080000
   4340   4341     1   0.10969 276646.080000
   4340   4342     1   0.10969 276646.080000
   4343   4344     1   0.10969 276646.080000
   4343   4345     1   0.10969 276646.080000
   4346   4347     1   0.10969 276646.080000
   4346   4348     1   0.10969 276646.080000
   4351   4352     1   0.10969 276646.080000
   4351   4353     1   0.10969 276646.080000
   4354   4355     1   0.10969 276646.080000
   4354   4356     1   0.10969 276646.080000
   4357   4358     1   0.10969 276646.080000
   4357   4359     1   0.10969 276646.080000
   4360   4361     1   0.10969 276646.080000
   4360   4362     1   0.10969 276646.080000
   4363   4364     1   0.10969 276646.080000
   4363   4365     1   0.10969 276646.080000
   4366   4367     1   0.10969 276646.080000
   4366   4368     1   0.10969 276646.080000
   4369   4370     1   0.10969 276646.080000
   4369   4371     1   0.10969 276646.080000
   4372   4373     1   0.10969 276646.080000
   4372   4374     1   0.10969 276646.080000
   4375   4376     1   0.10969 276646.080000
   4375   4377     1   0.10969 276646.080000
   4380   4381     1   0.10969 276646.080000
   4380   4382     1   0.10969 276646.080000
   4383   4384     1   0.10969 276646.080000
   4383   4385     1   0.10969 276646.080000
   4386   4387     1   0.10969 276646.080000
   4386   4388     1   0.10969 276646.080000
   4389   4390     1   0.10969 276646.080000
   4389   4391     1   0.10969 276646.080000
   4392   4393     1   0.10969 276646.080000
   4392   4394     1   0.10969 276646.080000
   4395   4396     1   0.10969 276646.080000
   4395   4397     1   0.10969 276646.080000
   4398   4399     1   0.10969 276646.080000
   4398   4400     1   0.10969 276646.080000
   4401   4402     1   0.10969 276646.080000
   4401   4403     1   0.10969 276646.080000
   4404   4405     1   0.10969 276646.080000
   4404   4406     1   0.10969 276646.080000
   4409   4410     1   0.10969 276646.080000
   4409   4411     1   0.10969 276646.080000
   4412   4413     1   0.10969 276646.080000
   4412   4414     1   0.10969 276646.080000
   4415   4416     1   0.10969 276646.080000
   4415   4417     1   0.10969 276646.080000
   4418   4419     1   0.10969 276646.080000
   4418   4420     1   0.10969 276646.080000
   4421   4422     1   0.10969 276646.080000
   4421   4423     1   0.10969 276646.080000
   4424   4425     1   0.10969 276646.080000
   4424   4426     1   0.10969 276646.080000
   4427   4428     1   0.10969 276646.080000
   4427   4429     1   0.10969 276646.080000
   4430   4431     1   0.10969 276646.080000
   4430   4432     1   0.10969 276646.080000
   4433   4434     1   0.10969 276646.080000
   4433   4435     1   0.10969 276646.080000
   4438   4439     1   0.10969 276646.080000
   4438   4440     1   0.10969 276646.080000
   4441   4442     1   0.10969 276646.080000
   4441   4443     1   0.10969 276646.080000
   4444   4445     1   0.10969 276646.080000
   4444   4446     1   0.10969 276646.080000
   4447   4448     1   0.10969 276646.080000
   4447   4449     1   0.10969 276646.080000
   4450   4451     1   0.10969 276646.080000
   4450   4452     1   0.10969 276646.080000
   4453   4454     1   0.10969 276646.080000
   4453   4455     1   0.10969 276646.080000
   4456   4457     1   0.10969 276646.080000
   4456   4458     1   0.10969 276646.080000
   4459   4460     1   0.10969 276646.080000
   4459   4461     1   0.10969 276646.080000
   4462   4463     1   0.10969 276646.080000
   4462   4464     1   0.10969 276646.080000
   4467   4468     1   0.10969 276646.080000
   4467   4469     1   0.10969 276646.080000
   4470   4471     1   0.10969 276646.080000
   4470   4472     1   0.10969 276646.080000
   4473   4474     1   0.10969 276646.080000
   4473   4475     1   0.10969 276646.080000
   4476   4477     1   0.10969 276646.080000
   4476   4478     1   0.10969 276646.080000
   4479   4480     1   0.10969 276646.080000
   4479   4481     1   0.10969 276646.080000
   4482   4483     1   0.10969 276646.080000
   4482   4484     1   0.10969 276646.080000
   4485   4486     1   0.10969 276646.080000
   4485   4487     1   0.10969 276646.080000
   4488   4489     1   0.10969 276646.080000
   4488   4490     1   0.10969 276646.080000
   4491   4492     1   0.10969 276646.080000
   4491   4493     1   0.10969 276646.080000
   4496   4497     1   0.10969 276646.080000
   4496   4498     1   0.10969 276646.080000
   4499   4500     1   0.10969 276646.080000
   4499   4501     1   0.10969 276646.080000
   4502   4503     1   0.10969 276646.080000
   4502   4504     1   0.10969 276646.080000
   4505   4506     1   0.10969 276646.080000
   4505   4507     1   0.10969 276646.080000
   4508   4509     1   0.10969 276646.080000
   4508   4510     1   0.10969 276646.080000
   4511   4512     1   0.10969 276646.080000
   4511   4513     1   0.10969 276646.080000
   4514   4515     1   0.10969 276646.080000
   4514   4516     1   0.10969 276646.080000
   4517   4518     1   0.10969 276646.080000
   4517   4519     1   0.10969 276646.080000
   4520   4521     1   0.10969 276646.080000
   4520   4522     1   0.10969 276646.080000
   4525   4526     1   0.10969 276646.080000
   4525   4527     1   0.10969 276646.080000
   4528   4529     1   0.10969 276646.080000
   4528   4530     1   0.10969 276646.080000
   4531   4532     1   0.10969 276646.080000
   4531   4533     1   0.10969 276646.080000
   4534   4535     1   0.10969 276646.080000
   4534   4536     1   0.10969 276646.080000
   4537   4538     1   0.10969 276646.080000
   4537   4539     1   0.10969 276646.080000
   4540   4541     1   0.10969 276646.080000
   4540   4542     1   0.10969 276646.080000
   4543   4544     1   0.10969 276646.080000
   4543   4545     1   0.10969 276646.080000
   4546   4547     1   0.10969 276646.080000
   4546   4548     1   0.10969 276646.080000
   4549   4550     1   0.10969 276646.080000
   4549   4551     1   0.10969 276646.080000
   4554   4555     1   0.10969 276646.080000
   4554   4556     1   0.10969 276646.080000
   4557   4558     1   0.10969 276646.080000
   4557   4559     1   0.10969 276646.080000
   4560   4561     1   0.10969 276646.080000
   4560   4562     1   0.10969 276646.080000
   4563   4564     1   0.10969 276646.080000
   4563   4565     1   0.10969 276646.080000
   4566   4567     1   0.10969 276646.080000
   4566   4568     1   0.10969 276646.080000
   4569   4570     1   0.10969 276646.080000
   4569   4571     1   0.10969 276646.080000
   4572   4573     1   0.10969 276646.080000
   4572   4574     1   0.10969 276646.080000
   4575   4576     1   0.10969 276646.080000
   4575   4577     1   0.10969 276646.080000
   4578   4579     1   0.10969 276646.080000
   4578   4580     1   0.10969 276646.080000
   4583   4584     1   0.10969 276646.080000
   4583   4585     1   0.10969 276646.080000
   4586   4587     1   0.10969 276646.080000
   4586   4588     1   0.10969 276646.080000
   4589   4590     1   0.10969 276646.080000
   4589   4591     1   0.10969 276646.080000
   4592   4593     1   0.10969 276646.080000
   4592   4594     1   0.10969 276646.080000
   4595   4596     1   0.10969 276646.080000
   4595   4597     1   0.10969 276646.080000
   4598   4599     1   0.10969 276646.080000
   4598   4600     1   0.10969 276646.080000
   4601   4602     1   0.10969 276646.080000
   4601   4603     1   0.10969 276646.080000
   4604   4605     1   0.10969 276646.080000
   4604   4606     1   0.10969 276646.080000
   4607   4608     1   0.10969 276646.080000
   4607   4609     1   0.10969 276646.080000
   4612   4613     1   0.10969 276646.080000
   4612   4614     1   0.10969 276646.080000
   4615   4616     1   0.10969 276646.080000
   4615   4617     1   0.10969 276646.080000
   4618   4619     1   0.10969 276646.080000
   4618   4620     1   0.10969 276646.080000
   4621   4622     1   0.10969 276646.080000
   4621   4623     1   0.10969 276646.080000
   4624   4625     1   0.10969 276646.080000
   4624   4626     1   0.10969 276646.080000
   4627   4628     1   0.10969 276646.080000
   4627   4629     1   0.10969 276646.080000
   4630   4631     1   0.10969 276646.080000
   4630   4632     1   0.10969 276646.080000
   4633   4634     1   0.10969 276646.080000
   4633   4635     1   0.10969 276646.080000
   4636   4637     1   0.10969 276646.080000
   4636   4638     1   0.10969 276646.080000
   4641   4642     1   0.10969 276646.080000
   4641   4643     1   0.10969 276646.080000
   4644   4645     1   0.10969 276646.080000
   4644   4646     1   0.10969 276646.080000
   4647   4648     1   0.10969 276646.080000
   4647   4649     1   0.10969 276646.080000
   4650   4651     1   0.10969 276646.080000
   4650   4652     1   0.10969 276646.080000
   4653   4654     1   0.10969 276646.080000
   4653   4655     1   0.10969 276646.080000
   4656   4657     1   0.10969 276646.080000
   4656   4658     1   0.10969 276646.080000
   4659   4660     1   0.10969 276646.080000
   4659   4661     1   0.10969 276646.080000
   4662   4663     1   0.10969 276646.080000
   4662   4664     1   0.10969 276646.080000
   4665   4666     1   0.10969 276646.080000
   4665   4667     1   0.10969 276646.080000
   4670   4671     1   0.10969 276646.080000
   4670   4672     1   0.10969 276646.080000
   4673   4674     1   0.10969 276646.080000
   4673   4675     1   0.10969 276646.080000
   4676   4677     1   0.10969 276646.080000
   4676   4678     1   0.10969 276646.080000
   4679   4680     1   0.10969 276646.080000
   4679   4681     1   0.10969 276646.080000
   4682   4683     1   0.10969 276646.080000
   4682   4684     1   0.10969 276646.080000
   4685   4686     1   0.10969 276646.080000
   4685   4687     1   0.10969 276646.080000
   4688   4689     1   0.10969 276646.080000
   4688   4690     1   0.10969 276646.080000
   4691   4692     1   0.10969 276646.080000
   4691   4693     1   0.10969 276646.080000
   4694   4695     1   0.10969 276646.080000
   4694   4696     1   0.10969 276646.080000
   4699   4700     1   0.10969 276646.080000
   4699   4701     1   0.10969 276646.080000
   4702   4703     1   0.10969 276646.080000
   4702   4704     1   0.10969 276646.080000
   4705   4706     1   0.10969 276646.080000
   4705   4707     1   0.10969 276646.080000
   4708   4709     1   0.10969 276646.080000
   4708   4710     1   0.10969 276646.080000
   4711   4712     1   0.10969 276646.080000
   4711   4713     1   0.10969 276646.080000
   4714   4715     1   0.10969 276646.080000
   4714   4716     1   0.10969 276646.080000
   4717   4718     1   0.10969 276646.080000
   4717   4719     1   0.10969 276646.080000
   4720   4721     1   0.10969 276646.080000
   4720   4722     1   0.10969 276646.080000
   4723   4724     1   0.10969 276646.080000
   4723   4725     1   0.10969 276646.080000
   4728   4729     1   0.10969 276646.080000
   4728   4730     1   0.10969 276646.080000
   4731   4732     1   0.10969 276646.080000
   4731   4733     1   0.10969 276646.080000
   4734   4735     1   0.10969 276646.080000
   4734   4736     1   0.10969 276646.080000
   4737   4738     1   0.10969 276646.080000
   4737   4739     1   0.10969 276646.080000
   4740   4741     1   0.10969 276646.080000
   4740   4742     1   0.10969 276646.080000
   4743   4744     1   0.10969 276646.080000
   4743   4745     1   0.10969 276646.080000
   4746   4747     1   0.10969 276646.080000
   4746   4748     1   0.10969 276646.080000
   4749   4750     1   0.10969 276646.080000
   4749   4751     1   0.10969 276646.080000
   4752   4753     1   0.10969 276646.080000
   4752   4754     1   0.10969 276646.080000
   4757   4758     1   0.10969 276646.080000
   4757   4759     1   0.10969 276646.080000
   4760   4761     1   0.10969 276646.080000
   4760   4762     1   0.10969 276646.080000
   4763   4764     1   0.10969 276646.080000
   4763   4765     1   0.10969 276646.080000
   4766   4767     1   0.10969 276646.080000
   4766   4768     1   0.10969 276646.080000
   4769   4770     1   0.10969 276646.080000
   4769   4771     1   0.10969 276646.080000
   4772   4773     1   0.10969 276646.080000
   4772   4774     1   0.10969 276646.080000
   4775   4776     1   0.10969 276646.080000
   4775   4777     1   0.10969 276646.080000
   4778   4779     1   0.10969 276646.080000
   4778   4780     1   0.10969 276646.080000
   4781   4782     1   0.10969 276646.080000
   4781   4783     1   0.10969 276646.080000
   4786   4787     1   0.10969 276646.080000
   4786   4788     1   0.10969 276646.080000
   4789   4790     1   0.10969 276646.080000
   4789   4791     1   0.10969 276646.080000
   4792   4793     1   0.10969 276646.080000
   4792   4794     1   0.10969 276646.080000
   4795   4796     1   0.10969 276646.080000
   4795   4797     1   0.10969 276646.080000
   4798   4799     1   0.10969 276646.080000
   4798   4800     1   0.10969 276646.080000
   4801   4802     1   0.10969 276646.080000
   4801   4803     1   0.10969 276646.080000
   4804   4805     1   0.10969 276646.080000
   4804   4806     1   0.10969 276646.080000
   4807   4808     1   0.10969 276646.080000
   4807   4809     1   0.10969 276646.080000
   4810   4811     1   0.10969 276646.080000
   4810   4812     1   0.10969 276646.080000
   4815   4816     1   0.10969 276646.080000
   4815   4817     1   0.10969 276646.080000
   4818   4819     1   0.10969 276646.080000
   4818   4820     1   0.10969 276646.080000
   4821   4822     1   0.10969 276646.080000
   4821   4823     1   0.10969 276646.080000
   4824   4825     1   0.10969 276646.080000
   4824   4826     1   0.10969 276646.080000
   4827   4828     1   0.10969 276646.080000
   4827   4829     1   0.10969 276646.080000
   4830   4831     1   0.10969 276646.080000
   4830   4832     1   0.10969 276646.080000
   4833   4834     1   0.10969 276646.080000
   4833   4835     1   0.10969 276646.080000
   4836   4837     1   0.10969 276646.080000
   4836   4838     1   0.10969 276646.080000
   4839   4840     1   0.10969 276646.080000
   4839   4841     1   0.10969 276646.080000
   4844   4845     1   0.10969 276646.080000
   4844   4846     1   0.10969 276646.080000
   4847   4848     1   0.10969 276646.080000
   4847   4849     1   0.10969 276646.080000
   4850   4851     1   0.10969 276646.080000
   4850   4852     1   0.10969 276646.080000
   4853   4854     1   0.10969 276646.080000
   4853   4855     1   0.10969 276646.080000
   4856   4857     1   0.10969 276646.080000
   4856   4858     1   0.10969 276646.080000
   4859   4860     1   0.10969 276646.080000
   4859   4861     1   0.10969 276646.080000
   4862   4863     1   0.10969 276646.080000
   4862   4864     1   0.10969 276646.080000
   4865   4866     1   0.10969 276646.080000
   4865   4867     1   0.10969 276646.080000
   4868   4869     1   0.10969 276646.080000
   4868   4870     1   0.10969 276646.080000
   4873   4874     1   0.10969 276646.080000
   4873   4875     1   0.10969 276646.080000
   4876   4877     1   0.10969 276646.080000
   4876   4878     1   0.10969 276646.080000
   4879   4880     1   0.10969 276646.080000
   4879   4881     1   0.10969 276646.080000
   4882   4883     1   0.10969 276646.080000
   4882   4884     1   0.10969 276646.080000
   4885   4886     1   0.10969 276646.080000
   4885   4887     1   0.10969 276646.080000
   4888   4889     1   0.10969 276646.080000
   4888   4890     1   0.10969 276646.080000
   4891   4892     1   0.10969 276646.080000
   4891   4893     1   0.10969 276646.080000
   4894   4895     1   0.10969 276646.080000
   4894   4896     1   0.10969 276646.080000
   4897   4898     1   0.10969 276646.080000
   4897   4899     1   0.10969 276646.080000
   4902   4903     1   0.10969 276646.080000
   4902   4904     1   0.10969 276646.080000
   4905   4906     1   0.10969 276646.080000
   4905   4907     1   0.10969 276646.080000
   4908   4909     1   0.10969 276646.080000
   4908   4910     1   0.10969 276646.080000
   4911   4912     1   0.10969 276646.080000
   4911   4913     1   0.10969 276646.080000
   4914   4915     1   0.10969 276646.080000
   4914   4916     1   0.10969 276646.080000
   4917   4918     1   0.10969 276646.080000
   4917   4919     1   0.10969 276646.080000
   4920   4921     1   0.10969 276646.080000
   4920   4922     1   0.10969 276646.080000
   4923   4924     1   0.10969 276646.080000
   4923   4925     1   0.10969 276646.080000
   4926   4927     1   0.10969 276646.080000
   4926   4928     1   0.10969 276646.080000
   4931   4932     1   0.10969 276646.080000
   4931   4933     1   0.10969 276646.080000
   4934   4935     1   0.10969 276646.080000
   4934   4936     1   0.10969 276646.080000
   4937   4938     1   0.10969 276646.080000
   4937   4939     1   0.10969 276646.080000
   4940   4941     1   0.10969 276646.080000
   4940   4942     1   0.10969 276646.080000
   4943   4944     1   0.10969 276646.080000
   4943   4945     1   0.10969 276646.080000
   4946   4947     1   0.10969 276646.080000
   4946   4948     1   0.10969 276646.080000
   4949   4950     1   0.10969 276646.080000
   4949   4951     1   0.10969 276646.080000
   4952   4953     1   0.10969 276646.080000
   4952   4954     1   0.10969 276646.080000
   4955   4956     1   0.10969 276646.080000
   4955   4957     1   0.10969 276646.080000
   4960   4961     1   0.10969 276646.080000
   4960   4962     1   0.10969 276646.080000
   4963   4964     1   0.10969 276646.080000
   4963   4965     1   0.10969 276646.080000
   4966   4967     1   0.10969 276646.080000
   4966   4968     1   0.10969 276646.080000
   4969   4970     1   0.10969 276646.080000
   4969   4971     1   0.10969 276646.080000
   4972   4973     1   0.10969 276646.080000
   4972   4974     1   0.10969 276646.080000
   4975   4976     1   0.10969 276646.080000
   4975   4977     1   0.10969 276646.080000
   4978   4979     1   0.10969 276646.080000
   4978   4980     1   0.10969 276646.080000
   4981   4982     1   0.10969 276646.080000
   4981   4983     1   0.10969 276646.080000
   4984   4985     1   0.10969 276646.080000
   4984   4986     1   0.10969 276646.080000
   4989   4990     1   0.10969 276646.080000
   4989   4991     1   0.10969 276646.080000
   4992   4993     1   0.10969 276646.080000
   4992   4994     1   0.10969 276646.080000
   4995   4996     1   0.10969 276646.080000
   4995   4997     1   0.10969 276646.080000
   4998   4999     1   0.10969 276646.080000
   4998   5000     1   0.10969 276646.080000
   5001   5002     1   0.10969 276646.080000
   5001   5003     1   0.10969 276646.080000
   5004   5005     1   0.10969 276646.080000
   5004   5006     1   0.10969 276646.080000
   5007   5008     1   0.10969 276646.080000
   5007   5009     1   0.10969 276646.080000
   5010   5011     1   0.10969 276646.080000
   5010   5012     1   0.10969 276646.080000
   5013   5014     1   0.10969 276646.080000
   5013   5015     1   0.10969 276646.080000
   5018   5019     1   0.10969 276646.080000
   5018   5020     1   0.10969 276646.080000
   5021   5022     1   0.10969 276646.080000
   5021   5023     1   0.10969 276646.080000
   5024   5025     1   0.10969 276646.080000
   5024   5026     1   0.10969 276646.080000
   5027   5028     1   0.10969 276646.080000
   5027   5029     1   0.10969 276646.080000
   5030   5031     1   0.10969 276646.080000
   5030   5032     1   0.10969 276646.080000
   5033   5034     1   0.10969 276646.080000
   5033   5035     1   0.10969 276646.080000
   5036   5037     1   0.10969 276646.080000
   5036   5038     1   0.10969 276646.080000
   5039   5040     1   0.10969 276646.080000
   5039   5041     1   0.10969 276646.080000
   5042   5043     1   0.10969 276646.080000
   5042   5044     1   0.10969 276646.080000
   5047   5048     1   0.10969 276646.080000
   5047   5049     1   0.10969 276646.080000
   5050   5051     1   0.10969 276646.080000
   5050   5052     1   0.10969 276646.080000
   5053   5054     1   0.10969 276646.080000
   5053   5055     1   0.10969 276646.080000
   5056   5057     1   0.10969 276646.080000
   5056   5058     1   0.10969 276646.080000
   5059   5060     1   0.10969 276646.080000
   5059   5061     1   0.10969 276646.080000
   5062   5063     1   0.10969 276646.080000
   5062   5064     1   0.10969 276646.080000
   5065   5066     1   0.10969 276646.080000
   5065   5067     1   0.10969 276646.080000
   5068   5069     1   0.10969 276646.080000
   5068   5070     1   0.10969 276646.080000
   5071   5072     1   0.10969 276646.080000
   5071   5073     1   0.10969 276646.080000
   5076   5077     1   0.10969 276646.080000
   5076   5078     1   0.10969 276646.080000
   5079   5080     1   0.10969 276646.080000
   5079   5081     1   0.10969 276646.080000
   5082   5083     1   0.10969 276646.080000
   5082   5084     1   0.10969 276646.080000
   5085   5086     1   0.10969 276646.080000
   5085   5087     1   0.10969 276646.080000
   5088   5089     1   0.10969 276646.080000
   5088   5090     1   0.10969 276646.080000
   5091   5092     1   0.10969 276646.080000
   5091   5093     1   0.10969 276646.080000
   5094   5095     1   0.10969 276646.080000
   5094   5096     1   0.10969 276646.080000
   5097   5098     1   0.10969 276646.080000
   5097   5099     1   0.10969 276646.080000
   5100   5101     1   0.10969 276646.080000
   5100   5102     1   0.10969 276646.080000
   5105   5106     1   0.10969 276646.080000
   5105   5107     1   0.10969 276646.080000
   5108   5109     1   0.10969 276646.080000
   5108   5110     1   0.10969 276646.080000
   5111   5112     1   0.10969 276646.080000
   5111   5113     1   0.10969 276646.080000
   5114   5115     1   0.10969 276646.080000
   5114   5116     1   0.10969 276646.080000
   5117   5118     1   0.10969 276646.080000
   5117   5119     1   0.10969 276646.080000
   5120   5121     1   0.10969 276646.080000
   5120   5122     1   0.10969 276646.080000
   5123   5124     1   0.10969 276646.080000
   5123   5125     1   0.10969 276646.080000
   5126   5127     1   0.10969 276646.080000
   5126   5128     1   0.10969 276646.080000
   5129   5130     1   0.10969 276646.080000
   5129   5131     1   0.10969 276646.080000
   5134   5135     1   0.10969 276646.080000
   5134   5136     1   0.10969 276646.080000
   5137   5138     1   0.10969 276646.080000
   5137   5139     1   0.10969 276646.080000
   5140   5141     1   0.10969 276646.080000
   5140   5142     1   0.10969 276646.080000
   5143   5144     1   0.10969 276646.080000
   5143   5145     1   0.10969 276646.080000
   5146   5147     1   0.10969 276646.080000
   5146   5148     1   0.10969 276646.080000
   5149   5150     1   0.10969 276646.080000
   5149   5151     1   0.10969 276646.080000
   5152   5153     1   0.10969 276646.080000
   5152   5154     1   0.10969 276646.080000
   5155   5156     1   0.10969 276646.080000
   5155   5157     1   0.10969 276646.080000
   5158   5159     1   0.10969 276646.080000
   5158   5160     1   0.10969 276646.080000
   5163   5164     1   0.10969 276646.080000
   5163   5165     1   0.10969 276646.080000
   5166   5167     1   0.10969 276646.080000
   5166   5168     1   0.10969 276646.080000
   5169   5170     1   0.10969 276646.080000
   5169   5171     1   0.10969 276646.080000
   5172   5173     1   0.10969 276646.080000
   5172   5174     1   0.10969 276646.080000
   5175   5176     1   0.10969 276646.080000
   5175   5177     1   0.10969 276646.080000
   5178   5179     1   0.10969 276646.080000
   5178   5180     1   0.10969 276646.080000
   5181   5182     1   0.10969 276646.080000
   5181   5183     1   0.10969 276646.080000
   5184   5185     1   0.10969 276646.080000
   5184   5186     1   0.10969 276646.080000
   5187   5188     1   0.10969 276646.080000
   5187   5189     1   0.10969 276646.080000
   5192   5193     1   0.10969 276646.080000
   5192   5194     1   0.10969 276646.080000
   5195   5196     1   0.10969 276646.080000
   5195   5197     1   0.10969 276646.080000
   5198   5199     1   0.10969 276646.080000
   5198   5200     1   0.10969 276646.080000
   5201   5202     1   0.10969 276646.080000
   5201   5203     1   0.10969 276646.080000
   5204   5205     1   0.10969 276646.080000
   5204   5206     1   0.10969 276646.080000
   5207   5208     1   0.10969 276646.080000
   5207   5209     1   0.10969 276646.080000
   5210   5211     1   0.10969 276646.080000
   5210   5212     1   0.10969 276646.080000
   5213   5214     1   0.10969 276646.080000
   5213   5215     1   0.10969 276646.080000
   5216   5217     1   0.10969 276646.080000
   5216   5218     1   0.10969 276646.080000
   5221   5222     1   0.10969 276646.080000
   5221   5223     1   0.10969 276646.080000
   5224   5225     1   0.10969 276646.080000
   5224   5226     1   0.10969 276646.080000
   5227   5228     1   0.10969 276646.080000
   5227   5229     1   0.10969 276646.080000
   5230   5231     1   0.10969 276646.080000
   5230   5232     1   0.10969 276646.080000
   5233   5234     1   0.10969 276646.080000
   5233   5235     1   0.10969 276646.080000
   5236   5237     1   0.10969 276646.080000
   5236   5238     1   0.10969 276646.080000
   5239   5240     1   0.10969 276646.080000
   5239   5241     1   0.10969 276646.080000
   5242   5243     1   0.10969 276646.080000
   5242   5244     1   0.10969 276646.080000
   5245   5246     1   0.10969 276646.080000
   5245   5247     1   0.10969 276646.080000
   5250   5251     1   0.10969 276646.080000
   5250   5252     1   0.10969 276646.080000
   5253   5254     1   0.10969 276646.080000
   5253   5255     1   0.10969 276646.080000
   5256   5257     1   0.10969 276646.080000
   5256   5258     1   0.10969 276646.080000
   5259   5260     1   0.10969 276646.080000
   5259   5261     1   0.10969 276646.080000
   5262   5263     1   0.10969 276646.080000
   5262   5264     1   0.10969 276646.080000
   5265   5266     1   0.10969 276646.080000
   5265   5267     1   0.10969 276646.080000
   5268   5269     1   0.10969 276646.080000
   5268   5270     1   0.10969 276646.080000
   5271   5272     1   0.10969 276646.080000
   5271   5273     1   0.10969 276646.080000
   5274   5275     1   0.10969 276646.080000
   5274   5276     1   0.10969 276646.080000
   5279   5280     1   0.10969 276646.080000
   5279   5281     1   0.10969 276646.080000
   5282   5283     1   0.10969 276646.080000
   5282   5284     1   0.10969 276646.080000
   5285   5286     1   0.10969 276646.080000
   5285   5287     1   0.10969 276646.080000
   5288   5289     1   0.10969 276646.080000
   5288   5290     1   0.10969 276646.080000
   5291   5292     1   0.10969 276646.080000
   5291   5293     1   0.10969 276646.080000
   5294   5295     1   0.10969 276646.080000
   5294   5296     1   0.10969 276646.080000
   5297   5298     1   0.10969 276646.080000
   5297   5299     1   0.10969 276646.080000
   5300   5301     1   0.10969 276646.080000
   5300   5302     1   0.10969 276646.080000
   5303   5304     1   0.10969 276646.080000
   5303   5305     1   0.10969 276646.080000
   5308   5309     1   0.10969 276646.080000
   5308   5310     1   0.10969 276646.080000
   5311   5312     1   0.10969 276646.080000
   5311   5313     1   0.10969 276646.080000
   5314   5315     1   0.10969 276646.080000
   5314   5316     1   0.10969 276646.080000
   5317   5318     1   0.10969 276646.080000
   5317   5319     1   0.10969 276646.080000
   5320   5321     1   0.10969 276646.080000
   5320   5322     1   0.10969 276646.080000
   5323   5324     1   0.10969 276646.080000
   5323   5325     1   0.10969 276646.080000
   5326   5327     1   0.10969 276646.080000
   5326   5328     1   0.10969 276646.080000
   5329   5330     1   0.10969 276646.080000
   5329   5331     1   0.10969 276646.080000
   5332   5333     1   0.10969 276646.080000
   5332   5334     1   0.10969 276646.080000
   5337   5338     1   0.10969 276646.080000
   5337   5339     1   0.10969 276646.080000
   5340   5341     1   0.10969 276646.080000
   5340   5342     1   0.10969 276646.080000
   5343   5344     1   0.10969 276646.080000
   5343   5345     1   0.10969 276646.080000
   5346   5347     1   0.10969 276646.080000
   5346   5348     1   0.10969 276646.080000
   5349   5350     1   0.10969 276646.080000
   5349   5351     1   0.10969 276646.080000
   5352   5353     1   0.10969 276646.080000
   5352   5354     1   0.10969 276646.080000
   5355   5356     1   0.10969 276646.080000
   5355   5357     1   0.10969 276646.080000
   5358   5359     1   0.10969 276646.080000
   5358   5360     1   0.10969 276646.080000
   5361   5362     1   0.10969 276646.080000
   5361   5363     1   0.10969 276646.080000
   5366   5367     1   0.10969 276646.080000
   5366   5368     1   0.10969 276646.080000
   5369   5370     1   0.10969 276646.080000
   5369   5371     1   0.10969 276646.080000
   5372   5373     1   0.10969 276646.080000
   5372   5374     1   0.10969 276646.080000
   5375   5376     1   0.10969 276646.080000
   5375   5377     1   0.10969 276646.080000
   5378   5379     1   0.10969 276646.080000
   5378   5380     1   0.10969 276646.080000
   5381   5382     1   0.10969 276646.080000
   5381   5383     1   0.10969 276646.080000
   5384   5385     1   0.10969 276646.080000
   5384   5386     1   0.10969 276646.080000
   5387   5388     1   0.10969 276646.080000
   5387   5389     1   0.10969 276646.080000
   5390   5391     1   0.10969 276646.080000
   5390   5392     1   0.10969 276646.080000
   5395   5396     1   0.10969 276646.080000
   5395   5397     1   0.10969 276646.080000
   5398   5399     1   0.10969 276646.080000
   5398   5400     1   0.10969 276646.080000
   5401   5402     1   0.10969 276646.080000
   5401   5403     1   0.10969 276646.080000
   5404   5405     1   0.10969 276646.080000
   5404   5406     1   0.10969 276646.080000
   5407   5408     1   0.10969 276646.080000
   5407   5409     1   0.10969 276646.080000
   5410   5411     1   0.10969 276646.080000
   5410   5412     1   0.10969 276646.080000
   5413   5414     1   0.10969 276646.080000
   5413   5415     1   0.10969 276646.080000
   5416   5417     1   0.10969 276646.080000
   5416   5418     1   0.10969 276646.080000
   5419   5420     1   0.10969 276646.080000
   5419   5421     1   0.10969 276646.080000
   5424   5425     1   0.10969 276646.080000
   5424   5426     1   0.10969 276646.080000
   5427   5428     1   0.10969 276646.080000
   5427   5429     1   0.10969 276646.080000
   5430   5431     1   0.10969 276646.080000
   5430   5432     1   0.10969 276646.080000
   5433   5434     1   0.10969 276646.080000
   5433   5435     1   0.10969 276646.080000
   5436   5437     1   0.10969 276646.080000
   5436   5438     1   0.10969 276646.080000
   5439   5440     1   0.10969 276646.080000
   5439   5441     1   0.10969 276646.080000
   5442   5443     1   0.10969 276646.080000
   5442   5444     1   0.10969 276646.080000
   5445   5446     1   0.10969 276646.080000
   5445   5447     1   0.10969 276646.080000
   5448   5449     1   0.10969 276646.080000
   5448   5450     1   0.10969 276646.080000
   5453   5454     1   0.10969 276646.080000
   5453   5455     1   0.10969 276646.080000
   5456   5457     1   0.10969 276646.080000
   5456   5458     1   0.10969 276646.080000
   5459   5460     1   0.10969 276646.080000
   5459   5461     1   0.10969 276646.080000
   5462   5463     1   0.10969 276646.080000
   5462   5464     1   0.10969 276646.080000
   5465   5466     1   0.10969 276646.080000
   5465   5467     1   0.10969 276646.080000
   5468   5469     1   0.10969 276646.080000
   5468   5470     1   0.10969 276646.080000
   5471   5472     1   0.10969 276646.080000
   5471   5473     1   0.10969 276646.080000
   5474   5475     1   0.10969 276646.080000
   5474   5476     1   0.10969 276646.080000
   5477   5478     1   0.10969 276646.080000
   5477   5479     1   0.10969 276646.080000
   5482   5483     1   0.10969 276646.080000
   5482   5484     1   0.10969 276646.080000
   5485   5486     1   0.10969 276646.080000
   5485   5487     1   0.10969 276646.080000
   5488   5489     1   0.10969 276646.080000
   5488   5490     1   0.10969 276646.080000
   5491   5492     1   0.10969 276646.080000
   5491   5493     1   0.10969 276646.080000
   5494   5495     1   0.10969 276646.080000
   5494   5496     1   0.10969 276646.080000
   5497   5498     1   0.10969 276646.080000
   5497   5499     1   0.10969 276646.080000
   5500   5501     1   0.10969 276646.080000
   5500   5502     1   0.10969 276646.080000
   5503   5504     1   0.10969 276646.080000
   5503   5505     1   0.10969 276646.080000
   5506   5507     1   0.10969 276646.080000
   5506   5508     1   0.10969 276646.080000
   5511   5512     1   0.10969 276646.080000
   5511   5513     1   0.10969 276646.080000
   5514   5515     1   0.10969 276646.080000
   5514   5516     1   0.10969 276646.080000
   5517   5518     1   0.10969 276646.080000
   5517   5519     1   0.10969 276646.080000
   5520   5521     1   0.10969 276646.080000
   5520   5522     1   0.10969 276646.080000
   5523   5524     1   0.10969 276646.080000
   5523   5525     1   0.10969 276646.080000
   5526   5527     1   0.10969 276646.080000
   5526   5528     1   0.10969 276646.080000
   5529   5530     1   0.10969 276646.080000
   5529   5531     1   0.10969 276646.080000
   5532   5533     1   0.10969 276646.080000
   5532   5534     1   0.10969 276646.080000
   5535   5536     1   0.10969 276646.080000
   5535   5537     1   0.10969 276646.080000
   5540   5541     1   0.10969 276646.080000
   5540   5542     1   0.10969 276646.080000
   5543   5544     1   0.10969 276646.080000
   5543   5545     1   0.10969 276646.080000
   5546   5547     1   0.10969 276646.080000
   5546   5548     1   0.10969 276646.080000
   5549   5550     1   0.10969 276646.080000
   5549   5551     1   0.10969 276646.080000
   5552   5553     1   0.10969 276646.080000
   5552   5554     1   0.10969 276646.080000
   5555   5556     1   0.10969 276646.080000
   5555   5557     1   0.10969 276646.080000
   5558   5559     1   0.10969 276646.080000
   5558   5560     1   0.10969 276646.080000
   5561   5562     1   0.10969 276646.080000
   5561   5563     1   0.10969 276646.080000
   5564   5565     1   0.10969 276646.080000
   5564   5566     1   0.10969 276646.080000
   5569   5570     1   0.10969 276646.080000
   5569   5571     1   0.10969 276646.080000
   5572   5573     1   0.10969 276646.080000
   5572   5574     1   0.10969 276646.080000
   5575   5576     1   0.10969 276646.080000
   5575   5577     1   0.10969 276646.080000
   5578   5579     1   0.10969 276646.080000
   5578   5580     1   0.10969 276646.080000
   5581   5582     1   0.10969 276646.080000
   5581   5583     1   0.10969 276646.080000
   5584   5585     1   0.10969 276646.080000
   5584   5586     1   0.10969 276646.080000
   5587   5588     1   0.10969 276646.080000
   5587   5589     1   0.10969 276646.080000
   5590   5591     1   0.10969 276646.080000
   5590   5592     1   0.10969 276646.080000
   5593   5594     1   0.10969 276646.080000
   5593   5595     1   0.10969 276646.080000
   5598   5599     1   0.10969 276646.080000
   5598   5600     1   0.10969 276646.080000
   5601   5602     1   0.10969 276646.080000
   5601   5603     1   0.10969 276646.080000
   5604   5605     1   0.10969 276646.080000
   5604   5606     1   0.10969 276646.080000
   5607   5608     1   0.10969 276646.080000
   5607   5609     1   0.10969 276646.080000
   5610   5611     1   0.10969 276646.080000
   5610   5612     1   0.10969 276646.080000
   5613   5614     1   0.10969 276646.080000
   5613   5615     1   0.10969 276646.080000
   5616   5617     1   0.10969 276646.080000
   5616   5618     1   0.10969 276646.080000
   5619   5620     1   0.10969 276646.080000
   5619   5621     1   0.10969 276646.080000
   5622   5623     1   0.10969 276646.080000
   5622   5624     1   0.10969 276646.080000
   5627   5628     1   0.10969 276646.080000
   5627   5629     1   0.10969 276646.080000
   5630   5631     1   0.10969 276646.080000
   5630   5632     1   0.10969 276646.080000
   5633   5634     1   0.10969 276646.080000
   5633   5635     1   0.10969 276646.080000
   5636   5637     1   0.10969 276646.080000
   5636   5638     1   0.10969 276646.080000
   5639   5640     1   0.10969 276646.080000
   5639   5641     1   0.10969 276646.080000
   5642   5643     1   0.10969 276646.080000
   5642   5644     1   0.10969 276646.080000
   5645   5646     1   0.10969 276646.080000
   5645   5647     1   0.10969 276646.080000
   5648   5649     1   0.10969 276646.080000
   5648   5650     1   0.10969 276646.080000
   5651   5652     1   0.10969 276646.080000
   5651   5653     1   0.10969 276646.080000
   5656   5657     1   0.10969 276646.080000
   5656   5658     1   0.10969 276646.080000
   5659   5660     1   0.10969 276646.080000
   5659   5661     1   0.10969 276646.080000
   5662   5663     1   0.10969 276646.080000
   5662   5664     1   0.10969 276646.080000
   5665   5666     1   0.10969 276646.080000
   5665   5667     1   0.10969 276646.080000
   5668   5669     1   0.10969 276646.080000
   5668   5670     1   0.10969 276646.080000
   5671   5672     1   0.10969 276646.080000
   5671   5673     1   0.10969 276646.080000
   5674   5675     1   0.10969 276646.080000
   5674   5676     1   0.10969 276646.080000
   5677   5678     1   0.10969 276646.080000
   5677   5679     1   0.10969 276646.080000
   5680   5681     1   0.10969 276646.080000
   5680   5682     1   0.10969 276646.080000
   5685   5686     1   0.10969 276646.080000
   5685   5687     1   0.10969 276646.080000
   5688   5689     1   0.10969 276646.080000
   5688   5690     1   0.10969 276646.080000
   5691   5692     1   0.10969 276646.080000
   5691   5693     1   0.10969 276646.080000
   5694   5695     1   0.10969 276646.080000
   5694   5696     1   0.10969 276646.080000
   5697   5698     1   0.10969 276646.080000
   5697   5699     1   0.10969 276646.080000
   5700   5701     1   0.10969 276646.080000
   5700   5702     1   0.10969 276646.080000
   5703   5704     1   0.10969 276646.080000
   5703   5705     1   0.10969 276646.080000
   5706   5707     1   0.10969 276646.080000
   5706   5708     1   0.10969 276646.080000
   5709   5710     1   0.10969 276646.080000
   5709   5711     1   0.10969 276646.080000
   5714   5715     1   0.10969 276646.080000
   5714   5716     1   0.10969 276646.080000
   5717   5718     1   0.10969 276646.080000
   5717   5719     1   0.10969 276646.080000
   5720   5721     1   0.10969 276646.080000
   5720   5722     1   0.10969 276646.080000
   5723   5724     1   0.10969 276646.080000
   5723   5725     1   0.10969 276646.080000
   5726   5727     1   0.10969 276646.080000
   5726   5728     1   0.10969 276646.080000
   5729   5730     1   0.10969 276646.080000
   5729   5731     1   0.10969 276646.080000
   5732   5733     1   0.10969 276646.080000
   5732   5734     1   0.10969 276646.080000
   5735   5736     1   0.10969 276646.080000
   5735   5737     1   0.10969 276646.080000
   5738   5739     1   0.10969 276646.080000
   5738   5740     1   0.10969 276646.080000
   5743   5744     1   0.10969 276646.080000
   5743   5745     1   0.10969 276646.080000
   5746   5747     1   0.10969 276646.080000
   5746   5748     1   0.10969 276646.080000
   5749   5750     1   0.10969 276646.080000
   5749   5751     1   0.10969 276646.080000
   5752   5753     1   0.10969 276646.080000
   5752   5754     1   0.10969 276646.080000
   5755   5756     1   0.10969 276646.080000
   5755   5757     1   0.10969 276646.080000
   5758   5759     1   0.10969 276646.080000
   5758   5760     1   0.10969 276646.080000
   5761   5762     1   0.10969 276646.080000
   5761   5763     1   0.10969 276646.080000
   5764   5765     1   0.10969 276646.080000
   5764   5766     1   0.10969 276646.080000
   5767   5768     1   0.10969 276646.080000
   5767   5769     1   0.10969 276646.080000
   5772   5773     1   0.10969 276646.080000
   5772   5774     1   0.10969 276646.080000
   5775   5776     1   0.10969 276646.080000
   5775   5777     1   0.10969 276646.080000
   5778   5779     1   0.10969 276646.080000
   5778   5780     1   0.10969 276646.080000
   5781   5782     1   0.10969 276646.080000
   5781   5783     1   0.10969 276646.080000
   5784   5785     1   0.10969 276646.080000
   5784   5786     1   0.10969 276646.080000
   5787   5788     1   0.10969 276646.080000
   5787   5789     1   0.10969 276646.080000
   5790   5791     1   0.10969 276646.080000
   5790   5792     1   0.10969 276646.080000
   5793   5794     1   0.10969 276646.080000
   5793   5795     1   0.10969 276646.080000
   5796   5797     1   0.10969 276646.080000
   5796   5798     1   0.10969 276646.080000
   5801   5802     1   0.10969 276646.080000
   5801   5803     1   0.10969 276646.080000
   5804   5805     1   0.10969 276646.080000
   5804   5806     1   0.10969 276646.080000
   5807   5808     1   0.10969 276646.080000
   5807   5809     1   0.10969 276646.080000
   5810   5811     1   0.10969 276646.080000
   5810   5812     1   0.10969 276646.080000
   5813   5814     1   0.10969 276646.080000
   5813   5815     1   0.10969 276646.080000
   5816   5817     1   0.10969 276646.080000
   5816   5818     1   0.10969 276646.080000
   5819   5820     1   0.10969 276646.080000
   5819   5821     1   0.10969 276646.080000
   5822   5823     1   0.10969 276646.080000
   5822   5824     1   0.10969 276646.080000
   5825   5826     1   0.10969 276646.080000
   5825   5827     1   0.10969 276646.080000
   5830   5831     1   0.10969 276646.080000
   5830   5832     1   0.10969 276646.080000
   5833   5834     1   0.10969 276646.080000
   5833   5835     1   0.10969 276646.080000
   5836   5837     1   0.10969 276646.080000
   5836   5838     1   0.10969 276646.080000
   5839   5840     1   0.10969 276646.080000
   5839   5841     1   0.10969 276646.080000
   5842   5843     1   0.10969 276646.080000
   5842   5844     1   0.10969 276646.080000
   5845   5846     1   0.10969 276646.080000
   5845   5847     1   0.10969 276646.080000
   5848   5849     1   0.10969 276646.080000
   5848   5850     1   0.10969 276646.080000
   5851   5852     1   0.10969 276646.080000
   5851   5853     1   0.10969 276646.080000
   5854   5855     1   0.10969 276646.080000
   5854   5856     1   0.10969 276646.080000
   5859   5860     1   0.10969 276646.080000
   5859   5861     1   0.10969 276646.080000
   5862   5863     1   0.10969 276646.080000
   5862   5864     1   0.10969 276646.080000
   5865   5866     1   0.10969 276646.080000
   5865   5867     1   0.10969 276646.080000
   5868   5869     1   0.10969 276646.080000
   5868   5870     1   0.10969 276646.080000
   5871   5872     1   0.10969 276646.080000
   5871   5873     1   0.10969 276646.080000
   5874   5875     1   0.10969 276646.080000
   5874   5876     1   0.10969 276646.080000
   5877   5878     1   0.10969 276646.080000
   5877   5879     1   0.10969 276646.080000
   5880   5881     1   0.10969 276646.080000
   5880   5882     1   0.10969 276646.080000
   5883   5884     1   0.10969 276646.080000
   5883   5885     1   0.10969 276646.080000
   5888   5889     1   0.10969 276646.080000
   5888   5890     1   0.10969 276646.080000
   5891   5892     1   0.10969 276646.080000
   5891   5893     1   0.10969 276646.080000
   5894   5895     1   0.10969 276646.080000
   5894   5896     1   0.10969 276646.080000
   5897   5898     1   0.10969 276646.080000
   5897   5899     1   0.10969 276646.080000
   5900   5901     1   0.10969 276646.080000
   5900   5902     1   0.10969 276646.080000
   5903   5904     1   0.10969 276646.080000
   5903   5905     1   0.10969 276646.080000
   5906   5907     1   0.10969 276646.080000
   5906   5908     1   0.10969 276646.080000
   5909   5910     1   0.10969 276646.080000
   5909   5911     1   0.10969 276646.080000
   5912   5913     1   0.10969 276646.080000
   5912   5914     1   0.10969 276646.080000
   5917   5918     1   0.10969 276646.080000
   5917   5919     1   0.10969 276646.080000
   5920   5921     1   0.10969 276646.080000
   5920   5922     1   0.10969 276646.080000
   5923   5924     1   0.10969 276646.080000
   5923   5925     1   0.10969 276646.080000
   5926   5927     1   0.10969 276646.080000
   5926   5928     1   0.10969 276646.080000
   5929   5930     1   0.10969 276646.080000
   5929   5931     1   0.10969 276646.080000
   5932   5933     1   0.10969 276646.080000
   5932   5934     1   0.10969 276646.080000
   5935   5936     1   0.10969 276646.080000
   5935   5937     1   0.10969 276646.080000
   5938   5939     1   0.10969 276646.080000
   5938   5940     1   0.10969 276646.080000
   5941   5942     1   0.10969 276646.080000
   5941   5943     1   0.10969 276646.080000
   5946   5947     1   0.10969 276646.080000
   5946   5948     1   0.10969 276646.080000
   5949   5950     1   0.10969 276646.080000
   5949   5951     1   0.10969 276646.080000
   5952   5953     1   0.10969 276646.080000
   5952   5954     1   0.10969 276646.080000
   5955   5956     1   0.10969 276646.080000
   5955   5957     1   0.10969 276646.080000
   5958   5959     1   0.10969 276646.080000
   5958   5960     1   0.10969 276646.080000
   5961   5962     1   0.10969 276646.080000
   5961   5963     1   0.10969 276646.080000
   5964   5965     1   0.10969 276646.080000
   5964   5966     1   0.10969 276646.080000
   5967   5968     1   0.10969 276646.080000
   5967   5969     1   0.10969 276646.080000
   5970   5971     1   0.10969 276646.080000
   5970   5972     1   0.10969 276646.080000
   5975   5976     1   0.10969 276646.080000
   5975   5977     1   0.10969 276646.080000
   5978   5979     1   0.10969 276646.080000
   5978   5980     1   0.10969 276646.080000
   5981   5982     1   0.10969 276646.080000
   5981   5983     1   0.10969 276646.080000
   5984   5985     1   0.10969 276646.080000
   5984   5986     1   0.10969 276646.080000
   5987   5988     1   0.10969 276646.080000
   5987   5989     1   0.10969 276646.080000
   5990   5991     1   0.10969 276646.080000
   5990   5992     1   0.10969 276646.080000
   5993   5994     1   0.10969 276646.080000
   5993   5995     1   0.10969 276646.080000
   5996   5997     1   0.10969 276646.080000
   5996   5998     1   0.10969 276646.080000
   5999   6000     1   0.10969 276646.080000
   5999   6001     1   0.10969 276646.080000
   6004   6005     1   0.10969 276646.080000
   6004   6006     1   0.10969 276646.080000
   6007   6008     1   0.10969 276646.080000
   6007   6009     1   0.10969 276646.080000
   6010   6011     1   0.10969 276646.080000
   6010   6012     1   0.10969 276646.080000
   6013   6014     1   0.10969 276646.080000
   6013   6015     1   0.10969 276646.080000
   6016   6017     1   0.10969 276646.080000
   6016   6018     1   0.10969 276646.080000
   6019   6020     1   0.10969 276646.080000
   6019   6021     1   0.10969 276646.080000
   6022   6023     1   0.10969 276646.080000
   6022   6024     1   0.10969 276646.080000
   6025   6026     1   0.10969 276646.080000
   6025   6027     1   0.10969 276646.080000
   6028   6029     1   0.10969 276646.080000
   6028   6030     1   0.10969 276646.080000
   6033   6034     1   0.10969 276646.080000
   6033   6035     1   0.10969 276646.080000
   6036   6037     1   0.10969 276646.080000
   6036   6038     1   0.10969 276646.080000
   6039   6040     1   0.10969 276646.080000
   6039   6041     1   0.10969 276646.080000
   6042   6043     1   0.10969 276646.080000
   6042   6044     1   0.10969 276646.080000
   6045   6046     1   0.10969 276646.080000
   6045   6047     1   0.10969 276646.080000
   6048   6049     1   0.10969 276646.080000
   6048   6050     1   0.10969 276646.080000
   6051   6052     1   0.10969 276646.080000
   6051   6053     1   0.10969 276646.080000
   6054   6055     1   0.10969 276646.080000
   6054   6056     1   0.10969 276646.080000
   6057   6058     1   0.10969 276646.080000
   6057   6059     1   0.10969 276646.080000
   6062   6063     1   0.10969 276646.080000
   6062   6064     1   0.10969 276646.080000
   6065   6066     1   0.10969 276646.080000
   6065   6067     1   0.10969 276646.080000
   6068   6069     1   0.10969 276646.080000
   6068   6070     1   0.10969 276646.080000
   6071   6072     1   0.10969 276646.080000
   6071   6073     1   0.10969 276646.080000
   6074   6075     1   0.10969 276646.080000
   6074   6076     1   0.10969 276646.080000
   6077   6078     1   0.10969 276646.080000
   6077   6079     1   0.10969 276646.080000
   6080   6081     1   0.10969 276646.080000
   6080   6082     1   0.10969 276646.080000
   6083   6084     1   0.10969 276646.080000
   6083   6085     1   0.10969 276646.080000
   6086   6087     1   0.10969 276646.080000
   6086   6088     1   0.10969 276646.080000
   6091   6092     1   0.10969 276646.080000
   6091   6093     1   0.10969 276646.080000
   6094   6095     1   0.10969 276646.080000
   6094   6096     1   0.10969 276646.080000
   6097   6098     1   0.10969 276646.080000
   6097   6099     1   0.10969 276646.080000
   6100   6101     1   0.10969 276646.080000
   6100   6102     1   0.10969 276646.080000
   6103   6104     1   0.10969 276646.080000
   6103   6105     1   0.10969 276646.080000
   6106   6107     1   0.10969 276646.080000
   6106   6108     1   0.10969 276646.080000
   6109   6110     1   0.10969 276646.080000
   6109   6111     1   0.10969 276646.080000
   6112   6113     1   0.10969 276646.080000
   6112   6114     1   0.10969 276646.080000
   6115   6116     1   0.10969 276646.080000
   6115   6117     1   0.10969 276646.080000
   6120   6121     1   0.10969 276646.080000
   6120   6122     1   0.10969 276646.080000
   6123   6124     1   0.10969 276646.080000
   6123   6125     1   0.10969 276646.080000
   6126   6127     1   0.10969 276646.080000
   6126   6128     1   0.10969 276646.080000
   6129   6130     1   0.10969 276646.080000
   6129   6131     1   0.10969 276646.080000
   6132   6133     1   0.10969 276646.080000
   6132   6134     1   0.10969 276646.080000
   6135   6136     1   0.10969 276646.080000
   6135   6137     1   0.10969 276646.080000
   6138   6139     1   0.10969 276646.080000
   6138   6140     1   0.10969 276646.080000
   6141   6142     1   0.10969 276646.080000
   6141   6143     1   0.10969 276646.080000
   6144   6145     1   0.10969 276646.080000
   6144   6146     1   0.10969 276646.080000
   6149   6150     1   0.10969 276646.080000
   6149   6151     1   0.10969 276646.080000
   6152   6153     1   0.10969 276646.080000
   6152   6154     1   0.10969 276646.080000
   6155   6156     1   0.10969 276646.080000
   6155   6157     1   0.10969 276646.080000
   6158   6159     1   0.10969 276646.080000
   6158   6160     1   0.10969 276646.080000
   6161   6162     1   0.10969 276646.080000
   6161   6163     1   0.10969 276646.080000
   6164   6165     1   0.10969 276646.080000
   6164   6166     1   0.10969 276646.080000
   6167   6168     1   0.10969 276646.080000
   6167   6169     1   0.10969 276646.080000
   6170   6171     1   0.10969 276646.080000
   6170   6172     1   0.10969 276646.080000
   6173   6174     1   0.10969 276646.080000
   6173   6175     1   0.10969 276646.080000
   6178   6179     1   0.10969 276646.080000
   6178   6180     1   0.10969 276646.080000
   6181   6182     1   0.10969 276646.080000
   6181   6183     1   0.10969 276646.080000
   6184   6185     1   0.10969 276646.080000
   6184   6186     1   0.10969 276646.080000
   6187   6188     1   0.10969 276646.080000
   6187   6189     1   0.10969 276646.080000
   6190   6191     1   0.10969 276646.080000
   6190   6192     1   0.10969 276646.080000
   6193   6194     1   0.10969 276646.080000
   6193   6195     1   0.10969 276646.080000
   6196   6197     1   0.10969 276646.080000
   6196   6198     1   0.10969 276646.080000
   6199   6200     1   0.10969 276646.080000
   6199   6201     1   0.10969 276646.080000
   6202   6203     1   0.10969 276646.080000
   6202   6204     1   0.10969 276646.080000
   6207   6208     1   0.10969 276646.080000
   6207   6209     1   0.10969 276646.080000
   6210   6211     1   0.10969 276646.080000
   6210   6212     1   0.10969 276646.080000
   6213   6214     1   0.10969 276646.080000
   6213   6215     1   0.10969 276646.080000
   6216   6217     1   0.10969 276646.080000
   6216   6218     1   0.10969 276646.080000
   6219   6220     1   0.10969 276646.080000
   6219   6221     1   0.10969 276646.080000
   6222   6223     1   0.10969 276646.080000
   6222   6224     1   0.10969 276646.080000
   6225   6226     1   0.10969 276646.080000
   6225   6227     1   0.10969 276646.080000
   6228   6229     1   0.10969 276646.080000
   6228   6230     1   0.10969 276646.080000
   6231   6232     1   0.10969 276646.080000
   6231   6233     1   0.10969 276646.080000
   6236   6237     1   0.10969 276646.080000
   6236   6238     1   0.10969 276646.080000
   6239   6240     1   0.10969 276646.080000
   6239   6241     1   0.10969 276646.080000
   6242   6243     1   0.10969 276646.080000
   6242   6244     1   0.10969 276646.080000
   6245   6246     1   0.10969 276646.080000
   6245   6247     1   0.10969 276646.080000
   6248   6249     1   0.10969 276646.080000
   6248   6250     1   0.10969 276646.080000
   6251   6252     1   0.10969 276646.080000
   6251   6253     1   0.10969 276646.080000
   6254   6255     1   0.10969 276646.080000
   6254   6256     1   0.10969 276646.080000
   6257   6258     1   0.10969 276646.080000
   6257   6259     1   0.10969 276646.080000
   6260   6261     1   0.10969 276646.080000
   6260   6262     1   0.10969 276646.080000
   6265   6266     1   0.10969 276646.080000
   6265   6267     1   0.10969 276646.080000
   6268   6269     1   0.10969 276646.080000
   6268   6270     1   0.10969 276646.080000
   6271   6272     1   0.10969 276646.080000
   6271   6273     1   0.10969 276646.080000
   6274   6275     1   0.10969 276646.080000
   6274   6276     1   0.10969 276646.080000
   6277   6278     1   0.10969 276646.080000
   6277   6279     1   0.10969 276646.080000
   6280   6281     1   0.10969 276646.080000
   6280   6282     1   0.10969 276646.080000
   6283   6284     1   0.10969 276646.080000
   6283   6285     1   0.10969 276646.080000
   6286   6287     1   0.10969 276646.080000
   6286   6288     1   0.10969 276646.080000
   6289   6290     1   0.10969 276646.080000
   6289   6291     1   0.10969 276646.080000
   6294   6295     1   0.10969 276646.080000
   6294   6296     1   0.10969 276646.080000
   6297   6298     1   0.10969 276646.080000
   6297   6299     1   0.10969 276646.080000
   6300   6301     1   0.10969 276646.080000
   6300   6302     1   0.10969 276646.080000
   6303   6304     1   0.10969 276646.080000
   6303   6305     1   0.10969 276646.080000
   6306   6307     1   0.10969 276646.080000
   6306   6308     1   0.10969 276646.080000
   6309   6310     1   0.10969 276646.080000
   6309   6311     1   0.10969 276646.080000
   6312   6313     1   0.10969 276646.080000
   6312   6314     1   0.10969 276646.080000
   6315   6316     1   0.10969 276646.080000
   6315   6317     1   0.10969 276646.080000
   6318   6319     1   0.10969 276646.080000
   6318   6320     1   0.10969 276646.080000
   6323   6324     1   0.10969 276646.080000
   6323   6325     1   0.10969 276646.080000
   6326   6327     1   0.10969 276646.080000
   6326   6328     1   0.10969 276646.080000
   6329   6330     1   0.10969 276646.080000
   6329   6331     1   0.10969 276646.080000
   6332   6333     1   0.10969 276646.080000
   6332   6334     1   0.10969 276646.080000
   6335   6336     1   0.10969 276646.080000
   6335   6337     1   0.10969 276646.080000
   6338   6339     1   0.10969 276646.080000
   6338   6340     1   0.10969 276646.080000
   6341   6342     1   0.10969 276646.080000
   6341   6343     1   0.10969 276646.080000
   6344   6345     1   0.10969 276646.080000
   6344   6346     1   0.10969 276646.080000
   6347   6348     1   0.10969 276646.080000
   6347   6349     1   0.10969 276646.080000
   6352   6353     1   0.10969 276646.080000
   6352   6354     1   0.10969 276646.080000
   6355   6356     1   0.10969 276646.080000
   6355   6357     1   0.10969 276646.080000
   6358   6359     1   0.10969 276646.080000
   6358   6360     1   0.10969 276646.080000
   6361   6362     1   0.10969 276646.080000
   6361   6363     1   0.10969 276646.080000
   6364   6365     1   0.10969 276646.080000
   6364   6366     1   0.10969 276646.080000
   6367   6368     1   0.10969 276646.080000
   6367   6369     1   0.10969 276646.080000
   6370   6371     1   0.10969 276646.080000
   6370   6372     1   0.10969 276646.080000
   6373   6374     1   0.10969 276646.080000
   6373   6375     1   0.10969 276646.080000
   6376   6377     1   0.10969 276646.080000
   6376   6378     1   0.10969 276646.080000
   6381   6382     1   0.10969 276646.080000
   6381   6383     1   0.10969 276646.080000
   6384   6385     1   0.10969 276646.080000
   6384   6386     1   0.10969 276646.080000
   6387   6388     1   0.10969 276646.080000
   6387   6389     1   0.10969 276646.080000
   6390   6391     1   0.10969 276646.080000
   6390   6392     1   0.10969 276646.080000
   6393   6394     1   0.10969 276646.080000
   6393   6395     1   0.10969 276646.080000
   6396   6397     1   0.10969 276646.080000
   6396   6398     1   0.10969 276646.080000
   6399   6400     1   0.10969 276646.080000
   6399   6401     1   0.10969 276646.080000
   6402   6403     1   0.10969 276646.080000
   6402   6404     1   0.10969 276646.080000
   6405   6406     1   0.10969 276646.080000
   6405   6407     1   0.10969 276646.080000
   6410   6411     1   0.10969 276646.080000
   6410   6412     1   0.10969 276646.080000
   6413   6414     1   0.10969 276646.080000
   6413   6415     1   0.10969 276646.080000
   6416   6417     1   0.10969 276646.080000
   6416   6418     1   0.10969 276646.080000
   6419   6420     1   0.10969 276646.080000
   6419   6421     1   0.10969 276646.080000
   6422   6423     1   0.10969 276646.080000
   6422   6424     1   0.10969 276646.080000
   6425   6426     1   0.10969 276646.080000
   6425   6427     1   0.10969 276646.080000
   6428   6429     1   0.10969 276646.080000
   6428   6430     1   0.10969 276646.080000
   6431   6432     1   0.10969 276646.080000
   6431   6433     1   0.10969 276646.080000
   6434   6435     1   0.10969 276646.080000
   6434   6436     1   0.10969 276646.080000
   6439   6440     1   0.10969 276646.080000
   6439   6441     1   0.10969 276646.080000
   6442   6443     1   0.10969 276646.080000
   6442   6444     1   0.10969 276646.080000
   6445   6446     1   0.10969 276646.080000
   6445   6447     1   0.10969 276646.080000
   6448   6449     1   0.10969 276646.080000
   6448   6450     1   0.10969 276646.080000
   6451   6452     1   0.10969 276646.080000
   6451   6453     1   0.10969 276646.080000
   6454   6455     1   0.10969 276646.080000
   6454   6456     1   0.10969 276646.080000
   6457   6458     1   0.10969 276646.080000
   6457   6459     1   0.10969 276646.080000
   6460   6461     1   0.10969 276646.080000
   6460   6462     1   0.10969 276646.080000
   6463   6464     1   0.10969 276646.080000
   6463   6465     1   0.10969 276646.080000
   6468   6469     1   0.10969 276646.080000
   6468   6470     1   0.10969 276646.080000
   6471   6472     1   0.10969 276646.080000
   6471   6473     1   0.10969 276646.080000
   6474   6475     1   0.10969 276646.080000
   6474   6476     1   0.10969 276646.080000
   6477   6478     1   0.10969 276646.080000
   6477   6479     1   0.10969 276646.080000
   6480   6481     1   0.10969 276646.080000
   6480   6482     1   0.10969 276646.080000
   6483   6484     1   0.10969 276646.080000
   6483   6485     1   0.10969 276646.080000
   6486   6487     1   0.10969 276646.080000
   6486   6488     1   0.10969 276646.080000
   6489   6490     1   0.10969 276646.080000
   6489   6491     1   0.10969 276646.080000
   6492   6493     1   0.10969 276646.080000
   6492   6494     1   0.10969 276646.080000
   6497   6498     1   0.10969 276646.080000
   6497   6499     1   0.10969 276646.080000
   6500   6501     1   0.10969 276646.080000
   6500   6502     1   0.10969 276646.080000
   6503   6504     1   0.10969 276646.080000
   6503   6505     1   0.10969 276646.080000
   6506   6507     1   0.10969 276646.080000
   6506   6508     1   0.10969 276646.080000
   6509   6510     1   0.10969 276646.080000
   6509   6511     1   0.10969 276646.080000
   6512   6513     1   0.10969 276646.080000
   6512   6514     1   0.10969 276646.080000
   6515   6516     1   0.10969 276646.080000
   6515   6517     1   0.10969 276646.080000
   6518   6519     1   0.10969 276646.080000
   6518   6520     1   0.10969 276646.080000
   6521   6522     1   0.10969 276646.080000
   6521   6523     1   0.10969 276646.080000
   6526   6527     1   0.10969 276646.080000
   6526   6528     1   0.10969 276646.080000
   6529   6530     1   0.10969 276646.080000
   6529   6531     1   0.10969 276646.080000
   6532   6533     1   0.10969 276646.080000
   6532   6534     1   0.10969 276646.080000
   6535   6536     1   0.10969 276646.080000
   6535   6537     1   0.10969 276646.080000
   6538   6539     1   0.10969 276646.080000
   6538   6540     1   0.10969 276646.080000
   6541   6542     1   0.10969 276646.080000
   6541   6543     1   0.10969 276646.080000
   6544   6545     1   0.10969 276646.080000
   6544   6546     1   0.10969 276646.080000
   6547   6548     1   0.10969 276646.080000
   6547   6549     1   0.10969 276646.080000
   6550   6551     1   0.10969 276646.080000
   6550   6552     1   0.10969 276646.080000
   6555   6556     1   0.10969 276646.080000
   6555   6557     1   0.10969 276646.080000
   6558   6559     1   0.10969 276646.080000
   6558   6560     1   0.10969 276646.080000
   6561   6562     1   0.10969 276646.080000
   6561   6563     1   0.10969 276646.080000
   6564   6565     1   0.10969 276646.080000
   6564   6566     1   0.10969 276646.080000
   6567   6568     1   0.10969 276646.080000
   6567   6569     1   0.10969 276646.080000
   6570   6571     1   0.10969 276646.080000
   6570   6572     1   0.10969 276646.080000
   6573   6574     1   0.10969 276646.080000
   6573   6575     1   0.10969 276646.080000
   6576   6577     1   0.10969 276646.080000
   6576   6578     1   0.10969 276646.080000
   6579   6580     1   0.10969 276646.080000
   6579   6581     1   0.10969 276646.080000
   6584   6585     1   0.10969 276646.080000
   6584   6586     1   0.10969 276646.080000
   6587   6588     1   0.10969 276646.080000
   6587   6589     1   0.10969 276646.080000
   6590   6591     1   0.10969 276646.080000
   6590   6592     1   0.10969 276646.080000
   6593   6594     1   0.10969 276646.080000
   6593   6595     1   0.10969 276646.080000
   6596   6597     1   0.10969 276646.080000
   6596   6598     1   0.10969 276646.080000
   6599   6600     1   0.10969 276646.080000
   6599   6601     1   0.10969 276646.080000
   6602   6603     1   0.10969 276646.080000
   6602   6604     1   0.10969 276646.080000
   6605   6606     1   0.10969 276646.080000
   6605   6607     1   0.10969 276646.080000
   6608   6609     1   0.10969 276646.080000
   6608   6610     1   0.10969 276646.080000
   6613   6614     1   0.10969 276646.080000
   6613   6615     1   0.10969 276646.080000
   6616   6617     1   0.10969 276646.080000
   6616   6618     1   0.10969 276646.080000
   6619   6620     1   0.10969 276646.080000
   6619   6621     1   0.10969 276646.080000
   6622   6623     1   0.10969 276646.080000
   6622   6624     1   0.10969 276646.080000
   6625   6626     1   0.10969 276646.080000
   6625   6627     1   0.10969 276646.080000
   6628   6629     1   0.10969 276646.080000
   6628   6630     1   0.10969 276646.080000
   6631   6632     1   0.10969 276646.080000
   6631   6633     1   0.10969 276646.080000
   6634   6635     1   0.10969 276646.080000
   6634   6636     1   0.10969 276646.080000
   6637   6638     1   0.10969 276646.080000
   6637   6639     1   0.10969 276646.080000
   6642   6643     1   0.10969 276646.080000
   6642   6644     1   0.10969 276646.080000
   6645   6646     1   0.10969 276646.080000
   6645   6647     1   0.10969 276646.080000
   6648   6649     1   0.10969 276646.080000
   6648   6650     1   0.10969 276646.080000
   6651   6652     1   0.10969 276646.080000
   6651   6653     1   0.10969 276646.080000
   6654   6655     1   0.10969 276646.080000
   6654   6656     1   0.10969 276646.080000
   6657   6658     1   0.10969 276646.080000
   6657   6659     1   0.10969 276646.080000
   6660   6661     1   0.10969 276646.080000
   6660   6662     1   0.10969 276646.080000
   6663   6664     1   0.10969 276646.080000
   6663   6665     1   0.10969 276646.080000
   6666   6667     1   0.10969 276646.080000
   6666   6668     1   0.10969 276646.080000
   6671   6672     1   0.10969 276646.080000
   6671   6673     1   0.10969 276646.080000
   6674   6675     1   0.10969 276646.080000
   6674   6676     1   0.10969 276646.080000
   6677   6678     1   0.10969 276646.080000
   6677   6679     1   0.10969 276646.080000
   6680   6681     1   0.10969 276646.080000
   6680   6682     1   0.10969 276646.080000
   6683   6684     1   0.10969 276646.080000
   6683   6685     1   0.10969 276646.080000
   6686   6687     1   0.10969 276646.080000
   6686   6688     1   0.10969 276646.080000
   6689   6690     1   0.10969 276646.080000
   6689   6691     1   0.10969 276646.080000
   6692   6693     1   0.10969 276646.080000
   6692   6694     1   0.10969 276646.080000
   6695   6696     1   0.10969 276646.080000
   6695   6697     1   0.10969 276646.080000
   6700   6701     1   0.10969 276646.080000
   6700   6702     1   0.10969 276646.080000
   6703   6704     1   0.10969 276646.080000
   6703   6705     1   0.10969 276646.080000
   6706   6707     1   0.10969 276646.080000
   6706   6708     1   0.10969 276646.080000
   6709   6710     1   0.10969 276646.080000
   6709   6711     1   0.10969 276646.080000
   6712   6713     1   0.10969 276646.080000
   6712   6714     1   0.10969 276646.080000
   6715   6716     1   0.10969 276646.080000
   6715   6717     1   0.10969 276646.080000
   6718   6719     1   0.10969 276646.080000
   6718   6720     1   0.10969 276646.080000
   6721   6722     1   0.10969 276646.080000
   6721   6723     1   0.10969 276646.080000
   6724   6725     1   0.10969 276646.080000
   6724   6726     1   0.10969 276646.080000
   6729   6730     1   0.10969 276646.080000
   6729   6731     1   0.10969 276646.080000
   6732   6733     1   0.10969 276646.080000
   6732   6734     1   0.10969 276646.080000
   6735   6736     1   0.10969 276646.080000
   6735   6737     1   0.10969 276646.080000
   6738   6739     1   0.10969 276646.080000
   6738   6740     1   0.10969 276646.080000
   6741   6742     1   0.10969 276646.080000
   6741   6743     1   0.10969 276646.080000
   6744   6745     1   0.10969 276646.080000
   6744   6746     1   0.10969 276646.080000
   6747   6748     1   0.10969 276646.080000
   6747   6749     1   0.10969 276646.080000
   6750   6751     1   0.10969 276646.080000
   6750   6752     1   0.10969 276646.080000
   6753   6754     1   0.10969 276646.080000
   6753   6755     1   0.10969 276646.080000
   6758   6759     1   0.10969 276646.080000
   6758   6760     1   0.10969 276646.080000
   6761   6762     1   0.10969 276646.080000
   6761   6763     1   0.10969 276646.080000
   6764   6765     1   0.10969 276646.080000
   6764   6766     1   0.10969 276646.080000
   6767   6768     1   0.10969 276646.080000
   6767   6769     1   0.10969 276646.080000
   6770   6771     1   0.10969 276646.080000
   6770   6772     1   0.10969 276646.080000
   6773   6774     1   0.10969 276646.080000
   6773   6775     1   0.10969 276646.080000
   6776   6777     1   0.10969 276646.080000
   6776   6778     1   0.10969 276646.080000
   6779   6780     1   0.10969 276646.080000
   6779   6781     1   0.10969 276646.080000
   6782   6783     1   0.10969 276646.080000
   6782   6784     1   0.10969 276646.080000
   6787   6788     1   0.10969 276646.080000
   6787   6789     1   0.10969 276646.080000
   6790   6791     1   0.10969 276646.080000
   6790   6792     1   0.10969 276646.080000
   6793   6794     1   0.10969 276646.080000
   6793   6795     1   0.10969 276646.080000
   6796   6797     1   0.10969 276646.080000
   6796   6798     1   0.10969 276646.080000
   6799   6800     1   0.10969 276646.080000
   6799   6801     1   0.10969 276646.080000
   6802   6803     1   0.10969 276646.080000
   6802   6804     1   0.10969 276646.080000
   6805   6806     1   0.10969 276646.080000
   6805   6807     1   0.10969 276646.080000
   6808   6809     1   0.10969 276646.080000
   6808   6810     1   0.10969 276646.080000
   6811   6812     1   0.10969 276646.080000
   6811   6813     1   0.10969 276646.080000
   6816   6817     1   0.10969 276646.080000
   6816   6818     1   0.10969 276646.080000
   6819   6820     1   0.10969 276646.080000
   6819   6821     1   0.10969 276646.080000
   6822   6823     1   0.10969 276646.080000
   6822   6824     1   0.10969 276646.080000
   6825   6826     1   0.10969 276646.080000
   6825   6827     1   0.10969 276646.080000
   6828   6829     1   0.10969 276646.080000
   6828   6830     1   0.10969 276646.080000
   6831   6832     1   0.10969 276646.080000
   6831   6833     1   0.10969 276646.080000
   6834   6835     1   0.10969 276646.080000
   6834   6836     1   0.10969 276646.080000
   6837   6838     1   0.10969 276646.080000
   6837   6839     1   0.10969 276646.080000
   6840   6841     1   0.10969 276646.080000
   6840   6842     1   0.10969 276646.080000
   6845   6846     1   0.10969 276646.080000
   6845   6847     1   0.10969 276646.080000
   6848   6849     1   0.10969 276646.080000
   6848   6850     1   0.10969 276646.080000
   6851   6852     1   0.10969 276646.080000
   6851   6853     1   0.10969 276646.080000
   6854   6855     1   0.10969 276646.080000
   6854   6856     1   0.10969 276646.080000
   6857   6858     1   0.10969 276646.080000
   6857   6859     1   0.10969 276646.080000
   6860   6861     1   0.10969 276646.080000
   6860   6862     1   0.10969 276646.080000
   6863   6864     1   0.10969 276646.080000
   6863   6865     1   0.10969 276646.080000
   6866   6867     1   0.10969 276646.080000
   6866   6868     1   0.10969 276646.080000
   6869   6870     1   0.10969 276646.080000
   6869   6871     1   0.10969 276646.080000
   6874   6875     1   0.10969 276646.080000
   6874   6876     1   0.10969 276646.080000
   6877   6878     1   0.10969 276646.080000
   6877   6879     1   0.10969 276646.080000
   6880   6881     1   0.10969 276646.080000
   6880   6882     1   0.10969 276646.080000
   6883   6884     1   0.10969 276646.080000
   6883   6885     1   0.10969 276646.080000
   6886   6887     1   0.10969 276646.080000
   6886   6888     1   0.10969 276646.080000
   6889   6890     1   0.10969 276646.080000
   6889   6891     1   0.10969 276646.080000
   6892   6893     1   0.10969 276646.080000
   6892   6894     1   0.10969 276646.080000
   6895   6896     1   0.10969 276646.080000
   6895   6897     1   0.10969 276646.080000
   6898   6899     1   0.10969 276646.080000
   6898   6900     1   0.10969 276646.080000
   6903   6904     1   0.10969 276646.080000
   6903   6905     1   0.10969 276646.080000
   6906   6907     1   0.10969 276646.080000
   6906   6908     1   0.10969 276646.080000
   6909   6910     1   0.10969 276646.080000
   6909   6911     1   0.10969 276646.080000
   6912   6913     1   0.10969 276646.080000
   6912   6914     1   0.10969 276646.080000
   6915   6916     1   0.10969 276646.080000
   6915   6917     1   0.10969 276646.080000
   6918   6919     1   0.10969 276646.080000
   6918   6920     1   0.10969 276646.080000
   6921   6922     1   0.10969 276646.080000
   6921   6923     1   0.10969 276646.080000
   6924   6925     1   0.10969 276646.080000
   6924   6926     1   0.10969 276646.080000
   6927   6928     1   0.10969 276646.080000
   6927   6929     1   0.10969 276646.080000
   6932   6933     1   0.10969 276646.080000
   6932   6934     1   0.10969 276646.080000
   6935   6936     1   0.10969 276646.080000
   6935   6937     1   0.10969 276646.080000
   6938   6939     1   0.10969 276646.080000
   6938   6940     1   0.10969 276646.080000
   6941   6942     1   0.10969 276646.080000
   6941   6943     1   0.10969 276646.080000
   6944   6945     1   0.10969 276646.080000
   6944   6946     1   0.10969 276646.080000
   6947   6948     1   0.10969 276646.080000
   6947   6949     1   0.10969 276646.080000
   6950   6951     1   0.10969 276646.080000
   6950   6952     1   0.10969 276646.080000
   6953   6954     1   0.10969 276646.080000
   6953   6955     1   0.10969 276646.080000
   6956   6957     1   0.10969 276646.080000
   6956   6958     1   0.10969 276646.080000
   6961   6962     1   0.10969 276646.080000
   6961   6963     1   0.10969 276646.080000
   6964   6965     1   0.10969 276646.080000
   6964   6966     1   0.10969 276646.080000
   6967   6968     1   0.10969 276646.080000
   6967   6969     1   0.10969 276646.080000
   6970   6971     1   0.10969 276646.080000
   6970   6972     1   0.10969 276646.080000
   6973   6974     1   0.10969 276646.080000
   6973   6975     1   0.10969 276646.080000
   6976   6977     1   0.10969 276646.080000
   6976   6978     1   0.10969 276646.080000
   6979   6980     1   0.10969 276646.080000
   6979   6981     1   0.10969 276646.080000
   6982   6983     1   0.10969 276646.080000
   6982   6984     1   0.10969 276646.080000
   6985   6986     1   0.10969 276646.080000
   6985   6987     1   0.10969 276646.080000
   6990   6991     1   0.10969 276646.080000
   6990   6992     1   0.10969 276646.080000
   6993   6994     1   0.10969 276646.080000
   6993   6995     1   0.10969 276646.080000
   6996   6997     1   0.10969 276646.080000
   6996   6998     1   0.10969 276646.080000
   6999   7000     1   0.10969 276646.080000
   6999   7001     1   0.10969 276646.080000
   7002   7003     1   0.10969 276646.080000
   7002   7004     1   0.10969 276646.080000
   7005   7006     1   0.10969 276646.080000
   7005   7007     1   0.10969 276646.080000
   7008   7009     1   0.10969 276646.080000
   7008   7010     1   0.10969 276646.080000
   7011   7012     1   0.10969 276646.080000
   7011   7013     1   0.10969 276646.080000
   7014   7015     1   0.10969 276646.080000
   7014   7016     1   0.10969 276646.080000
   7019   7020     1   0.10969 276646.080000
   7019   7021     1   0.10969 276646.080000
   7022   7023     1   0.10969 276646.080000
   7022   7024     1   0.10969 276646.080000
   7025   7026     1   0.10969 276646.080000
   7025   7027     1   0.10969 276646.080000
   7028   7029     1   0.10969 276646.080000
   7028   7030     1   0.10969 276646.080000
   7031   7032     1   0.10969 276646.080000
   7031   7033     1   0.10969 276646.080000
   7034   7035     1   0.10969 276646.080000
   7034   7036     1   0.10969 276646.080000
   7037   7038     1   0.10969 276646.080000
   7037   7039     1   0.10969 276646.080000
   7040   7041     1   0.10969 276646.080000
   7040   7042     1   0.10969 276646.080000
   7043   7044     1   0.10969 276646.080000
   7043   7045     1   0.10969 276646.080000
   7048   7049     1   0.10969 276646.080000
   7048   7050     1   0.10969 276646.080000
   7051   7052     1   0.10969 276646.080000
   7051   7053     1   0.10969 276646.080000
   7054   7055     1   0.10969 276646.080000
   7054   7056     1   0.10969 276646.080000
   7057   7058     1   0.10969 276646.080000
   7057   7059     1   0.10969 276646.080000
   7060   7061     1   0.10969 276646.080000
   7060   7062     1   0.10969 276646.080000
   7063   7064     1   0.10969 276646.080000
   7063   7065     1   0.10969 276646.080000
   7066   7067     1   0.10969 276646.080000
   7066   7068     1   0.10969 276646.080000
   7069   7070     1   0.10969 276646.080000
   7069   7071     1   0.10969 276646.080000
   7072   7073     1   0.10969 276646.080000
   7072   7074     1   0.10969 276646.080000
   7077   7078     1   0.10969 276646.080000
   7077   7079     1   0.10969 276646.080000
   7080   7081     1   0.10969 276646.080000
   7080   7082     1   0.10969 276646.080000
   7083   7084     1   0.10969 276646.080000
   7083   7085     1   0.10969 276646.080000
   7086   7087     1   0.10969 276646.080000
   7086   7088     1   0.10969 276646.080000
   7089   7090     1   0.10969 276646.080000
   7089   7091     1   0.10969 276646.080000
   7092   7093     1   0.10969 276646.080000
   7092   7094     1   0.10969 276646.080000
   7095   7096     1   0.10969 276646.080000
   7095   7097     1   0.10969 276646.080000
   7098   7099     1   0.10969 276646.080000
   7098   7100     1   0.10969 276646.080000
   7101   7102     1   0.10969 276646.080000
   7101   7103     1   0.10969 276646.080000
   7106   7107     1   0.10969 276646.080000
   7106   7108     1   0.10969 276646.080000
   7109   7110     1   0.10969 276646.080000
   7109   7111     1   0.10969 276646.080000
   7112   7113     1   0.10969 276646.080000
   7112   7114     1   0.10969 276646.080000
   7115   7116     1   0.10969 276646.080000
   7115   7117     1   0.10969 276646.080000
   7118   7119     1   0.10969 276646.080000
   7118   7120     1   0.10969 276646.080000
   7121   7122     1   0.10969 276646.080000
   7121   7123     1   0.10969 276646.080000
   7124   7125     1   0.10969 276646.080000
   7124   7126     1   0.10969 276646.080000
   7127   7128     1   0.10969 276646.080000
   7127   7129     1   0.10969 276646.080000
   7130   7131     1   0.10969 276646.080000
   7130   7132     1   0.10969 276646.080000
   7135   7136     1   0.10969 276646.080000
   7135   7137     1   0.10969 276646.080000
   7138   7139     1   0.10969 276646.080000
   7138   7140     1   0.10969 276646.080000
   7141   7142     1   0.10969 276646.080000
   7141   7143     1   0.10969 276646.080000
   7144   7145     1   0.10969 276646.080000
   7144   7146     1   0.10969 276646.080000
   7147   7148     1   0.10969 276646.080000
   7147   7149     1   0.10969 276646.080000
   7150   7151     1   0.10969 276646.080000
   7150   7152     1   0.10969 276646.080000
   7153   7154     1   0.10969 276646.080000
   7153   7155     1   0.10969 276646.080000
   7156   7157     1   0.10969 276646.080000
   7156   7158     1   0.10969 276646.080000
   7159   7160     1   0.10969 276646.080000
   7159   7161     1   0.10969 276646.080000
   7164   7165     1   0.10969 276646.080000
   7164   7166     1   0.10969 276646.080000
   7167   7168     1   0.10969 276646.080000
   7167   7169     1   0.10969 276646.080000
   7170   7171     1   0.10969 276646.080000
   7170   7172     1   0.10969 276646.080000
   7173   7174     1   0.10969 276646.080000
   7173   7175     1   0.10969 276646.080000
   7176   7177     1   0.10969 276646.080000
   7176   7178     1   0.10969 276646.080000
   7179   7180     1   0.10969 276646.080000
   7179   7181     1   0.10969 276646.080000
   7182   7183     1   0.10969 276646.080000
   7182   7184     1   0.10969 276646.080000
   7185   7186     1   0.10969 276646.080000
   7185   7187     1   0.10969 276646.080000
   7188   7189     1   0.10969 276646.080000
   7188   7190     1   0.10969 276646.080000
   7193   7194     1   0.10969 276646.080000
   7193   7195     1   0.10969 276646.080000
   7196   7197     1   0.10969 276646.080000
   7196   7198     1   0.10969 276646.080000
   7199   7200     1   0.10969 276646.080000
   7199   7201     1   0.10969 276646.080000
   7202   7203     1   0.10969 276646.080000
   7202   7204     1   0.10969 276646.080000
   7205   7206     1   0.10969 276646.080000
   7205   7207     1   0.10969 276646.080000
   7208   7209     1   0.10969 276646.080000
   7208   7210     1   0.10969 276646.080000
   7211   7212     1   0.10969 276646.080000
   7211   7213     1   0.10969 276646.080000
   7214   7215     1   0.10969 276646.080000
   7214   7216     1   0.10969 276646.080000
   7217   7218     1   0.10969 276646.080000
   7217   7219     1   0.10969 276646.080000
   7222   7223     1   0.10969 276646.080000
   7222   7224     1   0.10969 276646.080000
   7225   7226     1   0.10969 276646.080000
   7225   7227     1   0.10969 276646.080000
   7228   7229     1   0.10969 276646.080000
   7228   7230     1   0.10969 276646.080000
   7231   7232     1   0.10969 276646.080000
   7231   7233     1   0.10969 276646.080000
   7234   7235     1   0.10969 276646.080000
   7234   7236     1   0.10969 276646.080000
   7237   7238     1   0.10969 276646.080000
   7237   7239     1   0.10969 276646.080000
   7240   7241     1   0.10969 276646.080000
   7240   7242     1   0.10969 276646.080000
   7243   7244     1   0.10969 276646.080000
   7243   7245     1   0.10969 276646.080000
   7246   7247     1   0.10969 276646.080000
   7246   7248     1   0.10969 276646.080000
   7251   7252     1   0.10969 276646.080000
   7251   7253     1   0.10969 276646.080000
   7254   7255     1   0.10969 276646.080000
   7254   7256     1   0.10969 276646.080000
   7257   7258     1   0.10969 276646.080000
   7257   7259     1   0.10969 276646.080000
   7260   7261     1   0.10969 276646.080000
   7260   7262     1   0.10969 276646.080000
   7263   7264     1   0.10969 276646.080000
   7263   7265     1   0.10969 276646.080000
   7266   7267     1   0.10969 276646.080000
   7266   7268     1   0.10969 276646.080000
   7269   7270     1   0.10969 276646.080000
   7269   7271     1   0.10969 276646.080000
   7272   7273     1   0.10969 276646.080000
   7272   7274     1   0.10969 276646.080000
   7275   7276     1   0.10969 276646.080000
   7275   7277     1   0.10969 276646.080000
   7280   7281     1   0.10969 276646.080000
   7280   7282     1   0.10969 276646.080000
   7283   7284     1   0.10969 276646.080000
   7283   7285     1   0.10969 276646.080000
   7286   7287     1   0.10969 276646.080000
   7286   7288     1   0.10969 276646.080000
   7289   7290     1   0.10969 276646.080000
   7289   7291     1   0.10969 276646.080000
   7292   7293     1   0.10969 276646.080000
   7292   7294     1   0.10969 276646.080000
   7295   7296     1   0.10969 276646.080000
   7295   7297     1   0.10969 276646.080000
   7298   7299     1   0.10969 276646.080000
   7298   7300     1   0.10969 276646.080000
   7301   7302     1   0.10969 276646.080000
   7301   7303     1   0.10969 276646.080000
   7304   7305     1   0.10969 276646.080000
   7304   7306     1   0.10969 276646.080000
   7309   7310     1   0.10969 276646.080000
   7309   7311     1   0.10969 276646.080000
   7312   7313     1   0.10969 276646.080000
   7312   7314     1   0.10969 276646.080000
   7315   7316     1   0.10969 276646.080000
   7315   7317     1   0.10969 276646.080000
   7318   7319     1   0.10969 276646.080000
   7318   7320     1   0.10969 276646.080000
   7321   7322     1   0.10969 276646.080000
   7321   7323     1   0.10969 276646.080000
   7324   7325     1   0.10969 276646.080000
   7324   7326     1   0.10969 276646.080000
   7327   7328     1   0.10969 276646.080000
   7327   7329     1   0.10969 276646.080000
   7330   7331     1   0.10969 276646.080000
   7330   7332     1   0.10969 276646.080000
   7333   7334     1   0.10969 276646.080000
   7333   7335     1   0.10969 276646.080000
   7338   7339     1   0.10969 276646.080000
   7338   7340     1   0.10969 276646.080000
   7341   7342     1   0.10969 276646.080000
   7341   7343     1   0.10969 276646.080000
   7344   7345     1   0.10969 276646.080000
   7344   7346     1   0.10969 276646.080000
   7347   7348     1   0.10969 276646.080000
   7347   7349     1   0.10969 276646.080000
   7350   7351     1   0.10969 276646.080000
   7350   7352     1   0.10969 276646.080000
   7353   7354     1   0.10969 276646.080000
   7353   7355     1   0.10969 276646.080000
   7356   7357     1   0.10969 276646.080000
   7356   7358     1   0.10969 276646.080000
   7359   7360     1   0.10969 276646.080000
   7359   7361     1   0.10969 276646.080000
   7362   7363     1   0.10969 276646.080000
   7362   7364     1   0.10969 276646.080000
   7367   7368     1   0.10969 276646.080000
   7367   7369     1   0.10969 276646.080000
   7370   7371     1   0.10969 276646.080000
   7370   7372     1   0.10969 276646.080000
   7373   7374     1   0.10969 276646.080000
   7373   7375     1   0.10969 276646.080000
   7376   7377     1   0.10969 276646.080000
   7376   7378     1   0.10969 276646.080000
   7379   7380     1   0.10969 276646.080000
   7379   7381     1   0.10969 276646.080000
   7382   7383     1   0.10969 276646.080000
   7382   7384     1   0.10969 276646.080000
   7385   7386     1   0.10969 276646.080000
   7385   7387     1   0.10969 276646.080000
   7388   7389     1   0.10969 276646.080000
   7388   7390     1   0.10969 276646.080000
   7391   7392     1   0.10969 276646.080000
   7391   7393     1   0.10969 276646.080000
   7396   7397     1   0.10969 276646.080000
   7396   7398     1   0.10969 276646.080000
   7399   7400     1   0.10969 276646.080000
   7399   7401     1   0.10969 276646.080000
   7402   7403     1   0.10969 276646.080000
   7402   7404     1   0.10969 276646.080000
   7405   7406     1   0.10969 276646.080000
   7405   7407     1   0.10969 276646.080000
   7408   7409     1   0.10969 276646.080000
   7408   7410     1   0.10969 276646.080000
   7411   7412     1   0.10969 276646.080000
   7411   7413     1   0.10969 276646.080000
   7414   7415     1   0.10969 276646.080000
   7414   7416     1   0.10969 276646.080000
   7417   7418     1   0.10969 276646.080000
   7417   7419     1   0.10969 276646.080000
   7420   7421     1   0.10969 276646.080000
   7420   7422     1   0.10969 276646.080000
   7425   7426     1   0.10969 276646.080000
   7425   7427     1   0.10969 276646.080000
   7428   7429     1   0.10969 276646.080000
   7428   7430     1   0.10969 276646.080000
   7431   7432     1   0.10969 276646.080000
   7431   7433     1   0.10969 276646.080000
   7434   7435     1   0.10969 276646.080000
   7434   7436     1   0.10969 276646.080000
   7437   7438     1   0.10969 276646.080000
   7437   7439     1   0.10969 276646.080000
   7440   7441     1   0.10969 276646.080000
   7440   7442     1   0.10969 276646.080000
   7443   7444     1   0.10969 276646.080000
   7443   7445     1   0.10969 276646.080000
   7446   7447     1   0.10969 276646.080000
   7446   7448     1   0.10969 276646.080000
   7449   7450     1   0.10969 276646.080000
   7449   7451     1   0.10969 276646.080000
   7454   7455     1   0.10969 276646.080000
   7454   7456     1   0.10969 276646.080000
   7457   7458     1   0.10969 276646.080000
   7457   7459     1   0.10969 276646.080000
   7460   7461     1   0.10969 276646.080000
   7460   7462     1   0.10969 276646.080000
   7463   7464     1   0.10969 276646.080000
   7463   7465     1   0.10969 276646.080000
   7466   7467     1   0.10969 276646.080000
   7466   7468     1   0.10969 276646.080000
   7469   7470     1   0.10969 276646.080000
   7469   7471     1   0.10969 276646.080000
   7472   7473     1   0.10969 276646.080000
   7472   7474     1   0.10969 276646.080000
   7475   7476     1   0.10969 276646.080000
   7475   7477     1   0.10969 276646.080000
   7478   7479     1   0.10969 276646.080000
   7478   7480     1   0.10969 276646.080000
   7483   7484     1   0.10969 276646.080000
   7483   7485     1   0.10969 276646.080000
   7486   7487     1   0.10969 276646.080000
   7486   7488     1   0.10969 276646.080000
   7489   7490     1   0.10969 276646.080000
   7489   7491     1   0.10969 276646.080000
   7492   7493     1   0.10969 276646.080000
   7492   7494     1   0.10969 276646.080000
   7495   7496     1   0.10969 276646.080000
   7495   7497     1   0.10969 276646.080000
   7498   7499     1   0.10969 276646.080000
   7498   7500     1   0.10969 276646.080000
   7501   7502     1   0.10969 276646.080000
   7501   7503     1   0.10969 276646.080000
   7504   7505     1   0.10969 276646.080000
   7504   7506     1   0.10969 276646.080000
   7507   7508     1   0.10969 276646.080000
   7507   7509     1   0.10969 276646.080000
   7512   7513     1   0.10969 276646.080000
   7512   7514     1   0.10969 276646.080000
   7515   7516     1   0.10969 276646.080000
   7515   7517     1   0.10969 276646.080000
   7518   7519     1   0.10969 276646.080000
   7518   7520     1   0.10969 276646.080000
   7521   7522     1   0.10969 276646.080000
   7521   7523     1   0.10969 276646.080000
   7524   7525     1   0.10969 276646.080000
   7524   7526     1   0.10969 276646.080000
   7527   7528     1   0.10969 276646.080000
   7527   7529     1   0.10969 276646.080000
   7530   7531     1   0.10969 276646.080000
   7530   7532     1   0.10969 276646.080000
   7533   7534     1   0.10969 276646.080000
   7533   7535     1   0.10969 276646.080000
   7536   7537     1   0.10969 276646.080000
   7536   7538     1   0.10969 276646.080000
   7541   7542     1   0.10969 276646.080000
   7541   7543     1   0.10969 276646.080000
   7544   7545     1   0.10969 276646.080000
   7544   7546     1   0.10969 276646.080000
   7547   7548     1   0.10969 276646.080000
   7547   7549     1   0.10969 276646.080000
   7550   7551     1   0.10969 276646.080000
   7550   7552     1   0.10969 276646.080000
   7553   7554     1   0.10969 276646.080000
   7553   7555     1   0.10969 276646.080000
   7556   7557     1   0.10969 276646.080000
   7556   7558     1   0.10969 276646.080000
   7559   7560     1   0.10969 276646.080000
   7559   7561     1   0.10969 276646.080000
   7562   7563     1   0.10969 276646.080000
   7562   7564     1   0.10969 276646.080000
   7565   7566     1   0.10969 276646.080000
   7565   7567     1   0.10969 276646.080000
   7570   7571     1   0.10969 276646.080000
   7570   7572     1   0.10969 276646.080000
   7573   7574     1   0.10969 276646.080000
   7573   7575     1   0.10969 276646.080000
   7576   7577     1   0.10969 276646.080000
   7576   7578     1   0.10969 276646.080000
   7579   7580     1   0.10969 276646.080000
   7579   7581     1   0.10969 276646.080000
   7582   7583     1   0.10969 276646.080000
   7582   7584     1   0.10969 276646.080000
   7585   7586     1   0.10969 276646.080000
   7585   7587     1   0.10969 276646.080000
   7588   7589     1   0.10969 276646.080000
   7588   7590     1   0.10969 276646.080000
   7591   7592     1   0.10969 276646.080000
   7591   7593     1   0.10969 276646.080000
   7594   7595     1   0.10969 276646.080000
   7594   7596     1   0.10969 276646.080000
   7599   7600     1   0.10969 276646.080000
   7599   7601     1   0.10969 276646.080000
   7602   7603     1   0.10969 276646.080000
   7602   7604     1   0.10969 276646.080000
   7605   7606     1   0.10969 276646.080000
   7605   7607     1   0.10969 276646.080000
   7608   7609     1   0.10969 276646.080000
   7608   7610     1   0.10969 276646.080000
   7611   7612     1   0.10969 276646.080000
   7611   7613     1   0.10969 276646.080000
   7614   7615     1   0.10969 276646.080000
   7614   7616     1   0.10969 276646.080000
   7617   7618     1   0.10969 276646.080000
   7617   7619     1   0.10969 276646.080000
   7620   7621     1   0.10969 276646.080000
   7620   7622     1   0.10969 276646.080000
   7623   7624     1   0.10969 276646.080000
   7623   7625     1   0.10969 276646.080000
   7628   7629     1   0.10969 276646.080000
   7628   7630     1   0.10969 276646.080000
   7631   7632     1   0.10969 276646.080000
   7631   7633     1   0.10969 276646.080000
   7634   7635     1   0.10969 276646.080000
   7634   7636     1   0.10969 276646.080000
   7637   7638     1   0.10969 276646.080000
   7637   7639     1   0.10969 276646.080000
   7640   7641     1   0.10969 276646.080000
   7640   7642     1   0.10969 276646.080000
   7643   7644     1   0.10969 276646.080000
   7643   7645     1   0.10969 276646.080000
   7646   7647     1   0.10969 276646.080000
   7646   7648     1   0.10969 276646.080000
   7649   7650     1   0.10969 276646.080000
   7649   7651     1   0.10969 276646.080000
   7652   7653     1   0.10969 276646.080000
   7652   7654     1   0.10969 276646.080000
   7657   7658     1   0.10969 276646.080000
   7657   7659     1   0.10969 276646.080000
   7660   7661     1   0.10969 276646.080000
   7660   7662     1   0.10969 276646.080000
   7663   7664     1   0.10969 276646.080000
   7663   7665     1   0.10969 276646.080000
   7666   7667     1   0.10969 276646.080000
   7666   7668     1   0.10969 276646.080000
   7669   7670     1   0.10969 276646.080000
   7669   7671     1   0.10969 276646.080000
   7672   7673     1   0.10969 276646.080000
   7672   7674     1   0.10969 276646.080000
   7675   7676     1   0.10969 276646.080000
   7675   7677     1   0.10969 276646.080000
   7678   7679     1   0.10969 276646.080000
   7678   7680     1   0.10969 276646.080000
   7681   7682     1   0.10969 276646.080000
   7681   7683     1   0.10969 276646.080000
   7686   7687     1   0.10969 276646.080000
   7686   7688     1   0.10969 276646.080000
   7689   7690     1   0.10969 276646.080000
   7689   7691     1   0.10969 276646.080000
   7692   7693     1   0.10969 276646.080000
   7692   7694     1   0.10969 276646.080000
   7695   7696     1   0.10969 276646.080000
   7695   7697     1   0.10969 276646.080000
   7698   7699     1   0.10969 276646.080000
   7698   7700     1   0.10969 276646.080000
   7701   7702     1   0.10969 276646.080000
   7701   7703     1   0.10969 276646.080000
   7704   7705     1   0.10969 276646.080000
   7704   7706     1   0.10969 276646.080000
   7707   7708     1   0.10969 276646.080000
   7707   7709     1   0.10969 276646.080000
   7710   7711     1   0.10969 276646.080000
   7710   7712     1   0.10969 276646.080000
   7715   7716     1   0.10969 276646.080000
   7715   7717     1   0.10969 276646.080000
   7718   7719     1   0.10969 276646.080000
   7718   7720     1   0.10969 276646.080000
   7721   7722     1   0.10969 276646.080000
   7721   7723     1   0.10969 276646.080000
   7724   7725     1   0.10969 276646.080000
   7724   7726     1   0.10969 276646.080000
   7727   7728     1   0.10969 276646.080000
   7727   7729     1   0.10969 276646.080000
   7730   7731     1   0.10969 276646.080000
   7730   7732     1   0.10969 276646.080000
   7733   7734     1   0.10969 276646.080000
   7733   7735     1   0.10969 276646.080000
   7736   7737     1   0.10969 276646.080000
   7736   7738     1   0.10969 276646.080000
   7739   7740     1   0.10969 276646.080000
   7739   7741     1   0.10969 276646.080000
   7744   7745     1   0.10969 276646.080000
   7744   7746     1   0.10969 276646.080000
   7747   7748     1   0.10969 276646.080000
   7747   7749     1   0.10969 276646.080000
   7750   7751     1   0.10969 276646.080000
   7750   7752     1   0.10969 276646.080000
   7753   7754     1   0.10969 276646.080000
   7753   7755     1   0.10969 276646.080000
   7756   7757     1   0.10969 276646.080000
   7756   7758     1   0.10969 276646.080000
   7759   7760     1   0.10969 276646.080000
   7759   7761     1   0.10969 276646.080000
   7762   7763     1   0.10969 276646.080000
   7762   7764     1   0.10969 276646.080000
   7765   7766     1   0.10969 276646.080000
   7765   7767     1   0.10969 276646.080000
   7768   7769     1   0.10969 276646.080000
   7768   7770     1   0.10969 276646.080000
   7773   7774     1   0.10969 276646.080000
   7773   7775     1   0.10969 276646.080000
   7776   7777     1   0.10969 276646.080000
   7776   7778     1   0.10969 276646.080000
   7779   7780     1   0.10969 276646.080000
   7779   7781     1   0.10969 276646.080000
   7782   7783     1   0.10969 276646.080000
   7782   7784     1   0.10969 276646.080000
   7785   7786     1   0.10969 276646.080000
   7785   7787     1   0.10969 276646.080000
   7788   7789     1   0.10969 276646.080000
   7788   7790     1   0.10969 276646.080000
   7791   7792     1   0.10969 276646.080000
   7791   7793     1   0.10969 276646.080000
   7794   7795     1   0.10969 276646.080000
   7794   7796     1   0.10969 276646.080000
   7797   7798     1   0.10969 276646.080000
   7797   7799     1   0.10969 276646.080000
   7802   7803     1   0.10969 276646.080000
   7802   7804     1   0.10969 276646.080000
   7805   7806     1   0.10969 276646.080000
   7805   7807     1   0.10969 276646.080000
   7808   7809     1   0.10969 276646.080000
   7808   7810     1   0.10969 276646.080000
   7811   7812     1   0.10969 276646.080000
   7811   7813     1   0.10969 276646.080000
   7814   7815     1   0.10969 276646.080000
   7814   7816     1   0.10969 276646.080000
   7817   7818     1   0.10969 276646.080000
   7817   7819     1   0.10969 276646.080000
   7820   7821     1   0.10969 276646.080000
   7820   7822     1   0.10969 276646.080000
   7823   7824     1   0.10969 276646.080000
   7823   7825     1   0.10969 276646.080000
   7826   7827     1   0.10969 276646.080000
   7826   7828     1   0.10969 276646.080000
   7831   7832     1   0.10969 276646.080000
   7831   7833     1   0.10969 276646.080000
   7834   7835     1   0.10969 276646.080000
   7834   7836     1   0.10969 276646.080000
   7837   7838     1   0.10969 276646.080000
   7837   7839     1   0.10969 276646.080000
   7840   7841     1   0.10969 276646.080000
   7840   7842     1   0.10969 276646.080000
   7843   7844     1   0.10969 276646.080000
   7843   7845     1   0.10969 276646.080000
   7846   7847     1   0.10969 276646.080000
   7846   7848     1   0.10969 276646.080000
   7849   7850     1   0.10969 276646.080000
   7849   7851     1   0.10969 276646.080000
   7852   7853     1   0.10969 276646.080000
   7852   7854     1   0.10969 276646.080000
   7855   7856     1   0.10969 276646.080000
   7855   7857     1   0.10969 276646.080000
   7860   7861     1   0.10969 276646.080000
   7860   7862     1   0.10969 276646.080000
   7863   7864     1   0.10969 276646.080000
   7863   7865     1   0.10969 276646.080000
   7866   7867     1   0.10969 276646.080000
   7866   7868     1   0.10969 276646.080000
   7869   7870     1   0.10969 276646.080000
   7869   7871     1   0.10969 276646.080000
   7872   7873     1   0.10969 276646.080000
   7872   7874     1   0.10969 276646.080000
   7875   7876     1   0.10969 276646.080000
   7875   7877     1   0.10969 276646.080000
   7878   7879     1   0.10969 276646.080000
   7878   7880     1   0.10969 276646.080000
   7881   7882     1   0.10969 276646.080000
   7881   7883     1   0.10969 276646.080000
   7884   7885     1   0.10969 276646.080000
   7884   7886     1   0.10969 276646.080000
   7889   7890     1   0.10969 276646.080000
   7889   7891     1   0.10969 276646.080000
   7892   7893     1   0.10969 276646.080000
   7892   7894     1   0.10969 276646.080000
   7895   7896     1   0.10969 276646.080000
   7895   7897     1   0.10969 276646.080000
   7898   7899     1   0.10969 276646.080000
   7898   7900     1   0.10969 276646.080000
   7901   7902     1   0.10969 276646.080000
   7901   7903     1   0.10969 276646.080000
   7904   7905     1   0.10969 276646.080000
   7904   7906     1   0.10969 276646.080000
   7907   7908     1   0.10969 276646.080000
   7907   7909     1   0.10969 276646.080000
   7910   7911     1   0.10969 276646.080000
   7910   7912     1   0.10969 276646.080000
   7913   7914     1   0.10969 276646.080000
   7913   7915     1   0.10969 276646.080000
   7918   7919     1   0.10969 276646.080000
   7918   7920     1   0.10969 276646.080000
   7921   7922     1   0.10969 276646.080000
   7921   7923     1   0.10969 276646.080000
   7924   7925     1   0.10969 276646.080000
   7924   7926     1   0.10969 276646.080000
   7927   7928     1   0.10969 276646.080000
   7927   7929     1   0.10969 276646.080000
   7930   7931     1   0.10969 276646.080000
   7930   7932     1   0.10969 276646.080000
   7933   7934     1   0.10969 276646.080000
   7933   7935     1   0.10969 276646.080000
   7936   7937     1   0.10969 276646.080000
   7936   7938     1   0.10969 276646.080000
   7939   7940     1   0.10969 276646.080000
   7939   7941     1   0.10969 276646.080000
   7942   7943     1   0.10969 276646.080000
   7942   7944     1   0.10969 276646.080000
   7947   7948     1   0.10969 276646.080000
   7947   7949     1   0.10969 276646.080000
   7950   7951     1   0.10969 276646.080000
   7950   7952     1   0.10969 276646.080000
   7953   7954     1   0.10969 276646.080000
   7953   7955     1   0.10969 276646.080000
   7956   7957     1   0.10969 276646.080000
   7956   7958     1   0.10969 276646.080000
   7959   7960     1   0.10969 276646.080000
   7959   7961     1   0.10969 276646.080000
   7962   7963     1   0.10969 276646.080000
   7962   7964     1   0.10969 276646.080000
   7965   7966     1   0.10969 276646.080000
   7965   7967     1   0.10969 276646.080000
   7968   7969     1   0.10969 276646.080000
   7968   7970     1   0.10969 276646.080000
   7971   7972     1   0.10969 276646.080000
   7971   7973     1   0.10969 276646.080000
   7976   7977     1   0.10969 276646.080000
   7976   7978     1   0.10969 276646.080000
   7979   7980     1   0.10969 276646.080000
   7979   7981     1   0.10969 276646.080000
   7982   7983     1   0.10969 276646.080000
   7982   7984     1   0.10969 276646.080000
   7985   7986     1   0.10969 276646.080000
   7985   7987     1   0.10969 276646.080000
   7988   7989     1   0.10969 276646.080000
   7988   7990     1   0.10969 276646.080000
   7991   7992     1   0.10969 276646.080000
   7991   7993     1   0.10969 276646.080000
   7994   7995     1   0.10969 276646.080000
   7994   7996     1   0.10969 276646.080000
   7997   7998     1   0.10969 276646.080000
   7997   7999     1   0.10969 276646.080000
   8000   8001     1   0.10969 276646.080000
   8000   8002     1   0.10969 276646.080000
   8005   8006     1   0.10969 276646.080000
   8005   8007     1   0.10969 276646.080000
   8008   8009     1   0.10969 276646.080000
   8008   8010     1   0.10969 276646.080000
   8011   8012     1   0.10969 276646.080000
   8011   8013     1   0.10969 276646.080000
   8014   8015     1   0.10969 276646.080000
   8014   8016     1   0.10969 276646.080000
   8017   8018     1   0.10969 276646.080000
   8017   8019     1   0.10969 276646.080000
   8020   8021     1   0.10969 276646.080000
   8020   8022     1   0.10969 276646.080000
   8023   8024     1   0.10969 276646.080000
   8023   8025     1   0.10969 276646.080000
   8026   8027     1   0.10969 276646.080000
   8026   8028     1   0.10969 276646.080000
   8029   8030     1   0.10969 276646.080000
   8029   8031     1   0.10969 276646.080000
   8034   8035     1   0.10969 276646.080000
   8034   8036     1   0.10969 276646.080000
   8037   8038     1   0.10969 276646.080000
   8037   8039     1   0.10969 276646.080000
   8040   8041     1   0.10969 276646.080000
   8040   8042     1   0.10969 276646.080000
   8043   8044     1   0.10969 276646.080000
   8043   8045     1   0.10969 276646.080000
   8046   8047     1   0.10969 276646.080000
   8046   8048     1   0.10969 276646.080000
   8049   8050     1   0.10969 276646.080000
   8049   8051     1   0.10969 276646.080000
   8052   8053     1   0.10969 276646.080000
   8052   8054     1   0.10969 276646.080000
   8055   8056     1   0.10969 276646.080000
   8055   8057     1   0.10969 276646.080000
   8058   8059     1   0.10969 276646.080000
   8058   8060     1   0.10969 276646.080000
   8063   8064     1   0.10969 276646.080000
   8063   8065     1   0.10969 276646.080000
   8066   8067     1   0.10969 276646.080000
   8066   8068     1   0.10969 276646.080000
   8069   8070     1   0.10969 276646.080000
   8069   8071     1   0.10969 276646.080000
   8072   8073     1   0.10969 276646.080000
   8072   8074     1   0.10969 276646.080000
   8075   8076     1   0.10969 276646.080000
   8075   8077     1   0.10969 276646.080000
   8078   8079     1   0.10969 276646.080000
   8078   8080     1   0.10969 276646.080000
   8081   8082     1   0.10969 276646.080000
   8081   8083     1   0.10969 276646.080000
   8084   8085     1   0.10969 276646.080000
   8084   8086     1   0.10969 276646.080000
   8087   8088     1   0.10969 276646.080000
   8087   8089     1   0.10969 276646.080000
   8092   8093     1   0.10969 276646.080000
   8092   8094     1   0.10969 276646.080000
   8095   8096     1   0.10969 276646.080000
   8095   8097     1   0.10969 276646.080000
   8098   8099     1   0.10969 276646.080000
   8098   8100     1   0.10969 276646.080000
   8101   8102     1   0.10969 276646.080000
   8101   8103     1   0.10969 276646.080000
   8104   8105     1   0.10969 276646.080000
   8104   8106     1   0.10969 276646.080000
   8107   8108     1   0.10969 276646.080000
   8107   8109     1   0.10969 276646.080000
   8110   8111     1   0.10969 276646.080000
   8110   8112     1   0.10969 276646.080000
   8113   8114     1   0.10969 276646.080000
   8113   8115     1   0.10969 276646.080000
   8116   8117     1   0.10969 276646.080000
   8116   8118     1   0.10969 276646.080000
   8121   8122     1   0.10969 276646.080000
   8121   8123     1   0.10969 276646.080000
   8124   8125     1   0.10969 276646.080000
   8124   8126     1   0.10969 276646.080000
   8127   8128     1   0.10969 276646.080000
   8127   8129     1   0.10969 276646.080000
   8130   8131     1   0.10969 276646.080000
   8130   8132     1   0.10969 276646.080000
   8133   8134     1   0.10969 276646.080000
   8133   8135     1   0.10969 276646.080000
   8136   8137     1   0.10969 276646.080000
   8136   8138     1   0.10969 276646.080000
   8139   8140     1   0.10969 276646.080000
   8139   8141     1   0.10969 276646.080000
   8142   8143     1   0.10969 276646.080000
   8142   8144     1   0.10969 276646.080000
   8145   8146     1   0.10969 276646.080000
   8145   8147     1   0.10969 276646.080000
   8150   8151     1   0.10969 276646.080000
   8150   8152     1   0.10969 276646.080000
   8153   8154     1   0.10969 276646.080000
   8153   8155     1   0.10969 276646.080000
   8156   8157     1   0.10969 276646.080000
   8156   8158     1   0.10969 276646.080000
   8159   8160     1   0.10969 276646.080000
   8159   8161     1   0.10969 276646.080000
   8162   8163     1   0.10969 276646.080000
   8162   8164     1   0.10969 276646.080000
   8165   8166     1   0.10969 276646.080000
   8165   8167     1   0.10969 276646.080000
   8168   8169     1   0.10969 276646.080000
   8168   8170     1   0.10969 276646.080000
   8171   8172     1   0.10969 276646.080000
   8171   8173     1   0.10969 276646.080000
   8174   8175     1   0.10969 276646.080000
   8174   8176     1   0.10969 276646.080000
   8179   8180     1   0.10969 276646.080000
   8179   8181     1   0.10969 276646.080000
   8182   8183     1   0.10969 276646.080000
   8182   8184     1   0.10969 276646.080000
   8185   8186     1   0.10969 276646.080000
   8185   8187     1   0.10969 276646.080000
   8188   8189     1   0.10969 276646.080000
   8188   8190     1   0.10969 276646.080000
   8191   8192     1   0.10969 276646.080000
   8191   8193     1   0.10969 276646.080000
   8194   8195     1   0.10969 276646.080000
   8194   8196     1   0.10969 276646.080000
   8197   8198     1   0.10969 276646.080000
   8197   8199     1   0.10969 276646.080000
   8200   8201     1   0.10969 276646.080000
   8200   8202     1   0.10969 276646.080000
   8203   8204     1   0.10969 276646.080000
   8203   8205     1   0.10969 276646.080000
   8208   8209     1   0.10969 276646.080000
   8208   8210     1   0.10969 276646.080000
   8211   8212     1   0.10969 276646.080000
   8211   8213     1   0.10969 276646.080000
   8214   8215     1   0.10969 276646.080000
   8214   8216     1   0.10969 276646.080000
   8217   8218     1   0.10969 276646.080000
   8217   8219     1   0.10969 276646.080000
   8220   8221     1   0.10969 276646.080000
   8220   8222     1   0.10969 276646.080000
   8223   8224     1   0.10969 276646.080000
   8223   8225     1   0.10969 276646.080000
   8226   8227     1   0.10969 276646.080000
   8226   8228     1   0.10969 276646.080000
   8229   8230     1   0.10969 276646.080000
   8229   8231     1   0.10969 276646.080000
   8232   8233     1   0.10969 276646.080000
   8232   8234     1   0.10969 276646.080000
   8237   8238     1   0.10969 276646.080000
   8237   8239     1   0.10969 276646.080000
   8240   8241     1   0.10969 276646.080000
   8240   8242     1   0.10969 276646.080000
   8243   8244     1   0.10969 276646.080000
   8243   8245     1   0.10969 276646.080000
   8246   8247     1   0.10969 276646.080000
   8246   8248     1   0.10969 276646.080000
   8249   8250     1   0.10969 276646.080000
   8249   8251     1   0.10969 276646.080000
   8252   8253     1   0.10969 276646.080000
   8252   8254     1   0.10969 276646.080000
   8255   8256     1   0.10969 276646.080000
   8255   8257     1   0.10969 276646.080000
   8258   8259     1   0.10969 276646.080000
   8258   8260     1   0.10969 276646.080000
   8261   8262     1   0.10969 276646.080000
   8261   8263     1   0.10969 276646.080000
   8266   8267     1   0.10969 276646.080000
   8266   8268     1   0.10969 276646.080000
   8269   8270     1   0.10969 276646.080000
   8269   8271     1   0.10969 276646.080000
   8272   8273     1   0.10969 276646.080000
   8272   8274     1   0.10969 276646.080000
   8275   8276     1   0.10969 276646.080000
   8275   8277     1   0.10969 276646.080000
   8278   8279     1   0.10969 276646.080000
   8278   8280     1   0.10969 276646.080000
   8281   8282     1   0.10969 276646.080000
   8281   8283     1   0.10969 276646.080000
   8284   8285     1   0.10969 276646.080000
   8284   8286     1   0.10969 276646.080000
   8287   8288     1   0.10969 276646.080000
   8287   8289     1   0.10969 276646.080000
   8290   8291     1   0.10969 276646.080000
   8290   8292     1   0.10969 276646.080000
   8295   8296     1   0.10969 276646.080000
   8295   8297     1   0.10969 276646.080000
   8298   8299     1   0.10969 276646.080000
   8298   8300     1   0.10969 276646.080000
   8301   8302     1   0.10969 276646.080000
   8301   8303     1   0.10969 276646.080000
   8304   8305     1   0.10969 276646.080000
   8304   8306     1   0.10969 276646.080000
   8307   8308     1   0.10969 276646.080000
   8307   8309     1   0.10969 276646.080000
   8310   8311     1   0.10969 276646.080000
   8310   8312     1   0.10969 276646.080000
   8313   8314     1   0.10969 276646.080000
   8313   8315     1   0.10969 276646.080000
   8316   8317     1   0.10969 276646.080000
   8316   8318     1   0.10969 276646.080000
   8319   8320     1   0.10969 276646.080000
   8319   8321     1   0.10969 276646.080000
   8324   8325     1   0.10969 276646.080000
   8324   8326     1   0.10969 276646.080000
   8327   8328     1   0.10969 276646.080000
   8327   8329     1   0.10969 276646.080000
   8330   8331     1   0.10969 276646.080000
   8330   8332     1   0.10969 276646.080000
   8333   8334     1   0.10969 276646.080000
   8333   8335     1   0.10969 276646.080000
   8336   8337     1   0.10969 276646.080000
   8336   8338     1   0.10969 276646.080000
   8339   8340     1   0.10969 276646.080000
   8339   8341     1   0.10969 276646.080000
   8342   8343     1   0.10969 276646.080000
   8342   8344     1   0.10969 276646.080000
   8345   8346     1   0.10969 276646.080000
   8345   8347     1   0.10969 276646.080000
   8348   8349     1   0.10969 276646.080000
   8348   8350     1   0.10969 276646.080000
   8353   8354     1   0.10969 276646.080000
   8353   8355     1   0.10969 276646.080000
   8356   8357     1   0.10969 276646.080000
   8356   8358     1   0.10969 276646.080000
   8359   8360     1   0.10969 276646.080000
   8359   8361     1   0.10969 276646.080000
   8362   8363     1   0.10969 276646.080000
   8362   8364     1   0.10969 276646.080000
   8365   8366     1   0.10969 276646.080000
   8365   8367     1   0.10969 276646.080000
   8368   8369     1   0.10969 276646.080000
   8368   8370     1   0.10969 276646.080000
   8371   8372     1   0.10969 276646.080000
   8371   8373     1   0.10969 276646.080000
   8374   8375     1   0.10969 276646.080000
   8374   8376     1   0.10969 276646.080000
   8377   8378     1   0.10969 276646.080000
   8377   8379     1   0.10969 276646.080000
   8382   8383     1   0.10969 276646.080000
   8382   8384     1   0.10969 276646.080000
   8385   8386     1   0.10969 276646.080000
   8385   8387     1   0.10969 276646.080000
   8388   8389     1   0.10969 276646.080000
   8388   8390     1   0.10969 276646.080000
   8391   8392     1   0.10969 276646.080000
   8391   8393     1   0.10969 276646.080000
   8394   8395     1   0.10969 276646.080000
   8394   8396     1   0.10969 276646.080000
   8397   8398     1   0.10969 276646.080000
   8397   8399     1   0.10969 276646.080000
   8400   8401     1   0.10969 276646.080000
   8400   8402     1   0.10969 276646.080000
   8403   8404     1   0.10969 276646.080000
   8403   8405     1   0.10969 276646.080000
   8406   8407     1   0.10969 276646.080000
   8406   8408     1   0.10969 276646.080000
   8411   8412     1   0.10969 276646.080000
   8411   8413     1   0.10969 276646.080000
   8414   8415     1   0.10969 276646.080000
   8414   8416     1   0.10969 276646.080000
   8417   8418     1   0.10969 276646.080000
   8417   8419     1   0.10969 276646.080000
   8420   8421     1   0.10969 276646.080000
   8420   8422     1   0.10969 276646.080000
   8423   8424     1   0.10969 276646.080000
   8423   8425     1   0.10969 276646.080000
   8426   8427     1   0.10969 276646.080000
   8426   8428     1   0.10969 276646.080000
   8429   8430     1   0.10969 276646.080000
   8429   8431     1   0.10969 276646.080000
   8432   8433     1   0.10969 276646.080000
   8432   8434     1   0.10969 276646.080000
   8435   8436     1   0.10969 276646.080000
   8435   8437     1   0.10969 276646.080000
   8440   8441     1   0.10969 276646.080000
   8440   8442     1   0.10969 276646.080000
   8443   8444     1   0.10969 276646.080000
   8443   8445     1   0.10969 276646.080000
   8446   8447     1   0.10969 276646.080000
   8446   8448     1   0.10969 276646.080000
   8449   8450     1   0.10969 276646.080000
   8449   8451     1   0.10969 276646.080000
   8452   8453     1   0.10969 276646.080000
   8452   8454     1   0.10969 276646.080000
   8455   8456     1   0.10969 276646.080000
   8455   8457     1   0.10969 276646.080000
   8458   8459     1   0.10969 276646.080000
   8458   8460     1   0.10969 276646.080000
   8461   8462     1   0.10969 276646.080000
   8461   8463     1   0.10969 276646.080000
   8464   8465     1   0.10969 276646.080000
   8464   8466     1   0.10969 276646.080000
   8469   8470     1   0.10969 276646.080000
   8469   8471     1   0.10969 276646.080000
   8472   8473     1   0.10969 276646.080000
   8472   8474     1   0.10969 276646.080000
   8475   8476     1   0.10969 276646.080000
   8475   8477     1   0.10969 276646.080000
   8478   8479     1   0.10969 276646.080000
   8478   8480     1   0.10969 276646.080000
   8481   8482     1   0.10969 276646.080000
   8481   8483     1   0.10969 276646.080000
   8484   8485     1   0.10969 276646.080000
   8484   8486     1   0.10969 276646.080000
   8487   8488     1   0.10969 276646.080000
   8487   8489     1   0.10969 276646.080000
   8490   8491     1   0.10969 276646.080000
   8490   8492     1   0.10969 276646.080000
   8493   8494     1   0.10969 276646.080000
   8493   8495     1   0.10969 276646.080000
   8498   8499     1   0.10969 276646.080000
   8498   8500     1   0.10969 276646.080000
   8501   8502     1   0.10969 276646.080000
   8501   8503     1   0.10969 276646.080000
   8504   8505     1   0.10969 276646.080000
   8504   8506     1   0.10969 276646.080000
   8507   8508     1   0.10969 276646.080000
   8507   8509     1   0.10969 276646.080000
   8510   8511     1   0.10969 276646.080000
   8510   8512     1   0.10969 276646.080000
   8513   8514     1   0.10969 276646.080000
   8513   8515     1   0.10969 276646.080000
   8516   8517     1   0.10969 276646.080000
   8516   8518     1   0.10969 276646.080000
   8519   8520     1   0.10969 276646.080000
   8519   8521     1   0.10969 276646.080000
   8522   8523     1   0.10969 276646.080000
   8522   8524     1   0.10969 276646.080000
   8527   8528     1   0.10969 276646.080000
   8527   8529     1   0.10969 276646.080000
   8530   8531     1   0.10969 276646.080000
   8530   8532     1   0.10969 276646.080000
   8533   8534     1   0.10969 276646.080000
   8533   8535     1   0.10969 276646.080000
   8536   8537     1   0.10969 276646.080000
   8536   8538     1   0.10969 276646.080000
   8539   8540     1   0.10969 276646.080000
   8539   8541     1   0.10969 276646.080000
   8542   8543     1   0.10969 276646.080000
   8542   8544     1   0.10969 276646.080000
   8545   8546     1   0.10969 276646.080000
   8545   8547     1   0.10969 276646.080000
   8548   8549     1   0.10969 276646.080000
   8548   8550     1   0.10969 276646.080000
   8551   8552     1   0.10969 276646.080000
   8551   8553     1   0.10969 276646.080000
   8556   8557     1   0.10969 276646.080000
   8556   8558     1   0.10969 276646.080000
   8559   8560     1   0.10969 276646.080000
   8559   8561     1   0.10969 276646.080000
   8562   8563     1   0.10969 276646.080000
   8562   8564     1   0.10969 276646.080000
   8565   8566     1   0.10969 276646.080000
   8565   8567     1   0.10969 276646.080000
   8568   8569     1   0.10969 276646.080000
   8568   8570     1   0.10969 276646.080000
   8571   8572     1   0.10969 276646.080000
   8571   8573     1   0.10969 276646.080000
   8574   8575     1   0.10969 276646.080000
   8574   8576     1   0.10969 276646.080000
   8577   8578     1   0.10969 276646.080000
   8577   8579     1   0.10969 276646.080000
   8580   8581     1   0.10969 276646.080000
   8580   8582     1   0.10969 276646.080000
   8585   8586     1   0.10969 276646.080000
   8585   8587     1   0.10969 276646.080000
   8588   8589     1   0.10969 276646.080000
   8588   8590     1   0.10969 276646.080000
   8591   8592     1   0.10969 276646.080000
   8591   8593     1   0.10969 276646.080000
   8594   8595     1   0.10969 276646.080000
   8594   8596     1   0.10969 276646.080000
   8597   8598     1   0.10969 276646.080000
   8597   8599     1   0.10969 276646.080000
   8600   8601     1   0.10969 276646.080000
   8600   8602     1   0.10969 276646.080000
   8603   8604     1   0.10969 276646.080000
   8603   8605     1   0.10969 276646.080000
   8606   8607     1   0.10969 276646.080000
   8606   8608     1   0.10969 276646.080000
   8609   8610     1   0.10969 276646.080000
   8609   8611     1   0.10969 276646.080000
   8614   8615     1   0.10969 276646.080000
   8614   8616     1   0.10969 276646.080000
   8617   8618     1   0.10969 276646.080000
   8617   8619     1   0.10969 276646.080000
   8620   8621     1   0.10969 276646.080000
   8620   8622     1   0.10969 276646.080000
   8623   8624     1   0.10969 276646.080000
   8623   8625     1   0.10969 276646.080000
   8626   8627     1   0.10969 276646.080000
   8626   8628     1   0.10969 276646.080000
   8629   8630     1   0.10969 276646.080000
   8629   8631     1   0.10969 276646.080000
   8632   8633     1   0.10969 276646.080000
   8632   8634     1   0.10969 276646.080000
   8635   8636     1   0.10969 276646.080000
   8635   8637     1   0.10969 276646.080000
   8638   8639     1   0.10969 276646.080000
   8638   8640     1   0.10969 276646.080000
   8643   8644     1   0.10969 276646.080000
   8643   8645     1   0.10969 276646.080000
   8646   8647     1   0.10969 276646.080000
   8646   8648     1   0.10969 276646.080000
   8649   8650     1   0.10969 276646.080000
   8649   8651     1   0.10969 276646.080000
   8652   8653     1   0.10969 276646.080000
   8652   8654     1   0.10969 276646.080000
   8655   8656     1   0.10969 276646.080000
   8655   8657     1   0.10969 276646.080000
   8658   8659     1   0.10969 276646.080000
   8658   8660     1   0.10969 276646.080000
   8661   8662     1   0.10969 276646.080000
   8661   8663     1   0.10969 276646.080000
   8664   8665     1   0.10969 276646.080000
   8664   8666     1   0.10969 276646.080000
   8667   8668     1   0.10969 276646.080000
   8667   8669     1   0.10969 276646.080000
   8672   8673     1   0.10969 276646.080000
   8672   8674     1   0.10969 276646.080000
   8675   8676     1   0.10969 276646.080000
   8675   8677     1   0.10969 276646.080000
   8678   8679     1   0.10969 276646.080000
   8678   8680     1   0.10969 276646.080000
   8681   8682     1   0.10969 276646.080000
   8681   8683     1   0.10969 276646.080000
   8684   8685     1   0.10969 276646.080000
   8684   8686     1   0.10969 276646.080000
   8687   8688     1   0.10969 276646.080000
   8687   8689     1   0.10969 276646.080000
   8690   8691     1   0.10969 276646.080000
   8690   8692     1   0.10969 276646.080000
   8693   8694     1   0.10969 276646.080000
   8693   8695     1   0.10969 276646.080000
   8696   8697     1   0.10969 276646.080000
   8696   8698     1   0.10969 276646.080000
   8701   8702     1   0.10969 276646.080000
   8701   8703     1   0.10969 276646.080000
   8704   8705     1   0.10969 276646.080000
   8704   8706     1   0.10969 276646.080000
   8707   8708     1   0.10969 276646.080000
   8707   8709     1   0.10969 276646.080000
   8710   8711     1   0.10969 276646.080000
   8710   8712     1   0.10969 276646.080000
   8713   8714     1   0.10969 276646.080000
   8713   8715     1   0.10969 276646.080000
   8716   8717     1   0.10969 276646.080000
   8716   8718     1   0.10969 276646.080000
   8719   8720     1   0.10969 276646.080000
   8719   8721     1   0.10969 276646.080000
   8722   8723     1   0.10969 276646.080000
   8722   8724     1   0.10969 276646.080000
   8725   8726     1   0.10969 276646.080000
   8725   8727     1   0.10969 276646.080000
   8730   8731     1   0.10969 276646.080000
   8730   8732     1   0.10969 276646.080000
   8733   8734     1   0.10969 276646.080000
   8733   8735     1   0.10969 276646.080000
   8736   8737     1   0.10969 276646.080000
   8736   8738     1   0.10969 276646.080000
   8739   8740     1   0.10969 276646.080000
   8739   8741     1   0.10969 276646.080000
   8742   8743     1   0.10969 276646.080000
   8742   8744     1   0.10969 276646.080000
   8745   8746     1   0.10969 276646.080000
   8745   8747     1   0.10969 276646.080000
   8748   8749     1   0.10969 276646.080000
   8748   8750     1   0.10969 276646.080000
   8751   8752     1   0.10969 276646.080000
   8751   8753     1   0.10969 276646.080000
   8754   8755     1   0.10969 276646.080000
   8754   8756     1   0.10969 276646.080000
   8759   8760     1   0.10969 276646.080000
   8759   8761     1   0.10969 276646.080000
   8762   8763     1   0.10969 276646.080000
   8762   8764     1   0.10969 276646.080000
   8765   8766     1   0.10969 276646.080000
   8765   8767     1   0.10969 276646.080000
   8768   8769     1   0.10969 276646.080000
   8768   8770     1   0.10969 276646.080000
   8771   8772     1   0.10969 276646.080000
   8771   8773     1   0.10969 276646.080000
   8774   8775     1   0.10969 276646.080000
   8774   8776     1   0.10969 276646.080000
   8777   8778     1   0.10969 276646.080000
   8777   8779     1   0.10969 276646.080000
   8780   8781     1   0.10969 276646.080000
   8780   8782     1   0.10969 276646.080000
   8783   8784     1   0.10969 276646.080000
   8783   8785     1   0.10969 276646.080000
   8788   8789     1   0.10969 276646.080000
   8788   8790     1   0.10969 276646.080000
   8791   8792     1   0.10969 276646.080000
   8791   8793     1   0.10969 276646.080000
   8794   8795     1   0.10969 276646.080000
   8794   8796     1   0.10969 276646.080000
   8797   8798     1   0.10969 276646.080000
   8797   8799     1   0.10969 276646.080000
   8800   8801     1   0.10969 276646.080000
   8800   8802     1   0.10969 276646.080000
   8803   8804     1   0.10969 276646.080000
   8803   8805     1   0.10969 276646.080000
   8806   8807     1   0.10969 276646.080000
   8806   8808     1   0.10969 276646.080000
   8809   8810     1   0.10969 276646.080000
   8809   8811     1   0.10969 276646.080000
   8812   8813     1   0.10969 276646.080000
   8812   8814     1   0.10969 276646.080000
   8817   8818     1   0.10969 276646.080000
   8817   8819     1   0.10969 276646.080000
   8820   8821     1   0.10969 276646.080000
   8820   8822     1   0.10969 276646.080000
   8823   8824     1   0.10969 276646.080000
   8823   8825     1   0.10969 276646.080000
   8826   8827     1   0.10969 276646.080000
   8826   8828     1   0.10969 276646.080000
   8829   8830     1   0.10969 276646.080000
   8829   8831     1   0.10969 276646.080000
   8832   8833     1   0.10969 276646.080000
   8832   8834     1   0.10969 276646.080000
   8835   8836     1   0.10969 276646.080000
   8835   8837     1   0.10969 276646.080000
   8838   8839     1   0.10969 276646.080000
   8838   8840     1   0.10969 276646.080000
   8841   8842     1   0.10969 276646.080000
   8841   8843     1   0.10969 276646.080000
   8846   8847     1   0.10969 276646.080000
   8846   8848     1   0.10969 276646.080000
   8849   8850     1   0.10969 276646.080000
   8849   8851     1   0.10969 276646.080000
   8852   8853     1   0.10969 276646.080000
   8852   8854     1   0.10969 276646.080000
   8855   8856     1   0.10969 276646.080000
   8855   8857     1   0.10969 276646.080000
   8858   8859     1   0.10969 276646.080000
   8858   8860     1   0.10969 276646.080000
   8861   8862     1   0.10969 276646.080000
   8861   8863     1   0.10969 276646.080000
   8864   8865     1   0.10969 276646.080000
   8864   8866     1   0.10969 276646.080000
   8867   8868     1   0.10969 276646.080000
   8867   8869     1   0.10969 276646.080000
   8870   8871     1   0.10969 276646.080000
   8870   8872     1   0.10969 276646.080000
   8875   8876     1   0.10969 276646.080000
   8875   8877     1   0.10969 276646.080000
   8878   8879     1   0.10969 276646.080000
   8878   8880     1   0.10969 276646.080000
   8881   8882     1   0.10969 276646.080000
   8881   8883     1   0.10969 276646.080000
   8884   8885     1   0.10969 276646.080000
   8884   8886     1   0.10969 276646.080000
   8887   8888     1   0.10969 276646.080000
   8887   8889     1   0.10969 276646.080000
   8890   8891     1   0.10969 276646.080000
   8890   8892     1   0.10969 276646.080000
   8893   8894     1   0.10969 276646.080000
   8893   8895     1   0.10969 276646.080000
   8896   8897     1   0.10969 276646.080000
   8896   8898     1   0.10969 276646.080000
   8899   8900     1   0.10969 276646.080000
   8899   8901     1   0.10969 276646.080000
   8904   8905     1   0.10969 276646.080000
   8904   8906     1   0.10969 276646.080000
   8907   8908     1   0.10969 276646.080000
   8907   8909     1   0.10969 276646.080000
   8910   8911     1   0.10969 276646.080000
   8910   8912     1   0.10969 276646.080000
   8913   8914     1   0.10969 276646.080000
   8913   8915     1   0.10969 276646.080000
   8916   8917     1   0.10969 276646.080000
   8916   8918     1   0.10969 276646.080000
   8919   8920     1   0.10969 276646.080000
   8919   8921     1   0.10969 276646.080000
   8922   8923     1   0.10969 276646.080000
   8922   8924     1   0.10969 276646.080000
   8925   8926     1   0.10969 276646.080000
   8925   8927     1   0.10969 276646.080000
   8928   8929     1   0.10969 276646.080000
   8928   8930     1   0.10969 276646.080000
   8933   8934     1   0.10969 276646.080000
   8933   8935     1   0.10969 276646.080000
   8936   8937     1   0.10969 276646.080000
   8936   8938     1   0.10969 276646.080000
   8939   8940     1   0.10969 276646.080000
   8939   8941     1   0.10969 276646.080000
   8942   8943     1   0.10969 276646.080000
   8942   8944     1   0.10969 276646.080000
   8945   8946     1   0.10969 276646.080000
   8945   8947     1   0.10969 276646.080000
   8948   8949     1   0.10969 276646.080000
   8948   8950     1   0.10969 276646.080000
   8951   8952     1   0.10969 276646.080000
   8951   8953     1   0.10969 276646.080000
   8954   8955     1   0.10969 276646.080000
   8954   8956     1   0.10969 276646.080000
   8957   8958     1   0.10969 276646.080000
   8957   8959     1   0.10969 276646.080000
   8962   8963     1   0.10969 276646.080000
   8962   8964     1   0.10969 276646.080000
   8965   8966     1   0.10969 276646.080000
   8965   8967     1   0.10969 276646.080000
   8968   8969     1   0.10969 276646.080000
   8968   8970     1   0.10969 276646.080000
   8971   8972     1   0.10969 276646.080000
   8971   8973     1   0.10969 276646.080000
   8974   8975     1   0.10969 276646.080000
   8974   8976     1   0.10969 276646.080000
   8977   8978     1   0.10969 276646.080000
   8977   8979     1   0.10969 276646.080000
   8980   8981     1   0.10969 276646.080000
   8980   8982     1   0.10969 276646.080000
   8983   8984     1   0.10969 276646.080000
   8983   8985     1   0.10969 276646.080000
   8986   8987     1   0.10969 276646.080000
   8986   8988     1   0.10969 276646.080000
   8991   8992     1   0.10969 276646.080000
   8991   8993     1   0.10969 276646.080000
   8994   8995     1   0.10969 276646.080000
   8994   8996     1   0.10969 276646.080000
   8997   8998     1   0.10969 276646.080000
   8997   8999     1   0.10969 276646.080000
   9000   9001     1   0.10969 276646.080000
   9000   9002     1   0.10969 276646.080000
   9003   9004     1   0.10969 276646.080000
   9003   9005     1   0.10969 276646.080000
   9006   9007     1   0.10969 276646.080000
   9006   9008     1   0.10969 276646.080000
   9009   9010     1   0.10969 276646.080000
   9009   9011     1   0.10969 276646.080000
   9012   9013     1   0.10969 276646.080000
   9012   9014     1   0.10969 276646.080000
   9015   9016     1   0.10969 276646.080000
   9015   9017     1   0.10969 276646.080000
   9020   9021     1   0.10969 276646.080000
   9020   9022     1   0.10969 276646.080000
   9023   9024     1   0.10969 276646.080000
   9023   9025     1   0.10969 276646.080000
   9026   9027     1   0.10969 276646.080000
   9026   9028     1   0.10969 276646.080000
   9029   9030     1   0.10969 276646.080000
   9029   9031     1   0.10969 276646.080000
   9032   9033     1   0.10969 276646.080000
   9032   9034     1   0.10969 276646.080000
   9035   9036     1   0.10969 276646.080000
   9035   9037     1   0.10969 276646.080000
   9038   9039     1   0.10969 276646.080000
   9038   9040     1   0.10969 276646.080000
   9041   9042     1   0.10969 276646.080000
   9041   9043     1   0.10969 276646.080000
   9044   9045     1   0.10969 276646.080000
   9044   9046     1   0.10969 276646.080000
   9049   9050     1   0.10969 276646.080000
   9049   9051     1   0.10969 276646.080000
   9052   9053     1   0.10969 276646.080000
   9052   9054     1   0.10969 276646.080000
   9055   9056     1   0.10969 276646.080000
   9055   9057     1   0.10969 276646.080000
   9058   9059     1   0.10969 276646.080000
   9058   9060     1   0.10969 276646.080000
   9061   9062     1   0.10969 276646.080000
   9061   9063     1   0.10969 276646.080000
   9064   9065     1   0.10969 276646.080000
   9064   9066     1   0.10969 276646.080000
   9067   9068     1   0.10969 276646.080000
   9067   9069     1   0.10969 276646.080000
   9070   9071     1   0.10969 276646.080000
   9070   9072     1   0.10969 276646.080000
   9073   9074     1   0.10969 276646.080000
   9073   9075     1   0.10969 276646.080000
   9078   9079     1   0.10969 276646.080000
   9078   9080     1   0.10969 276646.080000
   9081   9082     1   0.10969 276646.080000
   9081   9083     1   0.10969 276646.080000
   9084   9085     1   0.10969 276646.080000
   9084   9086     1   0.10969 276646.080000
   9087   9088     1   0.10969 276646.080000
   9087   9089     1   0.10969 276646.080000
   9090   9091     1   0.10969 276646.080000
   9090   9092     1   0.10969 276646.080000
   9093   9094     1   0.10969 276646.080000
   9093   9095     1   0.10969 276646.080000
   9096   9097     1   0.10969 276646.080000
   9096   9098     1   0.10969 276646.080000
   9099   9100     1   0.10969 276646.080000
   9099   9101     1   0.10969 276646.080000
   9102   9103     1   0.10969 276646.080000
   9102   9104     1   0.10969 276646.080000
   9107   9108     1   0.10969 276646.080000
   9107   9109     1   0.10969 276646.080000
   9110   9111     1   0.10969 276646.080000
   9110   9112     1   0.10969 276646.080000
   9113   9114     1   0.10969 276646.080000
   9113   9115     1   0.10969 276646.080000
   9116   9117     1   0.10969 276646.080000
   9116   9118     1   0.10969 276646.080000
   9119   9120     1   0.10969 276646.080000
   9119   9121     1   0.10969 276646.080000
   9122   9123     1   0.10969 276646.080000
   9122   9124     1   0.10969 276646.080000
   9125   9126     1   0.10969 276646.080000
   9125   9127     1   0.10969 276646.080000
   9128   9129     1   0.10969 276646.080000
   9128   9130     1   0.10969 276646.080000
   9131   9132     1   0.10969 276646.080000
   9131   9133     1   0.10969 276646.080000
   9136   9137     1   0.10969 276646.080000
   9136   9138     1   0.10969 276646.080000
   9139   9140     1   0.10969 276646.080000
   9139   9141     1   0.10969 276646.080000
   9142   9143     1   0.10969 276646.080000
   9142   9144     1   0.10969 276646.080000
   9145   9146     1   0.10969 276646.080000
   9145   9147     1   0.10969 276646.080000
   9148   9149     1   0.10969 276646.080000
   9148   9150     1   0.10969 276646.080000
   9151   9152     1   0.10969 276646.080000
   9151   9153     1   0.10969 276646.080000
   9154   9155     1   0.10969 276646.080000
   9154   9156     1   0.10969 276646.080000
   9157   9158     1   0.10969 276646.080000
   9157   9159     1   0.10969 276646.080000
   9160   9161     1   0.10969 276646.080000
   9160   9162     1   0.10969 276646.080000
   9165   9166     1   0.10969 276646.080000
   9165   9167     1   0.10969 276646.080000
   9168   9169     1   0.10969 276646.080000
   9168   9170     1   0.10969 276646.080000
   9171   9172     1   0.10969 276646.080000
   9171   9173     1   0.10969 276646.080000
   9174   9175     1   0.10969 276646.080000
   9174   9176     1   0.10969 276646.080000
   9177   9178     1   0.10969 276646.080000
   9177   9179     1   0.10969 276646.080000
   9180   9181     1   0.10969 276646.080000
   9180   9182     1   0.10969 276646.080000
   9183   9184     1   0.10969 276646.080000
   9183   9185     1   0.10969 276646.080000
   9186   9187     1   0.10969 276646.080000
   9186   9188     1   0.10969 276646.080000
   9189   9190     1   0.10969 276646.080000
   9189   9191     1   0.10969 276646.080000
   9194   9195     1   0.10969 276646.080000
   9194   9196     1   0.10969 276646.080000
   9197   9198     1   0.10969 276646.080000
   9197   9199     1   0.10969 276646.080000
   9200   9201     1   0.10969 276646.080000
   9200   9202     1   0.10969 276646.080000
   9203   9204     1   0.10969 276646.080000
   9203   9205     1   0.10969 276646.080000
   9206   9207     1   0.10969 276646.080000
   9206   9208     1   0.10969 276646.080000
   9209   9210     1   0.10969 276646.080000
   9209   9211     1   0.10969 276646.080000
   9212   9213     1   0.10969 276646.080000
   9212   9214     1   0.10969 276646.080000
   9215   9216     1   0.10969 276646.080000
   9215   9217     1   0.10969 276646.080000
   9218   9219     1   0.10969 276646.080000
   9218   9220     1   0.10969 276646.080000
   9223   9224     1   0.10969 276646.080000
   9223   9225     1   0.10969 276646.080000
   9226   9227     1   0.10969 276646.080000
   9226   9228     1   0.10969 276646.080000
   9229   9230     1   0.10969 276646.080000
   9229   9231     1   0.10969 276646.080000
   9232   9233     1   0.10969 276646.080000
   9232   9234     1   0.10969 276646.080000
   9235   9236     1   0.10969 276646.080000
   9235   9237     1   0.10969 276646.080000
   9238   9239     1   0.10969 276646.080000
   9238   9240     1   0.10969 276646.080000
   9241   9242     1   0.10969 276646.080000
   9241   9243     1   0.10969 276646.080000
   9244   9245     1   0.10969 276646.080000
   9244   9246     1   0.10969 276646.080000
   9247   9248     1   0.10969 276646.080000
   9247   9249     1   0.10969 276646.080000
   9252   9253     1   0.10969 276646.080000
   9252   9254     1   0.10969 276646.080000
   9255   9256     1   0.10969 276646.080000
   9255   9257     1   0.10969 276646.080000
   9258   9259     1   0.10969 276646.080000
   9258   9260     1   0.10969 276646.080000
   9261   9262     1   0.10969 276646.080000
   9261   9263     1   0.10969 276646.080000
   9264   9265     1   0.10969 276646.080000
   9264   9266     1   0.10969 276646.080000
   9267   9268     1   0.10969 276646.080000
   9267   9269     1   0.10969 276646.080000
   9270   9271     1   0.10969 276646.080000
   9270   9272     1   0.10969 276646.080000
   9273   9274     1   0.10969 276646.080000
   9273   9275     1   0.10969 276646.080000
   9276   9277     1   0.10969 276646.080000
   9276   9278     1   0.10969 276646.080000
   9281   9282     1   0.10969 276646.080000
   9281   9283     1   0.10969 276646.080000
   9284   9285     1   0.10969 276646.080000
   9284   9286     1   0.10969 276646.080000
   9287   9288     1   0.10969 276646.080000
   9287   9289     1   0.10969 276646.080000
   9290   9291     1   0.10969 276646.080000
   9290   9292     1   0.10969 276646.080000
   9293   9294     1   0.10969 276646.080000
   9293   9295     1   0.10969 276646.080000
   9296   9297     1   0.10969 276646.080000
   9296   9298     1   0.10969 276646.080000
   9299   9300     1   0.10969 276646.080000
   9299   9301     1   0.10969 276646.080000
   9302   9303     1   0.10969 276646.080000
   9302   9304     1   0.10969 276646.080000
   9305   9306     1   0.10969 276646.080000
   9305   9307     1   0.10969 276646.080000
   9310   9311     1   0.10969 276646.080000
   9310   9312     1   0.10969 276646.080000
   9313   9314     1   0.10969 276646.080000
   9313   9315     1   0.10969 276646.080000
   9316   9317     1   0.10969 276646.080000
   9316   9318     1   0.10969 276646.080000
   9319   9320     1   0.10969 276646.080000
   9319   9321     1   0.10969 276646.080000
   9322   9323     1   0.10969 276646.080000
   9322   9324     1   0.10969 276646.080000
   9325   9326     1   0.10969 276646.080000
   9325   9327     1   0.10969 276646.080000
   9328   9329     1   0.10969 276646.080000
   9328   9330     1   0.10969 276646.080000
   9331   9332     1   0.10969 276646.080000
   9331   9333     1   0.10969 276646.080000
   9334   9335     1   0.10969 276646.080000
   9334   9336     1   0.10969 276646.080000
   9339   9340     1   0.10969 276646.080000
   9339   9341     1   0.10969 276646.080000
   9342   9343     1   0.10969 276646.080000
   9342   9344     1   0.10969 276646.080000
   9345   9346     1   0.10969 276646.080000
   9345   9347     1   0.10969 276646.080000
   9348   9349     1   0.10969 276646.080000
   9348   9350     1   0.10969 276646.080000
   9351   9352     1   0.10969 276646.080000
   9351   9353     1   0.10969 276646.080000
   9354   9355     1   0.10969 276646.080000
   9354   9356     1   0.10969 276646.080000
   9357   9358     1   0.10969 276646.080000
   9357   9359     1   0.10969 276646.080000
   9360   9361     1   0.10969 276646.080000
   9360   9362     1   0.10969 276646.080000
   9363   9364     1   0.10969 276646.080000
   9363   9365     1   0.10969 276646.080000
   9368   9369     1   0.10969 276646.080000
   9368   9370     1   0.10969 276646.080000
   9371   9372     1   0.10969 276646.080000
   9371   9373     1   0.10969 276646.080000
   9374   9375     1   0.10969 276646.080000
   9374   9376     1   0.10969 276646.080000
   9377   9378     1   0.10969 276646.080000
   9377   9379     1   0.10969 276646.080000
   9380   9381     1   0.10969 276646.080000
   9380   9382     1   0.10969 276646.080000
   9383   9384     1   0.10969 276646.080000
   9383   9385     1   0.10969 276646.080000
   9386   9387     1   0.10969 276646.080000
   9386   9388     1   0.10969 276646.080000
   9389   9390     1   0.10969 276646.080000
   9389   9391     1   0.10969 276646.080000
   9392   9393     1   0.10969 276646.080000
   9392   9394     1   0.10969 276646.080000
   9397   9398     1   0.10969 276646.080000
   9397   9399     1   0.10969 276646.080000
   9400   9401     1   0.10969 276646.080000
   9400   9402     1   0.10969 276646.080000
   9403   9404     1   0.10969 276646.080000
   9403   9405     1   0.10969 276646.080000
   9406   9407     1   0.10969 276646.080000
   9406   9408     1   0.10969 276646.080000
   9409   9410     1   0.10969 276646.080000
   9409   9411     1   0.10969 276646.080000
   9412   9413     1   0.10969 276646.080000
   9412   9414     1   0.10969 276646.080000
   9415   9416     1   0.10969 276646.080000
   9415   9417     1   0.10969 276646.080000
   9418   9419     1   0.10969 276646.080000
   9418   9420     1   0.10969 276646.080000
   9421   9422     1   0.10969 276646.080000
   9421   9423     1   0.10969 276646.080000
   9426   9427     1   0.10969 276646.080000
   9426   9428     1   0.10969 276646.080000
   9429   9430     1   0.10969 276646.080000
   9429   9431     1   0.10969 276646.080000
   9432   9433     1   0.10969 276646.080000
   9432   9434     1   0.10969 276646.080000
   9435   9436     1   0.10969 276646.080000
   9435   9437     1   0.10969 276646.080000
   9438   9439     1   0.10969 276646.080000
   9438   9440     1   0.10969 276646.080000
   9441   9442     1   0.10969 276646.080000
   9441   9443     1   0.10969 276646.080000
   9444   9445     1   0.10969 276646.080000
   9444   9446     1   0.10969 276646.080000
   9447   9448     1   0.10969 276646.080000
   9447   9449     1   0.10969 276646.080000
   9450   9451     1   0.10969 276646.080000
   9450   9452     1   0.10969 276646.080000
   9455   9456     1   0.10969 276646.080000
   9455   9457     1   0.10969 276646.080000
   9458   9459     1   0.10969 276646.080000
   9458   9460     1   0.10969 276646.080000
   9461   9462     1   0.10969 276646.080000
   9461   9463     1   0.10969 276646.080000
   9464   9465     1   0.10969 276646.080000
   9464   9466     1   0.10969 276646.080000
   9467   9468     1   0.10969 276646.080000
   9467   9469     1   0.10969 276646.080000
   9470   9471     1   0.10969 276646.080000
   9470   9472     1   0.10969 276646.080000
   9473   9474     1   0.10969 276646.080000
   9473   9475     1   0.10969 276646.080000
   9476   9477     1   0.10969 276646.080000
   9476   9478     1   0.10969 276646.080000
   9479   9480     1   0.10969 276646.080000
   9479   9481     1   0.10969 276646.080000
   9484   9485     1   0.10969 276646.080000
   9484   9486     1   0.10969 276646.080000
   9487   9488     1   0.10969 276646.080000
   9487   9489     1   0.10969 276646.080000
   9490   9491     1   0.10969 276646.080000
   9490   9492     1   0.10969 276646.080000
   9493   9494     1   0.10969 276646.080000
   9493   9495     1   0.10969 276646.080000
   9496   9497     1   0.10969 276646.080000
   9496   9498     1   0.10969 276646.080000
   9499   9500     1   0.10969 276646.080000
   9499   9501     1   0.10969 276646.080000
   9502   9503     1   0.10969 276646.080000
   9502   9504     1   0.10969 276646.080000
   9505   9506     1   0.10969 276646.080000
   9505   9507     1   0.10969 276646.080000
   9508   9509     1   0.10969 276646.080000
   9508   9510     1   0.10969 276646.080000
   9513   9514     1   0.10969 276646.080000
   9513   9515     1   0.10969 276646.080000
   9516   9517     1   0.10969 276646.080000
   9516   9518     1   0.10969 276646.080000
   9519   9520     1   0.10969 276646.080000
   9519   9521     1   0.10969 276646.080000
   9522   9523     1   0.10969 276646.080000
   9522   9524     1   0.10969 276646.080000
   9525   9526     1   0.10969 276646.080000
   9525   9527     1   0.10969 276646.080000
   9528   9529     1   0.10969 276646.080000
   9528   9530     1   0.10969 276646.080000
   9531   9532     1   0.10969 276646.080000
   9531   9533     1   0.10969 276646.080000
   9534   9535     1   0.10969 276646.080000
   9534   9536     1   0.10969 276646.080000
   9537   9538     1   0.10969 276646.080000
   9537   9539     1   0.10969 276646.080000
   9542   9543     1   0.10969 276646.080000
   9542   9544     1   0.10969 276646.080000
   9545   9546     1   0.10969 276646.080000
   9545   9547     1   0.10969 276646.080000
   9548   9549     1   0.10969 276646.080000
   9548   9550     1   0.10969 276646.080000
   9551   9552     1   0.10969 276646.080000
   9551   9553     1   0.10969 276646.080000
   9554   9555     1   0.10969 276646.080000
   9554   9556     1   0.10969 276646.080000
   9557   9558     1   0.10969 276646.080000
   9557   9559     1   0.10969 276646.080000
   9560   9561     1   0.10969 276646.080000
   9560   9562     1   0.10969 276646.080000
   9563   9564     1   0.10969 276646.080000
   9563   9565     1   0.10969 276646.080000
   9566   9567     1   0.10969 276646.080000
   9566   9568     1   0.10969 276646.080000
   9571   9572     1   0.10969 276646.080000
   9571   9573     1   0.10969 276646.080000
   9574   9575     1   0.10969 276646.080000
   9574   9576     1   0.10969 276646.080000
   9577   9578     1   0.10969 276646.080000
   9577   9579     1   0.10969 276646.080000
   9580   9581     1   0.10969 276646.080000
   9580   9582     1   0.10969 276646.080000
   9583   9584     1   0.10969 276646.080000
   9583   9585     1   0.10969 276646.080000
   9586   9587     1   0.10969 276646.080000
   9586   9588     1   0.10969 276646.080000
   9589   9590     1   0.10969 276646.080000
   9589   9591     1   0.10969 276646.080000
   9592   9593     1   0.10969 276646.080000
   9592   9594     1   0.10969 276646.080000
   9595   9596     1   0.10969 276646.080000
   9595   9597     1   0.10969 276646.080000
   9600   9601     1   0.10969 276646.080000
   9600   9602     1   0.10969 276646.080000
   9603   9604     1   0.10969 276646.080000
   9603   9605     1   0.10969 276646.080000
   9606   9607     1   0.10969 276646.080000
   9606   9608     1   0.10969 276646.080000
   9609   9610     1   0.10969 276646.080000
   9609   9611     1   0.10969 276646.080000
   9612   9613     1   0.10969 276646.080000
   9612   9614     1   0.10969 276646.080000
   9615   9616     1   0.10969 276646.080000
   9615   9617     1   0.10969 276646.080000
   9618   9619     1   0.10969 276646.080000
   9618   9620     1   0.10969 276646.080000
   9621   9622     1   0.10969 276646.080000
   9621   9623     1   0.10969 276646.080000
   9624   9625     1   0.10969 276646.080000
   9624   9626     1   0.10969 276646.080000
   9629   9630     1   0.10969 276646.080000
   9629   9631     1   0.10969 276646.080000
   9632   9633     1   0.10969 276646.080000
   9632   9634     1   0.10969 276646.080000
   9635   9636     1   0.10969 276646.080000
   9635   9637     1   0.10969 276646.080000
   9638   9639     1   0.10969 276646.080000
   9638   9640     1   0.10969 276646.080000
   9641   9642     1   0.10969 276646.080000
   9641   9643     1   0.10969 276646.080000
   9644   9645     1   0.10969 276646.080000
   9644   9646     1   0.10969 276646.080000
   9647   9648     1   0.10969 276646.080000
   9647   9649     1   0.10969 276646.080000
   9650   9651     1   0.10969 276646.080000
   9650   9652     1   0.10969 276646.080000
   9653   9654     1   0.10969 276646.080000
   9653   9655     1   0.10969 276646.080000
   9658   9659     1   0.10969 276646.080000
   9658   9660     1   0.10969 276646.080000
   9661   9662     1   0.10969 276646.080000
   9661   9663     1   0.10969 276646.080000
   9664   9665     1   0.10969 276646.080000
   9664   9666     1   0.10969 276646.080000
   9667   9668     1   0.10969 276646.080000
   9667   9669     1   0.10969 276646.080000
   9670   9671     1   0.10969 276646.080000
   9670   9672     1   0.10969 276646.080000
   9673   9674     1   0.10969 276646.080000
   9673   9675     1   0.10969 276646.080000
   9676   9677     1   0.10969 276646.080000
   9676   9678     1   0.10969 276646.080000
   9679   9680     1   0.10969 276646.080000
   9679   9681     1   0.10969 276646.080000
   9682   9683     1   0.10969 276646.080000
   9682   9684     1   0.10969 276646.080000
   9687   9688     1   0.10969 276646.080000
   9687   9689     1   0.10969 276646.080000
   9690   9691     1   0.10969 276646.080000
   9690   9692     1   0.10969 276646.080000
   9693   9694     1   0.10969 276646.080000
   9693   9695     1   0.10969 276646.080000
   9696   9697     1   0.10969 276646.080000
   9696   9698     1   0.10969 276646.080000
   9699   9700     1   0.10969 276646.080000
   9699   9701     1   0.10969 276646.080000
   9702   9703     1   0.10969 276646.080000
   9702   9704     1   0.10969 276646.080000
   9705   9706     1   0.10969 276646.080000
   9705   9707     1   0.10969 276646.080000
   9708   9709     1   0.10969 276646.080000
   9708   9710     1   0.10969 276646.080000
   9711   9712     1   0.10969 276646.080000
   9711   9713     1   0.10969 276646.080000
   9716   9717     1   0.10969 276646.080000
   9716   9718     1   0.10969 276646.080000
   9719   9720     1   0.10969 276646.080000
   9719   9721     1   0.10969 276646.080000
   9722   9723     1   0.10969 276646.080000
   9722   9724     1   0.10969 276646.080000
   9725   9726     1   0.10969 276646.080000
   9725   9727     1   0.10969 276646.080000
   9728   9729     1   0.10969 276646.080000
   9728   9730     1   0.10969 276646.080000
   9731   9732     1   0.10969 276646.080000
   9731   9733     1   0.10969 276646.080000
   9734   9735     1   0.10969 276646.080000
   9734   9736     1   0.10969 276646.080000
   9737   9738     1   0.10969 276646.080000
   9737   9739     1   0.10969 276646.080000
   9740   9741     1   0.10969 276646.080000
   9740   9742     1   0.10969 276646.080000
   9745   9746     1   0.10969 276646.080000
   9745   9747     1   0.10969 276646.080000
   9748   9749     1   0.10969 276646.080000
   9748   9750     1   0.10969 276646.080000
   9751   9752     1   0.10969 276646.080000
   9751   9753     1   0.10969 276646.080000
   9754   9755     1   0.10969 276646.080000
   9754   9756     1   0.10969 276646.080000
   9757   9758     1   0.10969 276646.080000
   9757   9759     1   0.10969 276646.080000
   9760   9761     1   0.10969 276646.080000
   9760   9762     1   0.10969 276646.080000
   9763   9764     1   0.10969 276646.080000
   9763   9765     1   0.10969 276646.080000
   9766   9767     1   0.10969 276646.080000
   9766   9768     1   0.10969 276646.080000
   9769   9770     1   0.10969 276646.080000
   9769   9771     1   0.10969 276646.080000
   9774   9775     1   0.10969 276646.080000
   9774   9776     1   0.10969 276646.080000
   9777   9778     1   0.10969 276646.080000
   9777   9779     1   0.10969 276646.080000
   9780   9781     1   0.10969 276646.080000
   9780   9782     1   0.10969 276646.080000
   9783   9784     1   0.10969 276646.080000
   9783   9785     1   0.10969 276646.080000
   9786   9787     1   0.10969 276646.080000
   9786   9788     1   0.10969 276646.080000
   9789   9790     1   0.10969 276646.080000
   9789   9791     1   0.10969 276646.080000
   9792   9793     1   0.10969 276646.080000
   9792   9794     1   0.10969 276646.080000
   9795   9796     1   0.10969 276646.080000
   9795   9797     1   0.10969 276646.080000
   9798   9799     1   0.10969 276646.080000
   9798   9800     1   0.10969 276646.080000
   9803   9804     1   0.10969 276646.080000
   9803   9805     1   0.10969 276646.080000
   9806   9807     1   0.10969 276646.080000
   9806   9808     1   0.10969 276646.080000
   9809   9810     1   0.10969 276646.080000
   9809   9811     1   0.10969 276646.080000
   9812   9813     1   0.10969 276646.080000
   9812   9814     1   0.10969 276646.080000
   9815   9816     1   0.10969 276646.080000
   9815   9817     1   0.10969 276646.080000
   9818   9819     1   0.10969 276646.080000
   9818   9820     1   0.10969 276646.080000
   9821   9822     1   0.10969 276646.080000
   9821   9823     1   0.10969 276646.080000
   9824   9825     1   0.10969 276646.080000
   9824   9826     1   0.10969 276646.080000
   9827   9828     1   0.10969 276646.080000
   9827   9829     1   0.10969 276646.080000
   9832   9833     1   0.10969 276646.080000
   9832   9834     1   0.10969 276646.080000
   9835   9836     1   0.10969 276646.080000
   9835   9837     1   0.10969 276646.080000
   9838   9839     1   0.10969 276646.080000
   9838   9840     1   0.10969 276646.080000
   9841   9842     1   0.10969 276646.080000
   9841   9843     1   0.10969 276646.080000
   9844   9845     1   0.10969 276646.080000
   9844   9846     1   0.10969 276646.080000
   9847   9848     1   0.10969 276646.080000
   9847   9849     1   0.10969 276646.080000
   9850   9851     1   0.10969 276646.080000
   9850   9852     1   0.10969 276646.080000
   9853   9854     1   0.10969 276646.080000
   9853   9855     1   0.10969 276646.080000
   9856   9857     1   0.10969 276646.080000
   9856   9858     1   0.10969 276646.080000
   9861   9862     1   0.10969 276646.080000
   9861   9863     1   0.10969 276646.080000
   9864   9865     1   0.10969 276646.080000
   9864   9866     1   0.10969 276646.080000
   9867   9868     1   0.10969 276646.080000
   9867   9869     1   0.10969 276646.080000
   9870   9871     1   0.10969 276646.080000
   9870   9872     1   0.10969 276646.080000
   9873   9874     1   0.10969 276646.080000
   9873   9875     1   0.10969 276646.080000
   9876   9877     1   0.10969 276646.080000
   9876   9878     1   0.10969 276646.080000
   9879   9880     1   0.10969 276646.080000
   9879   9881     1   0.10969 276646.080000
   9882   9883     1   0.10969 276646.080000
   9882   9884     1   0.10969 276646.080000
   9885   9886     1   0.10969 276646.080000
   9885   9887     1   0.10969 276646.080000
   9890   9891     1   0.10969 276646.080000
   9890   9892     1   0.10969 276646.080000
   9893   9894     1   0.10969 276646.080000
   9893   9895     1   0.10969 276646.080000
   9896   9897     1   0.10969 276646.080000
   9896   9898     1   0.10969 276646.080000
   9899   9900     1   0.10969 276646.080000
   9899   9901     1   0.10969 276646.080000
   9902   9903     1   0.10969 276646.080000
   9902   9904     1   0.10969 276646.080000
   9905   9906     1   0.10969 276646.080000
   9905   9907     1   0.10969 276646.080000
   9908   9909     1   0.10969 276646.080000
   9908   9910     1   0.10969 276646.080000
   9911   9912     1   0.10969 276646.080000
   9911   9913     1   0.10969 276646.080000
   9914   9915     1   0.10969 276646.080000
   9914   9916     1   0.10969 276646.080000
   9919   9920     1   0.10969 276646.080000
   9919   9921     1   0.10969 276646.080000
   9922   9923     1   0.10969 276646.080000
   9922   9924     1   0.10969 276646.080000
   9925   9926     1   0.10969 276646.080000
   9925   9927     1   0.10969 276646.080000
   9928   9929     1   0.10969 276646.080000
   9928   9930     1   0.10969 276646.080000
   9931   9932     1   0.10969 276646.080000
   9931   9933     1   0.10969 276646.080000
   9934   9935     1   0.10969 276646.080000
   9934   9936     1   0.10969 276646.080000
   9937   9938     1   0.10969 276646.080000
   9937   9939     1   0.10969 276646.080000
   9940   9941     1   0.10969 276646.080000
   9940   9942     1   0.10969 276646.080000
   9943   9944     1   0.10969 276646.080000
   9943   9945     1   0.10969 276646.080000
   9948   9949     1   0.10969 276646.080000
   9948   9950     1   0.10969 276646.080000
   9951   9952     1   0.10969 276646.080000
   9951   9953     1   0.10969 276646.080000
   9954   9955     1   0.10969 276646.080000
   9954   9956     1   0.10969 276646.080000
   9957   9958     1   0.10969 276646.080000
   9957   9959     1   0.10969 276646.080000
   9960   9961     1   0.10969 276646.080000
   9960   9962     1   0.10969 276646.080000
   9963   9964     1   0.10969 276646.080000
   9963   9965     1   0.10969 276646.080000
   9966   9967     1   0.10969 276646.080000
   9966   9968     1   0.10969 276646.080000
   9969   9970     1   0.10969 276646.080000
   9969   9971     1   0.10969 276646.080000
   9972   9973     1   0.10969 276646.080000
   9972   9974     1   0.10969 276646.080000
   9977   9978     1   0.10969 276646.080000
   9977   9979     1   0.10969 276646.080000
   9980   9981     1   0.10969 276646.080000
   9980   9982     1   0.10969 276646.080000
   9983   9984     1   0.10969 276646.080000
   9983   9985     1   0.10969 276646.080000
   9986   9987     1   0.10969 276646.080000
   9986   9988     1   0.10969 276646.080000
   9989   9990     1   0.10969 276646.080000
   9989   9991     1   0.10969 276646.080000
   9992   9993     1   0.10969 276646.080000
   9992   9994     1   0.10969 276646.080000
   9995   9996     1   0.10969 276646.080000
   9995   9997     1   0.10969 276646.080000
   9998   9999     1   0.10969 276646.080000
   9998  10000     1   0.10969 276646.080000
  10001  10002     1   0.10969 276646.080000
  10001  10003     1   0.10969 276646.080000
  10006  10007     1   0.10969 276646.080000
  10006  10008     1   0.10969 276646.080000
  10009  10010     1   0.10969 276646.080000
  10009  10011     1   0.10969 276646.080000
  10012  10013     1   0.10969 276646.080000
  10012  10014     1   0.10969 276646.080000
  10015  10016     1   0.10969 276646.080000
  10015  10017     1   0.10969 276646.080000
  10018  10019     1   0.10969 276646.080000
  10018  10020     1   0.10969 276646.080000
  10021  10022     1   0.10969 276646.080000
  10021  10023     1   0.10969 276646.080000
  10024  10025     1   0.10969 276646.080000
  10024  10026     1   0.10969 276646.080000
  10027  10028     1   0.10969 276646.080000
  10027  10029     1   0.10969 276646.080000
  10030  10031     1   0.10969 276646.080000
  10030  10032     1   0.10969 276646.080000
  10035  10036     1   0.10969 276646.080000
  10035  10037     1   0.10969 276646.080000
  10038  10039     1   0.10969 276646.080000
  10038  10040     1   0.10969 276646.080000
  10041  10042     1   0.10969 276646.080000
  10041  10043     1   0.10969 276646.080000
  10044  10045     1   0.10969 276646.080000
  10044  10046     1   0.10969 276646.080000
  10047  10048     1   0.10969 276646.080000
  10047  10049     1   0.10969 276646.080000
  10050  10051     1   0.10969 276646.080000
  10050  10052     1   0.10969 276646.080000
  10053  10054     1   0.10969 276646.080000
  10053  10055     1   0.10969 276646.080000
  10056  10057     1   0.10969 276646.080000
  10056  10058     1   0.10969 276646.080000
  10059  10060     1   0.10969 276646.080000
  10059  10061     1   0.10969 276646.080000
  10064  10065     1   0.10969 276646.080000
  10064  10066     1   0.10969 276646.080000
  10067  10068     1   0.10969 276646.080000
  10067  10069     1   0.10969 276646.080000
  10070  10071     1   0.10969 276646.080000
  10070  10072     1   0.10969 276646.080000
  10073  10074     1   0.10969 276646.080000
  10073  10075     1   0.10969 276646.080000
  10076  10077     1   0.10969 276646.080000
  10076  10078     1   0.10969 276646.080000
  10079  10080     1   0.10969 276646.080000
  10079  10081     1   0.10969 276646.080000
  10082  10083     1   0.10969 276646.080000
  10082  10084     1   0.10969 276646.080000
  10085  10086     1   0.10969 276646.080000
  10085  10087     1   0.10969 276646.080000
  10088  10089     1   0.10969 276646.080000
  10088  10090     1   0.10969 276646.080000
  10093  10094     1   0.10969 276646.080000
  10093  10095     1   0.10969 276646.080000
  10096  10097     1   0.10969 276646.080000
  10096  10098     1   0.10969 276646.080000
  10099  10100     1   0.10969 276646.080000
  10099  10101     1   0.10969 276646.080000
  10102  10103     1   0.10969 276646.080000
  10102  10104     1   0.10969 276646.080000
  10105  10106     1   0.10969 276646.080000
  10105  10107     1   0.10969 276646.080000
  10108  10109     1   0.10969 276646.080000
  10108  10110     1   0.10969 276646.080000
  10111  10112     1   0.10969 276646.080000
  10111  10113     1   0.10969 276646.080000
  10114  10115     1   0.10969 276646.080000
  10114  10116     1   0.10969 276646.080000
  10117  10118     1   0.10969 276646.080000
  10117  10119     1   0.10969 276646.080000
  10122  10123     1   0.10969 276646.080000
  10122  10124     1   0.10969 276646.080000
  10125  10126     1   0.10969 276646.080000
  10125  10127     1   0.10969 276646.080000
  10128  10129     1   0.10969 276646.080000
  10128  10130     1   0.10969 276646.080000
  10131  10132     1   0.10969 276646.080000
  10131  10133     1   0.10969 276646.080000
  10134  10135     1   0.10969 276646.080000
  10134  10136     1   0.10969 276646.080000
  10137  10138     1   0.10969 276646.080000
  10137  10139     1   0.10969 276646.080000
  10140  10141     1   0.10969 276646.080000
  10140  10142     1   0.10969 276646.080000
  10143  10144     1   0.10969 276646.080000
  10143  10145     1   0.10969 276646.080000
  10146  10147     1   0.10969 276646.080000
  10146  10148     1   0.10969 276646.080000
  10151  10152     1   0.10969 276646.080000
  10151  10153     1   0.10969 276646.080000
  10154  10155     1   0.10969 276646.080000
  10154  10156     1   0.10969 276646.080000
  10157  10158     1   0.10969 276646.080000
  10157  10159     1   0.10969 276646.080000
  10160  10161     1   0.10969 276646.080000
  10160  10162     1   0.10969 276646.080000
  10163  10164     1   0.10969 276646.080000
  10163  10165     1   0.10969 276646.080000
  10166  10167     1   0.10969 276646.080000
  10166  10168     1   0.10969 276646.080000
  10169  10170     1   0.10969 276646.080000
  10169  10171     1   0.10969 276646.080000
  10172  10173     1   0.10969 276646.080000
  10172  10174     1   0.10969 276646.080000
  10175  10176     1   0.10969 276646.080000
  10175  10177     1   0.10969 276646.080000
  10180  10181     1   0.10969 276646.080000
  10180  10182     1   0.10969 276646.080000
  10183  10184     1   0.10969 276646.080000
  10183  10185     1   0.10969 276646.080000
  10186  10187     1   0.10969 276646.080000
  10186  10188     1   0.10969 276646.080000
  10189  10190     1   0.10969 276646.080000
  10189  10191     1   0.10969 276646.080000
  10192  10193     1   0.10969 276646.080000
  10192  10194     1   0.10969 276646.080000
  10195  10196     1   0.10969 276646.080000
  10195  10197     1   0.10969 276646.080000
  10198  10199     1   0.10969 276646.080000
  10198  10200     1   0.10969 276646.080000
  10201  10202     1   0.10969 276646.080000
  10201  10203     1   0.10969 276646.080000
  10204  10205     1   0.10969 276646.080000
  10204  10206     1   0.10969 276646.080000
  10209  10210     1   0.10969 276646.080000
  10209  10211     1   0.10969 276646.080000
  10212  10213     1   0.10969 276646.080000
  10212  10214     1   0.10969 276646.080000
  10215  10216     1   0.10969 276646.080000
  10215  10217     1   0.10969 276646.080000
  10218  10219     1   0.10969 276646.080000
  10218  10220     1   0.10969 276646.080000
  10221  10222     1   0.10969 276646.080000
  10221  10223     1   0.10969 276646.080000
  10224  10225     1   0.10969 276646.080000
  10224  10226     1   0.10969 276646.080000
  10227  10228     1   0.10969 276646.080000
  10227  10229     1   0.10969 276646.080000
  10230  10231     1   0.10969 276646.080000
  10230  10232     1   0.10969 276646.080000
  10233  10234     1   0.10969 276646.080000
  10233  10235     1   0.10969 276646.080000
  10238  10239     1   0.10969 276646.080000
  10238  10240     1   0.10969 276646.080000
  10241  10242     1   0.10969 276646.080000
  10241  10243     1   0.10969 276646.080000
  10244  10245     1   0.10969 276646.080000
  10244  10246     1   0.10969 276646.080000
  10247  10248     1   0.10969 276646.080000
  10247  10249     1   0.10969 276646.080000
  10250  10251     1   0.10969 276646.080000
  10250  10252     1   0.10969 276646.080000
  10253  10254     1   0.10969 276646.080000
  10253  10255     1   0.10969 276646.080000
  10256  10257     1   0.10969 276646.080000
  10256  10258     1   0.10969 276646.080000
  10259  10260     1   0.10969 276646.080000
  10259  10261     1   0.10969 276646.080000
  10262  10263     1   0.10969 276646.080000
  10262  10264     1   0.10969 276646.080000
  10267  10268     1   0.10969 276646.080000
  10267  10269     1   0.10969 276646.080000
  10270  10271     1   0.10969 276646.080000
  10270  10272     1   0.10969 276646.080000
  10273  10274     1   0.10969 276646.080000
  10273  10275     1   0.10969 276646.080000
  10276  10277     1   0.10969 276646.080000
  10276  10278     1   0.10969 276646.080000
  10279  10280     1   0.10969 276646.080000
  10279  10281     1   0.10969 276646.080000
  10282  10283     1   0.10969 276646.080000
  10282  10284     1   0.10969 276646.080000
  10285  10286     1   0.10969 276646.080000
  10285  10287     1   0.10969 276646.080000
  10288  10289     1   0.10969 276646.080000
  10288  10290     1   0.10969 276646.080000
  10291  10292     1   0.10969 276646.080000
  10291  10293     1   0.10969 276646.080000
  10296  10297     1   0.10969 276646.080000
  10296  10298     1   0.10969 276646.080000
  10299  10300     1   0.10969 276646.080000
  10299  10301     1   0.10969 276646.080000
  10302  10303     1   0.10969 276646.080000
  10302  10304     1   0.10969 276646.080000
  10305  10306     1   0.10969 276646.080000
  10305  10307     1   0.10969 276646.080000
  10308  10309     1   0.10969 276646.080000
  10308  10310     1   0.10969 276646.080000
  10311  10312     1   0.10969 276646.080000
  10311  10313     1   0.10969 276646.080000
  10314  10315     1   0.10969 276646.080000
  10314  10316     1   0.10969 276646.080000
  10317  10318     1   0.10969 276646.080000
  10317  10319     1   0.10969 276646.080000
  10320  10321     1   0.10969 276646.080000
  10320  10322     1   0.10969 276646.080000
  10325  10326     1   0.10969 276646.080000
  10325  10327     1   0.10969 276646.080000
  10328  10329     1   0.10969 276646.080000
  10328  10330     1   0.10969 276646.080000
  10331  10332     1   0.10969 276646.080000
  10331  10333     1   0.10969 276646.080000
  10334  10335     1   0.10969 276646.080000
  10334  10336     1   0.10969 276646.080000
  10337  10338     1   0.10969 276646.080000
  10337  10339     1   0.10969 276646.080000
  10340  10341     1   0.10969 276646.080000
  10340  10342     1   0.10969 276646.080000
  10343  10344     1   0.10969 276646.080000
  10343  10345     1   0.10969 276646.080000
  10346  10347     1   0.10969 276646.080000
  10346  10348     1   0.10969 276646.080000
  10349  10350     1   0.10969 276646.080000
  10349  10351     1   0.10969 276646.080000
  10354  10355     1   0.10969 276646.080000
  10354  10356     1   0.10969 276646.080000
  10357  10358     1   0.10969 276646.080000
  10357  10359     1   0.10969 276646.080000
  10360  10361     1   0.10969 276646.080000
  10360  10362     1   0.10969 276646.080000
  10363  10364     1   0.10969 276646.080000
  10363  10365     1   0.10969 276646.080000
  10366  10367     1   0.10969 276646.080000
  10366  10368     1   0.10969 276646.080000
  10369  10370     1   0.10969 276646.080000
  10369  10371     1   0.10969 276646.080000
  10372  10373     1   0.10969 276646.080000
  10372  10374     1   0.10969 276646.080000
  10375  10376     1   0.10969 276646.080000
  10375  10377     1   0.10969 276646.080000
  10378  10379     1   0.10969 276646.080000
  10378  10380     1   0.10969 276646.080000
  10383  10384     1   0.10969 276646.080000
  10383  10385     1   0.10969 276646.080000
  10386  10387     1   0.10969 276646.080000
  10386  10388     1   0.10969 276646.080000
  10389  10390     1   0.10969 276646.080000
  10389  10391     1   0.10969 276646.080000
  10392  10393     1   0.10969 276646.080000
  10392  10394     1   0.10969 276646.080000
  10395  10396     1   0.10969 276646.080000
  10395  10397     1   0.10969 276646.080000
  10398  10399     1   0.10969 276646.080000
  10398  10400     1   0.10969 276646.080000
  10401  10402     1   0.10969 276646.080000
  10401  10403     1   0.10969 276646.080000
  10404  10405     1   0.10969 276646.080000
  10404  10406     1   0.10969 276646.080000
  10407  10408     1   0.10969 276646.080000
  10407  10409     1   0.10969 276646.080000
  10412  10413     1   0.10969 276646.080000
  10412  10414     1   0.10969 276646.080000
  10415  10416     1   0.10969 276646.080000
  10415  10417     1   0.10969 276646.080000
  10418  10419     1   0.10969 276646.080000
  10418  10420     1   0.10969 276646.080000
  10421  10422     1   0.10969 276646.080000
  10421  10423     1   0.10969 276646.080000
  10424  10425     1   0.10969 276646.080000
  10424  10426     1   0.10969 276646.080000
  10427  10428     1   0.10969 276646.080000
  10427  10429     1   0.10969 276646.080000
  10430  10431     1   0.10969 276646.080000
  10430  10432     1   0.10969 276646.080000
  10433  10434     1   0.10969 276646.080000
  10433  10435     1   0.10969 276646.080000
  10436  10437     1   0.10969 276646.080000
  10436  10438     1   0.10969 276646.080000
  10441  10442     1   0.10969 276646.080000
  10441  10443     1   0.10969 276646.080000
  10444  10445     1   0.10969 276646.080000
  10444  10446     1   0.10969 276646.080000
  10447  10448     1   0.10969 276646.080000
  10447  10449     1   0.10969 276646.080000
  10450  10451     1   0.10969 276646.080000
  10450  10452     1   0.10969 276646.080000
  10453  10454     1   0.10969 276646.080000
  10453  10455     1   0.10969 276646.080000
  10456  10457     1   0.10969 276646.080000
  10456  10458     1   0.10969 276646.080000
  10459  10460     1   0.10969 276646.080000
  10459  10461     1   0.10969 276646.080000
  10462  10463     1   0.10969 276646.080000
  10462  10464     1   0.10969 276646.080000
  10465  10466     1   0.10969 276646.080000
  10465  10467     1   0.10969 276646.080000
  10470  10471     1   0.10969 276646.080000
  10470  10472     1   0.10969 276646.080000
  10473  10474     1   0.10969 276646.080000
  10473  10475     1   0.10969 276646.080000
  10476  10477     1   0.10969 276646.080000
  10476  10478     1   0.10969 276646.080000
  10479  10480     1   0.10969 276646.080000
  10479  10481     1   0.10969 276646.080000
  10482  10483     1   0.10969 276646.080000
  10482  10484     1   0.10969 276646.080000
  10485  10486     1   0.10969 276646.080000
  10485  10487     1   0.10969 276646.080000
  10488  10489     1   0.10969 276646.080000
  10488  10490     1   0.10969 276646.080000
  10491  10492     1   0.10969 276646.080000
  10491  10493     1   0.10969 276646.080000
  10494  10495     1   0.10969 276646.080000
  10494  10496     1   0.10969 276646.080000
  10499  10500     1   0.10969 276646.080000
  10499  10501     1   0.10969 276646.080000
  10502  10503     1   0.10969 276646.080000
  10502  10504     1   0.10969 276646.080000
  10505  10506     1   0.10969 276646.080000
  10505  10507     1   0.10969 276646.080000
  10508  10509     1   0.10969 276646.080000
  10508  10510     1   0.10969 276646.080000
  10511  10512     1   0.10969 276646.080000
  10511  10513     1   0.10969 276646.080000
  10514  10515     1   0.10969 276646.080000
  10514  10516     1   0.10969 276646.080000
  10517  10518     1   0.10969 276646.080000
  10517  10519     1   0.10969 276646.080000
  10520  10521     1   0.10969 276646.080000
  10520  10522     1   0.10969 276646.080000
  10523  10524     1   0.10969 276646.080000
  10523  10525     1   0.10969 276646.080000
  10528  10529     1   0.10969 276646.080000
  10528  10530     1   0.10969 276646.080000
  10531  10532     1   0.10969 276646.080000
  10531  10533     1   0.10969 276646.080000
  10534  10535     1   0.10969 276646.080000
  10534  10536     1   0.10969 276646.080000
  10537  10538     1   0.10969 276646.080000
  10537  10539     1   0.10969 276646.080000
  10540  10541     1   0.10969 276646.080000
  10540  10542     1   0.10969 276646.080000
  10543  10544     1   0.10969 276646.080000
  10543  10545     1   0.10969 276646.080000
  10546  10547     1   0.10969 276646.080000
  10546  10548     1   0.10969 276646.080000
  10549  10550     1   0.10969 276646.080000
  10549  10551     1   0.10969 276646.080000
  10552  10553     1   0.10969 276646.080000
  10552  10554     1   0.10969 276646.080000
  10557  10558     1   0.10969 276646.080000
  10557  10559     1   0.10969 276646.080000
  10560  10561     1   0.10969 276646.080000
  10560  10562     1   0.10969 276646.080000
  10563  10564     1   0.10969 276646.080000
  10563  10565     1   0.10969 276646.080000
  10566  10567     1   0.10969 276646.080000
  10566  10568     1   0.10969 276646.080000
  10569  10570     1   0.10969 276646.080000
  10569  10571     1   0.10969 276646.080000
  10572  10573     1   0.10969 276646.080000
  10572  10574     1   0.10969 276646.080000
  10575  10576     1   0.10969 276646.080000
  10575  10577     1   0.10969 276646.080000
  10578  10579     1   0.10969 276646.080000
  10578  10580     1   0.10969 276646.080000
  10581  10582     1   0.10969 276646.080000
  10581  10583     1   0.10969 276646.080000
  10586  10587     1   0.10969 276646.080000
  10586  10588     1   0.10969 276646.080000
  10589  10590     1   0.10969 276646.080000
  10589  10591     1   0.10969 276646.080000
  10592  10593     1   0.10969 276646.080000
  10592  10594     1   0.10969 276646.080000
  10595  10596     1   0.10969 276646.080000
  10595  10597     1   0.10969 276646.080000
  10598  10599     1   0.10969 276646.080000
  10598  10600     1   0.10969 276646.080000
  10601  10602     1   0.10969 276646.080000
  10601  10603     1   0.10969 276646.080000
  10604  10605     1   0.10969 276646.080000
  10604  10606     1   0.10969 276646.080000
  10607  10608     1   0.10969 276646.080000
  10607  10609     1   0.10969 276646.080000
  10610  10611     1   0.10969 276646.080000
  10610  10612     1   0.10969 276646.080000
  10615  10616     1   0.10969 276646.080000
  10615  10617     1   0.10969 276646.080000
  10618  10619     1   0.10969 276646.080000
  10618  10620     1   0.10969 276646.080000
  10621  10622     1   0.10969 276646.080000
  10621  10623     1   0.10969 276646.080000
  10624  10625     1   0.10969 276646.080000
  10624  10626     1   0.10969 276646.080000
  10627  10628     1   0.10969 276646.080000
  10627  10629     1   0.10969 276646.080000
  10630  10631     1   0.10969 276646.080000
  10630  10632     1   0.10969 276646.080000
  10633  10634     1   0.10969 276646.080000
  10633  10635     1   0.10969 276646.080000
  10636  10637     1   0.10969 276646.080000
  10636  10638     1   0.10969 276646.080000
  10639  10640     1   0.10969 276646.080000
  10639  10641     1   0.10969 276646.080000
  10644  10645     1   0.10969 276646.080000
  10644  10646     1   0.10969 276646.080000
  10647  10648     1   0.10969 276646.080000
  10647  10649     1   0.10969 276646.080000
  10650  10651     1   0.10969 276646.080000
  10650  10652     1   0.10969 276646.080000
  10653  10654     1   0.10969 276646.080000
  10653  10655     1   0.10969 276646.080000
  10656  10657     1   0.10969 276646.080000
  10656  10658     1   0.10969 276646.080000
  10659  10660     1   0.10969 276646.080000
  10659  10661     1   0.10969 276646.080000
  10662  10663     1   0.10969 276646.080000
  10662  10664     1   0.10969 276646.080000
  10665  10666     1   0.10969 276646.080000
  10665  10667     1   0.10969 276646.080000
  10668  10669     1   0.10969 276646.080000
  10668  10670     1   0.10969 276646.080000
  10673  10674     1   0.10969 276646.080000
  10673  10675     1   0.10969 276646.080000
  10676  10677     1   0.10969 276646.080000
  10676  10678     1   0.10969 276646.080000
  10679  10680     1   0.10969 276646.080000
  10679  10681     1   0.10969 276646.080000
  10682  10683     1   0.10969 276646.080000
  10682  10684     1   0.10969 276646.080000
  10685  10686     1   0.10969 276646.080000
  10685  10687     1   0.10969 276646.080000
  10688  10689     1   0.10969 276646.080000
  10688  10690     1   0.10969 276646.080000
  10691  10692     1   0.10969 276646.080000
  10691  10693     1   0.10969 276646.080000
  10694  10695     1   0.10969 276646.080000
  10694  10696     1   0.10969 276646.080000
  10697  10698     1   0.10969 276646.080000
  10697  10699     1   0.10969 276646.080000
  10702  10703     1   0.10969 276646.080000
  10702  10704     1   0.10969 276646.080000
  10705  10706     1   0.10969 276646.080000
  10705  10707     1   0.10969 276646.080000
  10708  10709     1   0.10969 276646.080000
  10708  10710     1   0.10969 276646.080000
  10711  10712     1   0.10969 276646.080000
  10711  10713     1   0.10969 276646.080000
  10714  10715     1   0.10969 276646.080000
  10714  10716     1   0.10969 276646.080000
  10717  10718     1   0.10969 276646.080000
  10717  10719     1   0.10969 276646.080000
  10720  10721     1   0.10969 276646.080000
  10720  10722     1   0.10969 276646.080000
  10723  10724     1   0.10969 276646.080000
  10723  10725     1   0.10969 276646.080000
  10726  10727     1   0.10969 276646.080000
  10726  10728     1   0.10969 276646.080000
  10731  10732     1   0.10969 276646.080000
  10731  10733     1   0.10969 276646.080000
  10734  10735     1   0.10969 276646.080000
  10734  10736     1   0.10969 276646.080000
  10737  10738     1   0.10969 276646.080000
  10737  10739     1   0.10969 276646.080000
  10740  10741     1   0.10969 276646.080000
  10740  10742     1   0.10969 276646.080000
  10743  10744     1   0.10969 276646.080000
  10743  10745     1   0.10969 276646.080000
  10746  10747     1   0.10969 276646.080000
  10746  10748     1   0.10969 276646.080000
  10749  10750     1   0.10969 276646.080000
  10749  10751     1   0.10969 276646.080000
  10752  10753     1   0.10969 276646.080000
  10752  10754     1   0.10969 276646.080000
  10755  10756     1   0.10969 276646.080000
  10755  10757     1   0.10969 276646.080000
  10760  10761     1   0.10969 276646.080000
  10760  10762     1   0.10969 276646.080000
  10763  10764     1   0.10969 276646.080000
  10763  10765     1   0.10969 276646.080000
  10766  10767     1   0.10969 276646.080000
  10766  10768     1   0.10969 276646.080000
  10769  10770     1   0.10969 276646.080000
  10769  10771     1   0.10969 276646.080000
  10772  10773     1   0.10969 276646.080000
  10772  10774     1   0.10969 276646.080000
  10775  10776     1   0.10969 276646.080000
  10775  10777     1   0.10969 276646.080000
  10778  10779     1   0.10969 276646.080000
  10778  10780     1   0.10969 276646.080000
  10781  10782     1   0.10969 276646.080000
  10781  10783     1   0.10969 276646.080000
  10784  10785     1   0.10969 276646.080000
  10784  10786     1   0.10969 276646.080000
  10789  10790     1   0.10969 276646.080000
  10789  10791     1   0.10969 276646.080000
  10792  10793     1   0.10969 276646.080000
  10792  10794     1   0.10969 276646.080000
  10795  10796     1   0.10969 276646.080000
  10795  10797     1   0.10969 276646.080000
  10798  10799     1   0.10969 276646.080000
  10798  10800     1   0.10969 276646.080000
  10801  10802     1   0.10969 276646.080000
  10801  10803     1   0.10969 276646.080000
  10804  10805     1   0.10969 276646.080000
  10804  10806     1   0.10969 276646.080000
  10807  10808     1   0.10969 276646.080000
  10807  10809     1   0.10969 276646.080000
  10810  10811     1   0.10969 276646.080000
  10810  10812     1   0.10969 276646.080000
  10813  10814     1   0.10969 276646.080000
  10813  10815     1   0.10969 276646.080000
  10818  10819     1   0.10969 276646.080000
  10818  10820     1   0.10969 276646.080000
  10821  10822     1   0.10969 276646.080000
  10821  10823     1   0.10969 276646.080000
  10824  10825     1   0.10969 276646.080000
  10824  10826     1   0.10969 276646.080000
  10827  10828     1   0.10969 276646.080000
  10827  10829     1   0.10969 276646.080000
  10830  10831     1   0.10969 276646.080000
  10830  10832     1   0.10969 276646.080000
  10833  10834     1   0.10969 276646.080000
  10833  10835     1   0.10969 276646.080000
  10836  10837     1   0.10969 276646.080000
  10836  10838     1   0.10969 276646.080000
  10839  10840     1   0.10969 276646.080000
  10839  10841     1   0.10969 276646.080000
  10842  10843     1   0.10969 276646.080000
  10842  10844     1   0.10969 276646.080000
  10847  10848     1   0.10969 276646.080000
  10847  10849     1   0.10969 276646.080000
  10850  10851     1   0.10969 276646.080000
  10850  10852     1   0.10969 276646.080000
  10853  10854     1   0.10969 276646.080000
  10853  10855     1   0.10969 276646.080000
  10856  10857     1   0.10969 276646.080000
  10856  10858     1   0.10969 276646.080000
  10859  10860     1   0.10969 276646.080000
  10859  10861     1   0.10969 276646.080000
  10862  10863     1   0.10969 276646.080000
  10862  10864     1   0.10969 276646.080000
  10865  10866     1   0.10969 276646.080000
  10865  10867     1   0.10969 276646.080000
  10868  10869     1   0.10969 276646.080000
  10868  10870     1   0.10969 276646.080000
  10871  10872     1   0.10969 276646.080000
  10871  10873     1   0.10969 276646.080000
  10876  10877     1   0.10969 276646.080000
  10876  10878     1   0.10969 276646.080000
  10879  10880     1   0.10969 276646.080000
  10879  10881     1   0.10969 276646.080000
  10882  10883     1   0.10969 276646.080000
  10882  10884     1   0.10969 276646.080000
  10885  10886     1   0.10969 276646.080000
  10885  10887     1   0.10969 276646.080000
  10888  10889     1   0.10969 276646.080000
  10888  10890     1   0.10969 276646.080000
  10891  10892     1   0.10969 276646.080000
  10891  10893     1   0.10969 276646.080000
  10894  10895     1   0.10969 276646.080000
  10894  10896     1   0.10969 276646.080000
  10897  10898     1   0.10969 276646.080000
  10897  10899     1   0.10969 276646.080000
  10900  10901     1   0.10969 276646.080000
  10900  10902     1   0.10969 276646.080000
  10905  10906     1   0.10969 276646.080000
  10905  10907     1   0.10969 276646.080000
  10908  10909     1   0.10969 276646.080000
  10908  10910     1   0.10969 276646.080000
  10911  10912     1   0.10969 276646.080000
  10911  10913     1   0.10969 276646.080000
  10914  10915     1   0.10969 276646.080000
  10914  10916     1   0.10969 276646.080000
  10917  10918     1   0.10969 276646.080000
  10917  10919     1   0.10969 276646.080000
  10920  10921     1   0.10969 276646.080000
  10920  10922     1   0.10969 276646.080000
  10923  10924     1   0.10969 276646.080000
  10923  10925     1   0.10969 276646.080000
  10926  10927     1   0.10969 276646.080000
  10926  10928     1   0.10969 276646.080000
  10929  10930     1   0.10969 276646.080000
  10929  10931     1   0.10969 276646.080000
  10934  10935     1   0.10969 276646.080000
  10934  10936     1   0.10969 276646.080000
  10937  10938     1   0.10969 276646.080000
  10937  10939     1   0.10969 276646.080000
  10940  10941     1   0.10969 276646.080000
  10940  10942     1   0.10969 276646.080000
  10943  10944     1   0.10969 276646.080000
  10943  10945     1   0.10969 276646.080000
  10946  10947     1   0.10969 276646.080000
  10946  10948     1   0.10969 276646.080000
  10949  10950     1   0.10969 276646.080000
  10949  10951     1   0.10969 276646.080000
  10952  10953     1   0.10969 276646.080000
  10952  10954     1   0.10969 276646.080000
  10955  10956     1   0.10969 276646.080000
  10955  10957     1   0.10969 276646.080000
  10958  10959     1   0.10969 276646.080000
  10958  10960     1   0.10969 276646.080000
  10963  10964     1   0.10969 276646.080000
  10963  10965     1   0.10969 276646.080000
  10966  10967     1   0.10969 276646.080000
  10966  10968     1   0.10969 276646.080000
  10969  10970     1   0.10969 276646.080000
  10969  10971     1   0.10969 276646.080000
  10972  10973     1   0.10969 276646.080000
  10972  10974     1   0.10969 276646.080000
  10975  10976     1   0.10969 276646.080000
  10975  10977     1   0.10969 276646.080000
  10978  10979     1   0.10969 276646.080000
  10978  10980     1   0.10969 276646.080000
  10981  10982     1   0.10969 276646.080000
  10981  10983     1   0.10969 276646.080000
  10984  10985     1   0.10969 276646.080000
  10984  10986     1   0.10969 276646.080000
  10987  10988     1   0.10969 276646.080000
  10987  10989     1   0.10969 276646.080000
  10992  10993     1   0.10969 276646.080000
  10992  10994     1   0.10969 276646.080000
  10995  10996     1   0.10969 276646.080000
  10995  10997     1   0.10969 276646.080000
  10998  10999     1   0.10969 276646.080000
  10998  11000     1   0.10969 276646.080000
  11001  11002     1   0.10969 276646.080000
  11001  11003     1   0.10969 276646.080000
  11004  11005     1   0.10969 276646.080000
  11004  11006     1   0.10969 276646.080000
  11007  11008     1   0.10969 276646.080000
  11007  11009     1   0.10969 276646.080000
  11010  11011     1   0.10969 276646.080000
  11010  11012     1   0.10969 276646.080000
  11013  11014     1   0.10969 276646.080000
  11013  11015     1   0.10969 276646.080000
  11016  11017     1   0.10969 276646.080000
  11016  11018     1   0.10969 276646.080000
  11021  11022     1   0.10969 276646.080000
  11021  11023     1   0.10969 276646.080000
  11024  11025     1   0.10969 276646.080000
  11024  11026     1   0.10969 276646.080000
  11027  11028     1   0.10969 276646.080000
  11027  11029     1   0.10969 276646.080000
  11030  11031     1   0.10969 276646.080000
  11030  11032     1   0.10969 276646.080000
  11033  11034     1   0.10969 276646.080000
  11033  11035     1   0.10969 276646.080000
  11036  11037     1   0.10969 276646.080000
  11036  11038     1   0.10969 276646.080000
  11039  11040     1   0.10969 276646.080000
  11039  11041     1   0.10969 276646.080000
  11042  11043     1   0.10969 276646.080000
  11042  11044     1   0.10969 276646.080000
  11045  11046     1   0.10969 276646.080000
  11045  11047     1   0.10969 276646.080000
  11050  11051     1   0.10969 276646.080000
  11050  11052     1   0.10969 276646.080000
  11053  11054     1   0.10969 276646.080000
  11053  11055     1   0.10969 276646.080000
  11056  11057     1   0.10969 276646.080000
  11056  11058     1   0.10969 276646.080000
  11059  11060     1   0.10969 276646.080000
  11059  11061     1   0.10969 276646.080000
  11062  11063     1   0.10969 276646.080000
  11062  11064     1   0.10969 276646.080000
  11065  11066     1   0.10969 276646.080000
  11065  11067     1   0.10969 276646.080000
  11068  11069     1   0.10969 276646.080000
  11068  11070     1   0.10969 276646.080000
  11071  11072     1   0.10969 276646.080000
  11071  11073     1   0.10969 276646.080000
  11074  11075     1   0.10969 276646.080000
  11074  11076     1   0.10969 276646.080000
  11078  11080     1   0.10969 276646.080000
  11079  11081     1   0.10969 276646.080000
  11082  11086     1   0.10969 276646.080000
  11083  11085     1   0.10969 276646.080000
  11084  11087     1   0.10961 277566.560000
  11089  11095     1   0.09730 310787.520000
  11090  11093     1   0.09730 310787.520000
  11091  11094     1   0.09730 310787.520000
  11092  11096     1   0.10969 276646.080000
  11092  11097     1   0.10969 276646.080000
  11098  11099     1   0.09730 310787.520000
  11101  11103     1   0.10969 276646.080000
  11102  11104     1   0.10969 276646.080000
  11105  11109     1   0.10969 276646.080000
  11106  11108     1   0.10969 276646.080000
  11107  11110     1   0.10961 277566.560000
  11112  11118     1   0.09730 310787.520000
  11113  11116     1   0.09730 310787.520000
  11114  11117     1   0.09730 310787.520000
  11115  11119     1   0.10969 276646.080000
  11115  11120     1   0.10969 276646.080000
  11121  11122     1   0.09730 310787.520000
  11124  11126     1   0.10969 276646.080000
  11125  11127     1   0.10969 276646.080000
  11128  11132     1   0.10969 276646.080000
  11129  11131     1   0.10969 276646.080000
  11130  11133     1   0.10961 277566.560000
  11135  11141     1   0.09730 310787.520000
  11136  11139     1   0.09730 310787.520000
  11137  11140     1   0.09730 310787.520000
  11138  11142     1   0.10969 276646.080000
  11138  11143     1   0.10969 276646.080000
  11144  11145     1   0.09730 310787.520000
  11147  11149     1   0.10969 276646.080000
  11148  11150     1   0.10969 276646.080000
  11151  11155     1   0.10969 276646.080000
  11152  11154     1   0.10969 276646.080000
  11153  11156     1   0.10961 277566.560000
  11158  11164     1   0.09730 310787.520000
  11159  11162     1   0.09730 310787.520000
  11160  11163     1   0.09730 310787.520000
  11161  11165     1   0.10969 276646.080000
  11161  11166     1   0.10969 276646.080000
  11167  11168     1   0.09730 310787.520000
  11170  11172     1   0.10969 276646.080000
  11171  11173     1   0.10969 276646.080000
  11174  11178     1   0.10969 276646.080000
  11175  11177     1   0.10969 276646.080000
  11176  11179     1   0.10961 277566.560000
  11181  11187     1   0.09730 310787.520000
  11182  11185     1   0.09730 310787.520000
  11183  11186     1   0.09730 310787.520000
  11184  11188     1   0.10969 276646.080000
  11184  11189     1   0.10969 276646.080000
  11190  11191     1   0.09730 310787.520000
  11193  11195     1   0.10969 276646.080000
  11194  11196     1   0.10969 276646.080000
  11197  11201     1   0.10969 276646.080000
  11198  11200     1   0.10969 276646.080000
  11199  11202     1   0.10961 277566.560000
  11204  11210     1   0.09730 310787.520000
  11205  11208     1   0.09730 310787.520000
  11206  11209     1   0.09730 310787.520000
  11207  11211     1   0.10969 276646.080000
  11207  11212     1   0.10969 276646.080000
  11213  11214     1   0.09730 310787.520000
  11216  11218     1   0.10969 276646.080000
  11217  11219     1   0.10969 276646.080000
  11220  11224     1   0.10969 276646.080000
  11221  11223     1   0.10969 276646.080000
  11222  11225     1   0.10961 277566.560000
  11227  11233     1   0.09730 310787.520000
  11228  11231     1   0.09730 310787.520000
  11229  11232     1   0.09730 310787.520000
  11230  11234     1   0.10969 276646.080000
  11230  11235     1   0.10969 276646.080000
  11236  11237     1   0.09730 310787.520000
  11239  11241     1   0.10969 276646.080000
  11240  11242     1   0.10969 276646.080000
  11243  11247     1   0.10969 276646.080000
  11244  11246     1   0.10969 276646.080000
  11245  11248     1   0.10961 277566.560000
  11250  11256     1   0.09730 310787.520000
  11251  11254     1   0.09730 310787.520000
  11252  11255     1   0.09730 310787.520000
  11253  11257     1   0.10969 276646.080000
  11253  11258     1   0.10969 276646.080000
  11259  11260     1   0.09730 310787.520000
  11262  11264     1   0.10969 276646.080000
  11263  11265     1   0.10969 276646.080000
  11266  11270     1   0.10969 276646.080000
  11267  11269     1   0.10969 276646.080000
  11268  11271     1   0.10961 277566.560000
  11273  11279     1   0.09730 310787.520000
  11274  11277     1   0.09730 310787.520000
  11275  11278     1   0.09730 310787.520000
  11276  11280     1   0.10969 276646.080000
  11276  11281     1   0.10969 276646.080000
  11282  11283     1   0.09730 310787.520000
  11285  11287     1   0.10969 276646.080000
  11286  11288     1   0.10969 276646.080000
  11289  11293     1   0.10969 276646.080000
  11290  11292     1   0.10969 276646.080000
  11291  11294     1   0.10961 277566.560000
  11296  11302     1   0.09730 310787.520000
  11297  11300     1   0.09730 310787.520000
  11298  11301     1   0.09730 310787.520000
  11299  11303     1   0.10969 276646.080000
  11299  11304     1   0.10969 276646.080000
  11305  11306     1   0.09730 310787.520000
  11308  11310     1   0.10969 276646.080000
  11309  11311     1   0.10969 276646.080000
  11312  11316     1   0.10969 276646.080000
  11313  11315     1   0.10969 276646.080000
  11314  11317     1   0.10961 277566.560000
  11319  11325     1   0.09730 310787.520000
  11320  11323     1   0.09730 310787.520000
  11321  11324     1   0.09730 310787.520000
  11322  11326     1   0.10969 276646.080000
  11322  11327     1   0.10969 276646.080000
  11328  11329     1   0.09730 310787.520000
  11331  11333     1   0.10969 276646.080000
  11332  11334     1   0.10969 276646.080000
  11335  11339     1   0.10969 276646.080000
  11336  11338     1   0.10969 276646.080000
  11337  11340     1   0.10961 277566.560000
  11342  11348     1   0.09730 310787.520000
  11343  11346     1   0.09730 310787.520000
  11344  11347     1   0.09730 310787.520000
  11345  11349     1   0.10969 276646.080000
  11345  11350     1   0.10969 276646.080000
  11351  11352     1   0.09730 310787.520000
  11354  11356     1   0.10969 276646.080000
  11355  11357     1   0.10969 276646.080000
  11358  11362     1   0.10969 276646.080000
  11359  11361     1   0.10969 276646.080000
  11360  11363     1   0.10961 277566.560000
  11365  11371     1   0.09730 310787.520000
  11366  11369     1   0.09730 310787.520000
  11367  11370     1   0.09730 310787.520000
  11368  11372     1   0.10969 276646.080000
  11368  11373     1   0.10969 276646.080000
  11374  11375     1   0.09730 310787.520000
  11377  11379     1   0.10969 276646.080000
  11378  11380     1   0.10969 276646.080000
  11381  11385     1   0.10969 276646.080000
  11382  11384     1   0.10969 276646.080000
  11383  11386     1   0.10961 277566.560000
  11388  11394     1   0.09730 310787.520000
  11389  11392     1   0.09730 310787.520000
  11390  11393     1   0.09730 310787.520000
  11391  11395     1   0.10969 276646.080000
  11391  11396     1   0.10969 276646.080000
  11397  11398     1   0.09730 310787.520000
  11400  11402     1   0.10969 276646.080000
  11401  11403     1   0.10969 276646.080000
  11404  11408     1   0.10969 276646.080000
  11405  11407     1   0.10969 276646.080000
  11406  11409     1   0.10961 277566.560000
  11411  11417     1   0.09730 310787.520000
  11412  11415     1   0.09730 310787.520000
  11413  11416     1   0.09730 310787.520000
  11414  11418     1   0.10969 276646.080000
  11414  11419     1   0.10969 276646.080000
  11420  11421     1   0.09730 310787.520000
  11423  11425     1   0.10969 276646.080000
  11424  11426     1   0.10969 276646.080000
  11427  11431     1   0.10969 276646.080000
  11428  11430     1   0.10969 276646.080000
  11429  11432     1   0.10961 277566.560000
  11434  11440     1   0.09730 310787.520000
  11435  11438     1   0.09730 310787.520000
  11436  11439     1   0.09730 310787.520000
  11437  11441     1   0.10969 276646.080000
  11437  11442     1   0.10969 276646.080000
  11443  11444     1   0.09730 310787.520000
  11446  11448     1   0.10969 276646.080000
  11447  11449     1   0.10969 276646.080000
  11450  11454     1   0.10969 276646.080000
  11451  11453     1   0.10969 276646.080000
  11452  11455     1   0.10961 277566.560000
  11457  11463     1   0.09730 310787.520000
  11458  11461     1   0.09730 310787.520000
  11459  11462     1   0.09730 310787.520000
  11460  11464     1   0.10969 276646.080000
  11460  11465     1   0.10969 276646.080000
  11466  11467     1   0.09730 310787.520000
  11469  11471     1   0.10969 276646.080000
  11470  11472     1   0.10969 276646.080000
  11473  11477     1   0.10969 276646.080000
  11474  11476     1   0.10969 276646.080000
  11475  11478     1   0.10961 277566.560000
  11480  11486     1   0.09730 310787.520000
  11481  11484     1   0.09730 310787.520000
  11482  11485     1   0.09730 310787.520000
  11483  11487     1   0.10969 276646.080000
  11483  11488     1   0.10969 276646.080000
  11489  11490     1   0.09730 310787.520000
  11492  11494     1   0.10969 276646.080000
  11493  11495     1   0.10969 276646.080000
  11496  11500     1   0.10969 276646.080000
  11497  11499     1   0.10969 276646.080000
  11498  11501     1   0.10961 277566.560000
  11503  11509     1   0.09730 310787.520000
  11504  11507     1   0.09730 310787.520000
  11505  11508     1   0.09730 310787.520000
  11506  11510     1   0.10969 276646.080000
  11506  11511     1   0.10969 276646.080000
  11512  11513     1   0.09730 310787.520000
  11515  11517     1   0.10969 276646.080000
  11516  11518     1   0.10969 276646.080000
  11519  11523     1   0.10969 276646.080000
  11520  11522     1   0.10969 276646.080000
  11521  11524     1   0.10961 277566.560000
  11526  11532     1   0.09730 310787.520000
  11527  11530     1   0.09730 310787.520000
  11528  11531     1   0.09730 310787.520000
  11529  11533     1   0.10969 276646.080000
  11529  11534     1   0.10969 276646.080000
  11535  11536     1   0.09730 310787.520000
  11538  11540     1   0.10969 276646.080000
  11539  11541     1   0.10969 276646.080000
  11542  11546     1   0.10969 276646.080000
  11543  11545     1   0.10969 276646.080000
  11544  11547     1   0.10961 277566.560000
  11549  11555     1   0.09730 310787.520000
  11550  11553     1   0.09730 310787.520000
  11551  11554     1   0.09730 310787.520000
  11552  11556     1   0.10969 276646.080000
  11552  11557     1   0.10969 276646.080000
  11558  11559     1   0.09730 310787.520000
  11561  11563     1   0.10969 276646.080000
  11562  11564     1   0.10969 276646.080000
  11565  11569     1   0.10969 276646.080000
  11566  11568     1   0.10969 276646.080000
  11567  11570     1   0.10961 277566.560000
  11572  11578     1   0.09730 310787.520000
  11573  11576     1   0.09730 310787.520000
  11574  11577     1   0.09730 310787.520000
  11575  11579     1   0.10969 276646.080000
  11575  11580     1   0.10969 276646.080000
  11581  11582     1   0.09730 310787.520000
  11584  11586     1   0.10969 276646.080000
  11585  11587     1   0.10969 276646.080000
  11588  11592     1   0.10969 276646.080000
  11589  11591     1   0.10969 276646.080000
  11590  11593     1   0.10961 277566.560000
  11595  11601     1   0.09730 310787.520000
  11596  11599     1   0.09730 310787.520000
  11597  11600     1   0.09730 310787.520000
  11598  11602     1   0.10969 276646.080000
  11598  11603     1   0.10969 276646.080000
  11604  11605     1   0.09730 310787.520000
  11607  11609     1   0.10969 276646.080000
  11608  11610     1   0.10969 276646.080000
  11611  11615     1   0.10969 276646.080000
  11612  11614     1   0.10969 276646.080000
  11613  11616     1   0.10961 277566.560000
  11618  11624     1   0.09730 310787.520000
  11619  11622     1   0.09730 310787.520000
  11620  11623     1   0.09730 310787.520000
  11621  11625     1   0.10969 276646.080000
  11621  11626     1   0.10969 276646.080000
  11627  11628     1   0.09730 310787.520000
  11630  11632     1   0.10969 276646.080000
  11631  11633     1   0.10969 276646.080000
  11634  11638     1   0.10969 276646.080000
  11635  11637     1   0.10969 276646.080000
  11636  11639     1   0.10961 277566.560000
  11641  11647     1   0.09730 310787.520000
  11642  11645     1   0.09730 310787.520000
  11643  11646     1   0.09730 310787.520000
  11644  11648     1   0.10969 276646.080000
  11644  11649     1   0.10969 276646.080000
  11650  11651     1   0.09730 310787.520000
  11653  11655     1   0.10969 276646.080000
  11654  11656     1   0.10969 276646.080000
  11657  11661     1   0.10969 276646.080000
  11658  11660     1   0.10969 276646.080000
  11659  11662     1   0.10961 277566.560000
  11664  11670     1   0.09730 310787.520000
  11665  11668     1   0.09730 310787.520000
  11666  11669     1   0.09730 310787.520000
  11667  11671     1   0.10969 276646.080000
  11667  11672     1   0.10969 276646.080000
  11673  11674     1   0.09730 310787.520000
  11676  11678     1   0.10969 276646.080000
  11677  11679     1   0.10969 276646.080000
  11680  11684     1   0.10969 276646.080000
  11681  11683     1   0.10969 276646.080000
  11682  11685     1   0.10961 277566.560000
  11687  11693     1   0.09730 310787.520000
  11688  11691     1   0.09730 310787.520000
  11689  11692     1   0.09730 310787.520000
  11690  11694     1   0.10969 276646.080000
  11690  11695     1   0.10969 276646.080000
  11696  11697     1   0.09730 310787.520000
  11699  11701     1   0.10969 276646.080000
  11700  11702     1   0.10969 276646.080000
  11703  11707     1   0.10969 276646.080000
  11704  11706     1   0.10969 276646.080000
  11705  11708     1   0.10961 277566.560000
  11710  11716     1   0.09730 310787.520000
  11711  11714     1   0.09730 310787.520000
  11712  11715     1   0.09730 310787.520000
  11713  11717     1   0.10969 276646.080000
  11713  11718     1   0.10969 276646.080000
  11719  11720     1   0.09730 310787.520000
  11722  11724     1   0.10969 276646.080000
  11723  11725     1   0.10969 276646.080000
  11726  11730     1   0.10969 276646.080000
  11727  11729     1   0.10969 276646.080000
  11728  11731     1   0.10961 277566.560000
  11733  11739     1   0.09730 310787.520000
  11734  11737     1   0.09730 310787.520000
  11735  11738     1   0.09730 310787.520000
  11736  11740     1   0.10969 276646.080000
  11736  11741     1   0.10969 276646.080000
  11742  11743     1   0.09730 310787.520000
  11745  11747     1   0.10969 276646.080000
  11746  11748     1   0.10969 276646.080000
  11749  11753     1   0.10969 276646.080000
  11750  11752     1   0.10969 276646.080000
  11751  11754     1   0.10961 277566.560000
  11756  11762     1   0.09730 310787.520000
  11757  11760     1   0.09730 310787.520000
  11758  11761     1   0.09730 310787.520000
  11759  11763     1   0.10969 276646.080000
  11759  11764     1   0.10969 276646.080000
  11765  11766     1   0.09730 310787.520000
  11768  11770     1   0.10969 276646.080000
  11769  11771     1   0.10969 276646.080000
  11772  11776     1   0.10969 276646.080000
  11773  11775     1   0.10969 276646.080000
  11774  11777     1   0.10961 277566.560000
  11779  11785     1   0.09730 310787.520000
  11780  11783     1   0.09730 310787.520000
  11781  11784     1   0.09730 310787.520000
  11782  11786     1   0.10969 276646.080000
  11782  11787     1   0.10969 276646.080000
  11788  11789     1   0.09730 310787.520000
  11791  11793     1   0.10969 276646.080000
  11792  11794     1   0.10969 276646.080000
  11795  11799     1   0.10969 276646.080000
  11796  11798     1   0.10969 276646.080000
  11797  11800     1   0.10961 277566.560000
  11802  11808     1   0.09730 310787.520000
  11803  11806     1   0.09730 310787.520000
  11804  11807     1   0.09730 310787.520000
  11805  11809     1   0.10969 276646.080000
  11805  11810     1   0.10969 276646.080000
  11811  11812     1   0.09730 310787.520000
  11814  11816     1   0.10969 276646.080000
  11815  11817     1   0.10969 276646.080000
  11818  11822     1   0.10969 276646.080000
  11819  11821     1   0.10969 276646.080000
  11820  11823     1   0.10961 277566.560000
  11825  11831     1   0.09730 310787.520000
  11826  11829     1   0.09730 310787.520000
  11827  11830     1   0.09730 310787.520000
  11828  11832     1   0.10969 276646.080000
  11828  11833     1   0.10969 276646.080000
  11834  11835     1   0.09730 310787.520000
  11837  11839     1   0.10969 276646.080000
  11838  11840     1   0.10969 276646.080000
  11841  11845     1   0.10969 276646.080000
  11842  11844     1   0.10969 276646.080000
  11843  11846     1   0.10961 277566.560000
  11848  11854     1   0.09730 310787.520000
  11849  11852     1   0.09730 310787.520000
  11850  11853     1   0.09730 310787.520000
  11851  11855     1   0.10969 276646.080000
  11851  11856     1   0.10969 276646.080000
  11857  11858     1   0.09730 310787.520000
  11860  11862     1   0.10969 276646.080000
  11861  11863     1   0.10969 276646.080000
  11864  11868     1   0.10969 276646.080000
  11865  11867     1   0.10969 276646.080000
  11866  11869     1   0.10961 277566.560000
  11871  11877     1   0.09730 310787.520000
  11872  11875     1   0.09730 310787.520000
  11873  11876     1   0.09730 310787.520000
  11874  11878     1   0.10969 276646.080000
  11874  11879     1   0.10969 276646.080000
  11880  11881     1   0.09730 310787.520000
  11883  11885     1   0.10969 276646.080000
  11884  11886     1   0.10969 276646.080000
  11887  11891     1   0.10969 276646.080000
  11888  11890     1   0.10969 276646.080000
  11889  11892     1   0.10961 277566.560000
  11894  11900     1   0.09730 310787.520000
  11895  11898     1   0.09730 310787.520000
  11896  11899     1   0.09730 310787.520000
  11897  11901     1   0.10969 276646.080000
  11897  11902     1   0.10969 276646.080000
  11903  11904     1   0.09730 310787.520000
  11906  11908     1   0.10969 276646.080000
  11907  11909     1   0.10969 276646.080000
  11910  11914     1   0.10969 276646.080000
  11911  11913     1   0.10969 276646.080000
  11912  11915     1   0.10961 277566.560000
  11917  11923     1   0.09730 310787.520000
  11918  11921     1   0.09730 310787.520000
  11919  11922     1   0.09730 310787.520000
  11920  11924     1   0.10969 276646.080000
  11920  11925     1   0.10969 276646.080000
  11926  11927     1   0.09730 310787.520000
  11929  11931     1   0.10969 276646.080000
  11930  11932     1   0.10969 276646.080000
  11933  11937     1   0.10969 276646.080000
  11934  11936     1   0.10969 276646.080000
  11935  11938     1   0.10961 277566.560000
  11940  11946     1   0.09730 310787.520000
  11941  11944     1   0.09730 310787.520000
  11942  11945     1   0.09730 310787.520000
  11943  11947     1   0.10969 276646.080000
  11943  11948     1   0.10969 276646.080000
  11949  11950     1   0.09730 310787.520000
  11952  11954     1   0.10969 276646.080000
  11953  11955     1   0.10969 276646.080000
  11956  11960     1   0.10969 276646.080000
  11957  11959     1   0.10969 276646.080000
  11958  11961     1   0.10961 277566.560000
  11963  11969     1   0.09730 310787.520000
  11964  11967     1   0.09730 310787.520000
  11965  11968     1   0.09730 310787.520000
  11966  11970     1   0.10969 276646.080000
  11966  11971     1   0.10969 276646.080000
  11972  11973     1   0.09730 310787.520000
  11975  11977     1   0.10969 276646.080000
  11976  11978     1   0.10969 276646.080000
  11979  11983     1   0.10969 276646.080000
  11980  11982     1   0.10969 276646.080000
  11981  11984     1   0.10961 277566.560000
  11986  11992     1   0.09730 310787.520000
  11987  11990     1   0.09730 310787.520000
  11988  11991     1   0.09730 310787.520000
  11989  11993     1   0.10969 276646.080000
  11989  11994     1   0.10969 276646.080000
  11995  11996     1   0.09730 310787.520000
  11998  12000     1   0.10969 276646.080000
  11999  12001     1   0.10969 276646.080000
  12002  12006     1   0.10969 276646.080000
  12003  12005     1   0.10969 276646.080000
  12004  12007     1   0.10961 277566.560000
  12009  12015     1   0.09730 310787.520000
  12010  12013     1   0.09730 310787.520000
  12011  12014     1   0.09730 310787.520000
  12012  12016     1   0.10969 276646.080000
  12012  12017     1   0.10969 276646.080000
  12018  12019     1   0.09730 310787.520000
  12021  12023     1   0.10969 276646.080000
  12022  12024     1   0.10969 276646.080000
  12025  12029     1   0.10969 276646.080000
  12026  12028     1   0.10969 276646.080000
  12027  12030     1   0.10961 277566.560000
  12032  12038     1   0.09730 310787.520000
  12033  12036     1   0.09730 310787.520000
  12034  12037     1   0.09730 310787.520000
  12035  12039     1   0.10969 276646.080000
  12035  12040     1   0.10969 276646.080000
  12041  12042     1   0.09730 310787.520000
  12044  12046     1   0.10969 276646.080000
  12045  12047     1   0.10969 276646.080000
  12048  12052     1   0.10969 276646.080000
  12049  12051     1   0.10969 276646.080000
  12050  12053     1   0.10961 277566.560000
  12055  12061     1   0.09730 310787.520000
  12056  12059     1   0.09730 310787.520000
  12057  12060     1   0.09730 310787.520000
  12058  12062     1   0.10969 276646.080000
  12058  12063     1   0.10969 276646.080000
  12064  12065     1   0.09730 310787.520000
  12067  12069     1   0.10969 276646.080000
  12068  12070     1   0.10969 276646.080000
  12071  12075     1   0.10969 276646.080000
  12072  12074     1   0.10969 276646.080000
  12073  12076     1   0.10961 277566.560000
  12078  12084     1   0.09730 310787.520000
  12079  12082     1   0.09730 310787.520000
  12080  12083     1   0.09730 310787.520000
  12081  12085     1   0.10969 276646.080000
  12081  12086     1   0.10969 276646.080000
  12087  12088     1   0.09730 310787.520000
  12090  12092     1   0.10969 276646.080000
  12091  12093     1   0.10969 276646.080000
  12094  12098     1   0.10969 276646.080000
  12095  12097     1   0.10969 276646.080000
  12096  12099     1   0.10961 277566.560000
  12101  12107     1   0.09730 310787.520000
  12102  12105     1   0.09730 310787.520000
  12103  12106     1   0.09730 310787.520000
  12104  12108     1   0.10969 276646.080000
  12104  12109     1   0.10969 276646.080000
  12110  12111     1   0.09730 310787.520000
  12113  12115     1   0.10969 276646.080000
  12114  12116     1   0.10969 276646.080000
  12117  12121     1   0.10969 276646.080000
  12118  12120     1   0.10969 276646.080000
  12119  12122     1   0.10961 277566.560000
  12124  12130     1   0.09730 310787.520000
  12125  12128     1   0.09730 310787.520000
  12126  12129     1   0.09730 310787.520000
  12127  12131     1   0.10969 276646.080000
  12127  12132     1   0.10969 276646.080000
  12133  12134     1   0.09730 310787.520000
  12136  12138     1   0.10969 276646.080000
  12137  12139     1   0.10969 276646.080000
  12140  12144     1   0.10969 276646.080000
  12141  12143     1   0.10969 276646.080000
  12142  12145     1   0.10961 277566.560000
  12147  12153     1   0.09730 310787.520000
  12148  12151     1   0.09730 310787.520000
  12149  12152     1   0.09730 310787.520000
  12150  12154     1   0.10969 276646.080000
  12150  12155     1   0.10969 276646.080000
  12156  12157     1   0.09730 310787.520000
  12159  12161     1   0.10969 276646.080000
  12160  12162     1   0.10969 276646.080000
  12163  12167     1   0.10969 276646.080000
  12164  12166     1   0.10969 276646.080000
  12165  12168     1   0.10961 277566.560000
  12170  12176     1   0.09730 310787.520000
  12171  12174     1   0.09730 310787.520000
  12172  12175     1   0.09730 310787.520000
  12173  12177     1   0.10969 276646.080000
  12173  12178     1   0.10969 276646.080000
  12179  12180     1   0.09730 310787.520000
  12182  12184     1   0.10969 276646.080000
  12183  12185     1   0.10969 276646.080000
  12186  12190     1   0.10969 276646.080000
  12187  12189     1   0.10969 276646.080000
  12188  12191     1   0.10961 277566.560000
  12193  12199     1   0.09730 310787.520000
  12194  12197     1   0.09730 310787.520000
  12195  12198     1   0.09730 310787.520000
  12196  12200     1   0.10969 276646.080000
  12196  12201     1   0.10969 276646.080000
  12202  12203     1   0.09730 310787.520000
  12205  12207     1   0.10969 276646.080000
  12206  12208     1   0.10969 276646.080000
  12209  12213     1   0.10969 276646.080000
  12210  12212     1   0.10969 276646.080000
  12211  12214     1   0.10961 277566.560000
  12216  12222     1   0.09730 310787.520000
  12217  12220     1   0.09730 310787.520000
  12218  12221     1   0.09730 310787.520000
  12219  12223     1   0.10969 276646.080000
  12219  12224     1   0.10969 276646.080000
  12225  12226     1   0.09730 310787.520000
  12228  12230     1   0.10969 276646.080000
  12229  12231     1   0.10969 276646.080000
  12232  12236     1   0.10969 276646.080000
  12233  12235     1   0.10969 276646.080000
  12234  12237     1   0.10961 277566.560000
  12239  12245     1   0.09730 310787.520000
  12240  12243     1   0.09730 310787.520000
  12241  12244     1   0.09730 310787.520000
  12242  12246     1   0.10969 276646.080000
  12242  12247     1   0.10969 276646.080000
  12248  12249     1   0.09730 310787.520000
  12251  12253     1   0.10969 276646.080000
  12252  12254     1   0.10969 276646.080000
  12255  12259     1   0.10969 276646.080000
  12256  12258     1   0.10969 276646.080000
  12257  12260     1   0.10961 277566.560000
  12262  12268     1   0.09730 310787.520000
  12263  12266     1   0.09730 310787.520000
  12264  12267     1   0.09730 310787.520000
  12265  12269     1   0.10969 276646.080000
  12265  12270     1   0.10969 276646.080000
  12271  12272     1   0.09730 310787.520000
  12274  12276     1   0.10969 276646.080000
  12275  12277     1   0.10969 276646.080000
  12278  12282     1   0.10969 276646.080000
  12279  12281     1   0.10969 276646.080000
  12280  12283     1   0.10961 277566.560000
  12285  12291     1   0.09730 310787.520000
  12286  12289     1   0.09730 310787.520000
  12287  12290     1   0.09730 310787.520000
  12288  12292     1   0.10969 276646.080000
  12288  12293     1   0.10969 276646.080000
  12294  12295     1   0.09730 310787.520000
  12297  12299     1   0.10969 276646.080000
  12298  12300     1   0.10969 276646.080000
  12301  12305     1   0.10969 276646.080000
  12302  12304     1   0.10969 276646.080000
  12303  12306     1   0.10961 277566.560000
  12308  12314     1   0.09730 310787.520000
  12309  12312     1   0.09730 310787.520000
  12310  12313     1   0.09730 310787.520000
  12311  12315     1   0.10969 276646.080000
  12311  12316     1   0.10969 276646.080000
  12317  12318     1   0.09730 310787.520000
  12320  12322     1   0.10969 276646.080000
  12321  12323     1   0.10969 276646.080000
  12324  12328     1   0.10969 276646.080000
  12325  12327     1   0.10969 276646.080000
  12326  12329     1   0.10961 277566.560000
  12331  12337     1   0.09730 310787.520000
  12332  12335     1   0.09730 310787.520000
  12333  12336     1   0.09730 310787.520000
  12334  12338     1   0.10969 276646.080000
  12334  12339     1   0.10969 276646.080000
  12340  12341     1   0.09730 310787.520000
  12343  12345     1   0.10969 276646.080000
  12344  12346     1   0.10969 276646.080000
  12347  12351     1   0.10969 276646.080000
  12348  12350     1   0.10969 276646.080000
  12349  12352     1   0.10961 277566.560000
  12354  12360     1   0.09730 310787.520000
  12355  12358     1   0.09730 310787.520000
  12356  12359     1   0.09730 310787.520000
  12357  12361     1   0.10969 276646.080000
  12357  12362     1   0.10969 276646.080000
  12363  12364     1   0.09730 310787.520000
  12366  12368     1   0.10969 276646.080000
  12367  12369     1   0.10969 276646.080000
  12370  12374     1   0.10969 276646.080000
  12371  12373     1   0.10969 276646.080000
  12372  12375     1   0.10961 277566.560000
  12377  12383     1   0.09730 310787.520000
  12378  12381     1   0.09730 310787.520000
  12379  12382     1   0.09730 310787.520000
  12380  12384     1   0.10969 276646.080000
  12380  12385     1   0.10969 276646.080000
  12386  12387     1   0.09730 310787.520000
  12389  12391     1   0.10969 276646.080000
  12390  12392     1   0.10969 276646.080000
  12393  12397     1   0.10969 276646.080000
  12394  12396     1   0.10969 276646.080000
  12395  12398     1   0.10961 277566.560000
  12400  12406     1   0.09730 310787.520000
  12401  12404     1   0.09730 310787.520000
  12402  12405     1   0.09730 310787.520000
  12403  12407     1   0.10969 276646.080000
  12403  12408     1   0.10969 276646.080000
  12409  12410     1   0.09730 310787.520000
  12412  12414     1   0.10969 276646.080000
  12413  12415     1   0.10969 276646.080000
  12416  12420     1   0.10969 276646.080000
  12417  12419     1   0.10969 276646.080000
  12418  12421     1   0.10961 277566.560000
  12423  12429     1   0.09730 310787.520000
  12424  12427     1   0.09730 310787.520000
  12425  12428     1   0.09730 310787.520000
  12426  12430     1   0.10969 276646.080000
  12426  12431     1   0.10969 276646.080000
  12432  12433     1   0.09730 310787.520000
  12435  12437     1   0.10969 276646.080000
  12436  12438     1   0.10969 276646.080000
  12439  12443     1   0.10969 276646.080000
  12440  12442     1   0.10969 276646.080000
  12441  12444     1   0.10961 277566.560000
  12446  12452     1   0.09730 310787.520000
  12447  12450     1   0.09730 310787.520000
  12448  12451     1   0.09730 310787.520000
  12449  12453     1   0.10969 276646.080000
  12449  12454     1   0.10969 276646.080000
  12455  12456     1   0.09730 310787.520000
  12458  12460     1   0.10969 276646.080000
  12459  12461     1   0.10969 276646.080000
  12462  12466     1   0.10969 276646.080000
  12463  12465     1   0.10969 276646.080000
  12464  12467     1   0.10961 277566.560000
  12469  12475     1   0.09730 310787.520000
  12470  12473     1   0.09730 310787.520000
  12471  12474     1   0.09730 310787.520000
  12472  12476     1   0.10969 276646.080000
  12472  12477     1   0.10969 276646.080000
  12478  12479     1   0.09730 310787.520000
  12481  12483     1   0.10969 276646.080000
  12482  12484     1   0.10969 276646.080000
  12485  12489     1   0.10969 276646.080000
  12486  12488     1   0.10969 276646.080000
  12487  12490     1   0.10961 277566.560000
  12492  12498     1   0.09730 310787.520000
  12493  12496     1   0.09730 310787.520000
  12494  12497     1   0.09730 310787.520000
  12495  12499     1   0.10969 276646.080000
  12495  12500     1   0.10969 276646.080000
  12501  12502     1   0.09730 310787.520000
  12504  12506     1   0.10969 276646.080000
  12505  12507     1   0.10969 276646.080000
  12508  12512     1   0.10969 276646.080000
  12509  12511     1   0.10969 276646.080000
  12510  12513     1   0.10961 277566.560000
  12515  12521     1   0.09730 310787.520000
  12516  12519     1   0.09730 310787.520000
  12517  12520     1   0.09730 310787.520000
  12518  12522     1   0.10969 276646.080000
  12518  12523     1   0.10969 276646.080000
  12524  12525     1   0.09730 310787.520000
  12527  12529     1   0.10969 276646.080000
  12528  12530     1   0.10969 276646.080000
  12531  12535     1   0.10969 276646.080000
  12532  12534     1   0.10969 276646.080000
  12533  12536     1   0.10961 277566.560000
  12538  12544     1   0.09730 310787.520000
  12539  12542     1   0.09730 310787.520000
  12540  12543     1   0.09730 310787.520000
  12541  12545     1   0.10969 276646.080000
  12541  12546     1   0.10969 276646.080000
  12547  12548     1   0.09730 310787.520000
  12550  12552     1   0.10969 276646.080000
  12551  12553     1   0.10969 276646.080000
  12554  12558     1   0.10969 276646.080000
  12555  12557     1   0.10969 276646.080000
  12556  12559     1   0.10961 277566.560000
  12561  12567     1   0.09730 310787.520000
  12562  12565     1   0.09730 310787.520000
  12563  12566     1   0.09730 310787.520000
  12564  12568     1   0.10969 276646.080000
  12564  12569     1   0.10969 276646.080000
  12570  12571     1   0.09730 310787.520000
  12573  12575     1   0.10969 276646.080000
  12574  12576     1   0.10969 276646.080000
  12577  12581     1   0.10969 276646.080000
  12578  12580     1   0.10969 276646.080000
  12579  12582     1   0.10961 277566.560000
  12584  12590     1   0.09730 310787.520000
  12585  12588     1   0.09730 310787.520000
  12586  12589     1   0.09730 310787.520000
  12587  12591     1   0.10969 276646.080000
  12587  12592     1   0.10969 276646.080000
  12593  12594     1   0.09730 310787.520000
  12596  12598     1   0.10969 276646.080000
  12597  12599     1   0.10969 276646.080000
  12600  12604     1   0.10969 276646.080000
  12601  12603     1   0.10969 276646.080000
  12602  12605     1   0.10961 277566.560000
  12607  12613     1   0.09730 310787.520000
  12608  12611     1   0.09730 310787.520000
  12609  12612     1   0.09730 310787.520000
  12610  12614     1   0.10969 276646.080000
  12610  12615     1   0.10969 276646.080000
  12616  12617     1   0.09730 310787.520000
  12619  12621     1   0.10969 276646.080000
  12620  12622     1   0.10969 276646.080000
  12623  12627     1   0.10969 276646.080000
  12624  12626     1   0.10969 276646.080000
  12625  12628     1   0.10961 277566.560000
  12630  12636     1   0.09730 310787.520000
  12631  12634     1   0.09730 310787.520000
  12632  12635     1   0.09730 310787.520000
  12633  12637     1   0.10969 276646.080000
  12633  12638     1   0.10969 276646.080000
  12639  12640     1   0.09730 310787.520000
  12642  12644     1   0.10969 276646.080000
  12643  12645     1   0.10969 276646.080000
  12646  12650     1   0.10969 276646.080000
  12647  12649     1   0.10969 276646.080000
  12648  12651     1   0.10961 277566.560000
  12653  12659     1   0.09730 310787.520000
  12654  12657     1   0.09730 310787.520000
  12655  12658     1   0.09730 310787.520000
  12656  12660     1   0.10969 276646.080000
  12656  12661     1   0.10969 276646.080000
  12662  12663     1   0.09730 310787.520000
  12665  12667     1   0.10969 276646.080000
  12666  12668     1   0.10969 276646.080000
  12669  12673     1   0.10969 276646.080000
  12670  12672     1   0.10969 276646.080000
  12671  12674     1   0.10961 277566.560000
  12676  12682     1   0.09730 310787.520000
  12677  12680     1   0.09730 310787.520000
  12678  12681     1   0.09730 310787.520000
  12679  12683     1   0.10969 276646.080000
  12679  12684     1   0.10969 276646.080000
  12685  12686     1   0.09730 310787.520000
  12688  12690     1   0.10969 276646.080000
  12689  12691     1   0.10969 276646.080000
  12692  12696     1   0.10969 276646.080000
  12693  12695     1   0.10969 276646.080000
  12694  12697     1   0.10961 277566.560000
  12699  12705     1   0.09730 310787.520000
  12700  12703     1   0.09730 310787.520000
  12701  12704     1   0.09730 310787.520000
  12702  12706     1   0.10969 276646.080000
  12702  12707     1   0.10969 276646.080000
  12708  12709     1   0.09730 310787.520000
  12711  12713     1   0.10969 276646.080000
  12712  12714     1   0.10969 276646.080000
  12715  12719     1   0.10969 276646.080000
  12716  12718     1   0.10969 276646.080000
  12717  12720     1   0.10961 277566.560000
  12722  12728     1   0.09730 310787.520000
  12723  12726     1   0.09730 310787.520000
  12724  12727     1   0.09730 310787.520000
  12725  12729     1   0.10969 276646.080000
  12725  12730     1   0.10969 276646.080000
  12731  12732     1   0.09730 310787.520000
  12734  12736     1   0.10969 276646.080000
  12735  12737     1   0.10969 276646.080000
  12738  12742     1   0.10969 276646.080000
  12739  12741     1   0.10969 276646.080000
  12740  12743     1   0.10961 277566.560000
  12745  12751     1   0.09730 310787.520000
  12746  12749     1   0.09730 310787.520000
  12747  12750     1   0.09730 310787.520000
  12748  12752     1   0.10969 276646.080000
  12748  12753     1   0.10969 276646.080000
  12754  12755     1   0.09730 310787.520000
  12757  12759     1   0.10969 276646.080000
  12758  12760     1   0.10969 276646.080000
  12761  12765     1   0.10969 276646.080000
  12762  12764     1   0.10969 276646.080000
  12763  12766     1   0.10961 277566.560000
  12768  12774     1   0.09730 310787.520000
  12769  12772     1   0.09730 310787.520000
  12770  12773     1   0.09730 310787.520000
  12771  12775     1   0.10969 276646.080000
  12771  12776     1   0.10969 276646.080000
  12777  12778     1   0.09730 310787.520000
  12780  12782     1   0.10969 276646.080000
  12781  12783     1   0.10969 276646.080000
  12784  12788     1   0.10969 276646.080000
  12785  12787     1   0.10969 276646.080000
  12786  12789     1   0.10961 277566.560000
  12791  12797     1   0.09730 310787.520000
  12792  12795     1   0.09730 310787.520000
  12793  12796     1   0.09730 310787.520000
  12794  12798     1   0.10969 276646.080000
  12794  12799     1   0.10969 276646.080000
  12800  12801     1   0.09730 310787.520000
  12803  12805     1   0.10969 276646.080000
  12804  12806     1   0.10969 276646.080000
  12807  12811     1   0.10969 276646.080000
  12808  12810     1   0.10969 276646.080000
  12809  12812     1   0.10961 277566.560000
  12814  12820     1   0.09730 310787.520000
  12815  12818     1   0.09730 310787.520000
  12816  12819     1   0.09730 310787.520000
  12817  12821     1   0.10969 276646.080000
  12817  12822     1   0.10969 276646.080000
  12823  12824     1   0.09730 310787.520000
  12826  12828     1   0.10969 276646.080000
  12827  12829     1   0.10969 276646.080000
  12830  12834     1   0.10969 276646.080000
  12831  12833     1   0.10969 276646.080000
  12832  12835     1   0.10961 277566.560000
  12837  12843     1   0.09730 310787.520000
  12838  12841     1   0.09730 310787.520000
  12839  12842     1   0.09730 310787.520000
  12840  12844     1   0.10969 276646.080000
  12840  12845     1   0.10969 276646.080000
  12846  12847     1   0.09730 310787.520000
  12849  12851     1   0.10969 276646.080000
  12850  12852     1   0.10969 276646.080000
  12853  12857     1   0.10969 276646.080000
  12854  12856     1   0.10969 276646.080000
  12855  12858     1   0.10961 277566.560000
  12860  12866     1   0.09730 310787.520000
  12861  12864     1   0.09730 310787.520000
  12862  12865     1   0.09730 310787.520000
  12863  12867     1   0.10969 276646.080000
  12863  12868     1   0.10969 276646.080000
  12869  12870     1   0.09730 310787.520000
  12872  12874     1   0.10969 276646.080000
  12873  12875     1   0.10969 276646.080000
  12876  12880     1   0.10969 276646.080000
  12877  12879     1   0.10969 276646.080000
  12878  12881     1   0.10961 277566.560000
  12883  12889     1   0.09730 310787.520000
  12884  12887     1   0.09730 310787.520000
  12885  12888     1   0.09730 310787.520000
  12886  12890     1   0.10969 276646.080000
  12886  12891     1   0.10969 276646.080000
  12892  12893     1   0.09730 310787.520000
  12895  12897     1   0.10969 276646.080000
  12896  12898     1   0.10969 276646.080000
  12899  12903     1   0.10969 276646.080000
  12900  12902     1   0.10969 276646.080000
  12901  12904     1   0.10961 277566.560000
  12906  12912     1   0.09730 310787.520000
  12907  12910     1   0.09730 310787.520000
  12908  12911     1   0.09730 310787.520000
  12909  12913     1   0.10969 276646.080000
  12909  12914     1   0.10969 276646.080000
  12915  12916     1   0.09730 310787.520000
  12918  12920     1   0.10969 276646.080000
  12919  12921     1   0.10969 276646.080000
  12922  12926     1   0.10969 276646.080000
  12923  12925     1   0.10969 276646.080000
  12924  12927     1   0.10961 277566.560000
  12929  12935     1   0.09730 310787.520000
  12930  12933     1   0.09730 310787.520000
  12931  12934     1   0.09730 310787.520000
  12932  12936     1   0.10969 276646.080000
  12932  12937     1   0.10969 276646.080000
  12938  12939     1   0.09730 310787.520000
  12941  12943     1   0.10969 276646.080000
  12942  12944     1   0.10969 276646.080000
  12945  12949     1   0.10969 276646.080000
  12946  12948     1   0.10969 276646.080000
  12947  12950     1   0.10961 277566.560000
  12952  12958     1   0.09730 310787.520000
  12953  12956     1   0.09730 310787.520000
  12954  12957     1   0.09730 310787.520000
  12955  12959     1   0.10969 276646.080000
  12955  12960     1   0.10969 276646.080000
  12961  12962     1   0.09730 310787.520000
  12964  12966     1   0.10969 276646.080000
  12965  12967     1   0.10969 276646.080000
  12968  12972     1   0.10969 276646.080000
  12969  12971     1   0.10969 276646.080000
  12970  12973     1   0.10961 277566.560000
  12975  12981     1   0.09730 310787.520000
  12976  12979     1   0.09730 310787.520000
  12977  12980     1   0.09730 310787.520000
  12978  12982     1   0.10969 276646.080000
  12978  12983     1   0.10969 276646.080000
  12984  12985     1   0.09730 310787.520000
  12987  12989     1   0.10969 276646.080000
  12988  12990     1   0.10969 276646.080000
  12991  12995     1   0.10969 276646.080000
  12992  12994     1   0.10969 276646.080000
  12993  12996     1   0.10961 277566.560000
  12998  13004     1   0.09730 310787.520000
  12999  13002     1   0.09730 310787.520000
  13000  13003     1   0.09730 310787.520000
  13001  13005     1   0.10969 276646.080000
  13001  13006     1   0.10969 276646.080000
  13007  13008     1   0.09730 310787.520000
  13010  13012     1   0.10969 276646.080000
  13011  13013     1   0.10969 276646.080000
  13014  13018     1   0.10969 276646.080000
  13015  13017     1   0.10969 276646.080000
  13016  13019     1   0.10961 277566.560000
  13021  13027     1   0.09730 310787.520000
  13022  13025     1   0.09730 310787.520000
  13023  13026     1   0.09730 310787.520000
  13024  13028     1   0.10969 276646.080000
  13024  13029     1   0.10969 276646.080000
  13030  13031     1   0.09730 310787.520000
  13033  13035     1   0.10969 276646.080000
  13034  13036     1   0.10969 276646.080000
  13037  13041     1   0.10969 276646.080000
  13038  13040     1   0.10969 276646.080000
  13039  13042     1   0.10961 277566.560000
  13044  13050     1   0.09730 310787.520000
  13045  13048     1   0.09730 310787.520000
  13046  13049     1   0.09730 310787.520000
  13047  13051     1   0.10969 276646.080000
  13047  13052     1   0.10969 276646.080000
  13053  13054     1   0.09730 310787.520000
  13056  13058     1   0.10969 276646.080000
  13057  13059     1   0.10969 276646.080000
  13060  13064     1   0.10969 276646.080000
  13061  13063     1   0.10969 276646.080000
  13062  13065     1   0.10961 277566.560000
  13067  13073     1   0.09730 310787.520000
  13068  13071     1   0.09730 310787.520000
  13069  13072     1   0.09730 310787.520000
  13070  13074     1   0.10969 276646.080000
  13070  13075     1   0.10969 276646.080000
  13076  13077     1   0.09730 310787.520000
  13079  13081     1   0.10969 276646.080000
  13080  13082     1   0.10969 276646.080000
  13083  13087     1   0.10969 276646.080000
  13084  13086     1   0.10969 276646.080000
  13085  13088     1   0.10961 277566.560000
  13090  13096     1   0.09730 310787.520000
  13091  13094     1   0.09730 310787.520000
  13092  13095     1   0.09730 310787.520000
  13093  13097     1   0.10969 276646.080000
  13093  13098     1   0.10969 276646.080000
  13099  13100     1   0.09730 310787.520000
  13102  13104     1   0.10969 276646.080000
  13103  13105     1   0.10969 276646.080000
  13106  13110     1   0.10969 276646.080000
  13107  13109     1   0.10969 276646.080000
  13108  13111     1   0.10961 277566.560000
  13113  13119     1   0.09730 310787.520000
  13114  13117     1   0.09730 310787.520000
  13115  13118     1   0.09730 310787.520000
  13116  13120     1   0.10969 276646.080000
  13116  13121     1   0.10969 276646.080000
  13122  13123     1   0.09730 310787.520000
  13125  13127     1   0.10969 276646.080000
  13126  13128     1   0.10969 276646.080000
  13129  13133     1   0.10969 276646.080000
  13130  13132     1   0.10969 276646.080000
  13131  13134     1   0.10961 277566.560000
  13136  13142     1   0.09730 310787.520000
  13137  13140     1   0.09730 310787.520000
  13138  13141     1   0.09730 310787.520000
  13139  13143     1   0.10969 276646.080000
  13139  13144     1   0.10969 276646.080000
  13145  13146     1   0.09730 310787.520000
  13148  13150     1   0.10969 276646.080000
  13149  13151     1   0.10969 276646.080000
  13152  13156     1   0.10969 276646.080000
  13153  13155     1   0.10969 276646.080000
  13154  13157     1   0.10961 277566.560000
  13159  13165     1   0.09730 310787.520000
  13160  13163     1   0.09730 310787.520000
  13161  13164     1   0.09730 310787.520000
  13162  13166     1   0.10969 276646.080000
  13162  13167     1   0.10969 276646.080000
  13168  13169     1   0.09730 310787.520000
  13171  13173     1   0.10969 276646.080000
  13172  13174     1   0.10969 276646.080000
  13175  13179     1   0.10969 276646.080000
  13176  13178     1   0.10969 276646.080000
  13177  13180     1   0.10961 277566.560000
  13182  13188     1   0.09730 310787.520000
  13183  13186     1   0.09730 310787.520000
  13184  13187     1   0.09730 310787.520000
  13185  13189     1   0.10969 276646.080000
  13185  13190     1   0.10969 276646.080000
  13191  13192     1   0.09730 310787.520000
  13194  13196     1   0.10969 276646.080000
  13195  13197     1   0.10969 276646.080000
  13198  13202     1   0.10969 276646.080000
  13199  13201     1   0.10969 276646.080000
  13200  13203     1   0.10961 277566.560000
  13205  13211     1   0.09730 310787.520000
  13206  13209     1   0.09730 310787.520000
  13207  13210     1   0.09730 310787.520000
  13208  13212     1   0.10969 276646.080000
  13208  13213     1   0.10969 276646.080000
  13214  13215     1   0.09730 310787.520000
  13217  13219     1   0.10969 276646.080000
  13218  13220     1   0.10969 276646.080000
  13221  13225     1   0.10969 276646.080000
  13222  13224     1   0.10969 276646.080000
  13223  13226     1   0.10961 277566.560000
  13228  13234     1   0.09730 310787.520000
  13229  13232     1   0.09730 310787.520000
  13230  13233     1   0.09730 310787.520000
  13231  13235     1   0.10969 276646.080000
  13231  13236     1   0.10969 276646.080000
  13237  13238     1   0.09730 310787.520000
  13240  13242     1   0.10969 276646.080000
  13241  13243     1   0.10969 276646.080000
  13244  13248     1   0.10969 276646.080000
  13245  13247     1   0.10969 276646.080000
  13246  13249     1   0.10961 277566.560000
  13251  13257     1   0.09730 310787.520000
  13252  13255     1   0.09730 310787.520000
  13253  13256     1   0.09730 310787.520000
  13254  13258     1   0.10969 276646.080000
  13254  13259     1   0.10969 276646.080000
  13260  13261     1   0.09730 310787.520000
  13263  13265     1   0.10969 276646.080000
  13264  13266     1   0.10969 276646.080000
  13267  13271     1   0.10969 276646.080000
  13268  13270     1   0.10969 276646.080000
  13269  13272     1   0.10961 277566.560000
  13274  13280     1   0.09730 310787.520000
  13275  13278     1   0.09730 310787.520000
  13276  13279     1   0.09730 310787.520000
  13277  13281     1   0.10969 276646.080000
  13277  13282     1   0.10969 276646.080000
  13283  13284     1   0.09730 310787.520000
  13286  13288     1   0.10969 276646.080000
  13287  13289     1   0.10969 276646.080000
  13290  13294     1   0.10969 276646.080000
  13291  13293     1   0.10969 276646.080000
  13292  13295     1   0.10961 277566.560000
  13297  13303     1   0.09730 310787.520000
  13298  13301     1   0.09730 310787.520000
  13299  13302     1   0.09730 310787.520000
  13300  13304     1   0.10969 276646.080000
  13300  13305     1   0.10969 276646.080000
  13306  13307     1   0.09730 310787.520000
  13309  13311     1   0.10969 276646.080000
  13310  13312     1   0.10969 276646.080000
  13313  13317     1   0.10969 276646.080000
  13314  13316     1   0.10969 276646.080000
  13315  13318     1   0.10961 277566.560000
  13320  13326     1   0.09730 310787.520000
  13321  13324     1   0.09730 310787.520000
  13322  13325     1   0.09730 310787.520000
  13323  13327     1   0.10969 276646.080000
  13323  13328     1   0.10969 276646.080000
  13329  13330     1   0.09730 310787.520000
  13332  13334     1   0.10969 276646.080000
  13333  13335     1   0.10969 276646.080000
  13336  13340     1   0.10969 276646.080000
  13337  13339     1   0.10969 276646.080000
  13338  13341     1   0.10961 277566.560000
  13343  13349     1   0.09730 310787.520000
  13344  13347     1   0.09730 310787.520000
  13345  13348     1   0.09730 310787.520000
  13346  13350     1   0.10969 276646.080000
  13346  13351     1   0.10969 276646.080000
  13352  13353     1   0.09730 310787.520000
  13355  13357     1   0.10969 276646.080000
  13356  13358     1   0.10969 276646.080000
  13359  13363     1   0.10969 276646.080000
  13360  13362     1   0.10969 276646.080000
  13361  13364     1   0.10961 277566.560000
  13366  13372     1   0.09730 310787.520000
  13367  13370     1   0.09730 310787.520000
  13368  13371     1   0.09730 310787.520000
  13369  13373     1   0.10969 276646.080000
  13369  13374     1   0.10969 276646.080000
  13375  13376     1   0.09730 310787.520000
  13378  13380     1   0.10969 276646.080000
  13379  13381     1   0.10969 276646.080000
  13382  13386     1   0.10969 276646.080000
  13383  13385     1   0.10969 276646.080000
  13384  13387     1   0.10961 277566.560000
  13389  13395     1   0.09730 310787.520000
  13390  13393     1   0.09730 310787.520000
  13391  13394     1   0.09730 310787.520000
  13392  13396     1   0.10969 276646.080000
  13392  13397     1   0.10969 276646.080000
  13398  13399     1   0.09730 310787.520000
  13401  13403     1   0.10969 276646.080000
  13402  13404     1   0.10969 276646.080000
  13405  13409     1   0.10969 276646.080000
  13406  13408     1   0.10969 276646.080000
  13407  13410     1   0.10961 277566.560000
  13412  13418     1   0.09730 310787.520000
  13413  13416     1   0.09730 310787.520000
  13414  13417     1   0.09730 310787.520000
  13415  13419     1   0.10969 276646.080000
  13415  13420     1   0.10969 276646.080000
  13421  13422     1   0.09730 310787.520000
  13424  13426     1   0.10969 276646.080000
  13425  13427     1   0.10969 276646.080000
  13428  13432     1   0.10969 276646.080000
  13429  13431     1   0.10969 276646.080000
  13430  13433     1   0.10961 277566.560000
  13435  13441     1   0.09730 310787.520000
  13436  13439     1   0.09730 310787.520000
  13437  13440     1   0.09730 310787.520000
  13438  13442     1   0.10969 276646.080000
  13438  13443     1   0.10969 276646.080000
  13444  13445     1   0.09730 310787.520000
  13447  13449     1   0.10969 276646.080000
  13448  13450     1   0.10969 276646.080000
  13451  13455     1   0.10969 276646.080000
  13452  13454     1   0.10969 276646.080000
  13453  13456     1   0.10961 277566.560000
  13458  13464     1   0.09730 310787.520000
  13459  13462     1   0.09730 310787.520000
  13460  13463     1   0.09730 310787.520000
  13461  13465     1   0.10969 276646.080000
  13461  13466     1   0.10969 276646.080000
  13467  13468     1   0.09730 310787.520000
  13470  13472     1   0.10969 276646.080000
  13471  13473     1   0.10969 276646.080000
  13474  13478     1   0.10969 276646.080000
  13475  13477     1   0.10969 276646.080000
  13476  13479     1   0.10961 277566.560000
  13481  13487     1   0.09730 310787.520000
  13482  13485     1   0.09730 310787.520000
  13483  13486     1   0.09730 310787.520000
  13484  13488     1   0.10969 276646.080000
  13484  13489     1   0.10969 276646.080000
  13490  13491     1   0.09730 310787.520000
  13493  13495     1   0.10969 276646.080000
  13494  13496     1   0.10969 276646.080000
  13497  13501     1   0.10969 276646.080000
  13498  13500     1   0.10969 276646.080000
  13499  13502     1   0.10961 277566.560000
  13504  13510     1   0.09730 310787.520000
  13505  13508     1   0.09730 310787.520000
  13506  13509     1   0.09730 310787.520000
  13507  13511     1   0.10969 276646.080000
  13507  13512     1   0.10969 276646.080000
  13513  13514     1   0.09730 310787.520000
  13516  13518     1   0.10969 276646.080000
  13517  13519     1   0.10969 276646.080000
  13520  13524     1   0.10969 276646.080000
  13521  13523     1   0.10969 276646.080000
  13522  13525     1   0.10961 277566.560000
  13527  13533     1   0.09730 310787.520000
  13528  13531     1   0.09730 310787.520000
  13529  13532     1   0.09730 310787.520000
  13530  13534     1   0.10969 276646.080000
  13530  13535     1   0.10969 276646.080000
  13536  13537     1   0.09730 310787.520000
  13539  13541     1   0.10969 276646.080000
  13540  13542     1   0.10969 276646.080000
  13543  13547     1   0.10969 276646.080000
  13544  13546     1   0.10969 276646.080000
  13545  13548     1   0.10961 277566.560000
  13550  13556     1   0.09730 310787.520000
  13551  13554     1   0.09730 310787.520000
  13552  13555     1   0.09730 310787.520000
  13553  13557     1   0.10969 276646.080000
  13553  13558     1   0.10969 276646.080000
  13559  13560     1   0.09730 310787.520000
  13562  13564     1   0.10969 276646.080000
  13563  13565     1   0.10969 276646.080000
  13566  13570     1   0.10969 276646.080000
  13567  13569     1   0.10969 276646.080000
  13568  13571     1   0.10961 277566.560000
  13573  13579     1   0.09730 310787.520000
  13574  13577     1   0.09730 310787.520000
  13575  13578     1   0.09730 310787.520000
  13576  13580     1   0.10969 276646.080000
  13576  13581     1   0.10969 276646.080000
  13582  13583     1   0.09730 310787.520000
  13585  13587     1   0.10969 276646.080000
  13586  13588     1   0.10969 276646.080000
  13589  13593     1   0.10969 276646.080000
  13590  13592     1   0.10969 276646.080000
  13591  13594     1   0.10961 277566.560000
  13596  13602     1   0.09730 310787.520000
  13597  13600     1   0.09730 310787.520000
  13598  13601     1   0.09730 310787.520000
  13599  13603     1   0.10969 276646.080000
  13599  13604     1   0.10969 276646.080000
  13605  13606     1   0.09730 310787.520000
  13608  13610     1   0.10969 276646.080000
  13609  13611     1   0.10969 276646.080000
  13612  13616     1   0.10969 276646.080000
  13613  13615     1   0.10969 276646.080000
  13614  13617     1   0.10961 277566.560000
  13619  13625     1   0.09730 310787.520000
  13620  13623     1   0.09730 310787.520000
  13621  13624     1   0.09730 310787.520000
  13622  13626     1   0.10969 276646.080000
  13622  13627     1   0.10969 276646.080000
  13628  13629     1   0.09730 310787.520000
  13631  13633     1   0.10969 276646.080000
  13632  13634     1   0.10969 276646.080000
  13635  13639     1   0.10969 276646.080000
  13636  13638     1   0.10969 276646.080000
  13637  13640     1   0.10961 277566.560000
  13642  13648     1   0.09730 310787.520000
  13643  13646     1   0.09730 310787.520000
  13644  13647     1   0.09730 310787.520000
  13645  13649     1   0.10969 276646.080000
  13645  13650     1   0.10969 276646.080000
  13651  13652     1   0.09730 310787.520000
  13654  13656     1   0.10969 276646.080000
  13655  13657     1   0.10969 276646.080000
  13658  13662     1   0.10969 276646.080000
  13659  13661     1   0.10969 276646.080000
  13660  13663     1   0.10961 277566.560000
  13665  13671     1   0.09730 310787.520000
  13666  13669     1   0.09730 310787.520000
  13667  13670     1   0.09730 310787.520000
  13668  13672     1   0.10969 276646.080000
  13668  13673     1   0.10969 276646.080000
  13674  13675     1   0.09730 310787.520000
  13677  13679     1   0.10969 276646.080000
  13678  13680     1   0.10969 276646.080000
  13681  13685     1   0.10969 276646.080000
  13682  13684     1   0.10969 276646.080000
  13683  13686     1   0.10961 277566.560000
  13688  13694     1   0.09730 310787.520000
  13689  13692     1   0.09730 310787.520000
  13690  13693     1   0.09730 310787.520000
  13691  13695     1   0.10969 276646.080000
  13691  13696     1   0.10969 276646.080000
  13697  13698     1   0.09730 310787.520000
  13700  13702     1   0.10969 276646.080000
  13701  13703     1   0.10969 276646.080000
  13704  13708     1   0.10969 276646.080000
  13705  13707     1   0.10969 276646.080000
  13706  13709     1   0.10961 277566.560000
  13711  13717     1   0.09730 310787.520000
  13712  13715     1   0.09730 310787.520000
  13713  13716     1   0.09730 310787.520000
  13714  13718     1   0.10969 276646.080000
  13714  13719     1   0.10969 276646.080000
  13720  13721     1   0.09730 310787.520000
  13723  13725     1   0.10969 276646.080000
  13724  13726     1   0.10969 276646.080000
  13727  13731     1   0.10969 276646.080000
  13728  13730     1   0.10969 276646.080000
  13729  13732     1   0.10961 277566.560000
  13734  13740     1   0.09730 310787.520000
  13735  13738     1   0.09730 310787.520000
  13736  13739     1   0.09730 310787.520000
  13737  13741     1   0.10969 276646.080000
  13737  13742     1   0.10969 276646.080000
  13743  13744     1   0.09730 310787.520000
  13746  13748     1   0.10969 276646.080000
  13747  13749     1   0.10969 276646.080000
  13750  13754     1   0.10969 276646.080000
  13751  13753     1   0.10969 276646.080000
  13752  13755     1   0.10961 277566.560000
  13757  13763     1   0.09730 310787.520000
  13758  13761     1   0.09730 310787.520000
  13759  13762     1   0.09730 310787.520000
  13760  13764     1   0.10969 276646.080000
  13760  13765     1   0.10969 276646.080000
  13766  13767     1   0.09730 310787.520000
  13769  13771     1   0.10969 276646.080000
  13770  13772     1   0.10969 276646.080000
  13773  13777     1   0.10969 276646.080000
  13774  13776     1   0.10969 276646.080000
  13775  13778     1   0.10961 277566.560000
  13780  13786     1   0.09730 310787.520000
  13781  13784     1   0.09730 310787.520000
  13782  13785     1   0.09730 310787.520000
  13783  13787     1   0.10969 276646.080000
  13783  13788     1   0.10969 276646.080000
  13789  13790     1   0.09730 310787.520000
  13792  13794     1   0.10969 276646.080000
  13793  13795     1   0.10969 276646.080000
  13796  13800     1   0.10969 276646.080000
  13797  13799     1   0.10969 276646.080000
  13798  13801     1   0.10961 277566.560000
  13803  13809     1   0.09730 310787.520000
  13804  13807     1   0.09730 310787.520000
  13805  13808     1   0.09730 310787.520000
  13806  13810     1   0.10969 276646.080000
  13806  13811     1   0.10969 276646.080000
  13812  13813     1   0.09730 310787.520000
  13815  13817     1   0.10969 276646.080000
  13816  13818     1   0.10969 276646.080000
  13819  13823     1   0.10969 276646.080000
  13820  13822     1   0.10969 276646.080000
  13821  13824     1   0.10961 277566.560000
  13826  13832     1   0.09730 310787.520000
  13827  13830     1   0.09730 310787.520000
  13828  13831     1   0.09730 310787.520000
  13829  13833     1   0.10969 276646.080000
  13829  13834     1   0.10969 276646.080000
  13835  13836     1   0.09730 310787.520000
  13838  13840     1   0.10969 276646.080000
  13839  13841     1   0.10969 276646.080000
  13842  13846     1   0.10969 276646.080000
  13843  13845     1   0.10969 276646.080000
  13844  13847     1   0.10961 277566.560000
  13849  13855     1   0.09730 310787.520000
  13850  13853     1   0.09730 310787.520000
  13851  13854     1   0.09730 310787.520000
  13852  13856     1   0.10969 276646.080000
  13852  13857     1   0.10969 276646.080000
  13858  13859     1   0.09730 310787.520000
  13861  13863     1   0.10969 276646.080000
  13862  13864     1   0.10969 276646.080000
  13865  13869     1   0.10969 276646.080000
  13866  13868     1   0.10969 276646.080000
  13867  13870     1   0.10961 277566.560000
  13872  13878     1   0.09730 310787.520000
  13873  13876     1   0.09730 310787.520000
  13874  13877     1   0.09730 310787.520000
  13875  13879     1   0.10969 276646.080000
  13875  13880     1   0.10969 276646.080000
  13881  13882     1   0.09730 310787.520000
  13884  13886     1   0.10969 276646.080000
  13885  13887     1   0.10969 276646.080000
  13888  13892     1   0.10969 276646.080000
  13889  13891     1   0.10969 276646.080000
  13890  13893     1   0.10961 277566.560000
  13895  13901     1   0.09730 310787.520000
  13896  13899     1   0.09730 310787.520000
  13897  13900     1   0.09730 310787.520000
  13898  13902     1   0.10969 276646.080000
  13898  13903     1   0.10969 276646.080000
  13904  13905     1   0.09730 310787.520000
  13907  13909     1   0.10969 276646.080000
  13908  13910     1   0.10969 276646.080000
  13911  13915     1   0.10969 276646.080000
  13912  13914     1   0.10969 276646.080000
  13913  13916     1   0.10961 277566.560000
  13918  13924     1   0.09730 310787.520000
  13919  13922     1   0.09730 310787.520000
  13920  13923     1   0.09730 310787.520000
  13921  13925     1   0.10969 276646.080000
  13921  13926     1   0.10969 276646.080000
  13927  13928     1   0.09730 310787.520000
  13930  13932     1   0.10969 276646.080000
  13931  13933     1   0.10969 276646.080000
  13934  13938     1   0.10969 276646.080000
  13935  13937     1   0.10969 276646.080000
  13936  13939     1   0.10961 277566.560000
  13941  13947     1   0.09730 310787.520000
  13942  13945     1   0.09730 310787.520000
  13943  13946     1   0.09730 310787.520000
  13944  13948     1   0.10969 276646.080000
  13944  13949     1   0.10969 276646.080000
  13950  13951     1   0.09730 310787.520000
  13953  13955     1   0.10969 276646.080000
  13954  13956     1   0.10969 276646.080000
  13957  13961     1   0.10969 276646.080000
  13958  13960     1   0.10969 276646.080000
  13959  13962     1   0.10961 277566.560000
  13964  13970     1   0.09730 310787.520000
  13965  13968     1   0.09730 310787.520000
  13966  13969     1   0.09730 310787.520000
  13967  13971     1   0.10969 276646.080000
  13967  13972     1   0.10969 276646.080000
  13973  13974     1   0.09730 310787.520000
  13976  13978     1   0.10969 276646.080000
  13977  13979     1   0.10969 276646.080000
  13980  13984     1   0.10969 276646.080000
  13981  13983     1   0.10969 276646.080000
  13982  13985     1   0.10961 277566.560000
  13987  13993     1   0.09730 310787.520000
  13988  13991     1   0.09730 310787.520000
  13989  13992     1   0.09730 310787.520000
  13990  13994     1   0.10969 276646.080000
  13990  13995     1   0.10969 276646.080000
  13996  13997     1   0.09730 310787.520000
  13999  14001     1   0.10969 276646.080000
  14000  14002     1   0.10969 276646.080000
  14003  14007     1   0.10969 276646.080000
  14004  14006     1   0.10969 276646.080000
  14005  14008     1   0.10961 277566.560000
  14010  14016     1   0.09730 310787.520000
  14011  14014     1   0.09730 310787.520000
  14012  14015     1   0.09730 310787.520000
  14013  14017     1   0.10969 276646.080000
  14013  14018     1   0.10969 276646.080000
  14019  14020     1   0.09730 310787.520000
  14022  14024     1   0.10969 276646.080000
  14023  14025     1   0.10969 276646.080000
  14026  14030     1   0.10969 276646.080000
  14027  14029     1   0.10969 276646.080000
  14028  14031     1   0.10961 277566.560000
  14033  14039     1   0.09730 310787.520000
  14034  14037     1   0.09730 310787.520000
  14035  14038     1   0.09730 310787.520000
  14036  14040     1   0.10969 276646.080000
  14036  14041     1   0.10969 276646.080000
  14042  14043     1   0.09730 310787.520000
  14045  14047     1   0.10969 276646.080000
  14046  14048     1   0.10969 276646.080000
  14049  14053     1   0.10969 276646.080000
  14050  14052     1   0.10969 276646.080000
  14051  14054     1   0.10961 277566.560000
  14056  14062     1   0.09730 310787.520000
  14057  14060     1   0.09730 310787.520000
  14058  14061     1   0.09730 310787.520000
  14059  14063     1   0.10969 276646.080000
  14059  14064     1   0.10969 276646.080000
  14065  14066     1   0.09730 310787.520000
  14068  14070     1   0.10969 276646.080000
  14069  14071     1   0.10969 276646.080000
  14072  14076     1   0.10969 276646.080000
  14073  14075     1   0.10969 276646.080000
  14074  14077     1   0.10961 277566.560000
  14079  14085     1   0.09730 310787.520000
  14080  14083     1   0.09730 310787.520000
  14081  14084     1   0.09730 310787.520000
  14082  14086     1   0.10969 276646.080000
  14082  14087     1   0.10969 276646.080000
  14088  14089     1   0.09730 310787.520000
  14091  14093     1   0.10969 276646.080000
  14092  14094     1   0.10969 276646.080000
  14095  14099     1   0.10969 276646.080000
  14096  14098     1   0.10969 276646.080000
  14097  14100     1   0.10961 277566.560000
  14102  14108     1   0.09730 310787.520000
  14103  14106     1   0.09730 310787.520000
  14104  14107     1   0.09730 310787.520000
  14105  14109     1   0.10969 276646.080000
  14105  14110     1   0.10969 276646.080000
  14111  14112     1   0.09730 310787.520000
  14114  14116     1   0.10969 276646.080000
  14115  14117     1   0.10969 276646.080000
  14118  14122     1   0.10969 276646.080000
  14119  14121     1   0.10969 276646.080000
  14120  14123     1   0.10961 277566.560000
  14125  14131     1   0.09730 310787.520000
  14126  14129     1   0.09730 310787.520000
  14127  14130     1   0.09730 310787.520000
  14128  14132     1   0.10969 276646.080000
  14128  14133     1   0.10969 276646.080000
  14134  14135     1   0.09730 310787.520000
  14137  14139     1   0.10969 276646.080000
  14138  14140     1   0.10969 276646.080000
  14141  14145     1   0.10969 276646.080000
  14142  14144     1   0.10969 276646.080000
  14143  14146     1   0.10961 277566.560000
  14148  14154     1   0.09730 310787.520000
  14149  14152     1   0.09730 310787.520000
  14150  14153     1   0.09730 310787.520000
  14151  14155     1   0.10969 276646.080000
  14151  14156     1   0.10969 276646.080000
  14157  14158     1   0.09730 310787.520000
  14160  14162     1   0.10969 276646.080000
  14161  14163     1   0.10969 276646.080000
  14164  14168     1   0.10969 276646.080000
  14165  14167     1   0.10969 276646.080000
  14166  14169     1   0.10961 277566.560000
  14171  14177     1   0.09730 310787.520000
  14172  14175     1   0.09730 310787.520000
  14173  14176     1   0.09730 310787.520000
  14174  14178     1   0.10969 276646.080000
  14174  14179     1   0.10969 276646.080000
  14180  14181     1   0.09730 310787.520000
  14183  14185     1   0.10969 276646.080000
  14184  14186     1   0.10969 276646.080000
  14187  14191     1   0.10969 276646.080000
  14188  14190     1   0.10969 276646.080000
  14189  14192     1   0.10961 277566.560000
  14194  14200     1   0.09730 310787.520000
  14195  14198     1   0.09730 310787.520000
  14196  14199     1   0.09730 310787.520000
  14197  14201     1   0.10969 276646.080000
  14197  14202     1   0.10969 276646.080000
  14203  14204     1   0.09730 310787.520000
  14206  14208     1   0.10969 276646.080000
  14207  14209     1   0.10969 276646.080000
  14210  14214     1   0.10969 276646.080000
  14211  14213     1   0.10969 276646.080000
  14212  14215     1   0.10961 277566.560000
  14217  14223     1   0.09730 310787.520000
  14218  14221     1   0.09730 310787.520000
  14219  14222     1   0.09730 310787.520000
  14220  14224     1   0.10969 276646.080000
  14220  14225     1   0.10969 276646.080000
  14226  14227     1   0.09730 310787.520000
  14229  14231     1   0.10969 276646.080000
  14230  14232     1   0.10969 276646.080000
  14233  14237     1   0.10969 276646.080000
  14234  14236     1   0.10969 276646.080000
  14235  14238     1   0.10961 277566.560000
  14240  14246     1   0.09730 310787.520000
  14241  14244     1   0.09730 310787.520000
  14242  14245     1   0.09730 310787.520000
  14243  14247     1   0.10969 276646.080000
  14243  14248     1   0.10969 276646.080000
  14249  14250     1   0.09730 310787.520000
  14252  14254     1   0.10969 276646.080000
  14253  14255     1   0.10969 276646.080000
  14256  14260     1   0.10969 276646.080000
  14257  14259     1   0.10969 276646.080000
  14258  14261     1   0.10961 277566.560000
  14263  14269     1   0.09730 310787.520000
  14264  14267     1   0.09730 310787.520000
  14265  14268     1   0.09730 310787.520000
  14266  14270     1   0.10969 276646.080000
  14266  14271     1   0.10969 276646.080000
  14272  14273     1   0.09730 310787.520000
  14275  14277     1   0.10969 276646.080000
  14276  14278     1   0.10969 276646.080000
  14279  14283     1   0.10969 276646.080000
  14280  14282     1   0.10969 276646.080000
  14281  14284     1   0.10961 277566.560000
  14286  14292     1   0.09730 310787.520000
  14287  14290     1   0.09730 310787.520000
  14288  14291     1   0.09730 310787.520000
  14289  14293     1   0.10969 276646.080000
  14289  14294     1   0.10969 276646.080000
  14295  14296     1   0.09730 310787.520000
  14298  14300     1   0.10969 276646.080000
  14299  14301     1   0.10969 276646.080000
  14302  14306     1   0.10969 276646.080000
  14303  14305     1   0.10969 276646.080000
  14304  14307     1   0.10961 277566.560000
  14309  14315     1   0.09730 310787.520000
  14310  14313     1   0.09730 310787.520000
  14311  14314     1   0.09730 310787.520000
  14312  14316     1   0.10969 276646.080000
  14312  14317     1   0.10969 276646.080000
  14318  14319     1   0.09730 310787.520000
  14321  14323     1   0.10969 276646.080000
  14322  14324     1   0.10969 276646.080000
  14325  14329     1   0.10969 276646.080000
  14326  14328     1   0.10969 276646.080000
  14327  14330     1   0.10961 277566.560000
  14332  14338     1   0.09730 310787.520000
  14333  14336     1   0.09730 310787.520000
  14334  14337     1   0.09730 310787.520000
  14335  14339     1   0.10969 276646.080000
  14335  14340     1   0.10969 276646.080000
  14341  14342     1   0.09730 310787.520000
  14344  14346     1   0.10969 276646.080000
  14345  14347     1   0.10969 276646.080000
  14348  14352     1   0.10969 276646.080000
  14349  14351     1   0.10969 276646.080000
  14350  14353     1   0.10961 277566.560000
  14355  14361     1   0.09730 310787.520000
  14356  14359     1   0.09730 310787.520000
  14357  14360     1   0.09730 310787.520000
  14358  14362     1   0.10969 276646.080000
  14358  14363     1   0.10969 276646.080000
  14364  14365     1   0.09730 310787.520000
  14367  14369     1   0.10969 276646.080000
  14368  14370     1   0.10969 276646.080000
  14371  14375     1   0.10969 276646.080000
  14372  14374     1   0.10969 276646.080000
  14373  14376     1   0.10961 277566.560000
  14378  14384     1   0.09730 310787.520000
  14379  14382     1   0.09730 310787.520000
  14380  14383     1   0.09730 310787.520000
  14381  14385     1   0.10969 276646.080000
  14381  14386     1   0.10969 276646.080000
  14387  14388     1   0.09730 310787.520000
  14390  14392     1   0.10969 276646.080000
  14391  14393     1   0.10969 276646.080000
  14394  14398     1   0.10969 276646.080000
  14395  14397     1   0.10969 276646.080000
  14396  14399     1   0.10961 277566.560000
  14401  14407     1   0.09730 310787.520000
  14402  14405     1   0.09730 310787.520000
  14403  14406     1   0.09730 310787.520000
  14404  14408     1   0.10969 276646.080000
  14404  14409     1   0.10969 276646.080000
  14410  14411     1   0.09730 310787.520000
  14413  14415     1   0.10969 276646.080000
  14414  14416     1   0.10969 276646.080000
  14417  14421     1   0.10969 276646.080000
  14418  14420     1   0.10969 276646.080000
  14419  14422     1   0.10961 277566.560000
  14424  14430     1   0.09730 310787.520000
  14425  14428     1   0.09730 310787.520000
  14426  14429     1   0.09730 310787.520000
  14427  14431     1   0.10969 276646.080000
  14427  14432     1   0.10969 276646.080000
  14433  14434     1   0.09730 310787.520000
  14436  14438     1   0.10969 276646.080000
  14437  14439     1   0.10969 276646.080000
  14440  14444     1   0.10969 276646.080000
  14441  14443     1   0.10969 276646.080000
  14442  14445     1   0.10961 277566.560000
  14447  14453     1   0.09730 310787.520000
  14448  14451     1   0.09730 310787.520000
  14449  14452     1   0.09730 310787.520000
  14450  14454     1   0.10969 276646.080000
  14450  14455     1   0.10969 276646.080000
  14456  14457     1   0.09730 310787.520000
  14459  14461     1   0.10969 276646.080000
  14460  14462     1   0.10969 276646.080000
  14463  14467     1   0.10969 276646.080000
  14464  14466     1   0.10969 276646.080000
  14465  14468     1   0.10961 277566.560000
  14470  14476     1   0.09730 310787.520000
  14471  14474     1   0.09730 310787.520000
  14472  14475     1   0.09730 310787.520000
  14473  14477     1   0.10969 276646.080000
  14473  14478     1   0.10969 276646.080000
  14479  14480     1   0.09730 310787.520000
  14482  14484     1   0.10969 276646.080000
  14483  14485     1   0.10969 276646.080000
  14486  14490     1   0.10969 276646.080000
  14487  14489     1   0.10969 276646.080000
  14488  14491     1   0.10961 277566.560000
  14493  14499     1   0.09730 310787.520000
  14494  14497     1   0.09730 310787.520000
  14495  14498     1   0.09730 310787.520000
  14496  14500     1   0.10969 276646.080000
  14496  14501     1   0.10969 276646.080000
  14502  14503     1   0.09730 310787.520000
  14505  14507     1   0.10969 276646.080000
  14506  14508     1   0.10969 276646.080000
  14509  14513     1   0.10969 276646.080000
  14510  14512     1   0.10969 276646.080000
  14511  14514     1   0.10961 277566.560000
  14516  14522     1   0.09730 310787.520000
  14517  14520     1   0.09730 310787.520000
  14518  14521     1   0.09730 310787.520000
  14519  14523     1   0.10969 276646.080000
  14519  14524     1   0.10969 276646.080000
  14525  14526     1   0.09730 310787.520000
  14528  14530     1   0.10969 276646.080000
  14529  14531     1   0.10969 276646.080000
  14532  14536     1   0.10969 276646.080000
  14533  14535     1   0.10969 276646.080000
  14534  14537     1   0.10961 277566.560000
  14539  14545     1   0.09730 310787.520000
  14540  14543     1   0.09730 310787.520000
  14541  14544     1   0.09730 310787.520000
  14542  14546     1   0.10969 276646.080000
  14542  14547     1   0.10969 276646.080000
  14548  14549     1   0.09730 310787.520000
  14551  14553     1   0.10969 276646.080000
  14552  14554     1   0.10969 276646.080000
  14555  14559     1   0.10969 276646.080000
  14556  14558     1   0.10969 276646.080000
  14557  14560     1   0.10961 277566.560000
  14562  14568     1   0.09730 310787.520000
  14563  14566     1   0.09730 310787.520000
  14564  14567     1   0.09730 310787.520000
  14565  14569     1   0.10969 276646.080000
  14565  14570     1   0.10969 276646.080000
  14571  14572     1   0.09730 310787.520000
  14574  14576     1   0.10969 276646.080000
  14575  14577     1   0.10969 276646.080000
  14578  14582     1   0.10969 276646.080000
  14579  14581     1   0.10969 276646.080000
  14580  14583     1   0.10961 277566.560000
  14585  14591     1   0.09730 310787.520000
  14586  14589     1   0.09730 310787.520000
  14587  14590     1   0.09730 310787.520000
  14588  14592     1   0.10969 276646.080000
  14588  14593     1   0.10969 276646.080000
  14594  14595     1   0.09730 310787.520000
  14597  14599     1   0.10969 276646.080000
  14598  14600     1   0.10969 276646.080000
  14601  14605     1   0.10969 276646.080000
  14602  14604     1   0.10969 276646.080000
  14603  14606     1   0.10961 277566.560000
  14608  14614     1   0.09730 310787.520000
  14609  14612     1   0.09730 310787.520000
  14610  14613     1   0.09730 310787.520000
  14611  14615     1   0.10969 276646.080000
  14611  14616     1   0.10969 276646.080000
  14617  14618     1   0.09730 310787.520000
  14620  14622     1   0.10969 276646.080000
  14621  14623     1   0.10969 276646.080000
  14624  14628     1   0.10969 276646.080000
  14625  14627     1   0.10969 276646.080000
  14626  14629     1   0.10961 277566.560000
  14631  14637     1   0.09730 310787.520000
  14632  14635     1   0.09730 310787.520000
  14633  14636     1   0.09730 310787.520000
  14634  14638     1   0.10969 276646.080000
  14634  14639     1   0.10969 276646.080000
  14640  14641     1   0.09730 310787.520000
  14643  14645     1   0.10969 276646.080000
  14644  14646     1   0.10969 276646.080000
  14647  14651     1   0.10969 276646.080000
  14648  14650     1   0.10969 276646.080000
  14649  14652     1   0.10961 277566.560000
  14654  14660     1   0.09730 310787.520000
  14655  14658     1   0.09730 310787.520000
  14656  14659     1   0.09730 310787.520000
  14657  14661     1   0.10969 276646.080000
  14657  14662     1   0.10969 276646.080000
  14663  14664     1   0.09730 310787.520000
  14666  14668     1   0.10969 276646.080000
  14667  14669     1   0.10969 276646.080000
  14670  14674     1   0.10969 276646.080000
  14671  14673     1   0.10969 276646.080000
  14672  14675     1   0.10961 277566.560000
  14677  14683     1   0.09730 310787.520000
  14678  14681     1   0.09730 310787.520000
  14679  14682     1   0.09730 310787.520000
  14680  14684     1   0.10969 276646.080000
  14680  14685     1   0.10969 276646.080000
  14686  14687     1   0.09730 310787.520000
  14689  14691     1   0.10969 276646.080000
  14690  14692     1   0.10969 276646.080000
  14693  14697     1   0.10969 276646.080000
  14694  14696     1   0.10969 276646.080000
  14695  14698     1   0.10961 277566.560000
  14700  14706     1   0.09730 310787.520000
  14701  14704     1   0.09730 310787.520000
  14702  14705     1   0.09730 310787.520000
  14703  14707     1   0.10969 276646.080000
  14703  14708     1   0.10969 276646.080000
  14709  14710     1   0.09730 310787.520000
  14712  14714     1   0.10969 276646.080000
  14713  14715     1   0.10969 276646.080000
  14716  14720     1   0.10969 276646.080000
  14717  14719     1   0.10969 276646.080000
  14718  14721     1   0.10961 277566.560000
  14723  14729     1   0.09730 310787.520000
  14724  14727     1   0.09730 310787.520000
  14725  14728     1   0.09730 310787.520000
  14726  14730     1   0.10969 276646.080000
  14726  14731     1   0.10969 276646.080000
  14732  14733     1   0.09730 310787.520000
  14735  14737     1   0.10969 276646.080000
  14736  14738     1   0.10969 276646.080000
  14739  14743     1   0.10969 276646.080000
  14740  14742     1   0.10969 276646.080000
  14741  14744     1   0.10961 277566.560000
  14746  14752     1   0.09730 310787.520000
  14747  14750     1   0.09730 310787.520000
  14748  14751     1   0.09730 310787.520000
  14749  14753     1   0.10969 276646.080000
  14749  14754     1   0.10969 276646.080000
  14755  14756     1   0.09730 310787.520000
  14758  14760     1   0.10969 276646.080000
  14759  14761     1   0.10969 276646.080000
  14762  14766     1   0.10969 276646.080000
  14763  14765     1   0.10969 276646.080000
  14764  14767     1   0.10961 277566.560000
  14769  14775     1   0.09730 310787.520000
  14770  14773     1   0.09730 310787.520000
  14771  14774     1   0.09730 310787.520000
  14772  14776     1   0.10969 276646.080000
  14772  14777     1   0.10969 276646.080000
  14778  14779     1   0.09730 310787.520000
  14781  14783     1   0.10969 276646.080000
  14782  14784     1   0.10969 276646.080000
  14785  14789     1   0.10969 276646.080000
  14786  14788     1   0.10969 276646.080000
  14787  14790     1   0.10961 277566.560000
  14792  14798     1   0.09730 310787.520000
  14793  14796     1   0.09730 310787.520000
  14794  14797     1   0.09730 310787.520000
  14795  14799     1   0.10969 276646.080000
  14795  14800     1   0.10969 276646.080000
  14801  14802     1   0.09730 310787.520000
  14804  14806     1   0.10969 276646.080000
  14805  14807     1   0.10969 276646.080000
  14808  14812     1   0.10969 276646.080000
  14809  14811     1   0.10969 276646.080000
  14810  14813     1   0.10961 277566.560000
  14815  14821     1   0.09730 310787.520000
  14816  14819     1   0.09730 310787.520000
  14817  14820     1   0.09730 310787.520000
  14818  14822     1   0.10969 276646.080000
  14818  14823     1   0.10969 276646.080000
  14824  14825     1   0.09730 310787.520000
  14827  14829     1   0.10969 276646.080000
  14828  14830     1   0.10969 276646.080000
  14831  14835     1   0.10969 276646.080000
  14832  14834     1   0.10969 276646.080000
  14833  14836     1   0.10961 277566.560000
  14838  14844     1   0.09730 310787.520000
  14839  14842     1   0.09730 310787.520000
  14840  14843     1   0.09730 310787.520000
  14841  14845     1   0.10969 276646.080000
  14841  14846     1   0.10969 276646.080000
  14847  14848     1   0.09730 310787.520000
  14850  14852     1   0.10969 276646.080000
  14851  14853     1   0.10969 276646.080000
  14854  14858     1   0.10969 276646.080000
  14855  14857     1   0.10969 276646.080000
  14856  14859     1   0.10961 277566.560000
  14861  14867     1   0.09730 310787.520000
  14862  14865     1   0.09730 310787.520000
  14863  14866     1   0.09730 310787.520000
  14864  14868     1   0.10969 276646.080000
  14864  14869     1   0.10969 276646.080000
  14870  14871     1   0.09730 310787.520000
  14873  14875     1   0.10969 276646.080000
  14874  14876     1   0.10969 276646.080000
  14877  14881     1   0.10969 276646.080000
  14878  14880     1   0.10969 276646.080000
  14879  14882     1   0.10961 277566.560000
  14884  14890     1   0.09730 310787.520000
  14885  14888     1   0.09730 310787.520000
  14886  14889     1   0.09730 310787.520000
  14887  14891     1   0.10969 276646.080000
  14887  14892     1   0.10969 276646.080000
  14893  14894     1   0.09730 310787.520000
  14896  14898     1   0.10969 276646.080000
  14897  14899     1   0.10969 276646.080000
  14900  14904     1   0.10969 276646.080000
  14901  14903     1   0.10969 276646.080000
  14902  14905     1   0.10961 277566.560000
  14907  14913     1   0.09730 310787.520000
  14908  14911     1   0.09730 310787.520000
  14909  14912     1   0.09730 310787.520000
  14910  14914     1   0.10969 276646.080000
  14910  14915     1   0.10969 276646.080000
  14916  14917     1   0.09730 310787.520000
  14919  14921     1   0.10969 276646.080000
  14920  14922     1   0.10969 276646.080000
  14923  14927     1   0.10969 276646.080000
  14924  14926     1   0.10969 276646.080000
  14925  14928     1   0.10961 277566.560000
  14930  14936     1   0.09730 310787.520000
  14931  14934     1   0.09730 310787.520000
  14932  14935     1   0.09730 310787.520000
  14933  14937     1   0.10969 276646.080000
  14933  14938     1   0.10969 276646.080000
  14939  14940     1   0.09730 310787.520000
  14942  14944     1   0.10969 276646.080000
  14943  14945     1   0.10969 276646.080000
  14946  14950     1   0.10969 276646.080000
  14947  14949     1   0.10969 276646.080000
  14948  14951     1   0.10961 277566.560000
  14953  14959     1   0.09730 310787.520000
  14954  14957     1   0.09730 310787.520000
  14955  14958     1   0.09730 310787.520000
  14956  14960     1   0.10969 276646.080000
  14956  14961     1   0.10969 276646.080000
  14962  14963     1   0.09730 310787.520000
  14965  14967     1   0.10969 276646.080000
  14966  14968     1   0.10969 276646.080000
  14969  14973     1   0.10969 276646.080000
  14970  14972     1   0.10969 276646.080000
  14971  14974     1   0.10961 277566.560000
  14976  14982     1   0.09730 310787.520000
  14977  14980     1   0.09730 310787.520000
  14978  14981     1   0.09730 310787.520000
  14979  14983     1   0.10969 276646.080000
  14979  14984     1   0.10969 276646.080000
  14985  14986     1   0.09730 310787.520000
  14988  14990     1   0.10969 276646.080000
  14989  14991     1   0.10969 276646.080000
  14992  14996     1   0.10969 276646.080000
  14993  14995     1   0.10969 276646.080000
  14994  14997     1   0.10961 277566.560000
  14999  15005     1   0.09730 310787.520000
  15000  15003     1   0.09730 310787.520000
  15001  15004     1   0.09730 310787.520000
  15002  15006     1   0.10969 276646.080000
  15002  15007     1   0.10969 276646.080000
  15008  15009     1   0.09730 310787.520000
  15011  15013     1   0.10969 276646.080000
  15012  15014     1   0.10969 276646.080000
  15015  15019     1   0.10969 276646.080000
  15016  15018     1   0.10969 276646.080000
  15017  15020     1   0.10961 277566.560000
  15022  15028     1   0.09730 310787.520000
  15023  15026     1   0.09730 310787.520000
  15024  15027     1   0.09730 310787.520000
  15025  15029     1   0.10969 276646.080000
  15025  15030     1   0.10969 276646.080000
  15031  15032     1   0.09730 310787.520000
  15034  15036     1   0.10969 276646.080000
  15035  15037     1   0.10969 276646.080000
  15038  15042     1   0.10969 276646.080000
  15039  15041     1   0.10969 276646.080000
  15040  15043     1   0.10961 277566.560000
  15045  15051     1   0.09730 310787.520000
  15046  15049     1   0.09730 310787.520000
  15047  15050     1   0.09730 310787.520000
  15048  15052     1   0.10969 276646.080000
  15048  15053     1   0.10969 276646.080000
  15054  15055     1   0.09730 310787.520000
  15057  15059     1   0.10969 276646.080000
  15058  15060     1   0.10969 276646.080000
  15061  15065     1   0.10969 276646.080000
  15062  15064     1   0.10969 276646.080000
  15063  15066     1   0.10961 277566.560000
  15068  15074     1   0.09730 310787.520000
  15069  15072     1   0.09730 310787.520000
  15070  15073     1   0.09730 310787.520000
  15071  15075     1   0.10969 276646.080000
  15071  15076     1   0.10969 276646.080000
  15077  15078     1   0.09730 310787.520000
  15080  15082     1   0.10969 276646.080000
  15081  15083     1   0.10969 276646.080000
  15084  15088     1   0.10969 276646.080000
  15085  15087     1   0.10969 276646.080000
  15086  15089     1   0.10961 277566.560000
  15091  15097     1   0.09730 310787.520000
  15092  15095     1   0.09730 310787.520000
  15093  15096     1   0.09730 310787.520000
  15094  15098     1   0.10969 276646.080000
  15094  15099     1   0.10969 276646.080000
  15100  15101     1   0.09730 310787.520000
  15103  15105     1   0.10969 276646.080000
  15104  15106     1   0.10969 276646.080000
  15107  15111     1   0.10969 276646.080000
  15108  15110     1   0.10969 276646.080000
  15109  15112     1   0.10961 277566.560000
  15114  15120     1   0.09730 310787.520000
  15115  15118     1   0.09730 310787.520000
  15116  15119     1   0.09730 310787.520000
  15117  15121     1   0.10969 276646.080000
  15117  15122     1   0.10969 276646.080000
  15123  15124     1   0.09730 310787.520000
  15126  15128     1   0.10969 276646.080000
  15127  15129     1   0.10969 276646.080000
  15130  15134     1   0.10969 276646.080000
  15131  15133     1   0.10969 276646.080000
  15132  15135     1   0.10961 277566.560000
  15137  15143     1   0.09730 310787.520000
  15138  15141     1   0.09730 310787.520000
  15139  15142     1   0.09730 310787.520000
  15140  15144     1   0.10969 276646.080000
  15140  15145     1   0.10969 276646.080000
  15146  15147     1   0.09730 310787.520000
  15149  15151     1   0.10969 276646.080000
  15150  15152     1   0.10969 276646.080000
  15153  15157     1   0.10969 276646.080000
  15154  15156     1   0.10969 276646.080000
  15155  15158     1   0.10961 277566.560000
  15160  15166     1   0.09730 310787.520000
  15161  15164     1   0.09730 310787.520000
  15162  15165     1   0.09730 310787.520000
  15163  15167     1   0.10969 276646.080000
  15163  15168     1   0.10969 276646.080000
  15169  15170     1   0.09730 310787.520000
  15172  15174     1   0.10969 276646.080000
  15173  15175     1   0.10969 276646.080000
  15176  15180     1   0.10969 276646.080000
  15177  15179     1   0.10969 276646.080000
  15178  15181     1   0.10961 277566.560000
  15183  15189     1   0.09730 310787.520000
  15184  15187     1   0.09730 310787.520000
  15185  15188     1   0.09730 310787.520000
  15186  15190     1   0.10969 276646.080000
  15186  15191     1   0.10969 276646.080000
  15192  15193     1   0.09730 310787.520000
  15195  15197     1   0.10969 276646.080000
  15196  15198     1   0.10969 276646.080000
  15199  15203     1   0.10969 276646.080000
  15200  15202     1   0.10969 276646.080000
  15201  15204     1   0.10961 277566.560000
  15206  15212     1   0.09730 310787.520000
  15207  15210     1   0.09730 310787.520000
  15208  15211     1   0.09730 310787.520000
  15209  15213     1   0.10969 276646.080000
  15209  15214     1   0.10969 276646.080000
  15215  15216     1   0.09730 310787.520000
  15218  15220     1   0.10969 276646.080000
  15219  15221     1   0.10969 276646.080000
  15222  15226     1   0.10969 276646.080000
  15223  15225     1   0.10969 276646.080000
  15224  15227     1   0.10961 277566.560000
  15229  15235     1   0.09730 310787.520000
  15230  15233     1   0.09730 310787.520000
  15231  15234     1   0.09730 310787.520000
  15232  15236     1   0.10969 276646.080000
  15232  15237     1   0.10969 276646.080000
  15238  15239     1   0.09730 310787.520000
  15241  15243     1   0.10969 276646.080000
  15242  15244     1   0.10969 276646.080000
  15245  15249     1   0.10969 276646.080000
  15246  15248     1   0.10969 276646.080000
  15247  15250     1   0.10961 277566.560000
  15252  15258     1   0.09730 310787.520000
  15253  15256     1   0.09730 310787.520000
  15254  15257     1   0.09730 310787.520000
  15255  15259     1   0.10969 276646.080000
  15255  15260     1   0.10969 276646.080000
  15261  15262     1   0.09730 310787.520000
  15264  15266     1   0.10969 276646.080000
  15265  15267     1   0.10969 276646.080000
  15268  15272     1   0.10969 276646.080000
  15269  15271     1   0.10969 276646.080000
  15270  15273     1   0.10961 277566.560000
  15275  15281     1   0.09730 310787.520000
  15276  15279     1   0.09730 310787.520000
  15277  15280     1   0.09730 310787.520000
  15278  15282     1   0.10969 276646.080000
  15278  15283     1   0.10969 276646.080000
  15284  15285     1   0.09730 310787.520000
  15287  15289     1   0.10969 276646.080000
  15288  15290     1   0.10969 276646.080000
  15291  15295     1   0.10969 276646.080000
  15292  15294     1   0.10969 276646.080000
  15293  15296     1   0.10961 277566.560000
  15298  15304     1   0.09730 310787.520000
  15299  15302     1   0.09730 310787.520000
  15300  15303     1   0.09730 310787.520000
  15301  15305     1   0.10969 276646.080000
  15301  15306     1   0.10969 276646.080000
  15307  15308     1   0.09730 310787.520000
  15310  15312     1   0.10969 276646.080000
  15311  15313     1   0.10969 276646.080000
  15314  15318     1   0.10969 276646.080000
  15315  15317     1   0.10969 276646.080000
  15316  15319     1   0.10961 277566.560000
  15321  15327     1   0.09730 310787.520000
  15322  15325     1   0.09730 310787.520000
  15323  15326     1   0.09730 310787.520000
  15324  15328     1   0.10969 276646.080000
  15324  15329     1   0.10969 276646.080000
  15330  15331     1   0.09730 310787.520000
  15333  15335     1   0.10969 276646.080000
  15334  15336     1   0.10969 276646.080000
  15337  15341     1   0.10969 276646.080000
  15338  15340     1   0.10969 276646.080000
  15339  15342     1   0.10961 277566.560000
  15344  15350     1   0.09730 310787.520000
  15345  15348     1   0.09730 310787.520000
  15346  15349     1   0.09730 310787.520000
  15347  15351     1   0.10969 276646.080000
  15347  15352     1   0.10969 276646.080000
  15353  15354     1   0.09730 310787.520000
  15356  15358     1   0.10969 276646.080000
  15357  15359     1   0.10969 276646.080000
  15360  15364     1   0.10969 276646.080000
  15361  15363     1   0.10969 276646.080000
  15362  15365     1   0.10961 277566.560000
  15367  15373     1   0.09730 310787.520000
  15368  15371     1   0.09730 310787.520000
  15369  15372     1   0.09730 310787.520000
  15370  15374     1   0.10969 276646.080000
  15370  15375     1   0.10969 276646.080000
  15376  15377     1   0.09730 310787.520000
  15379  15381     1   0.10969 276646.080000
  15380  15382     1   0.10969 276646.080000
  15383  15387     1   0.10969 276646.080000
  15384  15386     1   0.10969 276646.080000
  15385  15388     1   0.10961 277566.560000
  15390  15396     1   0.09730 310787.520000
  15391  15394     1   0.09730 310787.520000
  15392  15395     1   0.09730 310787.520000
  15393  15397     1   0.10969 276646.080000
  15393  15398     1   0.10969 276646.080000
  15399  15400     1   0.09730 310787.520000
  15402  15404     1   0.10969 276646.080000
  15403  15405     1   0.10969 276646.080000
  15406  15410     1   0.10969 276646.080000
  15407  15409     1   0.10969 276646.080000
  15408  15411     1   0.10961 277566.560000
  15413  15419     1   0.09730 310787.520000
  15414  15417     1   0.09730 310787.520000
  15415  15418     1   0.09730 310787.520000
  15416  15420     1   0.10969 276646.080000
  15416  15421     1   0.10969 276646.080000
  15422  15423     1   0.09730 310787.520000
  15425  15427     1   0.10969 276646.080000
  15426  15428     1   0.10969 276646.080000
  15429  15433     1   0.10969 276646.080000
  15430  15432     1   0.10969 276646.080000
  15431  15434     1   0.10961 277566.560000
  15436  15442     1   0.09730 310787.520000
  15437  15440     1   0.09730 310787.520000
  15438  15441     1   0.09730 310787.520000
  15439  15443     1   0.10969 276646.080000
  15439  15444     1   0.10969 276646.080000
  15445  15446     1   0.09730 310787.520000
  15448  15450     1   0.10969 276646.080000
  15449  15451     1   0.10969 276646.080000
  15452  15456     1   0.10969 276646.080000
  15453  15455     1   0.10969 276646.080000
  15454  15457     1   0.10961 277566.560000
  15459  15465     1   0.09730 310787.520000
  15460  15463     1   0.09730 310787.520000
  15461  15464     1   0.09730 310787.520000
  15462  15466     1   0.10969 276646.080000
  15462  15467     1   0.10969 276646.080000
  15468  15469     1   0.09730 310787.520000
  15471  15473     1   0.10969 276646.080000
  15472  15474     1   0.10969 276646.080000
  15475  15479     1   0.10969 276646.080000
  15476  15478     1   0.10969 276646.080000
  15477  15480     1   0.10961 277566.560000
  15482  15488     1   0.09730 310787.520000
  15483  15486     1   0.09730 310787.520000
  15484  15487     1   0.09730 310787.520000
  15485  15489     1   0.10969 276646.080000
  15485  15490     1   0.10969 276646.080000
  15491  15492     1   0.09730 310787.520000
  15494  15496     1   0.10969 276646.080000
  15495  15497     1   0.10969 276646.080000
  15498  15502     1   0.10969 276646.080000
  15499  15501     1   0.10969 276646.080000
  15500  15503     1   0.10961 277566.560000
  15505  15511     1   0.09730 310787.520000
  15506  15509     1   0.09730 310787.520000
  15507  15510     1   0.09730 310787.520000
  15508  15512     1   0.10969 276646.080000
  15508  15513     1   0.10969 276646.080000
  15514  15515     1   0.09730 310787.520000
  15517  15519     1   0.10969 276646.080000
  15518  15520     1   0.10969 276646.080000
  15521  15525     1   0.10969 276646.080000
  15522  15524     1   0.10969 276646.080000
  15523  15526     1   0.10961 277566.560000
  15528  15534     1   0.09730 310787.520000
  15529  15532     1   0.09730 310787.520000
  15530  15533     1   0.09730 310787.520000
  15531  15535     1   0.10969 276646.080000
  15531  15536     1   0.10969 276646.080000
  15537  15538     1   0.09730 310787.520000
  15540  15542     1   0.10969 276646.080000
  15541  15543     1   0.10969 276646.080000
  15544  15548     1   0.10969 276646.080000
  15545  15547     1   0.10969 276646.080000
  15546  15549     1   0.10961 277566.560000
  15551  15557     1   0.09730 310787.520000
  15552  15555     1   0.09730 310787.520000
  15553  15556     1   0.09730 310787.520000
  15554  15558     1   0.10969 276646.080000
  15554  15559     1   0.10969 276646.080000
  15560  15561     1   0.09730 310787.520000
  15563  15565     1   0.10969 276646.080000
  15564  15566     1   0.10969 276646.080000
  15567  15571     1   0.10969 276646.080000
  15568  15570     1   0.10969 276646.080000
  15569  15572     1   0.10961 277566.560000
  15574  15580     1   0.09730 310787.520000
  15575  15578     1   0.09730 310787.520000
  15576  15579     1   0.09730 310787.520000
  15577  15581     1   0.10969 276646.080000
  15577  15582     1   0.10969 276646.080000
  15583  15584     1   0.09730 310787.520000
  15586  15588     1   0.10969 276646.080000
  15587  15589     1   0.10969 276646.080000
  15590  15594     1   0.10969 276646.080000
  15591  15593     1   0.10969 276646.080000
  15592  15595     1   0.10961 277566.560000
  15597  15603     1   0.09730 310787.520000
  15598  15601     1   0.09730 310787.520000
  15599  15602     1   0.09730 310787.520000
  15600  15604     1   0.10969 276646.080000
  15600  15605     1   0.10969 276646.080000
  15606  15607     1   0.09730 310787.520000
  15609  15611     1   0.10969 276646.080000
  15610  15612     1   0.10969 276646.080000
  15613  15617     1   0.10969 276646.080000
  15614  15616     1   0.10969 276646.080000
  15615  15618     1   0.10961 277566.560000
  15620  15626     1   0.09730 310787.520000
  15621  15624     1   0.09730 310787.520000
  15622  15625     1   0.09730 310787.520000
  15623  15627     1   0.10969 276646.080000
  15623  15628     1   0.10969 276646.080000
  15629  15630     1   0.09730 310787.520000
  15632  15634     1   0.10969 276646.080000
  15633  15635     1   0.10969 276646.080000
  15636  15640     1   0.10969 276646.080000
  15637  15639     1   0.10969 276646.080000
  15638  15641     1   0.10961 277566.560000
  15643  15649     1   0.09730 310787.520000
  15644  15647     1   0.09730 310787.520000
  15645  15648     1   0.09730 310787.520000
  15646  15650     1   0.10969 276646.080000
  15646  15651     1   0.10969 276646.080000
  15652  15653     1   0.09730 310787.520000
  15655  15657     1   0.10969 276646.080000
  15656  15658     1   0.10969 276646.080000
  15659  15663     1   0.10969 276646.080000
  15660  15662     1   0.10969 276646.080000
  15661  15664     1   0.10961 277566.560000
  15666  15672     1   0.09730 310787.520000
  15667  15670     1   0.09730 310787.520000
  15668  15671     1   0.09730 310787.520000
  15669  15673     1   0.10969 276646.080000
  15669  15674     1   0.10969 276646.080000
  15675  15676     1   0.09730 310787.520000
  15678  15680     1   0.10969 276646.080000
  15679  15681     1   0.10969 276646.080000
  15682  15686     1   0.10969 276646.080000
  15683  15685     1   0.10969 276646.080000
  15684  15687     1   0.10961 277566.560000
  15689  15695     1   0.09730 310787.520000
  15690  15693     1   0.09730 310787.520000
  15691  15694     1   0.09730 310787.520000
  15692  15696     1   0.10969 276646.080000
  15692  15697     1   0.10969 276646.080000
  15698  15699     1   0.09730 310787.520000
  15701  15703     1   0.10969 276646.080000
  15702  15704     1   0.10969 276646.080000
  15705  15709     1   0.10969 276646.080000
  15706  15708     1   0.10969 276646.080000
  15707  15710     1   0.10961 277566.560000
  15712  15718     1   0.09730 310787.520000
  15713  15716     1   0.09730 310787.520000
  15714  15717     1   0.09730 310787.520000
  15715  15719     1   0.10969 276646.080000
  15715  15720     1   0.10969 276646.080000
  15721  15722     1   0.09730 310787.520000
  15724  15726     1   0.10969 276646.080000
  15725  15727     1   0.10969 276646.080000
  15728  15732     1   0.10969 276646.080000
  15729  15731     1   0.10969 276646.080000
  15730  15733     1   0.10961 277566.560000
  15735  15741     1   0.09730 310787.520000
  15736  15739     1   0.09730 310787.520000
  15737  15740     1   0.09730 310787.520000
  15738  15742     1   0.10969 276646.080000
  15738  15743     1   0.10969 276646.080000
  15744  15745     1   0.09730 310787.520000
  15747  15749     1   0.10969 276646.080000
  15748  15750     1   0.10969 276646.080000
  15751  15755     1   0.10969 276646.080000
  15752  15754     1   0.10969 276646.080000
  15753  15756     1   0.10961 277566.560000
  15758  15764     1   0.09730 310787.520000
  15759  15762     1   0.09730 310787.520000
  15760  15763     1   0.09730 310787.520000
  15761  15765     1   0.10969 276646.080000
  15761  15766     1   0.10969 276646.080000
  15767  15768     1   0.09730 310787.520000
  15770  15772     1   0.10969 276646.080000
  15771  15773     1   0.10969 276646.080000
  15774  15778     1   0.10969 276646.080000
  15775  15777     1   0.10969 276646.080000
  15776  15779     1   0.10961 277566.560000
  15781  15787     1   0.09730 310787.520000
  15782  15785     1   0.09730 310787.520000
  15783  15786     1   0.09730 310787.520000
  15784  15788     1   0.10969 276646.080000
  15784  15789     1   0.10969 276646.080000
  15790  15791     1   0.09730 310787.520000
  15793  15795     1   0.10969 276646.080000
  15794  15796     1   0.10969 276646.080000
  15797  15801     1   0.10969 276646.080000
  15798  15800     1   0.10969 276646.080000
  15799  15802     1   0.10961 277566.560000
  15804  15810     1   0.09730 310787.520000
  15805  15808     1   0.09730 310787.520000
  15806  15809     1   0.09730 310787.520000
  15807  15811     1   0.10969 276646.080000
  15807  15812     1   0.10969 276646.080000
  15813  15814     1   0.09730 310787.520000
  15816  15818     1   0.10969 276646.080000
  15817  15819     1   0.10969 276646.080000
  15820  15824     1   0.10969 276646.080000
  15821  15823     1   0.10969 276646.080000
  15822  15825     1   0.10961 277566.560000
  15827  15833     1   0.09730 310787.520000
  15828  15831     1   0.09730 310787.520000
  15829  15832     1   0.09730 310787.520000
  15830  15834     1   0.10969 276646.080000
  15830  15835     1   0.10969 276646.080000
  15836  15837     1   0.09730 310787.520000
  15839  15841     1   0.10969 276646.080000
  15840  15842     1   0.10969 276646.080000
  15843  15847     1   0.10969 276646.080000
  15844  15846     1   0.10969 276646.080000
  15845  15848     1   0.10961 277566.560000
  15850  15856     1   0.09730 310787.520000
  15851  15854     1   0.09730 310787.520000
  15852  15855     1   0.09730 310787.520000
  15853  15857     1   0.10969 276646.080000
  15853  15858     1   0.10969 276646.080000
  15859  15860     1   0.09730 310787.520000
  15862  15864     1   0.10969 276646.080000
  15863  15865     1   0.10969 276646.080000
  15866  15870     1   0.10969 276646.080000
  15867  15869     1   0.10969 276646.080000
  15868  15871     1   0.10961 277566.560000
  15873  15879     1   0.09730 310787.520000
  15874  15877     1   0.09730 310787.520000
  15875  15878     1   0.09730 310787.520000
  15876  15880     1   0.10969 276646.080000
  15876  15881     1   0.10969 276646.080000
  15882  15883     1   0.09730 310787.520000
  15885  15887     1   0.10969 276646.080000
  15886  15888     1   0.10969 276646.080000
  15889  15893     1   0.10969 276646.080000
  15890  15892     1   0.10969 276646.080000
  15891  15894     1   0.10961 277566.560000
  15896  15902     1   0.09730 310787.520000
  15897  15900     1   0.09730 310787.520000
  15898  15901     1   0.09730 310787.520000
  15899  15903     1   0.10969 276646.080000
  15899  15904     1   0.10969 276646.080000
  15905  15906     1   0.09730 310787.520000
  15908  15910     1   0.10969 276646.080000
  15909  15911     1   0.10969 276646.080000
  15912  15916     1   0.10969 276646.080000
  15913  15915     1   0.10969 276646.080000
  15914  15917     1   0.10961 277566.560000
  15919  15925     1   0.09730 310787.520000
  15920  15923     1   0.09730 310787.520000
  15921  15924     1   0.09730 310787.520000
  15922  15926     1   0.10969 276646.080000
  15922  15927     1   0.10969 276646.080000
  15928  15929     1   0.09730 310787.520000
  15931  15933     1   0.10969 276646.080000
  15932  15934     1   0.10969 276646.080000
  15935  15939     1   0.10969 276646.080000
  15936  15938     1   0.10969 276646.080000
  15937  15940     1   0.10961 277566.560000
  15942  15948     1   0.09730 310787.520000
  15943  15946     1   0.09730 310787.520000
  15944  15947     1   0.09730 310787.520000
  15945  15949     1   0.10969 276646.080000
  15945  15950     1   0.10969 276646.080000
  15951  15952     1   0.09730 310787.520000
  15954  15956     1   0.10969 276646.080000
  15955  15957     1   0.10969 276646.080000
  15958  15962     1   0.10969 276646.080000
  15959  15961     1   0.10969 276646.080000
  15960  15963     1   0.10961 277566.560000
  15965  15971     1   0.09730 310787.520000
  15966  15969     1   0.09730 310787.520000
  15967  15970     1   0.09730 310787.520000
  15968  15972     1   0.10969 276646.080000
  15968  15973     1   0.10969 276646.080000
  15974  15975     1   0.09730 310787.520000
  15977  15979     1   0.10969 276646.080000
  15978  15980     1   0.10969 276646.080000
  15981  15985     1   0.10969 276646.080000
  15982  15984     1   0.10969 276646.080000
  15983  15986     1   0.10961 277566.560000
  15988  15994     1   0.09730 310787.520000
  15989  15992     1   0.09730 310787.520000
  15990  15993     1   0.09730 310787.520000
  15991  15995     1   0.10969 276646.080000
  15991  15996     1   0.10969 276646.080000
  15997  15998     1   0.09730 310787.520000
  16000  16002     1   0.10969 276646.080000
  16001  16003     1   0.10969 276646.080000
  16004  16008     1   0.10969 276646.080000
  16005  16007     1   0.10969 276646.080000
  16006  16009     1   0.10961 277566.560000
  16011  16017     1   0.09730 310787.520000
  16012  16015     1   0.09730 310787.520000
  16013  16016     1   0.09730 310787.520000
  16014  16018     1   0.10969 276646.080000
  16014  16019     1   0.10969 276646.080000
  16020  16021     1   0.09730 310787.520000
  16023  16025     1   0.10969 276646.080000
  16024  16026     1   0.10969 276646.080000
  16027  16031     1   0.10969 276646.080000
  16028  16030     1   0.10969 276646.080000
  16029  16032     1   0.10961 277566.560000
  16034  16040     1   0.09730 310787.520000
  16035  16038     1   0.09730 310787.520000
  16036  16039     1   0.09730 310787.520000
  16037  16041     1   0.10969 276646.080000
  16037  16042     1   0.10969 276646.080000
  16043  16044     1   0.09730 310787.520000
  16046  16048     1   0.10969 276646.080000
  16047  16049     1   0.10969 276646.080000
  16050  16054     1   0.10969 276646.080000
  16051  16053     1   0.10969 276646.080000
  16052  16055     1   0.10961 277566.560000
  16057  16063     1   0.09730 310787.520000
  16058  16061     1   0.09730 310787.520000
  16059  16062     1   0.09730 310787.520000
  16060  16064     1   0.10969 276646.080000
  16060  16065     1   0.10969 276646.080000
  16066  16067     1   0.09730 310787.520000
  16069  16071     1   0.10969 276646.080000
  16070  16072     1   0.10969 276646.080000
  16073  16077     1   0.10969 276646.080000
  16074  16076     1   0.10969 276646.080000
  16075  16078     1   0.10961 277566.560000
  16080  16086     1   0.09730 310787.520000
  16081  16084     1   0.09730 310787.520000
  16082  16085     1   0.09730 310787.520000
  16083  16087     1   0.10969 276646.080000
  16083  16088     1   0.10969 276646.080000
  16089  16090     1   0.09730 310787.520000
  16092  16094     1   0.10969 276646.080000
  16093  16095     1   0.10969 276646.080000
  16096  16100     1   0.10969 276646.080000
  16097  16099     1   0.10969 276646.080000
  16098  16101     1   0.10961 277566.560000
  16103  16109     1   0.09730 310787.520000
  16104  16107     1   0.09730 310787.520000
  16105  16108     1   0.09730 310787.520000
  16106  16110     1   0.10969 276646.080000
  16106  16111     1   0.10969 276646.080000
  16112  16113     1   0.09730 310787.520000
  16115  16117     1   0.10969 276646.080000
  16116  16118     1   0.10969 276646.080000
  16119  16123     1   0.10969 276646.080000
  16120  16122     1   0.10969 276646.080000
  16121  16124     1   0.10961 277566.560000
  16126  16132     1   0.09730 310787.520000
  16127  16130     1   0.09730 310787.520000
  16128  16131     1   0.09730 310787.520000
  16129  16133     1   0.10969 276646.080000
  16129  16134     1   0.10969 276646.080000
  16135  16136     1   0.09730 310787.520000
  16138  16140     1   0.10969 276646.080000
  16139  16141     1   0.10969 276646.080000
  16142  16146     1   0.10969 276646.080000
  16143  16145     1   0.10969 276646.080000
  16144  16147     1   0.10961 277566.560000
  16149  16155     1   0.09730 310787.520000
  16150  16153     1   0.09730 310787.520000
  16151  16154     1   0.09730 310787.520000
  16152  16156     1   0.10969 276646.080000
  16152  16157     1   0.10969 276646.080000
  16158  16159     1   0.09730 310787.520000
  16161  16163     1   0.10969 276646.080000
  16162  16164     1   0.10969 276646.080000
  16165  16169     1   0.10969 276646.080000
  16166  16168     1   0.10969 276646.080000
  16167  16170     1   0.10961 277566.560000
  16172  16178     1   0.09730 310787.520000
  16173  16176     1   0.09730 310787.520000
  16174  16177     1   0.09730 310787.520000
  16175  16179     1   0.10969 276646.080000
  16175  16180     1   0.10969 276646.080000
  16181  16182     1   0.09730 310787.520000
  16184  16186     1   0.10969 276646.080000
  16185  16187     1   0.10969 276646.080000
  16188  16192     1   0.10969 276646.080000
  16189  16191     1   0.10969 276646.080000
  16190  16193     1   0.10961 277566.560000
  16195  16201     1   0.09730 310787.520000
  16196  16199     1   0.09730 310787.520000
  16197  16200     1   0.09730 310787.520000
  16198  16202     1   0.10969 276646.080000
  16198  16203     1   0.10969 276646.080000
  16204  16205     1   0.09730 310787.520000
  16207  16209     1   0.10969 276646.080000
  16208  16210     1   0.10969 276646.080000
  16211  16215     1   0.10969 276646.080000
  16212  16214     1   0.10969 276646.080000
  16213  16216     1   0.10961 277566.560000
  16218  16224     1   0.09730 310787.520000
  16219  16222     1   0.09730 310787.520000
  16220  16223     1   0.09730 310787.520000
  16221  16225     1   0.10969 276646.080000
  16221  16226     1   0.10969 276646.080000
  16227  16228     1   0.09730 310787.520000
  16230  16232     1   0.10969 276646.080000
  16231  16233     1   0.10969 276646.080000
  16234  16238     1   0.10969 276646.080000
  16235  16237     1   0.10969 276646.080000
  16236  16239     1   0.10961 277566.560000
  16241  16247     1   0.09730 310787.520000
  16242  16245     1   0.09730 310787.520000
  16243  16246     1   0.09730 310787.520000
  16244  16248     1   0.10969 276646.080000
  16244  16249     1   0.10969 276646.080000
  16250  16251     1   0.09730 310787.520000
  16253  16255     1   0.10969 276646.080000
  16254  16256     1   0.10969 276646.080000
  16257  16261     1   0.10969 276646.080000
  16258  16260     1   0.10969 276646.080000
  16259  16262     1   0.10961 277566.560000
  16264  16270     1   0.09730 310787.520000
  16265  16268     1   0.09730 310787.520000
  16266  16269     1   0.09730 310787.520000
  16267  16271     1   0.10969 276646.080000
  16267  16272     1   0.10969 276646.080000
  16273  16274     1   0.09730 310787.520000
  16276  16278     1   0.10969 276646.080000
  16277  16279     1   0.10969 276646.080000
  16280  16284     1   0.10969 276646.080000
  16281  16283     1   0.10969 276646.080000
  16282  16285     1   0.10961 277566.560000
  16287  16293     1   0.09730 310787.520000
  16288  16291     1   0.09730 310787.520000
  16289  16292     1   0.09730 310787.520000
  16290  16294     1   0.10969 276646.080000
  16290  16295     1   0.10969 276646.080000
  16296  16297     1   0.09730 310787.520000
  16299  16301     1   0.10969 276646.080000
  16300  16302     1   0.10969 276646.080000
  16303  16307     1   0.10969 276646.080000
  16304  16306     1   0.10969 276646.080000
  16305  16308     1   0.10961 277566.560000
  16310  16316     1   0.09730 310787.520000
  16311  16314     1   0.09730 310787.520000
  16312  16315     1   0.09730 310787.520000
  16313  16317     1   0.10969 276646.080000
  16313  16318     1   0.10969 276646.080000
  16319  16320     1   0.09730 310787.520000
  16322  16324     1   0.10969 276646.080000
  16323  16325     1   0.10969 276646.080000
  16326  16330     1   0.10969 276646.080000
  16327  16329     1   0.10969 276646.080000
  16328  16331     1   0.10961 277566.560000
  16333  16339     1   0.09730 310787.520000
  16334  16337     1   0.09730 310787.520000
  16335  16338     1   0.09730 310787.520000
  16336  16340     1   0.10969 276646.080000
  16336  16341     1   0.10969 276646.080000
  16342  16343     1   0.09730 310787.520000
  16345  16347     1   0.10969 276646.080000
  16346  16348     1   0.10969 276646.080000
  16349  16353     1   0.10969 276646.080000
  16350  16352     1   0.10969 276646.080000
  16351  16354     1   0.10961 277566.560000
  16356  16362     1   0.09730 310787.520000
  16357  16360     1   0.09730 310787.520000
  16358  16361     1   0.09730 310787.520000
  16359  16363     1   0.10969 276646.080000
  16359  16364     1   0.10969 276646.080000
  16365  16366     1   0.09730 310787.520000
  16368  16370     1   0.10969 276646.080000
  16369  16371     1   0.10969 276646.080000
  16372  16376     1   0.10969 276646.080000
  16373  16375     1   0.10969 276646.080000
  16374  16377     1   0.10961 277566.560000
  16379  16385     1   0.09730 310787.520000
  16380  16383     1   0.09730 310787.520000
  16381  16384     1   0.09730 310787.520000
  16382  16386     1   0.10969 276646.080000
  16382  16387     1   0.10969 276646.080000
  16388  16389     1   0.09730 310787.520000
  16391  16393     1   0.10969 276646.080000
  16392  16394     1   0.10969 276646.080000
  16395  16399     1   0.10969 276646.080000
  16396  16398     1   0.10969 276646.080000
  16397  16400     1   0.10961 277566.560000
  16402  16408     1   0.09730 310787.520000
  16403  16406     1   0.09730 310787.520000
  16404  16407     1   0.09730 310787.520000
  16405  16409     1   0.10969 276646.080000
  16405  16410     1   0.10969 276646.080000
  16411  16412     1   0.09730 310787.520000
  16414  16416     1   0.10969 276646.080000
  16415  16417     1   0.10969 276646.080000
  16418  16422     1   0.10969 276646.080000
  16419  16421     1   0.10969 276646.080000
  16420  16423     1   0.10961 277566.560000
  16425  16431     1   0.09730 310787.520000
  16426  16429     1   0.09730 310787.520000
  16427  16430     1   0.09730 310787.520000
  16428  16432     1   0.10969 276646.080000
  16428  16433     1   0.10969 276646.080000
  16434  16435     1   0.09730 310787.520000
  16437  16439     1   0.10969 276646.080000
  16438  16440     1   0.10969 276646.080000
  16441  16445     1   0.10969 276646.080000
  16442  16444     1   0.10969 276646.080000
  16443  16446     1   0.10961 277566.560000
  16448  16454     1   0.09730 310787.520000
  16449  16452     1   0.09730 310787.520000
  16450  16453     1   0.09730 310787.520000
  16451  16455     1   0.10969 276646.080000
  16451  16456     1   0.10969 276646.080000
  16457  16458     1   0.09730 310787.520000
  16460  16462     1   0.10969 276646.080000
  16461  16463     1   0.10969 276646.080000
  16464  16468     1   0.10969 276646.080000
  16465  16467     1   0.10969 276646.080000
  16466  16469     1   0.10961 277566.560000
  16471  16477     1   0.09730 310787.520000
  16472  16475     1   0.09730 310787.520000
  16473  16476     1   0.09730 310787.520000
  16474  16478     1   0.10969 276646.080000
  16474  16479     1   0.10969 276646.080000
  16480  16481     1   0.09730 310787.520000
  16483  16485     1   0.10969 276646.080000
  16484  16486     1   0.10969 276646.080000
  16487  16491     1   0.10969 276646.080000
  16488  16490     1   0.10969 276646.080000
  16489  16492     1   0.10961 277566.560000
  16494  16500     1   0.09730 310787.520000
  16495  16498     1   0.09730 310787.520000
  16496  16499     1   0.09730 310787.520000
  16497  16501     1   0.10969 276646.080000
  16497  16502     1   0.10969 276646.080000
  16503  16504     1   0.09730 310787.520000
  16506  16508     1   0.10969 276646.080000
  16507  16509     1   0.10969 276646.080000
  16510  16514     1   0.10969 276646.080000
  16511  16513     1   0.10969 276646.080000
  16512  16515     1   0.10961 277566.560000
  16517  16523     1   0.09730 310787.520000
  16518  16521     1   0.09730 310787.520000
  16519  16522     1   0.09730 310787.520000
  16520  16524     1   0.10969 276646.080000
  16520  16525     1   0.10969 276646.080000
  16526  16527     1   0.09730 310787.520000
  16529  16531     1   0.10969 276646.080000
  16530  16532     1   0.10969 276646.080000
  16533  16537     1   0.10969 276646.080000
  16534  16536     1   0.10969 276646.080000
  16535  16538     1   0.10961 277566.560000
  16540  16546     1   0.09730 310787.520000
  16541  16544     1   0.09730 310787.520000
  16542  16545     1   0.09730 310787.520000
  16543  16547     1   0.10969 276646.080000
  16543  16548     1   0.10969 276646.080000
  16549  16550     1   0.09730 310787.520000
  16552  16554     1   0.10969 276646.080000
  16553  16555     1   0.10969 276646.080000
  16556  16560     1   0.10969 276646.080000
  16557  16559     1   0.10969 276646.080000
  16558  16561     1   0.10961 277566.560000
  16563  16569     1   0.09730 310787.520000
  16564  16567     1   0.09730 310787.520000
  16565  16568     1   0.09730 310787.520000
  16566  16570     1   0.10969 276646.080000
  16566  16571     1   0.10969 276646.080000
  16572  16573     1   0.09730 310787.520000
  16575  16577     1   0.10969 276646.080000
  16576  16578     1   0.10969 276646.080000
  16579  16583     1   0.10969 276646.080000
  16580  16582     1   0.10969 276646.080000
  16581  16584     1   0.10961 277566.560000
  16586  16592     1   0.09730 310787.520000
  16587  16590     1   0.09730 310787.520000
  16588  16591     1   0.09730 310787.520000
  16589  16593     1   0.10969 276646.080000
  16589  16594     1   0.10969 276646.080000
  16595  16596     1   0.09730 310787.520000
  16598  16600     1   0.10969 276646.080000
  16599  16601     1   0.10969 276646.080000
  16602  16606     1   0.10969 276646.080000
  16603  16605     1   0.10969 276646.080000
  16604  16607     1   0.10961 277566.560000
  16609  16615     1   0.09730 310787.520000
  16610  16613     1   0.09730 310787.520000
  16611  16614     1   0.09730 310787.520000
  16612  16616     1   0.10969 276646.080000
  16612  16617     1   0.10969 276646.080000
  16618  16619     1   0.09730 310787.520000
  16621  16623     1   0.10969 276646.080000
  16622  16624     1   0.10969 276646.080000
  16625  16629     1   0.10969 276646.080000
  16626  16628     1   0.10969 276646.080000
  16627  16630     1   0.10961 277566.560000
  16632  16638     1   0.09730 310787.520000
  16633  16636     1   0.09730 310787.520000
  16634  16637     1   0.09730 310787.520000
  16635  16639     1   0.10969 276646.080000
  16635  16640     1   0.10969 276646.080000
  16641  16642     1   0.09730 310787.520000
  16644  16646     1   0.10969 276646.080000
  16645  16647     1   0.10969 276646.080000
  16648  16652     1   0.10969 276646.080000
  16649  16651     1   0.10969 276646.080000
  16650  16653     1   0.10961 277566.560000
  16655  16661     1   0.09730 310787.520000
  16656  16659     1   0.09730 310787.520000
  16657  16660     1   0.09730 310787.520000
  16658  16662     1   0.10969 276646.080000
  16658  16663     1   0.10969 276646.080000
  16664  16665     1   0.09730 310787.520000
  16667  16669     1   0.10969 276646.080000
  16668  16670     1   0.10969 276646.080000
  16671  16675     1   0.10969 276646.080000
  16672  16674     1   0.10969 276646.080000
  16673  16676     1   0.10961 277566.560000
  16678  16684     1   0.09730 310787.520000
  16679  16682     1   0.09730 310787.520000
  16680  16683     1   0.09730 310787.520000
  16681  16685     1   0.10969 276646.080000
  16681  16686     1   0.10969 276646.080000
  16687  16688     1   0.09730 310787.520000
  16690  16692     1   0.10969 276646.080000
  16691  16693     1   0.10969 276646.080000
  16694  16698     1   0.10969 276646.080000
  16695  16697     1   0.10969 276646.080000
  16696  16699     1   0.10961 277566.560000
  16701  16707     1   0.09730 310787.520000
  16702  16705     1   0.09730 310787.520000
  16703  16706     1   0.09730 310787.520000
  16704  16708     1   0.10969 276646.080000
  16704  16709     1   0.10969 276646.080000
  16710  16711     1   0.09730 310787.520000
  16713  16715     1   0.10969 276646.080000
  16714  16716     1   0.10969 276646.080000
  16717  16721     1   0.10969 276646.080000
  16718  16720     1   0.10969 276646.080000
  16719  16722     1   0.10961 277566.560000
  16724  16730     1   0.09730 310787.520000
  16725  16728     1   0.09730 310787.520000
  16726  16729     1   0.09730 310787.520000
  16727  16731     1   0.10969 276646.080000
  16727  16732     1   0.10969 276646.080000
  16733  16734     1   0.09730 310787.520000
  16736  16738     1   0.10969 276646.080000
  16737  16739     1   0.10969 276646.080000
  16740  16744     1   0.10969 276646.080000
  16741  16743     1   0.10969 276646.080000
  16742  16745     1   0.10961 277566.560000
  16747  16753     1   0.09730 310787.520000
  16748  16751     1   0.09730 310787.520000
  16749  16752     1   0.09730 310787.520000
  16750  16754     1   0.10969 276646.080000
  16750  16755     1   0.10969 276646.080000
  16756  16757     1   0.09730 310787.520000
  16759  16761     1   0.10969 276646.080000
  16760  16762     1   0.10969 276646.080000
  16763  16767     1   0.10969 276646.080000
  16764  16766     1   0.10969 276646.080000
  16765  16768     1   0.10961 277566.560000
  16770  16776     1   0.09730 310787.520000
  16771  16774     1   0.09730 310787.520000
  16772  16775     1   0.09730 310787.520000
  16773  16777     1   0.10969 276646.080000
  16773  16778     1   0.10969 276646.080000
  16779  16780     1   0.09730 310787.520000
  16782  16784     1   0.10969 276646.080000
  16783  16785     1   0.10969 276646.080000
  16786  16790     1   0.10969 276646.080000
  16787  16789     1   0.10969 276646.080000
  16788  16791     1   0.10961 277566.560000
  16793  16799     1   0.09730 310787.520000
  16794  16797     1   0.09730 310787.520000
  16795  16798     1   0.09730 310787.520000
  16796  16800     1   0.10969 276646.080000
  16796  16801     1   0.10969 276646.080000
  16802  16803     1   0.09730 310787.520000
  16805  16807     1   0.10969 276646.080000
  16806  16808     1   0.10969 276646.080000
  16809  16813     1   0.10969 276646.080000
  16810  16812     1   0.10969 276646.080000
  16811  16814     1   0.10961 277566.560000
  16816  16822     1   0.09730 310787.520000
  16817  16820     1   0.09730 310787.520000
  16818  16821     1   0.09730 310787.520000
  16819  16823     1   0.10969 276646.080000
  16819  16824     1   0.10969 276646.080000
  16825  16826     1   0.09730 310787.520000
  16828  16830     1   0.10969 276646.080000
  16829  16831     1   0.10969 276646.080000
  16832  16836     1   0.10969 276646.080000
  16833  16835     1   0.10969 276646.080000
  16834  16837     1   0.10961 277566.560000
  16839  16845     1   0.09730 310787.520000
  16840  16843     1   0.09730 310787.520000
  16841  16844     1   0.09730 310787.520000
  16842  16846     1   0.10969 276646.080000
  16842  16847     1   0.10969 276646.080000
  16848  16849     1   0.09730 310787.520000
  16851  16853     1   0.10969 276646.080000
  16852  16854     1   0.10969 276646.080000
  16855  16859     1   0.10969 276646.080000
  16856  16858     1   0.10969 276646.080000
  16857  16860     1   0.10961 277566.560000
  16862  16868     1   0.09730 310787.520000
  16863  16866     1   0.09730 310787.520000
  16864  16867     1   0.09730 310787.520000
  16865  16869     1   0.10969 276646.080000
  16865  16870     1   0.10969 276646.080000
  16871  16872     1   0.09730 310787.520000
  16874  16876     1   0.10969 276646.080000
  16875  16877     1   0.10969 276646.080000
  16878  16882     1   0.10969 276646.080000
  16879  16881     1   0.10969 276646.080000
  16880  16883     1   0.10961 277566.560000
  16885  16891     1   0.09730 310787.520000
  16886  16889     1   0.09730 310787.520000
  16887  16890     1   0.09730 310787.520000
  16888  16892     1   0.10969 276646.080000
  16888  16893     1   0.10969 276646.080000
  16894  16895     1   0.09730 310787.520000
  16897  16899     1   0.10969 276646.080000
  16898  16900     1   0.10969 276646.080000
  16901  16905     1   0.10969 276646.080000
  16902  16904     1   0.10969 276646.080000
  16903  16906     1   0.10961 277566.560000
  16908  16914     1   0.09730 310787.520000
  16909  16912     1   0.09730 310787.520000
  16910  16913     1   0.09730 310787.520000
  16911  16915     1   0.10969 276646.080000
  16911  16916     1   0.10969 276646.080000
  16917  16918     1   0.09730 310787.520000
  16920  16922     1   0.10969 276646.080000
  16921  16923     1   0.10969 276646.080000
  16924  16928     1   0.10969 276646.080000
  16925  16927     1   0.10969 276646.080000
  16926  16929     1   0.10961 277566.560000
  16931  16937     1   0.09730 310787.520000
  16932  16935     1   0.09730 310787.520000
  16933  16936     1   0.09730 310787.520000
  16934  16938     1   0.10969 276646.080000
  16934  16939     1   0.10969 276646.080000
  16940  16941     1   0.09730 310787.520000
  16943  16945     1   0.10969 276646.080000
  16944  16946     1   0.10969 276646.080000
  16947  16951     1   0.10969 276646.080000
  16948  16950     1   0.10969 276646.080000
  16949  16952     1   0.10961 277566.560000
  16954  16960     1   0.09730 310787.520000
  16955  16958     1   0.09730 310787.520000
  16956  16959     1   0.09730 310787.520000
  16957  16961     1   0.10969 276646.080000
  16957  16962     1   0.10969 276646.080000
  16963  16964     1   0.09730 310787.520000
  16966  16968     1   0.10969 276646.080000
  16967  16969     1   0.10969 276646.080000
  16970  16974     1   0.10969 276646.080000
  16971  16973     1   0.10969 276646.080000
  16972  16975     1   0.10961 277566.560000
  16977  16983     1   0.09730 310787.520000
  16978  16981     1   0.09730 310787.520000
  16979  16982     1   0.09730 310787.520000
  16980  16984     1   0.10969 276646.080000
  16980  16985     1   0.10969 276646.080000
  16986  16987     1   0.09730 310787.520000
  16989  16991     1   0.10969 276646.080000
  16990  16992     1   0.10969 276646.080000
  16993  16997     1   0.10969 276646.080000
  16994  16996     1   0.10969 276646.080000
  16995  16998     1   0.10961 277566.560000
  17000  17006     1   0.09730 310787.520000
  17001  17004     1   0.09730 310787.520000
  17002  17005     1   0.09730 310787.520000
  17003  17007     1   0.10969 276646.080000
  17003  17008     1   0.10969 276646.080000
  17009  17010     1   0.09730 310787.520000
  17012  17014     1   0.10969 276646.080000
  17013  17015     1   0.10969 276646.080000
  17016  17020     1   0.10969 276646.080000
  17017  17019     1   0.10969 276646.080000
  17018  17021     1   0.10961 277566.560000
  17023  17029     1   0.09730 310787.520000
  17024  17027     1   0.09730 310787.520000
  17025  17028     1   0.09730 310787.520000
  17026  17030     1   0.10969 276646.080000
  17026  17031     1   0.10969 276646.080000
  17032  17033     1   0.09730 310787.520000
  17035  17037     1   0.10969 276646.080000
  17036  17038     1   0.10969 276646.080000
  17039  17043     1   0.10969 276646.080000
  17040  17042     1   0.10969 276646.080000
  17041  17044     1   0.10961 277566.560000
  17046  17052     1   0.09730 310787.520000
  17047  17050     1   0.09730 310787.520000
  17048  17051     1   0.09730 310787.520000
  17049  17053     1   0.10969 276646.080000
  17049  17054     1   0.10969 276646.080000
  17055  17056     1   0.09730 310787.520000
  17058  17060     1   0.10969 276646.080000
  17059  17061     1   0.10969 276646.080000
  17062  17066     1   0.10969 276646.080000
  17063  17065     1   0.10969 276646.080000
  17064  17067     1   0.10961 277566.560000
  17069  17075     1   0.09730 310787.520000
  17070  17073     1   0.09730 310787.520000
  17071  17074     1   0.09730 310787.520000
  17072  17076     1   0.10969 276646.080000
  17072  17077     1   0.10969 276646.080000
  17078  17079     1   0.09730 310787.520000
  17081  17083     1   0.10969 276646.080000
  17082  17084     1   0.10969 276646.080000
  17085  17089     1   0.10969 276646.080000
  17086  17088     1   0.10969 276646.080000
  17087  17090     1   0.10961 277566.560000
  17092  17098     1   0.09730 310787.520000
  17093  17096     1   0.09730 310787.520000
  17094  17097     1   0.09730 310787.520000
  17095  17099     1   0.10969 276646.080000
  17095  17100     1   0.10969 276646.080000
  17101  17102     1   0.09730 310787.520000
  17104  17106     1   0.10969 276646.080000
  17105  17107     1   0.10969 276646.080000
  17108  17112     1   0.10969 276646.080000
  17109  17111     1   0.10969 276646.080000
  17110  17113     1   0.10961 277566.560000
  17115  17121     1   0.09730 310787.520000
  17116  17119     1   0.09730 310787.520000
  17117  17120     1   0.09730 310787.520000
  17118  17122     1   0.10969 276646.080000
  17118  17123     1   0.10969 276646.080000
  17124  17125     1   0.09730 310787.520000
  17127  17129     1   0.10969 276646.080000
  17128  17130     1   0.10969 276646.080000
  17131  17135     1   0.10969 276646.080000
  17132  17134     1   0.10969 276646.080000
  17133  17136     1   0.10961 277566.560000
  17138  17144     1   0.09730 310787.520000
  17139  17142     1   0.09730 310787.520000
  17140  17143     1   0.09730 310787.520000
  17141  17145     1   0.10969 276646.080000
  17141  17146     1   0.10969 276646.080000
  17147  17148     1   0.09730 310787.520000
  17150  17152     1   0.10969 276646.080000
  17151  17153     1   0.10969 276646.080000
  17154  17158     1   0.10969 276646.080000
  17155  17157     1   0.10969 276646.080000
  17156  17159     1   0.10961 277566.560000
  17161  17167     1   0.09730 310787.520000
  17162  17165     1   0.09730 310787.520000
  17163  17166     1   0.09730 310787.520000
  17164  17168     1   0.10969 276646.080000
  17164  17169     1   0.10969 276646.080000
  17170  17171     1   0.09730 310787.520000
  17173  17175     1   0.10969 276646.080000
  17174  17176     1   0.10969 276646.080000
  17177  17181     1   0.10969 276646.080000
  17178  17180     1   0.10969 276646.080000
  17179  17182     1   0.10961 277566.560000
  17184  17190     1   0.09730 310787.520000
  17185  17188     1   0.09730 310787.520000
  17186  17189     1   0.09730 310787.520000
  17187  17191     1   0.10969 276646.080000
  17187  17192     1   0.10969 276646.080000
  17193  17194     1   0.09730 310787.520000
  17196  17198     1   0.10969 276646.080000
  17197  17199     1   0.10969 276646.080000
  17200  17204     1   0.10969 276646.080000
  17201  17203     1   0.10969 276646.080000
  17202  17205     1   0.10961 277566.560000
  17207  17213     1   0.09730 310787.520000
  17208  17211     1   0.09730 310787.520000
  17209  17212     1   0.09730 310787.520000
  17210  17214     1   0.10969 276646.080000
  17210  17215     1   0.10969 276646.080000
  17216  17217     1   0.09730 310787.520000
  17219  17221     1   0.10969 276646.080000
  17220  17222     1   0.10969 276646.080000
  17223  17227     1   0.10969 276646.080000
  17224  17226     1   0.10969 276646.080000
  17225  17228     1   0.10961 277566.560000
  17230  17236     1   0.09730 310787.520000
  17231  17234     1   0.09730 310787.520000
  17232  17235     1   0.09730 310787.520000
  17233  17237     1   0.10969 276646.080000
  17233  17238     1   0.10969 276646.080000
  17239  17240     1   0.09730 310787.520000
  17242  17244     1   0.10969 276646.080000
  17243  17245     1   0.10969 276646.080000
  17246  17250     1   0.10969 276646.080000
  17247  17249     1   0.10969 276646.080000
  17248  17251     1   0.10961 277566.560000
  17253  17259     1   0.09730 310787.520000
  17254  17257     1   0.09730 310787.520000
  17255  17258     1   0.09730 310787.520000
  17256  17260     1   0.10969 276646.080000
  17256  17261     1   0.10969 276646.080000
  17262  17263     1   0.09730 310787.520000
  17265  17267     1   0.10969 276646.080000
  17266  17268     1   0.10969 276646.080000
  17269  17273     1   0.10969 276646.080000
  17270  17272     1   0.10969 276646.080000
  17271  17274     1   0.10961 277566.560000
  17276  17282     1   0.09730 310787.520000
  17277  17280     1   0.09730 310787.520000
  17278  17281     1   0.09730 310787.520000
  17279  17283     1   0.10969 276646.080000
  17279  17284     1   0.10969 276646.080000
  17285  17286     1   0.09730 310787.520000
  17288  17290     1   0.10969 276646.080000
  17289  17291     1   0.10969 276646.080000
  17292  17296     1   0.10969 276646.080000
  17293  17295     1   0.10969 276646.080000
  17294  17297     1   0.10961 277566.560000
  17299  17305     1   0.09730 310787.520000
  17300  17303     1   0.09730 310787.520000
  17301  17304     1   0.09730 310787.520000
  17302  17306     1   0.10969 276646.080000
  17302  17307     1   0.10969 276646.080000
  17308  17309     1   0.09730 310787.520000
  17311  17313     1   0.10969 276646.080000
  17312  17314     1   0.10969 276646.080000
  17315  17319     1   0.10969 276646.080000
  17316  17318     1   0.10969 276646.080000
  17317  17320     1   0.10961 277566.560000
  17322  17328     1   0.09730 310787.520000
  17323  17326     1   0.09730 310787.520000
  17324  17327     1   0.09730 310787.520000
  17325  17329     1   0.10969 276646.080000
  17325  17330     1   0.10969 276646.080000
  17331  17332     1   0.09730 310787.520000
  17334  17336     1   0.10969 276646.080000
  17335  17337     1   0.10969 276646.080000
  17338  17342     1   0.10969 276646.080000
  17339  17341     1   0.10969 276646.080000
  17340  17343     1   0.10961 277566.560000
  17345  17351     1   0.09730 310787.520000
  17346  17349     1   0.09730 310787.520000
  17347  17350     1   0.09730 310787.520000
  17348  17352     1   0.10969 276646.080000
  17348  17353     1   0.10969 276646.080000
  17354  17355     1   0.09730 310787.520000
  17357  17359     1   0.10969 276646.080000
  17358  17360     1   0.10969 276646.080000
  17361  17365     1   0.10969 276646.080000
  17362  17364     1   0.10969 276646.080000
  17363  17366     1   0.10961 277566.560000
  17368  17374     1   0.09730 310787.520000
  17369  17372     1   0.09730 310787.520000
  17370  17373     1   0.09730 310787.520000
  17371  17375     1   0.10969 276646.080000
  17371  17376     1   0.10969 276646.080000
  17377  17378     1   0.09730 310787.520000
  17380  17382     1   0.10969 276646.080000
  17381  17383     1   0.10969 276646.080000
  17384  17388     1   0.10969 276646.080000
  17385  17387     1   0.10969 276646.080000
  17386  17389     1   0.10961 277566.560000
  17391  17397     1   0.09730 310787.520000
  17392  17395     1   0.09730 310787.520000
  17393  17396     1   0.09730 310787.520000
  17394  17398     1   0.10969 276646.080000
  17394  17399     1   0.10969 276646.080000
  17400  17401     1   0.09730 310787.520000
  17403  17405     1   0.10969 276646.080000
  17404  17406     1   0.10969 276646.080000
  17407  17411     1   0.10969 276646.080000
  17408  17410     1   0.10969 276646.080000
  17409  17412     1   0.10961 277566.560000
  17414  17420     1   0.09730 310787.520000
  17415  17418     1   0.09730 310787.520000
  17416  17419     1   0.09730 310787.520000
  17417  17421     1   0.10969 276646.080000
  17417  17422     1   0.10969 276646.080000
  17423  17424     1   0.09730 310787.520000
  17426  17428     1   0.10969 276646.080000
  17427  17429     1   0.10969 276646.080000
  17430  17434     1   0.10969 276646.080000
  17431  17433     1   0.10969 276646.080000
  17432  17435     1   0.10961 277566.560000
  17437  17443     1   0.09730 310787.520000
  17438  17441     1   0.09730 310787.520000
  17439  17442     1   0.09730 310787.520000
  17440  17444     1   0.10969 276646.080000
  17440  17445     1   0.10969 276646.080000
  17446  17447     1   0.09730 310787.520000
  17449  17451     1   0.10969 276646.080000
  17450  17452     1   0.10969 276646.080000
  17453  17457     1   0.10969 276646.080000
  17454  17456     1   0.10969 276646.080000
  17455  17458     1   0.10961 277566.560000
  17460  17466     1   0.09730 310787.520000
  17461  17464     1   0.09730 310787.520000
  17462  17465     1   0.09730 310787.520000
  17463  17467     1   0.10969 276646.080000
  17463  17468     1   0.10969 276646.080000
  17469  17470     1   0.09730 310787.520000
  17472  17474     1   0.10969 276646.080000
  17473  17475     1   0.10969 276646.080000
  17476  17480     1   0.10969 276646.080000
  17477  17479     1   0.10969 276646.080000
  17478  17481     1   0.10961 277566.560000
  17483  17489     1   0.09730 310787.520000
  17484  17487     1   0.09730 310787.520000
  17485  17488     1   0.09730 310787.520000
  17486  17490     1   0.10969 276646.080000
  17486  17491     1   0.10969 276646.080000
  17492  17493     1   0.09730 310787.520000
  17495  17497     1   0.10969 276646.080000
  17496  17498     1   0.10969 276646.080000
  17499  17503     1   0.10969 276646.080000
  17500  17502     1   0.10969 276646.080000
  17501  17504     1   0.10961 277566.560000
  17506  17512     1   0.09730 310787.520000
  17507  17510     1   0.09730 310787.520000
  17508  17511     1   0.09730 310787.520000
  17509  17513     1   0.10969 276646.080000
  17509  17514     1   0.10969 276646.080000
  17515  17516     1   0.09730 310787.520000
  17518  17520     1   0.10969 276646.080000
  17519  17521     1   0.10969 276646.080000
  17522  17526     1   0.10969 276646.080000
  17523  17525     1   0.10969 276646.080000
  17524  17527     1   0.10961 277566.560000
  17529  17535     1   0.09730 310787.520000
  17530  17533     1   0.09730 310787.520000
  17531  17534     1   0.09730 310787.520000
  17532  17536     1   0.10969 276646.080000
  17532  17537     1   0.10969 276646.080000
  17538  17539     1   0.09730 310787.520000
  17541  17543     1   0.10969 276646.080000
  17542  17544     1   0.10969 276646.080000
  17545  17549     1   0.10969 276646.080000
  17546  17548     1   0.10969 276646.080000
  17547  17550     1   0.10961 277566.560000
  17552  17558     1   0.09730 310787.520000
  17553  17556     1   0.09730 310787.520000
  17554  17557     1   0.09730 310787.520000
  17555  17559     1   0.10969 276646.080000
  17555  17560     1   0.10969 276646.080000
  17561  17562     1   0.09730 310787.520000
  17564  17566     1   0.10969 276646.080000
  17565  17567     1   0.10969 276646.080000
  17568  17572     1   0.10969 276646.080000
  17569  17571     1   0.10969 276646.080000
  17570  17573     1   0.10961 277566.560000
  17575  17581     1   0.09730 310787.520000
  17576  17579     1   0.09730 310787.520000
  17577  17580     1   0.09730 310787.520000
  17578  17582     1   0.10969 276646.080000
  17578  17583     1   0.10969 276646.080000
  17584  17585     1   0.09730 310787.520000
  17587  17589     1   0.10969 276646.080000
  17588  17590     1   0.10969 276646.080000
  17591  17595     1   0.10969 276646.080000
  17592  17594     1   0.10969 276646.080000
  17593  17596     1   0.10961 277566.560000
  17598  17604     1   0.09730 310787.520000
  17599  17602     1   0.09730 310787.520000
  17600  17603     1   0.09730 310787.520000
  17601  17605     1   0.10969 276646.080000
  17601  17606     1   0.10969 276646.080000
  17607  17608     1   0.09730 310787.520000
  17610  17612     1   0.10969 276646.080000
  17611  17613     1   0.10969 276646.080000
  17614  17618     1   0.10969 276646.080000
  17615  17617     1   0.10969 276646.080000
  17616  17619     1   0.10961 277566.560000
  17621  17627     1   0.09730 310787.520000
  17622  17625     1   0.09730 310787.520000
  17623  17626     1   0.09730 310787.520000
  17624  17628     1   0.10969 276646.080000
  17624  17629     1   0.10969 276646.080000
  17630  17631     1   0.09730 310787.520000
  17633  17635     1   0.10969 276646.080000
  17634  17636     1   0.10969 276646.080000
  17637  17641     1   0.10969 276646.080000
  17638  17640     1   0.10969 276646.080000
  17639  17642     1   0.10961 277566.560000
  17644  17650     1   0.09730 310787.520000
  17645  17648     1   0.09730 310787.520000
  17646  17649     1   0.09730 310787.520000
  17647  17651     1   0.10969 276646.080000
  17647  17652     1   0.10969 276646.080000
  17653  17654     1   0.09730 310787.520000
  17656  17658     1   0.10969 276646.080000
  17657  17659     1   0.10969 276646.080000
  17660  17664     1   0.10969 276646.080000
  17661  17663     1   0.10969 276646.080000
  17662  17665     1   0.10961 277566.560000
  17667  17673     1   0.09730 310787.520000
  17668  17671     1   0.09730 310787.520000
  17669  17672     1   0.09730 310787.520000
  17670  17674     1   0.10969 276646.080000
  17670  17675     1   0.10969 276646.080000
  17676  17677     1   0.09730 310787.520000
  17679  17681     1   0.10969 276646.080000
  17680  17682     1   0.10969 276646.080000
  17683  17687     1   0.10969 276646.080000
  17684  17686     1   0.10969 276646.080000
  17685  17688     1   0.10961 277566.560000
  17690  17696     1   0.09730 310787.520000
  17691  17694     1   0.09730 310787.520000
  17692  17695     1   0.09730 310787.520000
  17693  17697     1   0.10969 276646.080000
  17693  17698     1   0.10969 276646.080000
  17699  17700     1   0.09730 310787.520000
  17702  17704     1   0.10969 276646.080000
  17703  17705     1   0.10969 276646.080000
  17706  17710     1   0.10969 276646.080000
  17707  17709     1   0.10969 276646.080000
  17708  17711     1   0.10961 277566.560000
  17713  17719     1   0.09730 310787.520000
  17714  17717     1   0.09730 310787.520000
  17715  17718     1   0.09730 310787.520000
  17716  17720     1   0.10969 276646.080000
  17716  17721     1   0.10969 276646.080000
  17722  17723     1   0.09730 310787.520000
  17725  17727     1   0.10969 276646.080000
  17726  17728     1   0.10969 276646.080000
  17729  17733     1   0.10969 276646.080000
  17730  17732     1   0.10969 276646.080000
  17731  17734     1   0.10961 277566.560000
  17736  17742     1   0.09730 310787.520000
  17737  17740     1   0.09730 310787.520000
  17738  17741     1   0.09730 310787.520000
  17739  17743     1   0.10969 276646.080000
  17739  17744     1   0.10969 276646.080000
  17745  17746     1   0.09730 310787.520000
  17748  17750     1   0.10969 276646.080000
  17749  17751     1   0.10969 276646.080000
  17752  17756     1   0.10969 276646.080000
  17753  17755     1   0.10969 276646.080000
  17754  17757     1   0.10961 277566.560000
  17759  17765     1   0.09730 310787.520000
  17760  17763     1   0.09730 310787.520000
  17761  17764     1   0.09730 310787.520000
  17762  17766     1   0.10969 276646.080000
  17762  17767     1   0.10969 276646.080000
  17768  17769     1   0.09730 310787.520000
  17771  17773     1   0.10969 276646.080000
  17772  17774     1   0.10969 276646.080000
  17775  17779     1   0.10969 276646.080000
  17776  17778     1   0.10969 276646.080000
  17777  17780     1   0.10961 277566.560000
  17782  17788     1   0.09730 310787.520000
  17783  17786     1   0.09730 310787.520000
  17784  17787     1   0.09730 310787.520000
  17785  17789     1   0.10969 276646.080000
  17785  17790     1   0.10969 276646.080000
  17791  17792     1   0.09730 310787.520000
  17794  17796     1   0.10969 276646.080000
  17795  17797     1   0.10969 276646.080000
  17798  17802     1   0.10969 276646.080000
  17799  17801     1   0.10969 276646.080000
  17800  17803     1   0.10961 277566.560000
  17805  17811     1   0.09730 310787.520000
  17806  17809     1   0.09730 310787.520000
  17807  17810     1   0.09730 310787.520000
  17808  17812     1   0.10969 276646.080000
  17808  17813     1   0.10969 276646.080000
  17814  17815     1   0.09730 310787.520000
  17817  17819     1   0.10969 276646.080000
  17818  17820     1   0.10969 276646.080000
  17821  17825     1   0.10969 276646.080000
  17822  17824     1   0.10969 276646.080000
  17823  17826     1   0.10961 277566.560000
  17828  17834     1   0.09730 310787.520000
  17829  17832     1   0.09730 310787.520000
  17830  17833     1   0.09730 310787.520000
  17831  17835     1   0.10969 276646.080000
  17831  17836     1   0.10969 276646.080000
  17837  17838     1   0.09730 310787.520000
  17840  17842     1   0.10969 276646.080000
  17841  17843     1   0.10969 276646.080000
  17844  17848     1   0.10969 276646.080000
  17845  17847     1   0.10969 276646.080000
  17846  17849     1   0.10961 277566.560000
  17851  17857     1   0.09730 310787.520000
  17852  17855     1   0.09730 310787.520000
  17853  17856     1   0.09730 310787.520000
  17854  17858     1   0.10969 276646.080000
  17854  17859     1   0.10969 276646.080000
  17860  17861     1   0.09730 310787.520000
  17863  17865     1   0.10969 276646.080000
  17864  17866     1   0.10969 276646.080000
  17867  17871     1   0.10969 276646.080000
  17868  17870     1   0.10969 276646.080000
  17869  17872     1   0.10961 277566.560000
  17874  17880     1   0.09730 310787.520000
  17875  17878     1   0.09730 310787.520000
  17876  17879     1   0.09730 310787.520000
  17877  17881     1   0.10969 276646.080000
  17877  17882     1   0.10969 276646.080000
  17883  17884     1   0.09730 310787.520000
  17886  17888     1   0.10969 276646.080000
  17887  17889     1   0.10969 276646.080000
  17890  17894     1   0.10969 276646.080000
  17891  17893     1   0.10969 276646.080000
  17892  17895     1   0.10961 277566.560000
  17897  17903     1   0.09730 310787.520000
  17898  17901     1   0.09730 310787.520000
  17899  17902     1   0.09730 310787.520000
  17900  17904     1   0.10969 276646.080000
  17900  17905     1   0.10969 276646.080000
  17906  17907     1   0.09730 310787.520000
  17909  17911     1   0.10969 276646.080000
  17910  17912     1   0.10969 276646.080000
  17913  17917     1   0.10969 276646.080000
  17914  17916     1   0.10969 276646.080000
  17915  17918     1   0.10961 277566.560000
  17920  17926     1   0.09730 310787.520000
  17921  17924     1   0.09730 310787.520000
  17922  17925     1   0.09730 310787.520000
  17923  17927     1   0.10969 276646.080000
  17923  17928     1   0.10969 276646.080000
  17929  17930     1   0.09730 310787.520000
  17932  17934     1   0.10969 276646.080000
  17933  17935     1   0.10969 276646.080000
  17936  17940     1   0.10969 276646.080000
  17937  17939     1   0.10969 276646.080000
  17938  17941     1   0.10961 277566.560000
  17943  17949     1   0.09730 310787.520000
  17944  17947     1   0.09730 310787.520000
  17945  17948     1   0.09730 310787.520000
  17946  17950     1   0.10969 276646.080000
  17946  17951     1   0.10969 276646.080000
  17952  17953     1   0.09730 310787.520000
  17955  17957     1   0.10969 276646.080000
  17956  17958     1   0.10969 276646.080000
  17959  17963     1   0.10969 276646.080000
  17960  17962     1   0.10969 276646.080000
  17961  17964     1   0.10961 277566.560000
  17966  17972     1   0.09730 310787.520000
  17967  17970     1   0.09730 310787.520000
  17968  17971     1   0.09730 310787.520000
  17969  17973     1   0.10969 276646.080000
  17969  17974     1   0.10969 276646.080000
  17975  17976     1   0.09730 310787.520000
  17978  17980     1   0.10969 276646.080000
  17979  17981     1   0.10969 276646.080000
  17982  17986     1   0.10969 276646.080000
  17983  17985     1   0.10969 276646.080000
  17984  17987     1   0.10961 277566.560000
  17989  17995     1   0.09730 310787.520000
  17990  17993     1   0.09730 310787.520000
  17991  17994     1   0.09730 310787.520000
  17992  17996     1   0.10969 276646.080000
  17992  17997     1   0.10969 276646.080000
  17998  17999     1   0.09730 310787.520000
  18001  18003     1   0.10969 276646.080000
  18002  18004     1   0.10969 276646.080000
  18005  18009     1   0.10969 276646.080000
  18006  18008     1   0.10969 276646.080000
  18007  18010     1   0.10961 277566.560000
  18012  18018     1   0.09730 310787.520000
  18013  18016     1   0.09730 310787.520000
  18014  18017     1   0.09730 310787.520000
  18015  18019     1   0.10969 276646.080000
  18015  18020     1   0.10969 276646.080000
  18021  18022     1   0.09730 310787.520000
  18024  18026     1   0.10969 276646.080000
  18025  18027     1   0.10969 276646.080000
  18028  18032     1   0.10969 276646.080000
  18029  18031     1   0.10969 276646.080000
  18030  18033     1   0.10961 277566.560000
  18035  18041     1   0.09730 310787.520000
  18036  18039     1   0.09730 310787.520000
  18037  18040     1   0.09730 310787.520000
  18038  18042     1   0.10969 276646.080000
  18038  18043     1   0.10969 276646.080000
  18044  18045     1   0.09730 310787.520000
  18047  18049     1   0.10969 276646.080000
  18048  18050     1   0.10969 276646.080000
  18051  18055     1   0.10969 276646.080000
  18052  18054     1   0.10969 276646.080000
  18053  18056     1   0.10961 277566.560000
  18058  18064     1   0.09730 310787.520000
  18059  18062     1   0.09730 310787.520000
  18060  18063     1   0.09730 310787.520000
  18061  18065     1   0.10969 276646.080000
  18061  18066     1   0.10969 276646.080000
  18067  18068     1   0.09730 310787.520000
  18070  18072     1   0.10969 276646.080000
  18071  18073     1   0.10969 276646.080000
  18074  18078     1   0.10969 276646.080000
  18075  18077     1   0.10969 276646.080000
  18076  18079     1   0.10961 277566.560000
  18081  18087     1   0.09730 310787.520000
  18082  18085     1   0.09730 310787.520000
  18083  18086     1   0.09730 310787.520000
  18084  18088     1   0.10969 276646.080000
  18084  18089     1   0.10969 276646.080000
  18090  18091     1   0.09730 310787.520000
  18093  18095     1   0.10969 276646.080000
  18094  18096     1   0.10969 276646.080000
  18097  18101     1   0.10969 276646.080000
  18098  18100     1   0.10969 276646.080000
  18099  18102     1   0.10961 277566.560000
  18104  18110     1   0.09730 310787.520000
  18105  18108     1   0.09730 310787.520000
  18106  18109     1   0.09730 310787.520000
  18107  18111     1   0.10969 276646.080000
  18107  18112     1   0.10969 276646.080000
  18113  18114     1   0.09730 310787.520000
  18116  18118     1   0.10969 276646.080000
  18117  18119     1   0.10969 276646.080000
  18120  18124     1   0.10969 276646.080000
  18121  18123     1   0.10969 276646.080000
  18122  18125     1   0.10961 277566.560000
  18127  18133     1   0.09730 310787.520000
  18128  18131     1   0.09730 310787.520000
  18129  18132     1   0.09730 310787.520000
  18130  18134     1   0.10969 276646.080000
  18130  18135     1   0.10969 276646.080000
  18136  18137     1   0.09730 310787.520000
  18139  18141     1   0.10969 276646.080000
  18140  18142     1   0.10969 276646.080000
  18143  18147     1   0.10969 276646.080000
  18144  18146     1   0.10969 276646.080000
  18145  18148     1   0.10961 277566.560000
  18150  18156     1   0.09730 310787.520000
  18151  18154     1   0.09730 310787.520000
  18152  18155     1   0.09730 310787.520000
  18153  18157     1   0.10969 276646.080000
  18153  18158     1   0.10969 276646.080000
  18159  18160     1   0.09730 310787.520000
  18162  18164     1   0.10969 276646.080000
  18163  18165     1   0.10969 276646.080000
  18166  18170     1   0.10969 276646.080000
  18167  18169     1   0.10969 276646.080000
  18168  18171     1   0.10961 277566.560000
  18173  18179     1   0.09730 310787.520000
  18174  18177     1   0.09730 310787.520000
  18175  18178     1   0.09730 310787.520000
  18176  18180     1   0.10969 276646.080000
  18176  18181     1   0.10969 276646.080000
  18182  18183     1   0.09730 310787.520000
  18185  18187     1   0.10969 276646.080000
  18186  18188     1   0.10969 276646.080000
  18189  18193     1   0.10969 276646.080000
  18190  18192     1   0.10969 276646.080000
  18191  18194     1   0.10961 277566.560000
  18196  18202     1   0.09730 310787.520000
  18197  18200     1   0.09730 310787.520000
  18198  18201     1   0.09730 310787.520000
  18199  18203     1   0.10969 276646.080000
  18199  18204     1   0.10969 276646.080000
  18205  18206     1   0.09730 310787.520000
  18208  18210     1   0.10969 276646.080000
  18209  18211     1   0.10969 276646.080000
  18212  18216     1   0.10969 276646.080000
  18213  18215     1   0.10969 276646.080000
  18214  18217     1   0.10961 277566.560000
  18219  18225     1   0.09730 310787.520000
  18220  18223     1   0.09730 310787.520000
  18221  18224     1   0.09730 310787.520000
  18222  18226     1   0.10969 276646.080000
  18222  18227     1   0.10969 276646.080000
  18228  18229     1   0.09730 310787.520000
  18231  18233     1   0.10969 276646.080000
  18232  18234     1   0.10969 276646.080000
  18235  18239     1   0.10969 276646.080000
  18236  18238     1   0.10969 276646.080000
  18237  18240     1   0.10961 277566.560000
  18242  18248     1   0.09730 310787.520000
  18243  18246     1   0.09730 310787.520000
  18244  18247     1   0.09730 310787.520000
  18245  18249     1   0.10969 276646.080000
  18245  18250     1   0.10969 276646.080000
  18251  18252     1   0.09730 310787.520000
  18254  18256     1   0.10969 276646.080000
  18255  18257     1   0.10969 276646.080000
  18258  18262     1   0.10969 276646.080000
  18259  18261     1   0.10969 276646.080000
  18260  18263     1   0.10961 277566.560000
  18265  18271     1   0.09730 310787.520000
  18266  18269     1   0.09730 310787.520000
  18267  18270     1   0.09730 310787.520000
  18268  18272     1   0.10969 276646.080000
  18268  18273     1   0.10969 276646.080000
  18274  18275     1   0.09730 310787.520000
  18277  18279     1   0.10969 276646.080000
  18278  18280     1   0.10969 276646.080000
  18281  18285     1   0.10969 276646.080000
  18282  18284     1   0.10969 276646.080000
  18283  18286     1   0.10961 277566.560000
  18288  18294     1   0.09730 310787.520000
  18289  18292     1   0.09730 310787.520000
  18290  18293     1   0.09730 310787.520000
  18291  18295     1   0.10969 276646.080000
  18291  18296     1   0.10969 276646.080000
  18297  18298     1   0.09730 310787.520000
  18300  18302     1   0.10969 276646.080000
  18301  18303     1   0.10969 276646.080000
  18304  18308     1   0.10969 276646.080000
  18305  18307     1   0.10969 276646.080000
  18306  18309     1   0.10961 277566.560000
  18311  18317     1   0.09730 310787.520000
  18312  18315     1   0.09730 310787.520000
  18313  18316     1   0.09730 310787.520000
  18314  18318     1   0.10969 276646.080000
  18314  18319     1   0.10969 276646.080000
  18320  18321     1   0.09730 310787.520000
  18323  18325     1   0.10969 276646.080000
  18324  18326     1   0.10969 276646.080000
  18327  18331     1   0.10969 276646.080000
  18328  18330     1   0.10969 276646.080000
  18329  18332     1   0.10961 277566.560000
  18334  18340     1   0.09730 310787.520000
  18335  18338     1   0.09730 310787.520000
  18336  18339     1   0.09730 310787.520000
  18337  18341     1   0.10969 276646.080000
  18337  18342     1   0.10969 276646.080000
  18343  18344     1   0.09730 310787.520000
  18346  18348     1   0.10969 276646.080000
  18347  18349     1   0.10969 276646.080000
  18350  18354     1   0.10969 276646.080000
  18351  18353     1   0.10969 276646.080000
  18352  18355     1   0.10961 277566.560000
  18357  18363     1   0.09730 310787.520000
  18358  18361     1   0.09730 310787.520000
  18359  18362     1   0.09730 310787.520000
  18360  18364     1   0.10969 276646.080000
  18360  18365     1   0.10969 276646.080000
  18366  18367     1   0.09730 310787.520000
  18369  18371     1   0.10969 276646.080000
  18370  18372     1   0.10969 276646.080000
  18373  18377     1   0.10969 276646.080000
  18374  18376     1   0.10969 276646.080000
  18375  18378     1   0.10961 277566.560000
  18380  18386     1   0.09730 310787.520000
  18381  18384     1   0.09730 310787.520000
  18382  18385     1   0.09730 310787.520000
  18383  18387     1   0.10969 276646.080000
  18383  18388     1   0.10969 276646.080000
  18389  18390     1   0.09730 310787.520000
  18392  18394     1   0.10969 276646.080000
  18393  18395     1   0.10969 276646.080000
  18396  18400     1   0.10969 276646.080000
  18397  18399     1   0.10969 276646.080000
  18398  18401     1   0.10961 277566.560000
  18403  18409     1   0.09730 310787.520000
  18404  18407     1   0.09730 310787.520000
  18405  18408     1   0.09730 310787.520000
  18406  18410     1   0.10969 276646.080000
  18406  18411     1   0.10969 276646.080000
  18412  18413     1   0.09730 310787.520000
  18415  18417     1   0.10969 276646.080000
  18416  18418     1   0.10969 276646.080000
  18419  18423     1   0.10969 276646.080000
  18420  18422     1   0.10969 276646.080000
  18421  18424     1   0.10961 277566.560000
  18426  18432     1   0.09730 310787.520000
  18427  18430     1   0.09730 310787.520000
  18428  18431     1   0.09730 310787.520000
  18429  18433     1   0.10969 276646.080000
  18429  18434     1   0.10969 276646.080000
  18435  18436     1   0.09730 310787.520000
  18438  18440     1   0.10969 276646.080000
  18439  18441     1   0.10969 276646.080000
  18442  18446     1   0.10969 276646.080000
  18443  18445     1   0.10969 276646.080000
  18444  18447     1   0.10961 277566.560000
  18449  18455     1   0.09730 310787.520000
  18450  18453     1   0.09730 310787.520000
  18451  18454     1   0.09730 310787.520000
  18452  18456     1   0.10969 276646.080000
  18452  18457     1   0.10969 276646.080000
  18458  18459     1   0.09730 310787.520000
  18461  18463     1   0.10969 276646.080000
  18462  18464     1   0.10969 276646.080000
  18465  18469     1   0.10969 276646.080000
  18466  18468     1   0.10969 276646.080000
  18467  18470     1   0.10961 277566.560000
  18472  18478     1   0.09730 310787.520000
  18473  18476     1   0.09730 310787.520000
  18474  18477     1   0.09730 310787.520000
  18475  18479     1   0.10969 276646.080000
  18475  18480     1   0.10969 276646.080000
  18481  18482     1   0.09730 310787.520000
  18484  18486     1   0.10969 276646.080000
  18485  18487     1   0.10969 276646.080000
  18488  18492     1   0.10969 276646.080000
  18489  18491     1   0.10969 276646.080000
  18490  18493     1   0.10961 277566.560000
  18495  18501     1   0.09730 310787.520000
  18496  18499     1   0.09730 310787.520000
  18497  18500     1   0.09730 310787.520000
  18498  18502     1   0.10969 276646.080000
  18498  18503     1   0.10969 276646.080000
  18504  18505     1   0.09730 310787.520000
  18507  18509     1   0.10969 276646.080000
  18508  18510     1   0.10969 276646.080000
  18511  18515     1   0.10969 276646.080000
  18512  18514     1   0.10969 276646.080000
  18513  18516     1   0.10961 277566.560000
  18518  18524     1   0.09730 310787.520000
  18519  18522     1   0.09730 310787.520000
  18520  18523     1   0.09730 310787.520000
  18521  18525     1   0.10969 276646.080000
  18521  18526     1   0.10969 276646.080000
  18527  18528     1   0.09730 310787.520000
  18530  18532     1   0.10969 276646.080000
  18531  18533     1   0.10969 276646.080000
  18534  18538     1   0.10969 276646.080000
  18535  18537     1   0.10969 276646.080000
  18536  18539     1   0.10961 277566.560000
  18541  18547     1   0.09730 310787.520000
  18542  18545     1   0.09730 310787.520000
  18543  18546     1   0.09730 310787.520000
  18544  18548     1   0.10969 276646.080000
  18544  18549     1   0.10969 276646.080000
  18550  18551     1   0.09730 310787.520000
  18553  18555     1   0.10969 276646.080000
  18554  18556     1   0.10969 276646.080000
  18557  18561     1   0.10969 276646.080000
  18558  18560     1   0.10969 276646.080000
  18559  18562     1   0.10961 277566.560000
  18564  18570     1   0.09730 310787.520000
  18565  18568     1   0.09730 310787.520000
  18566  18569     1   0.09730 310787.520000
  18567  18571     1   0.10969 276646.080000
  18567  18572     1   0.10969 276646.080000
  18573  18574     1   0.09730 310787.520000
  18576  18578     1   0.10969 276646.080000
  18577  18579     1   0.10969 276646.080000
  18580  18584     1   0.10969 276646.080000
  18581  18583     1   0.10969 276646.080000
  18582  18585     1   0.10961 277566.560000
  18587  18593     1   0.09730 310787.520000
  18588  18591     1   0.09730 310787.520000
  18589  18592     1   0.09730 310787.520000
  18590  18594     1   0.10969 276646.080000
  18590  18595     1   0.10969 276646.080000
  18596  18597     1   0.09730 310787.520000
  18599  18601     1   0.10969 276646.080000
  18600  18602     1   0.10969 276646.080000
  18603  18607     1   0.10969 276646.080000
  18604  18606     1   0.10969 276646.080000
  18605  18608     1   0.10961 277566.560000
  18610  18616     1   0.09730 310787.520000
  18611  18614     1   0.09730 310787.520000
  18612  18615     1   0.09730 310787.520000
  18613  18617     1   0.10969 276646.080000
  18613  18618     1   0.10969 276646.080000
  18619  18620     1   0.09730 310787.520000
  18622  18624     1   0.10969 276646.080000
  18623  18625     1   0.10969 276646.080000
  18626  18630     1   0.10969 276646.080000
  18627  18629     1   0.10969 276646.080000
  18628  18631     1   0.10961 277566.560000
  18633  18639     1   0.09730 310787.520000
  18634  18637     1   0.09730 310787.520000
  18635  18638     1   0.09730 310787.520000
  18636  18640     1   0.10969 276646.080000
  18636  18641     1   0.10969 276646.080000
  18642  18643     1   0.09730 310787.520000
  18645  18647     1   0.10969 276646.080000
  18646  18648     1   0.10969 276646.080000
  18649  18653     1   0.10969 276646.080000
  18650  18652     1   0.10969 276646.080000
  18651  18654     1   0.10961 277566.560000
  18656  18662     1   0.09730 310787.520000
  18657  18660     1   0.09730 310787.520000
  18658  18661     1   0.09730 310787.520000
  18659  18663     1   0.10969 276646.080000
  18659  18664     1   0.10969 276646.080000
  18665  18666     1   0.09730 310787.520000
  18668  18670     1   0.10969 276646.080000
  18669  18671     1   0.10969 276646.080000
  18672  18676     1   0.10969 276646.080000
  18673  18675     1   0.10969 276646.080000
  18674  18677     1   0.10961 277566.560000
  18679  18685     1   0.09730 310787.520000
  18680  18683     1   0.09730 310787.520000
  18681  18684     1   0.09730 310787.520000
  18682  18686     1   0.10969 276646.080000
  18682  18687     1   0.10969 276646.080000
  18688  18689     1   0.09730 310787.520000
  18691  18693     1   0.10969 276646.080000
  18692  18694     1   0.10969 276646.080000
  18695  18699     1   0.10969 276646.080000
  18696  18698     1   0.10969 276646.080000
  18697  18700     1   0.10961 277566.560000
  18702  18708     1   0.09730 310787.520000
  18703  18706     1   0.09730 310787.520000
  18704  18707     1   0.09730 310787.520000
  18705  18709     1   0.10969 276646.080000
  18705  18710     1   0.10969 276646.080000
  18711  18712     1   0.09730 310787.520000
  18714  18716     1   0.10969 276646.080000
  18715  18717     1   0.10969 276646.080000
  18718  18722     1   0.10969 276646.080000
  18719  18721     1   0.10969 276646.080000
  18720  18723     1   0.10961 277566.560000
  18725  18731     1   0.09730 310787.520000
  18726  18729     1   0.09730 310787.520000
  18727  18730     1   0.09730 310787.520000
  18728  18732     1   0.10969 276646.080000
  18728  18733     1   0.10969 276646.080000
  18734  18735     1   0.09730 310787.520000
  18737  18739     1   0.10969 276646.080000
  18738  18740     1   0.10969 276646.080000
  18741  18745     1   0.10969 276646.080000
  18742  18744     1   0.10969 276646.080000
  18743  18746     1   0.10961 277566.560000
  18748  18754     1   0.09730 310787.520000
  18749  18752     1   0.09730 310787.520000
  18750  18753     1   0.09730 310787.520000
  18751  18755     1   0.10969 276646.080000
  18751  18756     1   0.10969 276646.080000
  18757  18758     1   0.09730 310787.520000
  18760  18762     1   0.10969 276646.080000
  18761  18763     1   0.10969 276646.080000
  18764  18768     1   0.10969 276646.080000
  18765  18767     1   0.10969 276646.080000
  18766  18769     1   0.10961 277566.560000
  18771  18777     1   0.09730 310787.520000
  18772  18775     1   0.09730 310787.520000
  18773  18776     1   0.09730 310787.520000
  18774  18778     1   0.10969 276646.080000
  18774  18779     1   0.10969 276646.080000
  18780  18781     1   0.09730 310787.520000
  18783  18785     1   0.10969 276646.080000
  18784  18786     1   0.10969 276646.080000
  18787  18791     1   0.10969 276646.080000
  18788  18790     1   0.10969 276646.080000
  18789  18792     1   0.10961 277566.560000
  18794  18800     1   0.09730 310787.520000
  18795  18798     1   0.09730 310787.520000
  18796  18799     1   0.09730 310787.520000
  18797  18801     1   0.10969 276646.080000
  18797  18802     1   0.10969 276646.080000
  18803  18804     1   0.09730 310787.520000
  18806  18808     1   0.10969 276646.080000
  18807  18809     1   0.10969 276646.080000
  18810  18814     1   0.10969 276646.080000
  18811  18813     1   0.10969 276646.080000
  18812  18815     1   0.10961 277566.560000
  18817  18823     1   0.09730 310787.520000
  18818  18821     1   0.09730 310787.520000
  18819  18822     1   0.09730 310787.520000
  18820  18824     1   0.10969 276646.080000
  18820  18825     1   0.10969 276646.080000
  18826  18827     1   0.09730 310787.520000
  18829  18831     1   0.10969 276646.080000
  18830  18832     1   0.10969 276646.080000
  18833  18837     1   0.10969 276646.080000
  18834  18836     1   0.10969 276646.080000
  18835  18838     1   0.10961 277566.560000
  18840  18846     1   0.09730 310787.520000
  18841  18844     1   0.09730 310787.520000
  18842  18845     1   0.09730 310787.520000
  18843  18847     1   0.10969 276646.080000
  18843  18848     1   0.10969 276646.080000
  18849  18850     1   0.09730 310787.520000
  18852  18854     1   0.10969 276646.080000
  18853  18855     1   0.10969 276646.080000
  18856  18860     1   0.10969 276646.080000
  18857  18859     1   0.10969 276646.080000
  18858  18861     1   0.10961 277566.560000
  18863  18869     1   0.09730 310787.520000
  18864  18867     1   0.09730 310787.520000
  18865  18868     1   0.09730 310787.520000
  18866  18870     1   0.10969 276646.080000
  18866  18871     1   0.10969 276646.080000
  18872  18873     1   0.09730 310787.520000
  18875  18877     1   0.10969 276646.080000
  18876  18878     1   0.10969 276646.080000
  18879  18883     1   0.10969 276646.080000
  18880  18882     1   0.10969 276646.080000
  18881  18884     1   0.10961 277566.560000
  18886  18892     1   0.09730 310787.520000
  18887  18890     1   0.09730 310787.520000
  18888  18891     1   0.09730 310787.520000
  18889  18893     1   0.10969 276646.080000
  18889  18894     1   0.10969 276646.080000
  18895  18896     1   0.09730 310787.520000
  18898  18900     1   0.10969 276646.080000
  18899  18901     1   0.10969 276646.080000
  18902  18906     1   0.10969 276646.080000
  18903  18905     1   0.10969 276646.080000
  18904  18907     1   0.10961 277566.560000
  18909  18915     1   0.09730 310787.520000
  18910  18913     1   0.09730 310787.520000
  18911  18914     1   0.09730 310787.520000
  18912  18916     1   0.10969 276646.080000
  18912  18917     1   0.10969 276646.080000
  18918  18919     1   0.09730 310787.520000
  18921  18923     1   0.10969 276646.080000
  18922  18924     1   0.10969 276646.080000
  18925  18929     1   0.10969 276646.080000
  18926  18928     1   0.10969 276646.080000
  18927  18930     1   0.10961 277566.560000
  18932  18938     1   0.09730 310787.520000
  18933  18936     1   0.09730 310787.520000
  18934  18937     1   0.09730 310787.520000
  18935  18939     1   0.10969 276646.080000
  18935  18940     1   0.10969 276646.080000
  18941  18942     1   0.09730 310787.520000
  18944  18946     1   0.10969 276646.080000
  18945  18947     1   0.10969 276646.080000
  18948  18952     1   0.10969 276646.080000
  18949  18951     1   0.10969 276646.080000
  18950  18953     1   0.10961 277566.560000
  18955  18961     1   0.09730 310787.520000
  18956  18959     1   0.09730 310787.520000
  18957  18960     1   0.09730 310787.520000
  18958  18962     1   0.10969 276646.080000
  18958  18963     1   0.10969 276646.080000
  18964  18965     1   0.09730 310787.520000
  18967  18969     1   0.10969 276646.080000
  18968  18970     1   0.10969 276646.080000
  18971  18975     1   0.10969 276646.080000
  18972  18974     1   0.10969 276646.080000
  18973  18976     1   0.10961 277566.560000
  18978  18984     1   0.09730 310787.520000
  18979  18982     1   0.09730 310787.520000
  18980  18983     1   0.09730 310787.520000
  18981  18985     1   0.10969 276646.080000
  18981  18986     1   0.10969 276646.080000
  18987  18988     1   0.09730 310787.520000
  18990  18992     1   0.10969 276646.080000
  18991  18993     1   0.10969 276646.080000
  18994  18998     1   0.10969 276646.080000
  18995  18997     1   0.10969 276646.080000
  18996  18999     1   0.10961 277566.560000
  19001  19007     1   0.09730 310787.520000
  19002  19005     1   0.09730 310787.520000
  19003  19006     1   0.09730 310787.520000
  19004  19008     1   0.10969 276646.080000
  19004  19009     1   0.10969 276646.080000
  19010  19011     1   0.09730 310787.520000
  19013  19015     1   0.10969 276646.080000
  19014  19016     1   0.10969 276646.080000
  19017  19021     1   0.10969 276646.080000
  19018  19020     1   0.10969 276646.080000
  19019  19022     1   0.10961 277566.560000
  19024  19030     1   0.09730 310787.520000
  19025  19028     1   0.09730 310787.520000
  19026  19029     1   0.09730 310787.520000
  19027  19031     1   0.10969 276646.080000
  19027  19032     1   0.10969 276646.080000
  19033  19034     1   0.09730 310787.520000
  19036  19038     1   0.10969 276646.080000
  19037  19039     1   0.10969 276646.080000
  19040  19044     1   0.10969 276646.080000
  19041  19043     1   0.10969 276646.080000
  19042  19045     1   0.10961 277566.560000
  19047  19053     1   0.09730 310787.520000
  19048  19051     1   0.09730 310787.520000
  19049  19052     1   0.09730 310787.520000
  19050  19054     1   0.10969 276646.080000
  19050  19055     1   0.10969 276646.080000
  19056  19057     1   0.09730 310787.520000
  19059  19061     1   0.10969 276646.080000
  19060  19062     1   0.10969 276646.080000
  19063  19067     1   0.10969 276646.080000
  19064  19066     1   0.10969 276646.080000
  19065  19068     1   0.10961 277566.560000
  19070  19076     1   0.09730 310787.520000
  19071  19074     1   0.09730 310787.520000
  19072  19075     1   0.09730 310787.520000
  19073  19077     1   0.10969 276646.080000
  19073  19078     1   0.10969 276646.080000
  19079  19080     1   0.09730 310787.520000
  19082  19084     1   0.10969 276646.080000
  19083  19085     1   0.10969 276646.080000
  19086  19090     1   0.10969 276646.080000
  19087  19089     1   0.10969 276646.080000
  19088  19091     1   0.10961 277566.560000
  19093  19099     1   0.09730 310787.520000
  19094  19097     1   0.09730 310787.520000
  19095  19098     1   0.09730 310787.520000
  19096  19100     1   0.10969 276646.080000
  19096  19101     1   0.10969 276646.080000
  19102  19103     1   0.09730 310787.520000
  19105  19107     1   0.10969 276646.080000
  19106  19108     1   0.10969 276646.080000
  19109  19113     1   0.10969 276646.080000
  19110  19112     1   0.10969 276646.080000
  19111  19114     1   0.10961 277566.560000
  19116  19122     1   0.09730 310787.520000
  19117  19120     1   0.09730 310787.520000
  19118  19121     1   0.09730 310787.520000
  19119  19123     1   0.10969 276646.080000
  19119  19124     1   0.10969 276646.080000
  19125  19126     1   0.09730 310787.520000
  19128  19130     1   0.10969 276646.080000
  19129  19131     1   0.10969 276646.080000
  19132  19136     1   0.10969 276646.080000
  19133  19135     1   0.10969 276646.080000
  19134  19137     1   0.10961 277566.560000
  19139  19145     1   0.09730 310787.520000
  19140  19143     1   0.09730 310787.520000
  19141  19144     1   0.09730 310787.520000
  19142  19146     1   0.10969 276646.080000
  19142  19147     1   0.10969 276646.080000
  19148  19149     1   0.09730 310787.520000
  19151  19153     1   0.10969 276646.080000
  19152  19154     1   0.10969 276646.080000
  19155  19159     1   0.10969 276646.080000
  19156  19158     1   0.10969 276646.080000
  19157  19160     1   0.10961 277566.560000
  19162  19168     1   0.09730 310787.520000
  19163  19166     1   0.09730 310787.520000
  19164  19167     1   0.09730 310787.520000
  19165  19169     1   0.10969 276646.080000
  19165  19170     1   0.10969 276646.080000
  19171  19172     1   0.09730 310787.520000
  19174  19176     1   0.10969 276646.080000
  19175  19177     1   0.10969 276646.080000
  19178  19182     1   0.10969 276646.080000
  19179  19181     1   0.10969 276646.080000
  19180  19183     1   0.10961 277566.560000
  19185  19191     1   0.09730 310787.520000
  19186  19189     1   0.09730 310787.520000
  19187  19190     1   0.09730 310787.520000
  19188  19192     1   0.10969 276646.080000
  19188  19193     1   0.10969 276646.080000
  19194  19195     1   0.09730 310787.520000
  19197  19199     1   0.10969 276646.080000
  19198  19200     1   0.10969 276646.080000
  19201  19205     1   0.10969 276646.080000
  19202  19204     1   0.10969 276646.080000
  19203  19206     1   0.10961 277566.560000
  19208  19214     1   0.09730 310787.520000
  19209  19212     1   0.09730 310787.520000
  19210  19213     1   0.09730 310787.520000
  19211  19215     1   0.10969 276646.080000
  19211  19216     1   0.10969 276646.080000
  19217  19218     1   0.09730 310787.520000
  19220  19222     1   0.10969 276646.080000
  19221  19223     1   0.10969 276646.080000
  19224  19228     1   0.10969 276646.080000
  19225  19227     1   0.10969 276646.080000
  19226  19229     1   0.10961 277566.560000
  19231  19237     1   0.09730 310787.520000
  19232  19235     1   0.09730 310787.520000
  19233  19236     1   0.09730 310787.520000
  19234  19238     1   0.10969 276646.080000
  19234  19239     1   0.10969 276646.080000
  19240  19241     1   0.09730 310787.520000
  19243  19245     1   0.10969 276646.080000
  19244  19246     1   0.10969 276646.080000
  19247  19251     1   0.10969 276646.080000
  19248  19250     1   0.10969 276646.080000
  19249  19252     1   0.10961 277566.560000
  19254  19260     1   0.09730 310787.520000
  19255  19258     1   0.09730 310787.520000
  19256  19259     1   0.09730 310787.520000
  19257  19261     1   0.10969 276646.080000
  19257  19262     1   0.10969 276646.080000
  19263  19264     1   0.09730 310787.520000
  19266  19268     1   0.10969 276646.080000
  19267  19269     1   0.10969 276646.080000
  19270  19274     1   0.10969 276646.080000
  19271  19273     1   0.10969 276646.080000
  19272  19275     1   0.10961 277566.560000
  19277  19283     1   0.09730 310787.520000
  19278  19281     1   0.09730 310787.520000
  19279  19282     1   0.09730 310787.520000
  19280  19284     1   0.10969 276646.080000
  19280  19285     1   0.10969 276646.080000
  19286  19287     1   0.09730 310787.520000
  19289  19291     1   0.10969 276646.080000
  19290  19292     1   0.10969 276646.080000
  19293  19297     1   0.10969 276646.080000
  19294  19296     1   0.10969 276646.080000
  19295  19298     1   0.10961 277566.560000
  19300  19306     1   0.09730 310787.520000
  19301  19304     1   0.09730 310787.520000
  19302  19305     1   0.09730 310787.520000
  19303  19307     1   0.10969 276646.080000
  19303  19308     1   0.10969 276646.080000
  19309  19310     1   0.09730 310787.520000
  19312  19314     1   0.10969 276646.080000
  19313  19315     1   0.10969 276646.080000
  19316  19320     1   0.10969 276646.080000
  19317  19319     1   0.10969 276646.080000
  19318  19321     1   0.10961 277566.560000
  19323  19329     1   0.09730 310787.520000
  19324  19327     1   0.09730 310787.520000
  19325  19328     1   0.09730 310787.520000
  19326  19330     1   0.10969 276646.080000
  19326  19331     1   0.10969 276646.080000
  19332  19333     1   0.09730 310787.520000
  19335  19337     1   0.10969 276646.080000
  19336  19338     1   0.10969 276646.080000
  19339  19343     1   0.10969 276646.080000
  19340  19342     1   0.10969 276646.080000
  19341  19344     1   0.10961 277566.560000
  19346  19352     1   0.09730 310787.520000
  19347  19350     1   0.09730 310787.520000
  19348  19351     1   0.09730 310787.520000
  19349  19353     1   0.10969 276646.080000
  19349  19354     1   0.10969 276646.080000
  19355  19356     1   0.09730 310787.520000
  19358  19360     1   0.10969 276646.080000
  19359  19361     1   0.10969 276646.080000
  19362  19366     1   0.10969 276646.080000
  19363  19365     1   0.10969 276646.080000
  19364  19367     1   0.10961 277566.560000
  19369  19375     1   0.09730 310787.520000
  19370  19373     1   0.09730 310787.520000
  19371  19374     1   0.09730 310787.520000
  19372  19376     1   0.10969 276646.080000
  19372  19377     1   0.10969 276646.080000
  19378  19379     1   0.09730 310787.520000
  19381  19383     1   0.10969 276646.080000
  19382  19384     1   0.10969 276646.080000
  19385  19389     1   0.10969 276646.080000
  19386  19388     1   0.10969 276646.080000
  19387  19390     1   0.10961 277566.560000
  19392  19398     1   0.09730 310787.520000
  19393  19396     1   0.09730 310787.520000
  19394  19397     1   0.09730 310787.520000
  19395  19399     1   0.10969 276646.080000
  19395  19400     1   0.10969 276646.080000
  19401  19402     1   0.09730 310787.520000
  19404  19406     1   0.10969 276646.080000
  19405  19407     1   0.10969 276646.080000
  19408  19412     1   0.10969 276646.080000
  19409  19411     1   0.10969 276646.080000
  19410  19413     1   0.10961 277566.560000
  19415  19421     1   0.09730 310787.520000
  19416  19419     1   0.09730 310787.520000
  19417  19420     1   0.09730 310787.520000
  19418  19422     1   0.10969 276646.080000
  19418  19423     1   0.10969 276646.080000
  19424  19425     1   0.09730 310787.520000
  19427  19429     1   0.10969 276646.080000
  19428  19430     1   0.10969 276646.080000
  19431  19435     1   0.10969 276646.080000
  19432  19434     1   0.10969 276646.080000
  19433  19436     1   0.10961 277566.560000
  19438  19444     1   0.09730 310787.520000
  19439  19442     1   0.09730 310787.520000
  19440  19443     1   0.09730 310787.520000
  19441  19445     1   0.10969 276646.080000
  19441  19446     1   0.10969 276646.080000
  19447  19448     1   0.09730 310787.520000
  19450  19452     1   0.10969 276646.080000
  19451  19453     1   0.10969 276646.080000
  19454  19458     1   0.10969 276646.080000
  19455  19457     1   0.10969 276646.080000
  19456  19459     1   0.10961 277566.560000
  19461  19467     1   0.09730 310787.520000
  19462  19465     1   0.09730 310787.520000
  19463  19466     1   0.09730 310787.520000
  19464  19468     1   0.10969 276646.080000
  19464  19469     1   0.10969 276646.080000
  19470  19471     1   0.09730 310787.520000
  19473  19475     1   0.10969 276646.080000
  19474  19476     1   0.10969 276646.080000
  19477  19481     1   0.10969 276646.080000
  19478  19480     1   0.10969 276646.080000
  19479  19482     1   0.10961 277566.560000
  19484  19490     1   0.09730 310787.520000
  19485  19488     1   0.09730 310787.520000
  19486  19489     1   0.09730 310787.520000
  19487  19491     1   0.10969 276646.080000
  19487  19492     1   0.10969 276646.080000
  19493  19494     1   0.09730 310787.520000
  19496  19498     1   0.10969 276646.080000
  19497  19499     1   0.10969 276646.080000
  19500  19504     1   0.10969 276646.080000
  19501  19503     1   0.10969 276646.080000
  19502  19505     1   0.10961 277566.560000
  19507  19513     1   0.09730 310787.520000
  19508  19511     1   0.09730 310787.520000
  19509  19512     1   0.09730 310787.520000
  19510  19514     1   0.10969 276646.080000
  19510  19515     1   0.10969 276646.080000
  19516  19517     1   0.09730 310787.520000
  19519  19521     1   0.10969 276646.080000
  19520  19522     1   0.10969 276646.080000
  19523  19527     1   0.10969 276646.080000
  19524  19526     1   0.10969 276646.080000
  19525  19528     1   0.10961 277566.560000
  19530  19536     1   0.09730 310787.520000
  19531  19534     1   0.09730 310787.520000
  19532  19535     1   0.09730 310787.520000
  19533  19537     1   0.10969 276646.080000
  19533  19538     1   0.10969 276646.080000
  19539  19540     1   0.09730 310787.520000
  19542  19544     1   0.10969 276646.080000
  19543  19545     1   0.10969 276646.080000
  19546  19550     1   0.10969 276646.080000
  19547  19549     1   0.10969 276646.080000
  19548  19551     1   0.10961 277566.560000
  19553  19559     1   0.09730 310787.520000
  19554  19557     1   0.09730 310787.520000
  19555  19558     1   0.09730 310787.520000
  19556  19560     1   0.10969 276646.080000
  19556  19561     1   0.10969 276646.080000
  19562  19563     1   0.09730 310787.520000
  19565  19567     1   0.10969 276646.080000
  19566  19568     1   0.10969 276646.080000
  19569  19573     1   0.10969 276646.080000
  19570  19572     1   0.10969 276646.080000
  19571  19574     1   0.10961 277566.560000
  19576  19582     1   0.09730 310787.520000
  19577  19580     1   0.09730 310787.520000
  19578  19581     1   0.09730 310787.520000
  19579  19583     1   0.10969 276646.080000
  19579  19584     1   0.10969 276646.080000
  19585  19586     1   0.09730 310787.520000
  19588  19590     1   0.10969 276646.080000
  19589  19591     1   0.10969 276646.080000
  19592  19596     1   0.10969 276646.080000
  19593  19595     1   0.10969 276646.080000
  19594  19597     1   0.10961 277566.560000
  19599  19605     1   0.09730 310787.520000
  19600  19603     1   0.09730 310787.520000
  19601  19604     1   0.09730 310787.520000
  19602  19606     1   0.10969 276646.080000
  19602  19607     1   0.10969 276646.080000
  19608  19609     1   0.09730 310787.520000
  19611  19613     1   0.10969 276646.080000
  19612  19614     1   0.10969 276646.080000
  19615  19619     1   0.10969 276646.080000
  19616  19618     1   0.10969 276646.080000
  19617  19620     1   0.10961 277566.560000
  19622  19628     1   0.09730 310787.520000
  19623  19626     1   0.09730 310787.520000
  19624  19627     1   0.09730 310787.520000
  19625  19629     1   0.10969 276646.080000
  19625  19630     1   0.10969 276646.080000
  19631  19632     1   0.09730 310787.520000
  19634  19636     1   0.10969 276646.080000
  19635  19637     1   0.10969 276646.080000
  19638  19642     1   0.10969 276646.080000
  19639  19641     1   0.10969 276646.080000
  19640  19643     1   0.10961 277566.560000
  19645  19651     1   0.09730 310787.520000
  19646  19649     1   0.09730 310787.520000
  19647  19650     1   0.09730 310787.520000
  19648  19652     1   0.10969 276646.080000
  19648  19653     1   0.10969 276646.080000
  19654  19655     1   0.09730 310787.520000
  19657  19659     1   0.10969 276646.080000
  19658  19660     1   0.10969 276646.080000
  19661  19665     1   0.10969 276646.080000
  19662  19664     1   0.10969 276646.080000
  19663  19666     1   0.10961 277566.560000
  19668  19674     1   0.09730 310787.520000
  19669  19672     1   0.09730 310787.520000
  19670  19673     1   0.09730 310787.520000
  19671  19675     1   0.10969 276646.080000
  19671  19676     1   0.10969 276646.080000
  19677  19678     1   0.09730 310787.520000
  19680  19682     1   0.10969 276646.080000
  19681  19683     1   0.10969 276646.080000
  19684  19688     1   0.10969 276646.080000
  19685  19687     1   0.10969 276646.080000
  19686  19689     1   0.10961 277566.560000
  19691  19697     1   0.09730 310787.520000
  19692  19695     1   0.09730 310787.520000
  19693  19696     1   0.09730 310787.520000
  19694  19698     1   0.10969 276646.080000
  19694  19699     1   0.10969 276646.080000
  19700  19701     1   0.09730 310787.520000
  19703  19705     1   0.10969 276646.080000
  19704  19706     1   0.10969 276646.080000
  19707  19711     1   0.10969 276646.080000
  19708  19710     1   0.10969 276646.080000
  19709  19712     1   0.10961 277566.560000
  19714  19720     1   0.09730 310787.520000
  19715  19718     1   0.09730 310787.520000
  19716  19719     1   0.09730 310787.520000
  19717  19721     1   0.10969 276646.080000
  19717  19722     1   0.10969 276646.080000
  19723  19724     1   0.09730 310787.520000
  19726  19728     1   0.10969 276646.080000
  19727  19729     1   0.10969 276646.080000
  19730  19734     1   0.10969 276646.080000
  19731  19733     1   0.10969 276646.080000
  19732  19735     1   0.10961 277566.560000
  19737  19743     1   0.09730 310787.520000
  19738  19741     1   0.09730 310787.520000
  19739  19742     1   0.09730 310787.520000
  19740  19744     1   0.10969 276646.080000
  19740  19745     1   0.10969 276646.080000
  19746  19747     1   0.09730 310787.520000
  19749  19751     1   0.10969 276646.080000
  19750  19752     1   0.10969 276646.080000
  19753  19757     1   0.10969 276646.080000
  19754  19756     1   0.10969 276646.080000
  19755  19758     1   0.10961 277566.560000
  19760  19766     1   0.09730 310787.520000
  19761  19764     1   0.09730 310787.520000
  19762  19765     1   0.09730 310787.520000
  19763  19767     1   0.10969 276646.080000
  19763  19768     1   0.10969 276646.080000
  19769  19770     1   0.09730 310787.520000
  19772  19774     1   0.10969 276646.080000
  19773  19775     1   0.10969 276646.080000
  19776  19780     1   0.10969 276646.080000
  19777  19779     1   0.10969 276646.080000
  19778  19781     1   0.10961 277566.560000
  19783  19789     1   0.09730 310787.520000
  19784  19787     1   0.09730 310787.520000
  19785  19788     1   0.09730 310787.520000
  19786  19790     1   0.10969 276646.080000
  19786  19791     1   0.10969 276646.080000
  19792  19793     1   0.09730 310787.520000
  19795  19797     1   0.10969 276646.080000
  19796  19798     1   0.10969 276646.080000
  19799  19803     1   0.10969 276646.080000
  19800  19802     1   0.10969 276646.080000
  19801  19804     1   0.10961 277566.560000
  19806  19812     1   0.09730 310787.520000
  19807  19810     1   0.09730 310787.520000
  19808  19811     1   0.09730 310787.520000
  19809  19813     1   0.10969 276646.080000
  19809  19814     1   0.10969 276646.080000
  19815  19816     1   0.09730 310787.520000
  19818  19820     1   0.10969 276646.080000
  19819  19821     1   0.10969 276646.080000
  19822  19826     1   0.10969 276646.080000
  19823  19825     1   0.10969 276646.080000
  19824  19827     1   0.10961 277566.560000
  19829  19835     1   0.09730 310787.520000
  19830  19833     1   0.09730 310787.520000
  19831  19834     1   0.09730 310787.520000
  19832  19836     1   0.10969 276646.080000
  19832  19837     1   0.10969 276646.080000
  19838  19839     1   0.09730 310787.520000
  19841  19843     1   0.10969 276646.080000
  19842  19844     1   0.10969 276646.080000
  19845  19849     1   0.10969 276646.080000
  19846  19848     1   0.10969 276646.080000
  19847  19850     1   0.10961 277566.560000
  19852  19858     1   0.09730 310787.520000
  19853  19856     1   0.09730 310787.520000
  19854  19857     1   0.09730 310787.520000
  19855  19859     1   0.10969 276646.080000
  19855  19860     1   0.10969 276646.080000
  19861  19862     1   0.09730 310787.520000
  19864  19866     1   0.10969 276646.080000
  19865  19867     1   0.10969 276646.080000
  19868  19872     1   0.10969 276646.080000
  19869  19871     1   0.10969 276646.080000
  19870  19873     1   0.10961 277566.560000
  19875  19881     1   0.09730 310787.520000
  19876  19879     1   0.09730 310787.520000
  19877  19880     1   0.09730 310787.520000
  19878  19882     1   0.10969 276646.080000
  19878  19883     1   0.10969 276646.080000
  19884  19885     1   0.09730 310787.520000
  19887  19889     1   0.10969 276646.080000
  19888  19890     1   0.10969 276646.080000
  19891  19895     1   0.10969 276646.080000
  19892  19894     1   0.10969 276646.080000
  19893  19896     1   0.10961 277566.560000
  19898  19904     1   0.09730 310787.520000
  19899  19902     1   0.09730 310787.520000
  19900  19903     1   0.09730 310787.520000
  19901  19905     1   0.10969 276646.080000
  19901  19906     1   0.10969 276646.080000
  19907  19908     1   0.09730 310787.520000

[ pairs ]
;    ai     aj funct         c0         c1         c2         c3
      1     26     1
      1     20     1
      1     23     1
      2     17     1
      2     11     1
      2    115     1
      5     14     1
      5     11     1
      5     57     1
      8     14     1
      8     17     1
      8     86     1
     11     77     1
     14    106     1
     17     48     1
     20     39     1
     23     68     1
     26     97     1
     29     54     1
     29     51     1
     29     48     1
     30     45     1
     30     39     1
     30    173     1
     33     42     1
     33     39     1
     33    144     1
     36     42     1
     36     45     1
     36     57     1
     42    164     1
     45    135     1
     51    126     1
     54    155     1
     58     83     1
     58     80     1
     58     77     1
     59     74     1
     59     68     1
     59    231     1
     62     71     1
     62     68     1
     62    202     1
     65     71     1
     65     74     1
     65     86     1
     71    222     1
     74    193     1
     80    184     1
     83    213     1
     87    112     1
     87    109     1
     87    106     1
     88    103     1
     88     97     1
     88    289     1
     91    100     1
     91     97     1
     91    260     1
     94    100     1
     94    103     1
     94    115     1
    100    280     1
    103    251     1
    109    242     1
    112    271     1
    116    141     1
    116    138     1
    116    135     1
    117    132     1
    117    126     1
    117    347     1
    120    129     1
    120    126     1
    120    318     1
    123    129     1
    123    132     1
    123    144     1
    129    338     1
    132    309     1
    138    300     1
    141    329     1
    145    170     1
    145    167     1
    145    164     1
    146    161     1
    146    155     1
    146    405     1
    149    158     1
    149    155     1
    149    376     1
    152    158     1
    152    161     1
    152    173     1
    158    396     1
    161    367     1
    167    358     1
    170    387     1
    174    199     1
    174    196     1
    174    193     1
    175    190     1
    175    184     1
    175    463     1
    178    187     1
    178    184     1
    178    434     1
    181    187     1
    181    190     1
    181    202     1
    187    454     1
    190    425     1
    196    416     1
    199    445     1
    203    228     1
    203    225     1
    203    222     1
    204    219     1
    204    213     1
    204    521     1
    207    216     1
    207    213     1
    207    492     1
    210    216     1
    210    219     1
    210    231     1
    216    512     1
    219    483     1
    225    474     1
    228    503     1
    232    257     1
    232    254     1
    232    251     1
    233    248     1
    233    242     1
    233    579     1
    236    245     1
    236    242     1
    236    550     1
    239    245     1
    239    248     1
    239    260     1
    245    570     1
    248    541     1
    254    532     1
    257    561     1
    261    286     1
    261    283     1
    261    280     1
    262    277     1
    262    271     1
    262    637     1
    265    274     1
    265    271     1
    265    608     1
    268    274     1
    268    277     1
    268    289     1
    274    628     1
    277    599     1
    283    590     1
    286    619     1
    290    315     1
    290    312     1
    290    309     1
    291    306     1
    291    300     1
    291    695     1
    294    303     1
    294    300     1
    294    666     1
    297    303     1
    297    306     1
    297    318     1
    303    686     1
    306    657     1
    312    648     1
    315    677     1
    319    344     1
    319    341     1
    319    338     1
    320    335     1
    320    329     1
    320    753     1
    323    332     1
    323    329     1
    323    724     1
    326    332     1
    326    335     1
    326    347     1
    332    744     1
    335    715     1
    341    706     1
    344    735     1
    348    373     1
    348    370     1
    348    367     1
    349    364     1
    349    358     1
    349    811     1
    352    361     1
    352    358     1
    352    782     1
    355    361     1
    355    364     1
    355    376     1
    361    802     1
    364    773     1
    370    764     1
    373    793     1
    377    402     1
    377    399     1
    377    396     1
    378    393     1
    378    387     1
    378    869     1
    381    390     1
    381    387     1
    381    840     1
    384    390     1
    384    393     1
    384    405     1
    390    860     1
    393    831     1
    399    822     1
    402    851     1
    406    431     1
    406    428     1
    406    425     1
    407    422     1
    407    416     1
    407    927     1
    410    419     1
    410    416     1
    410    898     1
    413    419     1
    413    422     1
    413    434     1
    419    918     1
    422    889     1
    428    880     1
    431    909     1
    435    460     1
    435    457     1
    435    454     1
    436    451     1
    436    445     1
    436    985     1
    439    448     1
    439    445     1
    439    956     1
    442    448     1
    442    451     1
    442    463     1
    448    976     1
    451    947     1
    457    938     1
    460    967     1
    464    489     1
    464    486     1
    464    483     1
    465    480     1
    465    474     1
    465   1043     1
    468    477     1
    468    474     1
    468   1014     1
    471    477     1
    471    480     1
    471    492     1
    477   1034     1
    480   1005     1
    486    996     1
    489   1025     1
    493    518     1
    493    515     1
    493    512     1
    494    509     1
    494    503     1
    494   1101     1
    497    506     1
    497    503     1
    497   1072     1
    500    506     1
    500    509     1
    500    521     1
    506   1092     1
    509   1063     1
    515   1054     1
    518   1083     1
    522    547     1
    522    544     1
    522    541     1
    523    538     1
    523    532     1
    523   1159     1
    526    535     1
    526    532     1
    526   1130     1
    529    535     1
    529    538     1
    529    550     1
    535   1150     1
    538   1121     1
    544   1112     1
    547   1141     1
    551    576     1
    551    573     1
    551    570     1
    552    567     1
    552    561     1
    552   1217     1
    555    564     1
    555    561     1
    555   1188     1
    558    564     1
    558    567     1
    558    579     1
    564   1208     1
    567   1179     1
    573   1170     1
    576   1199     1
    580    605     1
    580    602     1
    580    599     1
    581    596     1
    581    590     1
    581   1275     1
    584    593     1
    584    590     1
    584   1246     1
    587    593     1
    587    596     1
    587    608     1
    593   1266     1
    596   1237     1
    602   1228     1
    605   1257     1
    609    634     1
    609    631     1
    609    628     1
    610    625     1
    610    619     1
    610   1333     1
    613    622     1
    613    619     1
    613   1304     1
    616    622     1
    616    625     1
    616    637     1
    622   1324     1
    625   1295     1
    631   1286     1
    634   1315     1
    638    663     1
    638    660     1
    638    657     1
    639    654     1
    639    648     1
    639   1391     1
    642    651     1
    642    648     1
    642   1362     1
    645    651     1
    645    654     1
    645    666     1
    651   1382     1
    654   1353     1
    660   1344     1
    663   1373     1
    667    692     1
    667    689     1
    667    686     1
    668    683     1
    668    677     1
    668   1449     1
    671    680     1
    671    677     1
    671   1420     1
    674    680     1
    674    683     1
    674    695     1
    680   1440     1
    683   1411     1
    689   1402     1
    692   1431     1
    696    721     1
    696    718     1
    696    715     1
    697    712     1
    697    706     1
    697   1507     1
    700    709     1
    700    706     1
    700   1478     1
    703    709     1
    703    712     1
    703    724     1
    709   1498     1
    712   1469     1
    718   1460     1
    721   1489     1
    725    750     1
    725    747     1
    725    744     1
    726    741     1
    726    735     1
    726   1565     1
    729    738     1
    729    735     1
    729   1536     1
    732    738     1
    732    741     1
    732    753     1
    738   1556     1
    741   1527     1
    747   1518     1
    750   1547     1
    754    779     1
    754    776     1
    754    773     1
    755    770     1
    755    764     1
    755   1623     1
    758    767     1
    758    764     1
    758   1594     1
    761    767     1
    761    770     1
    761    782     1
    767   1614     1
    770   1585     1
    776   1576     1
    779   1605     1
    783    808     1
    783    805     1
    783    802     1
    784    799     1
    784    793     1
    784   1681     1
    787    796     1
    787    793     1
    787   1652     1
    790    796     1
    790    799     1
    790    811     1
    796   1672     1
    799   1643     1
    805   1634     1
    808   1663     1
    812    837     1
    812    834     1
    812    831     1
    813    828     1
    813    822     1
    813   1739     1
    816    825     1
    816    822     1
    816   1710     1
    819    825     1
    819    828     1
    819    840     1
    825   1730     1
    828   1701     1
    834   1692     1
    837   1721     1
    841    866     1
    841    863     1
    841    860     1
    842    857     1
    842    851     1
    842   1797     1
    845    854     1
    845    851     1
    845   1768     1
    848    854     1
    848    857     1
    848    869     1
    854   1788     1
    857   1759     1
    863   1750     1
    866   1779     1
    870    895     1
    870    892     1
    870    889     1
    871    886     1
    871    880     1
    871   1855     1
    874    883     1
    874    880     1
    874   1826     1
    877    883     1
    877    886     1
    877    898     1
    883   1846     1
    886   1817     1
    892   1808     1
    895   1837     1
    899    924     1
    899    921     1
    899    918     1
    900    915     1
    900    909     1
    900   1913     1
    903    912     1
    903    909     1
    903   1884     1
    906    912     1
    906    915     1
    906    927     1
    912   1904     1
    915   1875     1
    921   1866     1
    924   1895     1
    928    953     1
    928    950     1
    928    947     1
    929    944     1
    929    938     1
    929   1971     1
    932    941     1
    932    938     1
    932   1942     1
    935    941     1
    935    944     1
    935    956     1
    941   1962     1
    944   1933     1
    950   1924     1
    953   1953     1
    957    982     1
    957    979     1
    957    976     1
    958    973     1
    958    967     1
    958   2029     1
    961    970     1
    961    967     1
    961   2000     1
    964    970     1
    964    973     1
    964    985     1
    970   2020     1
    973   1991     1
    979   1982     1
    982   2011     1
    986   1011     1
    986   1008     1
    986   1005     1
    987   1002     1
    987    996     1
    987   2087     1
    990    999     1
    990    996     1
    990   2058     1
    993    999     1
    993   1002     1
    993   1014     1
    999   2078     1
   1002   2049     1
   1008   2040     1
   1011   2069     1
   1015   1040     1
   1015   1037     1
   1015   1034     1
   1016   1031     1
   1016   1025     1
   1016   2145     1
   1019   1028     1
   1019   1025     1
   1019   2116     1
   1022   1028     1
   1022   1031     1
   1022   1043     1
   1028   2136     1
   1031   2107     1
   1037   2098     1
   1040   2127     1
   1044   1069     1
   1044   1066     1
   1044   1063     1
   1045   1060     1
   1045   1054     1
   1045   2203     1
   1048   1057     1
   1048   1054     1
   1048   2174     1
   1051   1057     1
   1051   1060     1
   1051   1072     1
   1057   2194     1
   1060   2165     1
   1066   2156     1
   1069   2185     1
   1073   1098     1
   1073   1095     1
   1073   1092     1
   1074   1089     1
   1074   1083     1
   1074   2261     1
   1077   1086     1
   1077   1083     1
   1077   2232     1
   1080   1086     1
   1080   1089     1
   1080   1101     1
   1086   2252     1
   1089   2223     1
   1095   2214     1
   1098   2243     1
   1102   1127     1
   1102   1124     1
   1102   1121     1
   1103   1118     1
   1103   1112     1
   1103   2319     1
   1106   1115     1
   1106   1112     1
   1106   2290     1
   1109   1115     1
   1109   1118     1
   1109   1130     1
   1115   2310     1
   1118   2281     1
   1124   2272     1
   1127   2301     1
   1131   1156     1
   1131   1153     1
   1131   1150     1
   1132   1147     1
   1132   1141     1
   1132   2377     1
   1135   1144     1
   1135   1141     1
   1135   2348     1
   1138   1144     1
   1138   1147     1
   1138   1159     1
   1144   2368     1
   1147   2339     1
   1153   2330     1
   1156   2359     1
   1160   1185     1
   1160   1182     1
   1160   1179     1
   1161   1176     1
   1161   1170     1
   1161   2435     1
   1164   1173     1
   1164   1170     1
   1164   2406     1
   1167   1173     1
   1167   1176     1
   1167   1188     1
   1173   2426     1
   1176   2397     1
   1182   2388     1
   1185   2417     1
   1189   1214     1
   1189   1211     1
   1189   1208     1
   1190   1205     1
   1190   1199     1
   1190   2493     1
   1193   1202     1
   1193   1199     1
   1193   2464     1
   1196   1202     1
   1196   1205     1
   1196   1217     1
   1202   2484     1
   1205   2455     1
   1211   2446     1
   1214   2475     1
   1218   1243     1
   1218   1240     1
   1218   1237     1
   1219   1234     1
   1219   1228     1
   1219   2551     1
   1222   1231     1
   1222   1228     1
   1222   2522     1
   1225   1231     1
   1225   1234     1
   1225   1246     1
   1231   2542     1
   1234   2513     1
   1240   2504     1
   1243   2533     1
   1247   1272     1
   1247   1269     1
   1247   1266     1
   1248   1263     1
   1248   1257     1
   1248   2609     1
   1251   1260     1
   1251   1257     1
   1251   2580     1
   1254   1260     1
   1254   1263     1
   1254   1275     1
   1260   2600     1
   1263   2571     1
   1269   2562     1
   1272   2591     1
   1276   1301     1
   1276   1298     1
   1276   1295     1
   1277   1292     1
   1277   1286     1
   1277   2667     1
   1280   1289     1
   1280   1286     1
   1280   2638     1
   1283   1289     1
   1283   1292     1
   1283   1304     1
   1289   2658     1
   1292   2629     1
   1298   2620     1
   1301   2649     1
   1305   1330     1
   1305   1327     1
   1305   1324     1
   1306   1321     1
   1306   1315     1
   1306   2725     1
   1309   1318     1
   1309   1315     1
   1309   2696     1
   1312   1318     1
   1312   1321     1
   1312   1333     1
   1318   2716     1
   1321   2687     1
   1327   2678     1
   1330   2707     1
   1334   1359     1
   1334   1356     1
   1334   1353     1
   1335   1350     1
   1335   1344     1
   1335   2783     1
   1338   1347     1
   1338   1344     1
   1338   2754     1
   1341   1347     1
   1341   1350     1
   1341   1362     1
   1347   2774     1
   1350   2745     1
   1356   2736     1
   1359   2765     1
   1363   1388     1
   1363   1385     1
   1363   1382     1
   1364   1379     1
   1364   1373     1
   1364   2841     1
   1367   1376     1
   1367   1373     1
   1367   2812     1
   1370   1376     1
   1370   1379     1
   1370   1391     1
   1376   2832     1
   1379   2803     1
   1385   2794     1
   1388   2823     1
   1392   1417     1
   1392   1414     1
   1392   1411     1
   1393   1408     1
   1393   1402     1
   1393   2899     1
   1396   1405     1
   1396   1402     1
   1396   2870     1
   1399   1405     1
   1399   1408     1
   1399   1420     1
   1405   2890     1
   1408   2861     1
   1414   2852     1
   1417   2881     1
   1421   1446     1
   1421   1443     1
   1421   1440     1
   1422   1437     1
   1422   1431     1
   1422   2957     1
   1425   1434     1
   1425   1431     1
   1425   2928     1
   1428   1434     1
   1428   1437     1
   1428   1449     1
   1434   2948     1
   1437   2919     1
   1443   2910     1
   1446   2939     1
   1450   1475     1
   1450   1472     1
   1450   1469     1
   1451   1466     1
   1451   1460     1
   1451   3015     1
   1454   1463     1
   1454   1460     1
   1454   2986     1
   1457   1463     1
   1457   1466     1
   1457   1478     1
   1463   3006     1
   1466   2977     1
   1472   2968     1
   1475   2997     1
   1479   1504     1
   1479   1501     1
   1479   1498     1
   1480   1495     1
   1480   1489     1
   1480   3073     1
   1483   1492     1
   1483   1489     1
   1483   3044     1
   1486   1492     1
   1486   1495     1
   1486   1507     1
   1492   3064     1
   1495   3035     1
   1501   3026     1
   1504   3055     1
   1508   1533     1
   1508   1530     1
   1508   1527     1
   1509   1524     1
   1509   1518     1
   1509   3131     1
   1512   1521     1
   1512   1518     1
   1512   3102     1
   1515   1521     1
   1515   1524     1
   1515   1536     1
   1521   3122     1
   1524   3093     1
   1530   3084     1
   1533   3113     1
   1537   1562     1
   1537   1559     1
   1537   1556     1
   1538   1553     1
   1538   1547     1
   1538   3189     1
   1541   1550     1
   1541   1547     1
   1541   3160     1
   1544   1550     1
   1544   1553     1
   1544   1565     1
   1550   3180     1
   1553   3151     1
   1559   3142     1
   1562   3171     1
   1566   1591     1
   1566   1588     1
   1566   1585     1
   1567   1582     1
   1567   1576     1
   1567   3247     1
   1570   1579     1
   1570   1576     1
   1570   3218     1
   1573   1579     1
   1573   1582     1
   1573   1594     1
   1579   3238     1
   1582   3209     1
   1588   3200     1
   1591   3229     1
   1595   1620     1
   1595   1617     1
   1595   1614     1
   1596   1611     1
   1596   1605     1
   1596   3305     1
   1599   1608     1
   1599   1605     1
   1599   3276     1
   1602   1608     1
   1602   1611     1
   1602   1623     1
   1608   3296     1
   1611   3267     1
   1617   3258     1
   1620   3287     1
   1624   1649     1
   1624   1646     1
   1624   1643     1
   1625   1640     1
   1625   1634     1
   1625   3363     1
   1628   1637     1
   1628   1634     1
   1628   3334     1
   1631   1637     1
   1631   1640     1
   1631   1652     1
   1637   3354     1
   1640   3325     1
   1646   3316     1
   1649   3345     1
   1653   1678     1
   1653   1675     1
   1653   1672     1
   1654   1669     1
   1654   1663     1
   1654   3421     1
   1657   1666     1
   1657   1663     1
   1657   3392     1
   1660   1666     1
   1660   1669     1
   1660   1681     1
   1666   3412     1
   1669   3383     1
   1675   3374     1
   1678   3403     1
   1682   1707     1
   1682   1704     1
   1682   1701     1
   1683   1698     1
   1683   1692     1
   1683   3479     1
   1686   1695     1
   1686   1692     1
   1686   3450     1
   1689   1695     1
   1689   1698     1
   1689   1710     1
   1695   3470     1
   1698   3441     1
   1704   3432     1
   1707   3461     1
   1711   1736     1
   1711   1733     1
   1711   1730     1
   1712   1727     1
   1712   1721     1
   1712   3537     1
   1715   1724     1
   1715   1721     1
   1715   3508     1
   1718   1724     1
   1718   1727     1
   1718   1739     1
   1724   3528     1
   1727   3499     1
   1733   3490     1
   1736   3519     1
   1740   1765     1
   1740   1762     1
   1740   1759     1
   1741   1756     1
   1741   1750     1
   1741   3595     1
   1744   1753     1
   1744   1750     1
   1744   3566     1
   1747   1753     1
   1747   1756     1
   1747   1768     1
   1753   3586     1
   1756   3557     1
   1762   3548     1
   1765   3577     1
   1769   1794     1
   1769   1791     1
   1769   1788     1
   1770   1785     1
   1770   1779     1
   1770   3653     1
   1773   1782     1
   1773   1779     1
   1773   3624     1
   1776   1782     1
   1776   1785     1
   1776   1797     1
   1782   3644     1
   1785   3615     1
   1791   3606     1
   1794   3635     1
   1798   1823     1
   1798   1820     1
   1798   1817     1
   1799   1814     1
   1799   1808     1
   1799   3711     1
   1802   1811     1
   1802   1808     1
   1802   3682     1
   1805   1811     1
   1805   1814     1
   1805   1826     1
   1811   3702     1
   1814   3673     1
   1820   3664     1
   1823   3693     1
   1827   1852     1
   1827   1849     1
   1827   1846     1
   1828   1843     1
   1828   1837     1
   1828   3769     1
   1831   1840     1
   1831   1837     1
   1831   3740     1
   1834   1840     1
   1834   1843     1
   1834   1855     1
   1840   3760     1
   1843   3731     1
   1849   3722     1
   1852   3751     1
   1856   1881     1
   1856   1878     1
   1856   1875     1
   1857   1872     1
   1857   1866     1
   1857   3827     1
   1860   1869     1
   1860   1866     1
   1860   3798     1
   1863   1869     1
   1863   1872     1
   1863   1884     1
   1869   3818     1
   1872   3789     1
   1878   3780     1
   1881   3809     1
   1885   1910     1
   1885   1907     1
   1885   1904     1
   1886   1901     1
   1886   1895     1
   1886   3885     1
   1889   1898     1
   1889   1895     1
   1889   3856     1
   1892   1898     1
   1892   1901     1
   1892   1913     1
   1898   3876     1
   1901   3847     1
   1907   3838     1
   1910   3867     1
   1914   1939     1
   1914   1936     1
   1914   1933     1
   1915   1930     1
   1915   1924     1
   1915   3943     1
   1918   1927     1
   1918   1924     1
   1918   3914     1
   1921   1927     1
   1921   1930     1
   1921   1942     1
   1927   3934     1
   1930   3905     1
   1936   3896     1
   1939   3925     1
   1943   1968     1
   1943   1965     1
   1943   1962     1
   1944   1959     1
   1944   1953     1
   1944   4001     1
   1947   1956     1
   1947   1953     1
   1947   3972     1
   1950   1956     1
   1950   1959     1
   1950   1971     1
   1956   3992     1
   1959   3963     1
   1965   3954     1
   1968   3983     1
   1972   1997     1
   1972   1994     1
   1972   1991     1
   1973   1988     1
   1973   1982     1
   1973   4059     1
   1976   1985     1
   1976   1982     1
   1976   4030     1
   1979   1985     1
   1979   1988     1
   1979   2000     1
   1985   4050     1
   1988   4021     1
   1994   4012     1
   1997   4041     1
   2001   2026     1
   2001   2023     1
   2001   2020     1
   2002   2017     1
   2002   2011     1
   2002   4117     1
   2005   2014     1
   2005   2011     1
   2005   4088     1
   2008   2014     1
   2008   2017     1
   2008   2029     1
   2014   4108     1
   2017   4079     1
   2023   4070     1
   2026   4099     1
   2030   2055     1
   2030   2052     1
   2030   2049     1
   2031   2046     1
   2031   2040     1
   2031   4175     1
   2034   2043     1
   2034   2040     1
   2034   4146     1
   2037   2043     1
   2037   2046     1
   2037   2058     1
   2043   4166     1
   2046   4137     1
   2052   4128     1
   2055   4157     1
   2059   2084     1
   2059   2081     1
   2059   2078     1
   2060   2075     1
   2060   2069     1
   2060   4233     1
   2063   2072     1
   2063   2069     1
   2063   4204     1
   2066   2072     1
   2066   2075     1
   2066   2087     1
   2072   4224     1
   2075   4195     1
   2081   4186     1
   2084   4215     1
   2088   2113     1
   2088   2110     1
   2088   2107     1
   2089   2104     1
   2089   2098     1
   2089   4291     1
   2092   2101     1
   2092   2098     1
   2092   4262     1
   2095   2101     1
   2095   2104     1
   2095   2116     1
   2101   4282     1
   2104   4253     1
   2110   4244     1
   2113   4273     1
   2117   2142     1
   2117   2139     1
   2117   2136     1
   2118   2133     1
   2118   2127     1
   2118   4349     1
   2121   2130     1
   2121   2127     1
   2121   4320     1
   2124   2130     1
   2124   2133     1
   2124   2145     1
   2130   4340     1
   2133   4311     1
   2139   4302     1
   2142   4331     1
   2146   2171     1
   2146   2168     1
   2146   2165     1
   2147   2162     1
   2147   2156     1
   2147   4407     1
   2150   2159     1
   2150   2156     1
   2150   4378     1
   2153   2159     1
   2153   2162     1
   2153   2174     1
   2159   4398     1
   2162   4369     1
   2168   4360     1
   2171   4389     1
   2175   2200     1
   2175   2197     1
   2175   2194     1
   2176   2191     1
   2176   2185     1
   2176   4465     1
   2179   2188     1
   2179   2185     1
   2179   4436     1
   2182   2188     1
   2182   2191     1
   2182   2203     1
   2188   4456     1
   2191   4427     1
   2197   4418     1
   2200   4447     1
   2204   2229     1
   2204   2226     1
   2204   2223     1
   2205   2220     1
   2205   2214     1
   2205   4523     1
   2208   2217     1
   2208   2214     1
   2208   4494     1
   2211   2217     1
   2211   2220     1
   2211   2232     1
   2217   4514     1
   2220   4485     1
   2226   4476     1
   2229   4505     1
   2233   2258     1
   2233   2255     1
   2233   2252     1
   2234   2249     1
   2234   2243     1
   2234   4581     1
   2237   2246     1
   2237   2243     1
   2237   4552     1
   2240   2246     1
   2240   2249     1
   2240   2261     1
   2246   4572     1
   2249   4543     1
   2255   4534     1
   2258   4563     1
   2262   2287     1
   2262   2284     1
   2262   2281     1
   2263   2278     1
   2263   2272     1
   2263   4639     1
   2266   2275     1
   2266   2272     1
   2266   4610     1
   2269   2275     1
   2269   2278     1
   2269   2290     1
   2275   4630     1
   2278   4601     1
   2284   4592     1
   2287   4621     1
   2291   2316     1
   2291   2313     1
   2291   2310     1
   2292   2307     1
   2292   2301     1
   2292   4697     1
   2295   2304     1
   2295   2301     1
   2295   4668     1
   2298   2304     1
   2298   2307     1
   2298   2319     1
   2304   4688     1
   2307   4659     1
   2313   4650     1
   2316   4679     1
   2320   2345     1
   2320   2342     1
   2320   2339     1
   2321   2336     1
   2321   2330     1
   2321   4755     1
   2324   2333     1
   2324   2330     1
   2324   4726     1
   2327   2333     1
   2327   2336     1
   2327   2348     1
   2333   4746     1
   2336   4717     1
   2342   4708     1
   2345   4737     1
   2349   2374     1
   2349   2371     1
   2349   2368     1
   2350   2365     1
   2350   2359     1
   2350   4813     1
   2353   2362     1
   2353   2359     1
   2353   4784     1
   2356   2362     1
   2356   2365     1
   2356   2377     1
   2362   4804     1
   2365   4775     1
   2371   4766     1
   2374   4795     1
   2378   2403     1
   2378   2400     1
   2378   2397     1
   2379   2394     1
   2379   2388     1
   2379   4871     1
   2382   2391     1
   2382   2388     1
   2382   4842     1
   2385   2391     1
   2385   2394     1
   2385   2406     1
   2391   4862     1
   2394   4833     1
   2400   4824     1
   2403   4853     1
   2407   2432     1
   2407   2429     1
   2407   2426     1
   2408   2423     1
   2408   2417     1
   2408   4929     1
   2411   2420     1
   2411   2417     1
   2411   4900     1
   2414   2420     1
   2414   2423     1
   2414   2435     1
   2420   4920     1
   2423   4891     1
   2429   4882     1
   2432   4911     1
   2436   2461     1
   2436   2458     1
   2436   2455     1
   2437   2452     1
   2437   2446     1
   2437   4987     1
   2440   2449     1
   2440   2446     1
   2440   4958     1
   2443   2449     1
   2443   2452     1
   2443   2464     1
   2449   4978     1
   2452   4949     1
   2458   4940     1
   2461   4969     1
   2465   2490     1
   2465   2487     1
   2465   2484     1
   2466   2481     1
   2466   2475     1
   2466   5045     1
   2469   2478     1
   2469   2475     1
   2469   5016     1
   2472   2478     1
   2472   2481     1
   2472   2493     1
   2478   5036     1
   2481   5007     1
   2487   4998     1
   2490   5027     1
   2494   2519     1
   2494   2516     1
   2494   2513     1
   2495   2510     1
   2495   2504     1
   2495   5103     1
   2498   2507     1
   2498   2504     1
   2498   5074     1
   2501   2507     1
   2501   2510     1
   2501   2522     1
   2507   5094     1
   2510   5065     1
   2516   5056     1
   2519   5085     1
   2523   2548     1
   2523   2545     1
   2523   2542     1
   2524   2539     1
   2524   2533     1
   2524   5161     1
   2527   2536     1
   2527   2533     1
   2527   5132     1
   2530   2536     1
   2530   2539     1
   2530   2551     1
   2536   5152     1
   2539   5123     1
   2545   5114     1
   2548   5143     1
   2552   2577     1
   2552   2574     1
   2552   2571     1
   2553   2568     1
   2553   2562     1
   2553   5219     1
   2556   2565     1
   2556   2562     1
   2556   5190     1
   2559   2565     1
   2559   2568     1
   2559   2580     1
   2565   5210     1
   2568   5181     1
   2574   5172     1
   2577   5201     1
   2581   2606     1
   2581   2603     1
   2581   2600     1
   2582   2597     1
   2582   2591     1
   2582   5277     1
   2585   2594     1
   2585   2591     1
   2585   5248     1
   2588   2594     1
   2588   2597     1
   2588   2609     1
   2594   5268     1
   2597   5239     1
   2603   5230     1
   2606   5259     1
   2610   2635     1
   2610   2632     1
   2610   2629     1
   2611   2626     1
   2611   2620     1
   2611   5335     1
   2614   2623     1
   2614   2620     1
   2614   5306     1
   2617   2623     1
   2617   2626     1
   2617   2638     1
   2623   5326     1
   2626   5297     1
   2632   5288     1
   2635   5317     1
   2639   2664     1
   2639   2661     1
   2639   2658     1
   2640   2655     1
   2640   2649     1
   2640   5393     1
   2643   2652     1
   2643   2649     1
   2643   5364     1
   2646   2652     1
   2646   2655     1
   2646   2667     1
   2652   5384     1
   2655   5355     1
   2661   5346     1
   2664   5375     1
   2668   2693     1
   2668   2690     1
   2668   2687     1
   2669   2684     1
   2669   2678     1
   2669   5451     1
   2672   2681     1
   2672   2678     1
   2672   5422     1
   2675   2681     1
   2675   2684     1
   2675   2696     1
   2681   5442     1
   2684   5413     1
   2690   5404     1
   2693   5433     1
   2697   2722     1
   2697   2719     1
   2697   2716     1
   2698   2713     1
   2698   2707     1
   2698   5509     1
   2701   2710     1
   2701   2707     1
   2701   5480     1
   2704   2710     1
   2704   2713     1
   2704   2725     1
   2710   5500     1
   2713   5471     1
   2719   5462     1
   2722   5491     1
   2726   2751     1
   2726   2748     1
   2726   2745     1
   2727   2742     1
   2727   2736     1
   2727   5567     1
   2730   2739     1
   2730   2736     1
   2730   5538     1
   2733   2739     1
   2733   2742     1
   2733   2754     1
   2739   5558     1
   2742   5529     1
   2748   5520     1
   2751   5549     1
   2755   2780     1
   2755   2777     1
   2755   2774     1
   2756   2771     1
   2756   2765     1
   2756   5625     1
   2759   2768     1
   2759   2765     1
   2759   5596     1
   2762   2768     1
   2762   2771     1
   2762   2783     1
   2768   5616     1
   2771   5587     1
   2777   5578     1
   2780   5607     1
   2784   2809     1
   2784   2806     1
   2784   2803     1
   2785   2800     1
   2785   2794     1
   2785   5683     1
   2788   2797     1
   2788   2794     1
   2788   5654     1
   2791   2797     1
   2791   2800     1
   2791   2812     1
   2797   5674     1
   2800   5645     1
   2806   5636     1
   2809   5665     1
   2813   2838     1
   2813   2835     1
   2813   2832     1
   2814   2829     1
   2814   2823     1
   2814   5741     1
   2817   2826     1
   2817   2823     1
   2817   5712     1
   2820   2826     1
   2820   2829     1
   2820   2841     1
   2826   5732     1
   2829   5703     1
   2835   5694     1
   2838   5723     1
   2842   2867     1
   2842   2864     1
   2842   2861     1
   2843   2858     1
   2843   2852     1
   2843   5799     1
   2846   2855     1
   2846   2852     1
   2846   5770     1
   2849   2855     1
   2849   2858     1
   2849   2870     1
   2855   5790     1
   2858   5761     1
   2864   5752     1
   2867   5781     1
   2871   2896     1
   2871   2893     1
   2871   2890     1
   2872   2887     1
   2872   2881     1
   2872   5857     1
   2875   2884     1
   2875   2881     1
   2875   5828     1
   2878   2884     1
   2878   2887     1
   2878   2899     1
   2884   5848     1
   2887   5819     1
   2893   5810     1
   2896   5839     1
   2900   2925     1
   2900   2922     1
   2900   2919     1
   2901   2916     1
   2901   2910     1
   2901   5915     1
   2904   2913     1
   2904   2910     1
   2904   5886     1
   2907   2913     1
   2907   2916     1
   2907   2928     1
   2913   5906     1
   2916   5877     1
   2922   5868     1
   2925   5897     1
   2929   2954     1
   2929   2951     1
   2929   2948     1
   2930   2945     1
   2930   2939     1
   2930   5973     1
   2933   2942     1
   2933   2939     1
   2933   5944     1
   2936   2942     1
   2936   2945     1
   2936   2957     1
   2942   5964     1
   2945   5935     1
   2951   5926     1
   2954   5955     1
   2958   2983     1
   2958   2980     1
   2958   2977     1
   2959   2974     1
   2959   2968     1
   2959   6031     1
   2962   2971     1
   2962   2968     1
   2962   6002     1
   2965   2971     1
   2965   2974     1
   2965   2986     1
   2971   6022     1
   2974   5993     1
   2980   5984     1
   2983   6013     1
   2987   3012     1
   2987   3009     1
   2987   3006     1
   2988   3003     1
   2988   2997     1
   2988   6089     1
   2991   3000     1
   2991   2997     1
   2991   6060     1
   2994   3000     1
   2994   3003     1
   2994   3015     1
   3000   6080     1
   3003   6051     1
   3009   6042     1
   3012   6071     1
   3016   3041     1
   3016   3038     1
   3016   3035     1
   3017   3032     1
   3017   3026     1
   3017   6147     1
   3020   3029     1
   3020   3026     1
   3020   6118     1
   3023   3029     1
   3023   3032     1
   3023   3044     1
   3029   6138     1
   3032   6109     1
   3038   6100     1
   3041   6129     1
   3045   3070     1
   3045   3067     1
   3045   3064     1
   3046   3061     1
   3046   3055     1
   3046   6205     1
   3049   3058     1
   3049   3055     1
   3049   6176     1
   3052   3058     1
   3052   3061     1
   3052   3073     1
   3058   6196     1
   3061   6167     1
   3067   6158     1
   3070   6187     1
   3074   3099     1
   3074   3096     1
   3074   3093     1
   3075   3090     1
   3075   3084     1
   3075   6263     1
   3078   3087     1
   3078   3084     1
   3078   6234     1
   3081   3087     1
   3081   3090     1
   3081   3102     1
   3087   6254     1
   3090   6225     1
   3096   6216     1
   3099   6245     1
   3103   3128     1
   3103   3125     1
   3103   3122     1
   3104   3119     1
   3104   3113     1
   3104   6321     1
   3107   3116     1
   3107   3113     1
   3107   6292     1
   3110   3116     1
   3110   3119     1
   3110   3131     1
   3116   6312     1
   3119   6283     1
   3125   6274     1
   3128   6303     1
   3132   3157     1
   3132   3154     1
   3132   3151     1
   3133   3148     1
   3133   3142     1
   3133   6379     1
   3136   3145     1
   3136   3142     1
   3136   6350     1
   3139   3145     1
   3139   3148     1
   3139   3160     1
   3145   6370     1
   3148   6341     1
   3154   6332     1
   3157   6361     1
   3161   3186     1
   3161   3183     1
   3161   3180     1
   3162   3177     1
   3162   3171     1
   3162   6437     1
   3165   3174     1
   3165   3171     1
   3165   6408     1
   3168   3174     1
   3168   3177     1
   3168   3189     1
   3174   6428     1
   3177   6399     1
   3183   6390     1
   3186   6419     1
   3190   3215     1
   3190   3212     1
   3190   3209     1
   3191   3206     1
   3191   3200     1
   3191   6495     1
   3194   3203     1
   3194   3200     1
   3194   6466     1
   3197   3203     1
   3197   3206     1
   3197   3218     1
   3203   6486     1
   3206   6457     1
   3212   6448     1
   3215   6477     1
   3219   3244     1
   3219   3241     1
   3219   3238     1
   3220   3235     1
   3220   3229     1
   3220   6553     1
   3223   3232     1
   3223   3229     1
   3223   6524     1
   3226   3232     1
   3226   3235     1
   3226   3247     1
   3232   6544     1
   3235   6515     1
   3241   6506     1
   3244   6535     1
   3248   3273     1
   3248   3270     1
   3248   3267     1
   3249   3264     1
   3249   3258     1
   3249   6611     1
   3252   3261     1
   3252   3258     1
   3252   6582     1
   3255   3261     1
   3255   3264     1
   3255   3276     1
   3261   6602     1
   3264   6573     1
   3270   6564     1
   3273   6593     1
   3277   3302     1
   3277   3299     1
   3277   3296     1
   3278   3293     1
   3278   3287     1
   3278   6669     1
   3281   3290     1
   3281   3287     1
   3281   6640     1
   3284   3290     1
   3284   3293     1
   3284   3305     1
   3290   6660     1
   3293   6631     1
   3299   6622     1
   3302   6651     1
   3306   3331     1
   3306   3328     1
   3306   3325     1
   3307   3322     1
   3307   3316     1
   3307   6727     1
   3310   3319     1
   3310   3316     1
   3310   6698     1
   3313   3319     1
   3313   3322     1
   3313   3334     1
   3319   6718     1
   3322   6689     1
   3328   6680     1
   3331   6709     1
   3335   3360     1
   3335   3357     1
   3335   3354     1
   3336   3351     1
   3336   3345     1
   3336   6785     1
   3339   3348     1
   3339   3345     1
   3339   6756     1
   3342   3348     1
   3342   3351     1
   3342   3363     1
   3348   6776     1
   3351   6747     1
   3357   6738     1
   3360   6767     1
   3364   3389     1
   3364   3386     1
   3364   3383     1
   3365   3380     1
   3365   3374     1
   3365   6843     1
   3368   3377     1
   3368   3374     1
   3368   6814     1
   3371   3377     1
   3371   3380     1
   3371   3392     1
   3377   6834     1
   3380   6805     1
   3386   6796     1
   3389   6825     1
   3393   3418     1
   3393   3415     1
   3393   3412     1
   3394   3409     1
   3394   3403     1
   3394   6901     1
   3397   3406     1
   3397   3403     1
   3397   6872     1
   3400   3406     1
   3400   3409     1
   3400   3421     1
   3406   6892     1
   3409   6863     1
   3415   6854     1
   3418   6883     1
   3422   3447     1
   3422   3444     1
   3422   3441     1
   3423   3438     1
   3423   3432     1
   3423   6959     1
   3426   3435     1
   3426   3432     1
   3426   6930     1
   3429   3435     1
   3429   3438     1
   3429   3450     1
   3435   6950     1
   3438   6921     1
   3444   6912     1
   3447   6941     1
   3451   3476     1
   3451   3473     1
   3451   3470     1
   3452   3467     1
   3452   3461     1
   3452   7017     1
   3455   3464     1
   3455   3461     1
   3455   6988     1
   3458   3464     1
   3458   3467     1
   3458   3479     1
   3464   7008     1
   3467   6979     1
   3473   6970     1
   3476   6999     1
   3480   3505     1
   3480   3502     1
   3480   3499     1
   3481   3496     1
   3481   3490     1
   3481   7075     1
   3484   3493     1
   3484   3490     1
   3484   7046     1
   3487   3493     1
   3487   3496     1
   3487   3508     1
   3493   7066     1
   3496   7037     1
   3502   7028     1
   3505   7057     1
   3509   3534     1
   3509   3531     1
   3509   3528     1
   3510   3525     1
   3510   3519     1
   3510   7133     1
   3513   3522     1
   3513   3519     1
   3513   7104     1
   3516   3522     1
   3516   3525     1
   3516   3537     1
   3522   7124     1
   3525   7095     1
   3531   7086     1
   3534   7115     1
   3538   3563     1
   3538   3560     1
   3538   3557     1
   3539   3554     1
   3539   3548     1
   3539   7191     1
   3542   3551     1
   3542   3548     1
   3542   7162     1
   3545   3551     1
   3545   3554     1
   3545   3566     1
   3551   7182     1
   3554   7153     1
   3560   7144     1
   3563   7173     1
   3567   3592     1
   3567   3589     1
   3567   3586     1
   3568   3583     1
   3568   3577     1
   3568   7249     1
   3571   3580     1
   3571   3577     1
   3571   7220     1
   3574   3580     1
   3574   3583     1
   3574   3595     1
   3580   7240     1
   3583   7211     1
   3589   7202     1
   3592   7231     1
   3596   3621     1
   3596   3618     1
   3596   3615     1
   3597   3612     1
   3597   3606     1
   3597   7307     1
   3600   3609     1
   3600   3606     1
   3600   7278     1
   3603   3609     1
   3603   3612     1
   3603   3624     1
   3609   7298     1
   3612   7269     1
   3618   7260     1
   3621   7289     1
   3625   3650     1
   3625   3647     1
   3625   3644     1
   3626   3641     1
   3626   3635     1
   3626   7365     1
   3629   3638     1
   3629   3635     1
   3629   7336     1
   3632   3638     1
   3632   3641     1
   3632   3653     1
   3638   7356     1
   3641   7327     1
   3647   7318     1
   3650   7347     1
   3654   3679     1
   3654   3676     1
   3654   3673     1
   3655   3670     1
   3655   3664     1
   3655   7423     1
   3658   3667     1
   3658   3664     1
   3658   7394     1
   3661   3667     1
   3661   3670     1
   3661   3682     1
   3667   7414     1
   3670   7385     1
   3676   7376     1
   3679   7405     1
   3683   3708     1
   3683   3705     1
   3683   3702     1
   3684   3699     1
   3684   3693     1
   3684   7481     1
   3687   3696     1
   3687   3693     1
   3687   7452     1
   3690   3696     1
   3690   3699     1
   3690   3711     1
   3696   7472     1
   3699   7443     1
   3705   7434     1
   3708   7463     1
   3712   3737     1
   3712   3734     1
   3712   3731     1
   3713   3728     1
   3713   3722     1
   3713   7539     1
   3716   3725     1
   3716   3722     1
   3716   7510     1
   3719   3725     1
   3719   3728     1
   3719   3740     1
   3725   7530     1
   3728   7501     1
   3734   7492     1
   3737   7521     1
   3741   3766     1
   3741   3763     1
   3741   3760     1
   3742   3757     1
   3742   3751     1
   3742   7597     1
   3745   3754     1
   3745   3751     1
   3745   7568     1
   3748   3754     1
   3748   3757     1
   3748   3769     1
   3754   7588     1
   3757   7559     1
   3763   7550     1
   3766   7579     1
   3770   3795     1
   3770   3792     1
   3770   3789     1
   3771   3786     1
   3771   3780     1
   3771   7655     1
   3774   3783     1
   3774   3780     1
   3774   7626     1
   3777   3783     1
   3777   3786     1
   3777   3798     1
   3783   7646     1
   3786   7617     1
   3792   7608     1
   3795   7637     1
   3799   3824     1
   3799   3821     1
   3799   3818     1
   3800   3815     1
   3800   3809     1
   3800   7713     1
   3803   3812     1
   3803   3809     1
   3803   7684     1
   3806   3812     1
   3806   3815     1
   3806   3827     1
   3812   7704     1
   3815   7675     1
   3821   7666     1
   3824   7695     1
   3828   3853     1
   3828   3850     1
   3828   3847     1
   3829   3844     1
   3829   3838     1
   3829   7771     1
   3832   3841     1
   3832   3838     1
   3832   7742     1
   3835   3841     1
   3835   3844     1
   3835   3856     1
   3841   7762     1
   3844   7733     1
   3850   7724     1
   3853   7753     1
   3857   3882     1
   3857   3879     1
   3857   3876     1
   3858   3873     1
   3858   3867     1
   3858   7829     1
   3861   3870     1
   3861   3867     1
   3861   7800     1
   3864   3870     1
   3864   3873     1
   3864   3885     1
   3870   7820     1
   3873   7791     1
   3879   7782     1
   3882   7811     1
   3886   3911     1
   3886   3908     1
   3886   3905     1
   3887   3902     1
   3887   3896     1
   3887   7887     1
   3890   3899     1
   3890   3896     1
   3890   7858     1
   3893   3899     1
   3893   3902     1
   3893   3914     1
   3899   7878     1
   3902   7849     1
   3908   7840     1
   3911   7869     1
   3915   3940     1
   3915   3937     1
   3915   3934     1
   3916   3931     1
   3916   3925     1
   3916   7945     1
   3919   3928     1
   3919   3925     1
   3919   7916     1
   3922   3928     1
   3922   3931     1
   3922   3943     1
   3928   7936     1
   3931   7907     1
   3937   7898     1
   3940   7927     1
   3944   3969     1
   3944   3966     1
   3944   3963     1
   3945   3960     1
   3945   3954     1
   3945   8003     1
   3948   3957     1
   3948   3954     1
   3948   7974     1
   3951   3957     1
   3951   3960     1
   3951   3972     1
   3957   7994     1
   3960   7965     1
   3966   7956     1
   3969   7985     1
   3973   3998     1
   3973   3995     1
   3973   3992     1
   3974   3989     1
   3974   3983     1
   3974   8061     1
   3977   3986     1
   3977   3983     1
   3977   8032     1
   3980   3986     1
   3980   3989     1
   3980   4001     1
   3986   8052     1
   3989   8023     1
   3995   8014     1
   3998   8043     1
   4002   4027     1
   4002   4024     1
   4002   4021     1
   4003   4018     1
   4003   4012     1
   4003   8119     1
   4006   4015     1
   4006   4012     1
   4006   8090     1
   4009   4015     1
   4009   4018     1
   4009   4030     1
   4015   8110     1
   4018   8081     1
   4024   8072     1
   4027   8101     1
   4031   4056     1
   4031   4053     1
   4031   4050     1
   4032   4047     1
   4032   4041     1
   4032   8177     1
   4035   4044     1
   4035   4041     1
   4035   8148     1
   4038   4044     1
   4038   4047     1
   4038   4059     1
   4044   8168     1
   4047   8139     1
   4053   8130     1
   4056   8159     1
   4060   4085     1
   4060   4082     1
   4060   4079     1
   4061   4076     1
   4061   4070     1
   4061   8235     1
   4064   4073     1
   4064   4070     1
   4064   8206     1
   4067   4073     1
   4067   4076     1
   4067   4088     1
   4073   8226     1
   4076   8197     1
   4082   8188     1
   4085   8217     1
   4089   4114     1
   4089   4111     1
   4089   4108     1
   4090   4105     1
   4090   4099     1
   4090   8293     1
   4093   4102     1
   4093   4099     1
   4093   8264     1
   4096   4102     1
   4096   4105     1
   4096   4117     1
   4102   8284     1
   4105   8255     1
   4111   8246     1
   4114   8275     1
   4118   4143     1
   4118   4140     1
   4118   4137     1
   4119   4134     1
   4119   4128     1
   4119   8351     1
   4122   4131     1
   4122   4128     1
   4122   8322     1
   4125   4131     1
   4125   4134     1
   4125   4146     1
   4131   8342     1
   4134   8313     1
   4140   8304     1
   4143   8333     1
   4147   4172     1
   4147   4169     1
   4147   4166     1
   4148   4163     1
   4148   4157     1
   4148   8409     1
   4151   4160     1
   4151   4157     1
   4151   8380     1
   4154   4160     1
   4154   4163     1
   4154   4175     1
   4160   8400     1
   4163   8371     1
   4169   8362     1
   4172   8391     1
   4176   4201     1
   4176   4198     1
   4176   4195     1
   4177   4192     1
   4177   4186     1
   4177   8467     1
   4180   4189     1
   4180   4186     1
   4180   8438     1
   4183   4189     1
   4183   4192     1
   4183   4204     1
   4189   8458     1
   4192   8429     1
   4198   8420     1
   4201   8449     1
   4205   4230     1
   4205   4227     1
   4205   4224     1
   4206   4221     1
   4206   4215     1
   4206   8525     1
   4209   4218     1
   4209   4215     1
   4209   8496     1
   4212   4218     1
   4212   4221     1
   4212   4233     1
   4218   8516     1
   4221   8487     1
   4227   8478     1
   4230   8507     1
   4234   4259     1
   4234   4256     1
   4234   4253     1
   4235   4250     1
   4235   4244     1
   4235   8583     1
   4238   4247     1
   4238   4244     1
   4238   8554     1
   4241   4247     1
   4241   4250     1
   4241   4262     1
   4247   8574     1
   4250   8545     1
   4256   8536     1
   4259   8565     1
   4263   4288     1
   4263   4285     1
   4263   4282     1
   4264   4279     1
   4264   4273     1
   4264   8641     1
   4267   4276     1
   4267   4273     1
   4267   8612     1
   4270   4276     1
   4270   4279     1
   4270   4291     1
   4276   8632     1
   4279   8603     1
   4285   8594     1
   4288   8623     1
   4292   4317     1
   4292   4314     1
   4292   4311     1
   4293   4308     1
   4293   4302     1
   4293   8699     1
   4296   4305     1
   4296   4302     1
   4296   8670     1
   4299   4305     1
   4299   4308     1
   4299   4320     1
   4305   8690     1
   4308   8661     1
   4314   8652     1
   4317   8681     1
   4321   4346     1
   4321   4343     1
   4321   4340     1
   4322   4337     1
   4322   4331     1
   4322   8757     1
   4325   4334     1
   4325   4331     1
   4325   8728     1
   4328   4334     1
   4328   4337     1
   4328   4349     1
   4334   8748     1
   4337   8719     1
   4343   8710     1
   4346   8739     1
   4350   4375     1
   4350   4372     1
   4350   4369     1
   4351   4366     1
   4351   4360     1
   4351   8815     1
   4354   4363     1
   4354   4360     1
   4354   8786     1
   4357   4363     1
   4357   4366     1
   4357   4378     1
   4363   8806     1
   4366   8777     1
   4372   8768     1
   4375   8797     1
   4379   4404     1
   4379   4401     1
   4379   4398     1
   4380   4395     1
   4380   4389     1
   4380   8873     1
   4383   4392     1
   4383   4389     1
   4383   8844     1
   4386   4392     1
   4386   4395     1
   4386   4407     1
   4392   8864     1
   4395   8835     1
   4401   8826     1
   4404   8855     1
   4408   4433     1
   4408   4430     1
   4408   4427     1
   4409   4424     1
   4409   4418     1
   4409   8931     1
   4412   4421     1
   4412   4418     1
   4412   8902     1
   4415   4421     1
   4415   4424     1
   4415   4436     1
   4421   8922     1
   4424   8893     1
   4430   8884     1
   4433   8913     1
   4437   4462     1
   4437   4459     1
   4437   4456     1
   4438   4453     1
   4438   4447     1
   4438   8989     1
   4441   4450     1
   4441   4447     1
   4441   8960     1
   4444   4450     1
   4444   4453     1
   4444   4465     1
   4450   8980     1
   4453   8951     1
   4459   8942     1
   4462   8971     1
   4466   4491     1
   4466   4488     1
   4466   4485     1
   4467   4482     1
   4467   4476     1
   4467   9047     1
   4470   4479     1
   4470   4476     1
   4470   9018     1
   4473   4479     1
   4473   4482     1
   4473   4494     1
   4479   9038     1
   4482   9009     1
   4488   9000     1
   4491   9029     1
   4495   4520     1
   4495   4517     1
   4495   4514     1
   4496   4511     1
   4496   4505     1
   4496   9105     1
   4499   4508     1
   4499   4505     1
   4499   9076     1
   4502   4508     1
   4502   4511     1
   4502   4523     1
   4508   9096     1
   4511   9067     1
   4517   9058     1
   4520   9087     1
   4524   4549     1
   4524   4546     1
   4524   4543     1
   4525   4540     1
   4525   4534     1
   4525   9163     1
   4528   4537     1
   4528   4534     1
   4528   9134     1
   4531   4537     1
   4531   4540     1
   4531   4552     1
   4537   9154     1
   4540   9125     1
   4546   9116     1
   4549   9145     1
   4553   4578     1
   4553   4575     1
   4553   4572     1
   4554   4569     1
   4554   4563     1
   4554   9221     1
   4557   4566     1
   4557   4563     1
   4557   9192     1
   4560   4566     1
   4560   4569     1
   4560   4581     1
   4566   9212     1
   4569   9183     1
   4575   9174     1
   4578   9203     1
   4582   4607     1
   4582   4604     1
   4582   4601     1
   4583   4598     1
   4583   4592     1
   4583   9279     1
   4586   4595     1
   4586   4592     1
   4586   9250     1
   4589   4595     1
   4589   4598     1
   4589   4610     1
   4595   9270     1
   4598   9241     1
   4604   9232     1
   4607   9261     1
   4611   4636     1
   4611   4633     1
   4611   4630     1
   4612   4627     1
   4612   4621     1
   4612   9337     1
   4615   4624     1
   4615   4621     1
   4615   9308     1
   4618   4624     1
   4618   4627     1
   4618   4639     1
   4624   9328     1
   4627   9299     1
   4633   9290     1
   4636   9319     1
   4640   4665     1
   4640   4662     1
   4640   4659     1
   4641   4656     1
   4641   4650     1
   4641   9395     1
   4644   4653     1
   4644   4650     1
   4644   9366     1
   4647   4653     1
   4647   4656     1
   4647   4668     1
   4653   9386     1
   4656   9357     1
   4662   9348     1
   4665   9377     1
   4669   4694     1
   4669   4691     1
   4669   4688     1
   4670   4685     1
   4670   4679     1
   4670   9453     1
   4673   4682     1
   4673   4679     1
   4673   9424     1
   4676   4682     1
   4676   4685     1
   4676   4697     1
   4682   9444     1
   4685   9415     1
   4691   9406     1
   4694   9435     1
   4698   4723     1
   4698   4720     1
   4698   4717     1
   4699   4714     1
   4699   4708     1
   4699   9511     1
   4702   4711     1
   4702   4708     1
   4702   9482     1
   4705   4711     1
   4705   4714     1
   4705   4726     1
   4711   9502     1
   4714   9473     1
   4720   9464     1
   4723   9493     1
   4727   4752     1
   4727   4749     1
   4727   4746     1
   4728   4743     1
   4728   4737     1
   4728   9569     1
   4731   4740     1
   4731   4737     1
   4731   9540     1
   4734   4740     1
   4734   4743     1
   4734   4755     1
   4740   9560     1
   4743   9531     1
   4749   9522     1
   4752   9551     1
   4756   4781     1
   4756   4778     1
   4756   4775     1
   4757   4772     1
   4757   4766     1
   4757   9627     1
   4760   4769     1
   4760   4766     1
   4760   9598     1
   4763   4769     1
   4763   4772     1
   4763   4784     1
   4769   9618     1
   4772   9589     1
   4778   9580     1
   4781   9609     1
   4785   4810     1
   4785   4807     1
   4785   4804     1
   4786   4801     1
   4786   4795     1
   4786   9685     1
   4789   4798     1
   4789   4795     1
   4789   9656     1
   4792   4798     1
   4792   4801     1
   4792   4813     1
   4798   9676     1
   4801   9647     1
   4807   9638     1
   4810   9667     1
   4814   4839     1
   4814   4836     1
   4814   4833     1
   4815   4830     1
   4815   4824     1
   4815   9743     1
   4818   4827     1
   4818   4824     1
   4818   9714     1
   4821   4827     1
   4821   4830     1
   4821   4842     1
   4827   9734     1
   4830   9705     1
   4836   9696     1
   4839   9725     1
   4843   4868     1
   4843   4865     1
   4843   4862     1
   4844   4859     1
   4844   4853     1
   4844   9801     1
   4847   4856     1
   4847   4853     1
   4847   9772     1
   4850   4856     1
   4850   4859     1
   4850   4871     1
   4856   9792     1
   4859   9763     1
   4865   9754     1
   4868   9783     1
   4872   4897     1
   4872   4894     1
   4872   4891     1
   4873   4888     1
   4873   4882     1
   4873   9859     1
   4876   4885     1
   4876   4882     1
   4876   9830     1
   4879   4885     1
   4879   4888     1
   4879   4900     1
   4885   9850     1
   4888   9821     1
   4894   9812     1
   4897   9841     1
   4901   4926     1
   4901   4923     1
   4901   4920     1
   4902   4917     1
   4902   4911     1
   4902   9917     1
   4905   4914     1
   4905   4911     1
   4905   9888     1
   4908   4914     1
   4908   4917     1
   4908   4929     1
   4914   9908     1
   4917   9879     1
   4923   9870     1
   4926   9899     1
   4930   4955     1
   4930   4952     1
   4930   4949     1
   4931   4946     1
   4931   4940     1
   4931   9975     1
   4934   4943     1
   4934   4940     1
   4934   9946     1
   4937   4943     1
   4937   4946     1
   4937   4958     1
   4943   9966     1
   4946   9937     1
   4952   9928     1
   4955   9957     1
   4959   4984     1
   4959   4981     1
   4959   4978     1
   4960   4975     1
   4960   4969     1
   4960  10033     1
   4963   4972     1
   4963   4969     1
   4963  10004     1
   4966   4972     1
   4966   4975     1
   4966   4987     1
   4972  10024     1
   4975   9995     1
   4981   9986     1
   4984  10015     1
   4988   5013     1
   4988   5010     1
   4988   5007     1
   4989   5004     1
   4989   4998     1
   4989  10091     1
   4992   5001     1
   4992   4998     1
   4992  10062     1
   4995   5001     1
   4995   5004     1
   4995   5016     1
   5001  10082     1
   5004  10053     1
   5010  10044     1
   5013  10073     1
   5017   5042     1
   5017   5039     1
   5017   5036     1
   5018   5033     1
   5018   5027     1
   5018  10149     1
   5021   5030     1
   5021   5027     1
   5021  10120     1
   5024   5030     1
   5024   5033     1
   5024   5045     1
   5030  10140     1
   5033  10111     1
   5039  10102     1
   5042  10131     1
   5046   5071     1
   5046   5068     1
   5046   5065     1
   5047   5062     1
   5047   5056     1
   5047  10207     1
   5050   5059     1
   5050   5056     1
   5050  10178     1
   5053   5059     1
   5053   5062     1
   5053   5074     1
   5059  10198     1
   5062  10169     1
   5068  10160     1
   5071  10189     1
   5075   5100     1
   5075   5097     1
   5075   5094     1
   5076   5091     1
   5076   5085     1
   5076  10265     1
   5079   5088     1
   5079   5085     1
   5079  10236     1
   5082   5088     1
   5082   5091     1
   5082   5103     1
   5088  10256     1
   5091  10227     1
   5097  10218     1
   5100  10247     1
   5104   5129     1
   5104   5126     1
   5104   5123     1
   5105   5120     1
   5105   5114     1
   5105  10323     1
   5108   5117     1
   5108   5114     1
   5108  10294     1
   5111   5117     1
   5111   5120     1
   5111   5132     1
   5117  10314     1
   5120  10285     1
   5126  10276     1
   5129  10305     1
   5133   5158     1
   5133   5155     1
   5133   5152     1
   5134   5149     1
   5134   5143     1
   5134  10381     1
   5137   5146     1
   5137   5143     1
   5137  10352     1
   5140   5146     1
   5140   5149     1
   5140   5161     1
   5146  10372     1
   5149  10343     1
   5155  10334     1
   5158  10363     1
   5162   5187     1
   5162   5184     1
   5162   5181     1
   5163   5178     1
   5163   5172     1
   5163  10439     1
   5166   5175     1
   5166   5172     1
   5166  10410     1
   5169   5175     1
   5169   5178     1
   5169   5190     1
   5175  10430     1
   5178  10401     1
   5184  10392     1
   5187  10421     1
   5191   5216     1
   5191   5213     1
   5191   5210     1
   5192   5207     1
   5192   5201     1
   5192  10497     1
   5195   5204     1
   5195   5201     1
   5195  10468     1
   5198   5204     1
   5198   5207     1
   5198   5219     1
   5204  10488     1
   5207  10459     1
   5213  10450     1
   5216  10479     1
   5220   5245     1
   5220   5242     1
   5220   5239     1
   5221   5236     1
   5221   5230     1
   5221  10555     1
   5224   5233     1
   5224   5230     1
   5224  10526     1
   5227   5233     1
   5227   5236     1
   5227   5248     1
   5233  10546     1
   5236  10517     1
   5242  10508     1
   5245  10537     1
   5249   5274     1
   5249   5271     1
   5249   5268     1
   5250   5265     1
   5250   5259     1
   5250  10613     1
   5253   5262     1
   5253   5259     1
   5253  10584     1
   5256   5262     1
   5256   5265     1
   5256   5277     1
   5262  10604     1
   5265  10575     1
   5271  10566     1
   5274  10595     1
   5278   5303     1
   5278   5300     1
   5278   5297     1
   5279   5294     1
   5279   5288     1
   5279  10671     1
   5282   5291     1
   5282   5288     1
   5282  10642     1
   5285   5291     1
   5285   5294     1
   5285   5306     1
   5291  10662     1
   5294  10633     1
   5300  10624     1
   5303  10653     1
   5307   5332     1
   5307   5329     1
   5307   5326     1
   5308   5323     1
   5308   5317     1
   5308  10729     1
   5311   5320     1
   5311   5317     1
   5311  10700     1
   5314   5320     1
   5314   5323     1
   5314   5335     1
   5320  10720     1
   5323  10691     1
   5329  10682     1
   5332  10711     1
   5336   5361     1
   5336   5358     1
   5336   5355     1
   5337   5352     1
   5337   5346     1
   5337  10787     1
   5340   5349     1
   5340   5346     1
   5340  10758     1
   5343   5349     1
   5343   5352     1
   5343   5364     1
   5349  10778     1
   5352  10749     1
   5358  10740     1
   5361  10769     1
   5365   5390     1
   5365   5387     1
   5365   5384     1
   5366   5381     1
   5366   5375     1
   5366  10845     1
   5369   5378     1
   5369   5375     1
   5369  10816     1
   5372   5378     1
   5372   5381     1
   5372   5393     1
   5378  10836     1
   5381  10807     1
   5387  10798     1
   5390  10827     1
   5394   5419     1
   5394   5416     1
   5394   5413     1
   5395   5410     1
   5395   5404     1
   5395  10903     1
   5398   5407     1
   5398   5404     1
   5398  10874     1
   5401   5407     1
   5401   5410     1
   5401   5422     1
   5407  10894     1
   5410  10865     1
   5416  10856     1
   5419  10885     1
   5423   5448     1
   5423   5445     1
   5423   5442     1
   5424   5439     1
   5424   5433     1
   5424  10961     1
   5427   5436     1
   5427   5433     1
   5427  10932     1
   5430   5436     1
   5430   5439     1
   5430   5451     1
   5436  10952     1
   5439  10923     1
   5445  10914     1
   5448  10943     1
   5452   5477     1
   5452   5474     1
   5452   5471     1
   5453   5468     1
   5453   5462     1
   5453  11019     1
   5456   5465     1
   5456   5462     1
   5456  10990     1
   5459   5465     1
   5459   5468     1
   5459   5480     1
   5465  11010     1
   5468  10981     1
   5474  10972     1
   5477  11001     1
   5481   5506     1
   5481   5503     1
   5481   5500     1
   5482   5497     1
   5482   5491     1
   5482  11077     1
   5485   5494     1
   5485   5491     1
   5485  11048     1
   5488   5494     1
   5488   5497     1
   5488   5509     1
   5494  11068     1
   5497  11039     1
   5503  11030     1
   5506  11059     1
   5510   5535     1
   5510   5532     1
   5510   5529     1
   5511   5526     1
   5511   5520     1
   5511  11111     1
   5514   5523     1
   5514   5520     1
   5514  11088     1
   5517   5523     1
   5517   5526     1
   5517   5538     1
   5523  11107     1
   5526  11084     1
   5532  11083     1
   5532  11100     1
   5535  11123     1
   5535  11106     1
   5539   5564     1
   5539   5561     1
   5539   5558     1
   5540   5555     1
   5540   5549     1
   5540  11157     1
   5543   5552     1
   5543   5549     1
   5543  11134     1
   5546   5552     1
   5546   5555     1
   5546   5567     1
   5552  11153     1
   5555  11130     1
   5561  11129     1
   5561  11146     1
   5564  11169     1
   5564  11152     1
   5568   5593     1
   5568   5590     1
   5568   5587     1
   5569   5584     1
   5569   5578     1
   5569  11203     1
   5572   5581     1
   5572   5578     1
   5572  11180     1
   5575   5581     1
   5575   5584     1
   5575   5596     1
   5581  11199     1
   5584  11176     1
   5590  11175     1
   5590  11192     1
   5593  11215     1
   5593  11198     1
   5597   5622     1
   5597   5619     1
   5597   5616     1
   5598   5613     1
   5598   5607     1
   5598  11249     1
   5601   5610     1
   5601   5607     1
   5601  11226     1
   5604   5610     1
   5604   5613     1
   5604   5625     1
   5610  11245     1
   5613  11222     1
   5619  11221     1
   5619  11238     1
   5622  11261     1
   5622  11244     1
   5626   5651     1
   5626   5648     1
   5626   5645     1
   5627   5642     1
   5627   5636     1
   5627  11295     1
   5630   5639     1
   5630   5636     1
   5630  11272     1
   5633   5639     1
   5633   5642     1
   5633   5654     1
   5639  11291     1
   5642  11268     1
   5648  11267     1
   5648  11284     1
   5651  11307     1
   5651  11290     1
   5655   5680     1
   5655   5677     1
   5655   5674     1
   5656   5671     1
   5656   5665     1
   5656  11341     1
   5659   5668     1
   5659   5665     1
   5659  11318     1
   5662   5668     1
   5662   5671     1
   5662   5683     1
   5668  11337     1
   5671  11314     1
   5677  11313     1
   5677  11330     1
   5680  11353     1
   5680  11336     1
   5684   5709     1
   5684   5706     1
   5684   5703     1
   5685   5700     1
   5685   5694     1
   5685  11387     1
   5688   5697     1
   5688   5694     1
   5688  11364     1
   5691   5697     1
   5691   5700     1
   5691   5712     1
   5697  11383     1
   5700  11360     1
   5706  11359     1
   5706  11376     1
   5709  11399     1
   5709  11382     1
   5713   5738     1
   5713   5735     1
   5713   5732     1
   5714   5729     1
   5714   5723     1
   5714  11433     1
   5717   5726     1
   5717   5723     1
   5717  11410     1
   5720   5726     1
   5720   5729     1
   5720   5741     1
   5726  11429     1
   5729  11406     1
   5735  11405     1
   5735  11422     1
   5738  11445     1
   5738  11428     1
   5742   5767     1
   5742   5764     1
   5742   5761     1
   5743   5758     1
   5743   5752     1
   5743  11479     1
   5746   5755     1
   5746   5752     1
   5746  11456     1
   5749   5755     1
   5749   5758     1
   5749   5770     1
   5755  11475     1
   5758  11452     1
   5764  11451     1
   5764  11468     1
   5767  11491     1
   5767  11474     1
   5771   5796     1
   5771   5793     1
   5771   5790     1
   5772   5787     1
   5772   5781     1
   5772  11525     1
   5775   5784     1
   5775   5781     1
   5775  11502     1
   5778   5784     1
   5778   5787     1
   5778   5799     1
   5784  11521     1
   5787  11498     1
   5793  11497     1
   5793  11514     1
   5796  11537     1
   5796  11520     1
   5800   5825     1
   5800   5822     1
   5800   5819     1
   5801   5816     1
   5801   5810     1
   5801  11571     1
   5804   5813     1
   5804   5810     1
   5804  11548     1
   5807   5813     1
   5807   5816     1
   5807   5828     1
   5813  11567     1
   5816  11544     1
   5822  11543     1
   5822  11560     1
   5825  11583     1
   5825  11566     1
   5829   5854     1
   5829   5851     1
   5829   5848     1
   5830   5845     1
   5830   5839     1
   5830  11617     1
   5833   5842     1
   5833   5839     1
   5833  11594     1
   5836   5842     1
   5836   5845     1
   5836   5857     1
   5842  11613     1
   5845  11590     1
   5851  11589     1
   5851  11606     1
   5854  11629     1
   5854  11612     1
   5858   5883     1
   5858   5880     1
   5858   5877     1
   5859   5874     1
   5859   5868     1
   5859  11663     1
   5862   5871     1
   5862   5868     1
   5862  11640     1
   5865   5871     1
   5865   5874     1
   5865   5886     1
   5871  11659     1
   5874  11636     1
   5880  11635     1
   5880  11652     1
   5883  11675     1
   5883  11658     1
   5887   5912     1
   5887   5909     1
   5887   5906     1
   5888   5903     1
   5888   5897     1
   5888  11709     1
   5891   5900     1
   5891   5897     1
   5891  11686     1
   5894   5900     1
   5894   5903     1
   5894   5915     1
   5900  11705     1
   5903  11682     1
   5909  11681     1
   5909  11698     1
   5912  11721     1
   5912  11704     1
   5916   5941     1
   5916   5938     1
   5916   5935     1
   5917   5932     1
   5917   5926     1
   5917  11755     1
   5920   5929     1
   5920   5926     1
   5920  11732     1
   5923   5929     1
   5923   5932     1
   5923   5944     1
   5929  11751     1
   5932  11728     1
   5938  11727     1
   5938  11744     1
   5941  11767     1
   5941  11750     1
   5945   5970     1
   5945   5967     1
   5945   5964     1
   5946   5961     1
   5946   5955     1
   5946  11801     1
   5949   5958     1
   5949   5955     1
   5949  11778     1
   5952   5958     1
   5952   5961     1
   5952   5973     1
   5958  11797     1
   5961  11774     1
   5967  11773     1
   5967  11790     1
   5970  11813     1
   5970  11796     1
   5974   5999     1
   5974   5996     1
   5974   5993     1
   5975   5990     1
   5975   5984     1
   5975  11847     1
   5978   5987     1
   5978   5984     1
   5978  11824     1
   5981   5987     1
   5981   5990     1
   5981   6002     1
   5987  11843     1
   5990  11820     1
   5996  11819     1
   5996  11836     1
   5999  11859     1
   5999  11842     1
   6003   6028     1
   6003   6025     1
   6003   6022     1
   6004   6019     1
   6004   6013     1
   6004  11893     1
   6007   6016     1
   6007   6013     1
   6007  11870     1
   6010   6016     1
   6010   6019     1
   6010   6031     1
   6016  11889     1
   6019  11866     1
   6025  11865     1
   6025  11882     1
   6028  11905     1
   6028  11888     1
   6032   6057     1
   6032   6054     1
   6032   6051     1
   6033   6048     1
   6033   6042     1
   6033  11939     1
   6036   6045     1
   6036   6042     1
   6036  11916     1
   6039   6045     1
   6039   6048     1
   6039   6060     1
   6045  11935     1
   6048  11912     1
   6054  11911     1
   6054  11928     1
   6057  11951     1
   6057  11934     1
   6061   6086     1
   6061   6083     1
   6061   6080     1
   6062   6077     1
   6062   6071     1
   6062  11985     1
   6065   6074     1
   6065   6071     1
   6065  11962     1
   6068   6074     1
   6068   6077     1
   6068   6089     1
   6074  11981     1
   6077  11958     1
   6083  11957     1
   6083  11974     1
   6086  11997     1
   6086  11980     1
   6090   6115     1
   6090   6112     1
   6090   6109     1
   6091   6106     1
   6091   6100     1
   6091  12031     1
   6094   6103     1
   6094   6100     1
   6094  12008     1
   6097   6103     1
   6097   6106     1
   6097   6118     1
   6103  12027     1
   6106  12004     1
   6112  12003     1
   6112  12020     1
   6115  12043     1
   6115  12026     1
   6119   6144     1
   6119   6141     1
   6119   6138     1
   6120   6135     1
   6120   6129     1
   6120  12077     1
   6123   6132     1
   6123   6129     1
   6123  12054     1
   6126   6132     1
   6126   6135     1
   6126   6147     1
   6132  12073     1
   6135  12050     1
   6141  12049     1
   6141  12066     1
   6144  12089     1
   6144  12072     1
   6148   6173     1
   6148   6170     1
   6148   6167     1
   6149   6164     1
   6149   6158     1
   6149  12123     1
   6152   6161     1
   6152   6158     1
   6152  12100     1
   6155   6161     1
   6155   6164     1
   6155   6176     1
   6161  12119     1
   6164  12096     1
   6170  12095     1
   6170  12112     1
   6173  12135     1
   6173  12118     1
   6177   6202     1
   6177   6199     1
   6177   6196     1
   6178   6193     1
   6178   6187     1
   6178  12169     1
   6181   6190     1
   6181   6187     1
   6181  12146     1
   6184   6190     1
   6184   6193     1
   6184   6205     1
   6190  12165     1
   6193  12142     1
   6199  12141     1
   6199  12158     1
   6202  12181     1
   6202  12164     1
   6206   6231     1
   6206   6228     1
   6206   6225     1
   6207   6222     1
   6207   6216     1
   6207  12215     1
   6210   6219     1
   6210   6216     1
   6210  12192     1
   6213   6219     1
   6213   6222     1
   6213   6234     1
   6219  12211     1
   6222  12188     1
   6228  12187     1
   6228  12204     1
   6231  12227     1
   6231  12210     1
   6235   6260     1
   6235   6257     1
   6235   6254     1
   6236   6251     1
   6236   6245     1
   6236  12261     1
   6239   6248     1
   6239   6245     1
   6239  12238     1
   6242   6248     1
   6242   6251     1
   6242   6263     1
   6248  12257     1
   6251  12234     1
   6257  12233     1
   6257  12250     1
   6260  12273     1
   6260  12256     1
   6264   6289     1
   6264   6286     1
   6264   6283     1
   6265   6280     1
   6265   6274     1
   6265  12307     1
   6268   6277     1
   6268   6274     1
   6268  12284     1
   6271   6277     1
   6271   6280     1
   6271   6292     1
   6277  12303     1
   6280  12280     1
   6286  12279     1
   6286  12296     1
   6289  12319     1
   6289  12302     1
   6293   6318     1
   6293   6315     1
   6293   6312     1
   6294   6309     1
   6294   6303     1
   6294  12353     1
   6297   6306     1
   6297   6303     1
   6297  12330     1
   6300   6306     1
   6300   6309     1
   6300   6321     1
   6306  12349     1
   6309  12326     1
   6315  12325     1
   6315  12342     1
   6318  12365     1
   6318  12348     1
   6322   6347     1
   6322   6344     1
   6322   6341     1
   6323   6338     1
   6323   6332     1
   6323  12399     1
   6326   6335     1
   6326   6332     1
   6326  12376     1
   6329   6335     1
   6329   6338     1
   6329   6350     1
   6335  12395     1
   6338  12372     1
   6344  12371     1
   6344  12388     1
   6347  12411     1
   6347  12394     1
   6351   6376     1
   6351   6373     1
   6351   6370     1
   6352   6367     1
   6352   6361     1
   6352  12445     1
   6355   6364     1
   6355   6361     1
   6355  12422     1
   6358   6364     1
   6358   6367     1
   6358   6379     1
   6364  12441     1
   6367  12418     1
   6373  12417     1
   6373  12434     1
   6376  12457     1
   6376  12440     1
   6380   6405     1
   6380   6402     1
   6380   6399     1
   6381   6396     1
   6381   6390     1
   6381  12491     1
   6384   6393     1
   6384   6390     1
   6384  12468     1
   6387   6393     1
   6387   6396     1
   6387   6408     1
   6393  12487     1
   6396  12464     1
   6402  12463     1
   6402  12480     1
   6405  12503     1
   6405  12486     1
   6409   6434     1
   6409   6431     1
   6409   6428     1
   6410   6425     1
   6410   6419     1
   6410  12537     1
   6413   6422     1
   6413   6419     1
   6413  12514     1
   6416   6422     1
   6416   6425     1
   6416   6437     1
   6422  12533     1
   6425  12510     1
   6431  12509     1
   6431  12526     1
   6434  12549     1
   6434  12532     1
   6438   6463     1
   6438   6460     1
   6438   6457     1
   6439   6454     1
   6439   6448     1
   6439  12583     1
   6442   6451     1
   6442   6448     1
   6442  12560     1
   6445   6451     1
   6445   6454     1
   6445   6466     1
   6451  12579     1
   6454  12556     1
   6460  12555     1
   6460  12572     1
   6463  12595     1
   6463  12578     1
   6467   6492     1
   6467   6489     1
   6467   6486     1
   6468   6483     1
   6468   6477     1
   6468  12629     1
   6471   6480     1
   6471   6477     1
   6471  12606     1
   6474   6480     1
   6474   6483     1
   6474   6495     1
   6480  12625     1
   6483  12602     1
   6489  12601     1
   6489  12618     1
   6492  12641     1
   6492  12624     1
   6496   6521     1
   6496   6518     1
   6496   6515     1
   6497   6512     1
   6497   6506     1
   6497  12675     1
   6500   6509     1
   6500   6506     1
   6500  12652     1
   6503   6509     1
   6503   6512     1
   6503   6524     1
   6509  12671     1
   6512  12648     1
   6518  12647     1
   6518  12664     1
   6521  12687     1
   6521  12670     1
   6525   6550     1
   6525   6547     1
   6525   6544     1
   6526   6541     1
   6526   6535     1
   6526  12721     1
   6529   6538     1
   6529   6535     1
   6529  12698     1
   6532   6538     1
   6532   6541     1
   6532   6553     1
   6538  12717     1
   6541  12694     1
   6547  12693     1
   6547  12710     1
   6550  12733     1
   6550  12716     1
   6554   6579     1
   6554   6576     1
   6554   6573     1
   6555   6570     1
   6555   6564     1
   6555  12767     1
   6558   6567     1
   6558   6564     1
   6558  12744     1
   6561   6567     1
   6561   6570     1
   6561   6582     1
   6567  12763     1
   6570  12740     1
   6576  12739     1
   6576  12756     1
   6579  12779     1
   6579  12762     1
   6583   6608     1
   6583   6605     1
   6583   6602     1
   6584   6599     1
   6584   6593     1
   6584  12813     1
   6587   6596     1
   6587   6593     1
   6587  12790     1
   6590   6596     1
   6590   6599     1
   6590   6611     1
   6596  12809     1
   6599  12786     1
   6605  12785     1
   6605  12802     1
   6608  12825     1
   6608  12808     1
   6612   6637     1
   6612   6634     1
   6612   6631     1
   6613   6628     1
   6613   6622     1
   6613  12859     1
   6616   6625     1
   6616   6622     1
   6616  12836     1
   6619   6625     1
   6619   6628     1
   6619   6640     1
   6625  12855     1
   6628  12832     1
   6634  12831     1
   6634  12848     1
   6637  12871     1
   6637  12854     1
   6641   6666     1
   6641   6663     1
   6641   6660     1
   6642   6657     1
   6642   6651     1
   6642  12905     1
   6645   6654     1
   6645   6651     1
   6645  12882     1
   6648   6654     1
   6648   6657     1
   6648   6669     1
   6654  12901     1
   6657  12878     1
   6663  12877     1
   6663  12894     1
   6666  12917     1
   6666  12900     1
   6670   6695     1
   6670   6692     1
   6670   6689     1
   6671   6686     1
   6671   6680     1
   6671  12951     1
   6674   6683     1
   6674   6680     1
   6674  12928     1
   6677   6683     1
   6677   6686     1
   6677   6698     1
   6683  12947     1
   6686  12924     1
   6692  12923     1
   6692  12940     1
   6695  12963     1
   6695  12946     1
   6699   6724     1
   6699   6721     1
   6699   6718     1
   6700   6715     1
   6700   6709     1
   6700  12997     1
   6703   6712     1
   6703   6709     1
   6703  12974     1
   6706   6712     1
   6706   6715     1
   6706   6727     1
   6712  12993     1
   6715  12970     1
   6721  12969     1
   6721  12986     1
   6724  13009     1
   6724  12992     1
   6728   6753     1
   6728   6750     1
   6728   6747     1
   6729   6744     1
   6729   6738     1
   6729  13043     1
   6732   6741     1
   6732   6738     1
   6732  13020     1
   6735   6741     1
   6735   6744     1
   6735   6756     1
   6741  13039     1
   6744  13016     1
   6750  13015     1
   6750  13032     1
   6753  13055     1
   6753  13038     1
   6757   6782     1
   6757   6779     1
   6757   6776     1
   6758   6773     1
   6758   6767     1
   6758  13089     1
   6761   6770     1
   6761   6767     1
   6761  13066     1
   6764   6770     1
   6764   6773     1
   6764   6785     1
   6770  13085     1
   6773  13062     1
   6779  13061     1
   6779  13078     1
   6782  13101     1
   6782  13084     1
   6786   6811     1
   6786   6808     1
   6786   6805     1
   6787   6802     1
   6787   6796     1
   6787  13135     1
   6790   6799     1
   6790   6796     1
   6790  13112     1
   6793   6799     1
   6793   6802     1
   6793   6814     1
   6799  13131     1
   6802  13108     1
   6808  13107     1
   6808  13124     1
   6811  13147     1
   6811  13130     1
   6815   6840     1
   6815   6837     1
   6815   6834     1
   6816   6831     1
   6816   6825     1
   6816  13181     1
   6819   6828     1
   6819   6825     1
   6819  13158     1
   6822   6828     1
   6822   6831     1
   6822   6843     1
   6828  13177     1
   6831  13154     1
   6837  13153     1
   6837  13170     1
   6840  13193     1
   6840  13176     1
   6844   6869     1
   6844   6866     1
   6844   6863     1
   6845   6860     1
   6845   6854     1
   6845  13227     1
   6848   6857     1
   6848   6854     1
   6848  13204     1
   6851   6857     1
   6851   6860     1
   6851   6872     1
   6857  13223     1
   6860  13200     1
   6866  13199     1
   6866  13216     1
   6869  13239     1
   6869  13222     1
   6873   6898     1
   6873   6895     1
   6873   6892     1
   6874   6889     1
   6874   6883     1
   6874  13273     1
   6877   6886     1
   6877   6883     1
   6877  13250     1
   6880   6886     1
   6880   6889     1
   6880   6901     1
   6886  13269     1
   6889  13246     1
   6895  13245     1
   6895  13262     1
   6898  13285     1
   6898  13268     1
   6902   6927     1
   6902   6924     1
   6902   6921     1
   6903   6918     1
   6903   6912     1
   6903  13319     1
   6906   6915     1
   6906   6912     1
   6906  13296     1
   6909   6915     1
   6909   6918     1
   6909   6930     1
   6915  13315     1
   6918  13292     1
   6924  13291     1
   6924  13308     1
   6927  13331     1
   6927  13314     1
   6931   6956     1
   6931   6953     1
   6931   6950     1
   6932   6947     1
   6932   6941     1
   6932  13365     1
   6935   6944     1
   6935   6941     1
   6935  13342     1
   6938   6944     1
   6938   6947     1
   6938   6959     1
   6944  13361     1
   6947  13338     1
   6953  13337     1
   6953  13354     1
   6956  13377     1
   6956  13360     1
   6960   6985     1
   6960   6982     1
   6960   6979     1
   6961   6976     1
   6961   6970     1
   6961  13411     1
   6964   6973     1
   6964   6970     1
   6964  13388     1
   6967   6973     1
   6967   6976     1
   6967   6988     1
   6973  13407     1
   6976  13384     1
   6982  13383     1
   6982  13400     1
   6985  13423     1
   6985  13406     1
   6989   7014     1
   6989   7011     1
   6989   7008     1
   6990   7005     1
   6990   6999     1
   6990  13457     1
   6993   7002     1
   6993   6999     1
   6993  13434     1
   6996   7002     1
   6996   7005     1
   6996   7017     1
   7002  13453     1
   7005  13430     1
   7011  13429     1
   7011  13446     1
   7014  13469     1
   7014  13452     1
   7018   7043     1
   7018   7040     1
   7018   7037     1
   7019   7034     1
   7019   7028     1
   7019  13503     1
   7022   7031     1
   7022   7028     1
   7022  13480     1
   7025   7031     1
   7025   7034     1
   7025   7046     1
   7031  13499     1
   7034  13476     1
   7040  13475     1
   7040  13492     1
   7043  13515     1
   7043  13498     1
   7047   7072     1
   7047   7069     1
   7047   7066     1
   7048   7063     1
   7048   7057     1
   7048  13549     1
   7051   7060     1
   7051   7057     1
   7051  13526     1
   7054   7060     1
   7054   7063     1
   7054   7075     1
   7060  13545     1
   7063  13522     1
   7069  13521     1
   7069  13538     1
   7072  13561     1
   7072  13544     1
   7076   7101     1
   7076   7098     1
   7076   7095     1
   7077   7092     1
   7077   7086     1
   7077  13595     1
   7080   7089     1
   7080   7086     1
   7080  13572     1
   7083   7089     1
   7083   7092     1
   7083   7104     1
   7089  13591     1
   7092  13568     1
   7098  13567     1
   7098  13584     1
   7101  13607     1
   7101  13590     1
   7105   7130     1
   7105   7127     1
   7105   7124     1
   7106   7121     1
   7106   7115     1
   7106  13641     1
   7109   7118     1
   7109   7115     1
   7109  13618     1
   7112   7118     1
   7112   7121     1
   7112   7133     1
   7118  13637     1
   7121  13614     1
   7127  13613     1
   7127  13630     1
   7130  13653     1
   7130  13636     1
   7134   7159     1
   7134   7156     1
   7134   7153     1
   7135   7150     1
   7135   7144     1
   7135  13687     1
   7138   7147     1
   7138   7144     1
   7138  13664     1
   7141   7147     1
   7141   7150     1
   7141   7162     1
   7147  13683     1
   7150  13660     1
   7156  13659     1
   7156  13676     1
   7159  13699     1
   7159  13682     1
   7163   7188     1
   7163   7185     1
   7163   7182     1
   7164   7179     1
   7164   7173     1
   7164  13733     1
   7167   7176     1
   7167   7173     1
   7167  13710     1
   7170   7176     1
   7170   7179     1
   7170   7191     1
   7176  13729     1
   7179  13706     1
   7185  13705     1
   7185  13722     1
   7188  13745     1
   7188  13728     1
   7192   7217     1
   7192   7214     1
   7192   7211     1
   7193   7208     1
   7193   7202     1
   7193  13779     1
   7196   7205     1
   7196   7202     1
   7196  13756     1
   7199   7205     1
   7199   7208     1
   7199   7220     1
   7205  13775     1
   7208  13752     1
   7214  13751     1
   7214  13768     1
   7217  13791     1
   7217  13774     1
   7221   7246     1
   7221   7243     1
   7221   7240     1
   7222   7237     1
   7222   7231     1
   7222  13825     1
   7225   7234     1
   7225   7231     1
   7225  13802     1
   7228   7234     1
   7228   7237     1
   7228   7249     1
   7234  13821     1
   7237  13798     1
   7243  13797     1
   7243  13814     1
   7246  13837     1
   7246  13820     1
   7250   7275     1
   7250   7272     1
   7250   7269     1
   7251   7266     1
   7251   7260     1
   7251  13871     1
   7254   7263     1
   7254   7260     1
   7254  13848     1
   7257   7263     1
   7257   7266     1
   7257   7278     1
   7263  13867     1
   7266  13844     1
   7272  13843     1
   7272  13860     1
   7275  13883     1
   7275  13866     1
   7279   7304     1
   7279   7301     1
   7279   7298     1
   7280   7295     1
   7280   7289     1
   7280  13917     1
   7283   7292     1
   7283   7289     1
   7283  13894     1
   7286   7292     1
   7286   7295     1
   7286   7307     1
   7292  13913     1
   7295  13890     1
   7301  13889     1
   7301  13906     1
   7304  13929     1
   7304  13912     1
   7308   7333     1
   7308   7330     1
   7308   7327     1
   7309   7324     1
   7309   7318     1
   7309  13963     1
   7312   7321     1
   7312   7318     1
   7312  13940     1
   7315   7321     1
   7315   7324     1
   7315   7336     1
   7321  13959     1
   7324  13936     1
   7330  13935     1
   7330  13952     1
   7333  13975     1
   7333  13958     1
   7337   7362     1
   7337   7359     1
   7337   7356     1
   7338   7353     1
   7338   7347     1
   7338  14009     1
   7341   7350     1
   7341   7347     1
   7341  13986     1
   7344   7350     1
   7344   7353     1
   7344   7365     1
   7350  14005     1
   7353  13982     1
   7359  13981     1
   7359  13998     1
   7362  14021     1
   7362  14004     1
   7366   7391     1
   7366   7388     1
   7366   7385     1
   7367   7382     1
   7367   7376     1
   7367  14055     1
   7370   7379     1
   7370   7376     1
   7370  14032     1
   7373   7379     1
   7373   7382     1
   7373   7394     1
   7379  14051     1
   7382  14028     1
   7388  14027     1
   7388  14044     1
   7391  14067     1
   7391  14050     1
   7395   7420     1
   7395   7417     1
   7395   7414     1
   7396   7411     1
   7396   7405     1
   7396  14101     1
   7399   7408     1
   7399   7405     1
   7399  14078     1
   7402   7408     1
   7402   7411     1
   7402   7423     1
   7408  14097     1
   7411  14074     1
   7417  14073     1
   7417  14090     1
   7420  14113     1
   7420  14096     1
   7424   7449     1
   7424   7446     1
   7424   7443     1
   7425   7440     1
   7425   7434     1
   7425  14147     1
   7428   7437     1
   7428   7434     1
   7428  14124     1
   7431   7437     1
   7431   7440     1
   7431   7452     1
   7437  14143     1
   7440  14120     1
   7446  14119     1
   7446  14136     1
   7449  14159     1
   7449  14142     1
   7453   7478     1
   7453   7475     1
   7453   7472     1
   7454   7469     1
   7454   7463     1
   7454  14193     1
   7457   7466     1
   7457   7463     1
   7457  14170     1
   7460   7466     1
   7460   7469     1
   7460   7481     1
   7466  14189     1
   7469  14166     1
   7475  14165     1
   7475  14182     1
   7478  14205     1
   7478  14188     1
   7482   7507     1
   7482   7504     1
   7482   7501     1
   7483   7498     1
   7483   7492     1
   7483  14239     1
   7486   7495     1
   7486   7492     1
   7486  14216     1
   7489   7495     1
   7489   7498     1
   7489   7510     1
   7495  14235     1
   7498  14212     1
   7504  14211     1
   7504  14228     1
   7507  14251     1
   7507  14234     1
   7511   7536     1
   7511   7533     1
   7511   7530     1
   7512   7527     1
   7512   7521     1
   7512  14285     1
   7515   7524     1
   7515   7521     1
   7515  14262     1
   7518   7524     1
   7518   7527     1
   7518   7539     1
   7524  14281     1
   7527  14258     1
   7533  14257     1
   7533  14274     1
   7536  14297     1
   7536  14280     1
   7540   7565     1
   7540   7562     1
   7540   7559     1
   7541   7556     1
   7541   7550     1
   7541  14331     1
   7544   7553     1
   7544   7550     1
   7544  14308     1
   7547   7553     1
   7547   7556     1
   7547   7568     1
   7553  14327     1
   7556  14304     1
   7562  14303     1
   7562  14320     1
   7565  14343     1
   7565  14326     1
   7569   7594     1
   7569   7591     1
   7569   7588     1
   7570   7585     1
   7570   7579     1
   7570  14377     1
   7573   7582     1
   7573   7579     1
   7573  14354     1
   7576   7582     1
   7576   7585     1
   7576   7597     1
   7582  14373     1
   7585  14350     1
   7591  14349     1
   7591  14366     1
   7594  14389     1
   7594  14372     1
   7598   7623     1
   7598   7620     1
   7598   7617     1
   7599   7614     1
   7599   7608     1
   7599  14423     1
   7602   7611     1
   7602   7608     1
   7602  14400     1
   7605   7611     1
   7605   7614     1
   7605   7626     1
   7611  14419     1
   7614  14396     1
   7620  14395     1
   7620  14412     1
   7623  14435     1
   7623  14418     1
   7627   7652     1
   7627   7649     1
   7627   7646     1
   7628   7643     1
   7628   7637     1
   7628  14469     1
   7631   7640     1
   7631   7637     1
   7631  14446     1
   7634   7640     1
   7634   7643     1
   7634   7655     1
   7640  14465     1
   7643  14442     1
   7649  14441     1
   7649  14458     1
   7652  14481     1
   7652  14464     1
   7656   7681     1
   7656   7678     1
   7656   7675     1
   7657   7672     1
   7657   7666     1
   7657  14515     1
   7660   7669     1
   7660   7666     1
   7660  14492     1
   7663   7669     1
   7663   7672     1
   7663   7684     1
   7669  14511     1
   7672  14488     1
   7678  14487     1
   7678  14504     1
   7681  14527     1
   7681  14510     1
   7685   7710     1
   7685   7707     1
   7685   7704     1
   7686   7701     1
   7686   7695     1
   7686  14561     1
   7689   7698     1
   7689   7695     1
   7689  14538     1
   7692   7698     1
   7692   7701     1
   7692   7713     1
   7698  14557     1
   7701  14534     1
   7707  14533     1
   7707  14550     1
   7710  14573     1
   7710  14556     1
   7714   7739     1
   7714   7736     1
   7714   7733     1
   7715   7730     1
   7715   7724     1
   7715  14607     1
   7718   7727     1
   7718   7724     1
   7718  14584     1
   7721   7727     1
   7721   7730     1
   7721   7742     1
   7727  14603     1
   7730  14580     1
   7736  14579     1
   7736  14596     1
   7739  14619     1
   7739  14602     1
   7743   7768     1
   7743   7765     1
   7743   7762     1
   7744   7759     1
   7744   7753     1
   7744  14653     1
   7747   7756     1
   7747   7753     1
   7747  14630     1
   7750   7756     1
   7750   7759     1
   7750   7771     1
   7756  14649     1
   7759  14626     1
   7765  14625     1
   7765  14642     1
   7768  14665     1
   7768  14648     1
   7772   7797     1
   7772   7794     1
   7772   7791     1
   7773   7788     1
   7773   7782     1
   7773  14699     1
   7776   7785     1
   7776   7782     1
   7776  14676     1
   7779   7785     1
   7779   7788     1
   7779   7800     1
   7785  14695     1
   7788  14672     1
   7794  14671     1
   7794  14688     1
   7797  14711     1
   7797  14694     1
   7801   7826     1
   7801   7823     1
   7801   7820     1
   7802   7817     1
   7802   7811     1
   7802  14745     1
   7805   7814     1
   7805   7811     1
   7805  14722     1
   7808   7814     1
   7808   7817     1
   7808   7829     1
   7814  14741     1
   7817  14718     1
   7823  14717     1
   7823  14734     1
   7826  14757     1
   7826  14740     1
   7830   7855     1
   7830   7852     1
   7830   7849     1
   7831   7846     1
   7831   7840     1
   7831  14791     1
   7834   7843     1
   7834   7840     1
   7834  14768     1
   7837   7843     1
   7837   7846     1
   7837   7858     1
   7843  14787     1
   7846  14764     1
   7852  14763     1
   7852  14780     1
   7855  14803     1
   7855  14786     1
   7859   7884     1
   7859   7881     1
   7859   7878     1
   7860   7875     1
   7860   7869     1
   7860  14837     1
   7863   7872     1
   7863   7869     1
   7863  14814     1
   7866   7872     1
   7866   7875     1
   7866   7887     1
   7872  14833     1
   7875  14810     1
   7881  14809     1
   7881  14826     1
   7884  14849     1
   7884  14832     1
   7888   7913     1
   7888   7910     1
   7888   7907     1
   7889   7904     1
   7889   7898     1
   7889  14883     1
   7892   7901     1
   7892   7898     1
   7892  14860     1
   7895   7901     1
   7895   7904     1
   7895   7916     1
   7901  14879     1
   7904  14856     1
   7910  14855     1
   7910  14872     1
   7913  14895     1
   7913  14878     1
   7917   7942     1
   7917   7939     1
   7917   7936     1
   7918   7933     1
   7918   7927     1
   7918  14929     1
   7921   7930     1
   7921   7927     1
   7921  14906     1
   7924   7930     1
   7924   7933     1
   7924   7945     1
   7930  14925     1
   7933  14902     1
   7939  14901     1
   7939  14918     1
   7942  14941     1
   7942  14924     1
   7946   7971     1
   7946   7968     1
   7946   7965     1
   7947   7962     1
   7947   7956     1
   7947  14975     1
   7950   7959     1
   7950   7956     1
   7950  14952     1
   7953   7959     1
   7953   7962     1
   7953   7974     1
   7959  14971     1
   7962  14948     1
   7968  14947     1
   7968  14964     1
   7971  14987     1
   7971  14970     1
   7975   8000     1
   7975   7997     1
   7975   7994     1
   7976   7991     1
   7976   7985     1
   7976  15021     1
   7979   7988     1
   7979   7985     1
   7979  14998     1
   7982   7988     1
   7982   7991     1
   7982   8003     1
   7988  15017     1
   7991  14994     1
   7997  14993     1
   7997  15010     1
   8000  15033     1
   8000  15016     1
   8004   8029     1
   8004   8026     1
   8004   8023     1
   8005   8020     1
   8005   8014     1
   8005  15067     1
   8008   8017     1
   8008   8014     1
   8008  15044     1
   8011   8017     1
   8011   8020     1
   8011   8032     1
   8017  15063     1
   8020  15040     1
   8026  15039     1
   8026  15056     1
   8029  15079     1
   8029  15062     1
   8033   8058     1
   8033   8055     1
   8033   8052     1
   8034   8049     1
   8034   8043     1
   8034  15113     1
   8037   8046     1
   8037   8043     1
   8037  15090     1
   8040   8046     1
   8040   8049     1
   8040   8061     1
   8046  15109     1
   8049  15086     1
   8055  15085     1
   8055  15102     1
   8058  15125     1
   8058  15108     1
   8062   8087     1
   8062   8084     1
   8062   8081     1
   8063   8078     1
   8063   8072     1
   8063  15159     1
   8066   8075     1
   8066   8072     1
   8066  15136     1
   8069   8075     1
   8069   8078     1
   8069   8090     1
   8075  15155     1
   8078  15132     1
   8084  15131     1
   8084  15148     1
   8087  15171     1
   8087  15154     1
   8091   8116     1
   8091   8113     1
   8091   8110     1
   8092   8107     1
   8092   8101     1
   8092  15205     1
   8095   8104     1
   8095   8101     1
   8095  15182     1
   8098   8104     1
   8098   8107     1
   8098   8119     1
   8104  15201     1
   8107  15178     1
   8113  15177     1
   8113  15194     1
   8116  15217     1
   8116  15200     1
   8120   8145     1
   8120   8142     1
   8120   8139     1
   8121   8136     1
   8121   8130     1
   8121  15251     1
   8124   8133     1
   8124   8130     1
   8124  15228     1
   8127   8133     1
   8127   8136     1
   8127   8148     1
   8133  15247     1
   8136  15224     1
   8142  15223     1
   8142  15240     1
   8145  15263     1
   8145  15246     1
   8149   8174     1
   8149   8171     1
   8149   8168     1
   8150   8165     1
   8150   8159     1
   8150  15297     1
   8153   8162     1
   8153   8159     1
   8153  15274     1
   8156   8162     1
   8156   8165     1
   8156   8177     1
   8162  15293     1
   8165  15270     1
   8171  15269     1
   8171  15286     1
   8174  15309     1
   8174  15292     1
   8178   8203     1
   8178   8200     1
   8178   8197     1
   8179   8194     1
   8179   8188     1
   8179  15343     1
   8182   8191     1
   8182   8188     1
   8182  15320     1
   8185   8191     1
   8185   8194     1
   8185   8206     1
   8191  15339     1
   8194  15316     1
   8200  15315     1
   8200  15332     1
   8203  15355     1
   8203  15338     1
   8207   8232     1
   8207   8229     1
   8207   8226     1
   8208   8223     1
   8208   8217     1
   8208  15389     1
   8211   8220     1
   8211   8217     1
   8211  15366     1
   8214   8220     1
   8214   8223     1
   8214   8235     1
   8220  15385     1
   8223  15362     1
   8229  15361     1
   8229  15378     1
   8232  15401     1
   8232  15384     1
   8236   8261     1
   8236   8258     1
   8236   8255     1
   8237   8252     1
   8237   8246     1
   8237  15435     1
   8240   8249     1
   8240   8246     1
   8240  15412     1
   8243   8249     1
   8243   8252     1
   8243   8264     1
   8249  15431     1
   8252  15408     1
   8258  15407     1
   8258  15424     1
   8261  15447     1
   8261  15430     1
   8265   8290     1
   8265   8287     1
   8265   8284     1
   8266   8281     1
   8266   8275     1
   8266  15481     1
   8269   8278     1
   8269   8275     1
   8269  15458     1
   8272   8278     1
   8272   8281     1
   8272   8293     1
   8278  15477     1
   8281  15454     1
   8287  15453     1
   8287  15470     1
   8290  15493     1
   8290  15476     1
   8294   8319     1
   8294   8316     1
   8294   8313     1
   8295   8310     1
   8295   8304     1
   8295  15527     1
   8298   8307     1
   8298   8304     1
   8298  15504     1
   8301   8307     1
   8301   8310     1
   8301   8322     1
   8307  15523     1
   8310  15500     1
   8316  15499     1
   8316  15516     1
   8319  15539     1
   8319  15522     1
   8323   8348     1
   8323   8345     1
   8323   8342     1
   8324   8339     1
   8324   8333     1
   8324  15573     1
   8327   8336     1
   8327   8333     1
   8327  15550     1
   8330   8336     1
   8330   8339     1
   8330   8351     1
   8336  15569     1
   8339  15546     1
   8345  15545     1
   8345  15562     1
   8348  15585     1
   8348  15568     1
   8352   8377     1
   8352   8374     1
   8352   8371     1
   8353   8368     1
   8353   8362     1
   8353  15619     1
   8356   8365     1
   8356   8362     1
   8356  15596     1
   8359   8365     1
   8359   8368     1
   8359   8380     1
   8365  15615     1
   8368  15592     1
   8374  15591     1
   8374  15608     1
   8377  15631     1
   8377  15614     1
   8381   8406     1
   8381   8403     1
   8381   8400     1
   8382   8397     1
   8382   8391     1
   8382  15665     1
   8385   8394     1
   8385   8391     1
   8385  15642     1
   8388   8394     1
   8388   8397     1
   8388   8409     1
   8394  15661     1
   8397  15638     1
   8403  15637     1
   8403  15654     1
   8406  15677     1
   8406  15660     1
   8410   8435     1
   8410   8432     1
   8410   8429     1
   8411   8426     1
   8411   8420     1
   8411  15711     1
   8414   8423     1
   8414   8420     1
   8414  15688     1
   8417   8423     1
   8417   8426     1
   8417   8438     1
   8423  15707     1
   8426  15684     1
   8432  15683     1
   8432  15700     1
   8435  15723     1
   8435  15706     1
   8439   8464     1
   8439   8461     1
   8439   8458     1
   8440   8455     1
   8440   8449     1
   8440  15757     1
   8443   8452     1
   8443   8449     1
   8443  15734     1
   8446   8452     1
   8446   8455     1
   8446   8467     1
   8452  15753     1
   8455  15730     1
   8461  15729     1
   8461  15746     1
   8464  15769     1
   8464  15752     1
   8468   8493     1
   8468   8490     1
   8468   8487     1
   8469   8484     1
   8469   8478     1
   8469  15803     1
   8472   8481     1
   8472   8478     1
   8472  15780     1
   8475   8481     1
   8475   8484     1
   8475   8496     1
   8481  15799     1
   8484  15776     1
   8490  15775     1
   8490  15792     1
   8493  15815     1
   8493  15798     1
   8497   8522     1
   8497   8519     1
   8497   8516     1
   8498   8513     1
   8498   8507     1
   8498  15849     1
   8501   8510     1
   8501   8507     1
   8501  15826     1
   8504   8510     1
   8504   8513     1
   8504   8525     1
   8510  15845     1
   8513  15822     1
   8519  15821     1
   8519  15838     1
   8522  15861     1
   8522  15844     1
   8526   8551     1
   8526   8548     1
   8526   8545     1
   8527   8542     1
   8527   8536     1
   8527  15895     1
   8530   8539     1
   8530   8536     1
   8530  15872     1
   8533   8539     1
   8533   8542     1
   8533   8554     1
   8539  15891     1
   8542  15868     1
   8548  15867     1
   8548  15884     1
   8551  15907     1
   8551  15890     1
   8555   8580     1
   8555   8577     1
   8555   8574     1
   8556   8571     1
   8556   8565     1
   8556  15941     1
   8559   8568     1
   8559   8565     1
   8559  15918     1
   8562   8568     1
   8562   8571     1
   8562   8583     1
   8568  15937     1
   8571  15914     1
   8577  15913     1
   8577  15930     1
   8580  15953     1
   8580  15936     1
   8584   8609     1
   8584   8606     1
   8584   8603     1
   8585   8600     1
   8585   8594     1
   8585  15987     1
   8588   8597     1
   8588   8594     1
   8588  15964     1
   8591   8597     1
   8591   8600     1
   8591   8612     1
   8597  15983     1
   8600  15960     1
   8606  15959     1
   8606  15976     1
   8609  15999     1
   8609  15982     1
   8613   8638     1
   8613   8635     1
   8613   8632     1
   8614   8629     1
   8614   8623     1
   8614  16033     1
   8617   8626     1
   8617   8623     1
   8617  16010     1
   8620   8626     1
   8620   8629     1
   8620   8641     1
   8626  16029     1
   8629  16006     1
   8635  16005     1
   8635  16022     1
   8638  16045     1
   8638  16028     1
   8642   8667     1
   8642   8664     1
   8642   8661     1
   8643   8658     1
   8643   8652     1
   8643  16079     1
   8646   8655     1
   8646   8652     1
   8646  16056     1
   8649   8655     1
   8649   8658     1
   8649   8670     1
   8655  16075     1
   8658  16052     1
   8664  16051     1
   8664  16068     1
   8667  16091     1
   8667  16074     1
   8671   8696     1
   8671   8693     1
   8671   8690     1
   8672   8687     1
   8672   8681     1
   8672  16125     1
   8675   8684     1
   8675   8681     1
   8675  16102     1
   8678   8684     1
   8678   8687     1
   8678   8699     1
   8684  16121     1
   8687  16098     1
   8693  16097     1
   8693  16114     1
   8696  16137     1
   8696  16120     1
   8700   8725     1
   8700   8722     1
   8700   8719     1
   8701   8716     1
   8701   8710     1
   8701  16171     1
   8704   8713     1
   8704   8710     1
   8704  16148     1
   8707   8713     1
   8707   8716     1
   8707   8728     1
   8713  16167     1
   8716  16144     1
   8722  16143     1
   8722  16160     1
   8725  16183     1
   8725  16166     1
   8729   8754     1
   8729   8751     1
   8729   8748     1
   8730   8745     1
   8730   8739     1
   8730  16217     1
   8733   8742     1
   8733   8739     1
   8733  16194     1
   8736   8742     1
   8736   8745     1
   8736   8757     1
   8742  16213     1
   8745  16190     1
   8751  16189     1
   8751  16206     1
   8754  16229     1
   8754  16212     1
   8758   8783     1
   8758   8780     1
   8758   8777     1
   8759   8774     1
   8759   8768     1
   8759  16263     1
   8762   8771     1
   8762   8768     1
   8762  16240     1
   8765   8771     1
   8765   8774     1
   8765   8786     1
   8771  16259     1
   8774  16236     1
   8780  16235     1
   8780  16252     1
   8783  16275     1
   8783  16258     1
   8787   8812     1
   8787   8809     1
   8787   8806     1
   8788   8803     1
   8788   8797     1
   8788  16309     1
   8791   8800     1
   8791   8797     1
   8791  16286     1
   8794   8800     1
   8794   8803     1
   8794   8815     1
   8800  16305     1
   8803  16282     1
   8809  16281     1
   8809  16298     1
   8812  16321     1
   8812  16304     1
   8816   8841     1
   8816   8838     1
   8816   8835     1
   8817   8832     1
   8817   8826     1
   8817  16355     1
   8820   8829     1
   8820   8826     1
   8820  16332     1
   8823   8829     1
   8823   8832     1
   8823   8844     1
   8829  16351     1
   8832  16328     1
   8838  16327     1
   8838  16344     1
   8841  16367     1
   8841  16350     1
   8845   8870     1
   8845   8867     1
   8845   8864     1
   8846   8861     1
   8846   8855     1
   8846  16401     1
   8849   8858     1
   8849   8855     1
   8849  16378     1
   8852   8858     1
   8852   8861     1
   8852   8873     1
   8858  16397     1
   8861  16374     1
   8867  16373     1
   8867  16390     1
   8870  16413     1
   8870  16396     1
   8874   8899     1
   8874   8896     1
   8874   8893     1
   8875   8890     1
   8875   8884     1
   8875  16447     1
   8878   8887     1
   8878   8884     1
   8878  16424     1
   8881   8887     1
   8881   8890     1
   8881   8902     1
   8887  16443     1
   8890  16420     1
   8896  16419     1
   8896  16436     1
   8899  16459     1
   8899  16442     1
   8903   8928     1
   8903   8925     1
   8903   8922     1
   8904   8919     1
   8904   8913     1
   8904  16493     1
   8907   8916     1
   8907   8913     1
   8907  16470     1
   8910   8916     1
   8910   8919     1
   8910   8931     1
   8916  16489     1
   8919  16466     1
   8925  16465     1
   8925  16482     1
   8928  16505     1
   8928  16488     1
   8932   8957     1
   8932   8954     1
   8932   8951     1
   8933   8948     1
   8933   8942     1
   8933  16539     1
   8936   8945     1
   8936   8942     1
   8936  16516     1
   8939   8945     1
   8939   8948     1
   8939   8960     1
   8945  16535     1
   8948  16512     1
   8954  16511     1
   8954  16528     1
   8957  16551     1
   8957  16534     1
   8961   8986     1
   8961   8983     1
   8961   8980     1
   8962   8977     1
   8962   8971     1
   8962  16585     1
   8965   8974     1
   8965   8971     1
   8965  16562     1
   8968   8974     1
   8968   8977     1
   8968   8989     1
   8974  16581     1
   8977  16558     1
   8983  16557     1
   8983  16574     1
   8986  16597     1
   8986  16580     1
   8990   9015     1
   8990   9012     1
   8990   9009     1
   8991   9006     1
   8991   9000     1
   8991  16631     1
   8994   9003     1
   8994   9000     1
   8994  16608     1
   8997   9003     1
   8997   9006     1
   8997   9018     1
   9003  16627     1
   9006  16604     1
   9012  16603     1
   9012  16620     1
   9015  16643     1
   9015  16626     1
   9019   9044     1
   9019   9041     1
   9019   9038     1
   9020   9035     1
   9020   9029     1
   9020  16677     1
   9023   9032     1
   9023   9029     1
   9023  16654     1
   9026   9032     1
   9026   9035     1
   9026   9047     1
   9032  16673     1
   9035  16650     1
   9041  16649     1
   9041  16666     1
   9044  16689     1
   9044  16672     1
   9048   9073     1
   9048   9070     1
   9048   9067     1
   9049   9064     1
   9049   9058     1
   9049  16723     1
   9052   9061     1
   9052   9058     1
   9052  16700     1
   9055   9061     1
   9055   9064     1
   9055   9076     1
   9061  16719     1
   9064  16696     1
   9070  16695     1
   9070  16712     1
   9073  16735     1
   9073  16718     1
   9077   9102     1
   9077   9099     1
   9077   9096     1
   9078   9093     1
   9078   9087     1
   9078  16769     1
   9081   9090     1
   9081   9087     1
   9081  16746     1
   9084   9090     1
   9084   9093     1
   9084   9105     1
   9090  16765     1
   9093  16742     1
   9099  16741     1
   9099  16758     1
   9102  16781     1
   9102  16764     1
   9106   9131     1
   9106   9128     1
   9106   9125     1
   9107   9122     1
   9107   9116     1
   9107  16815     1
   9110   9119     1
   9110   9116     1
   9110  16792     1
   9113   9119     1
   9113   9122     1
   9113   9134     1
   9119  16811     1
   9122  16788     1
   9128  16787     1
   9128  16804     1
   9131  16827     1
   9131  16810     1
   9135   9160     1
   9135   9157     1
   9135   9154     1
   9136   9151     1
   9136   9145     1
   9136  16861     1
   9139   9148     1
   9139   9145     1
   9139  16838     1
   9142   9148     1
   9142   9151     1
   9142   9163     1
   9148  16857     1
   9151  16834     1
   9157  16833     1
   9157  16850     1
   9160  16873     1
   9160  16856     1
   9164   9189     1
   9164   9186     1
   9164   9183     1
   9165   9180     1
   9165   9174     1
   9165  16907     1
   9168   9177     1
   9168   9174     1
   9168  16884     1
   9171   9177     1
   9171   9180     1
   9171   9192     1
   9177  16903     1
   9180  16880     1
   9186  16879     1
   9186  16896     1
   9189  16919     1
   9189  16902     1
   9193   9218     1
   9193   9215     1
   9193   9212     1
   9194   9209     1
   9194   9203     1
   9194  16953     1
   9197   9206     1
   9197   9203     1
   9197  16930     1
   9200   9206     1
   9200   9209     1
   9200   9221     1
   9206  16949     1
   9209  16926     1
   9215  16925     1
   9215  16942     1
   9218  16965     1
   9218  16948     1
   9222   9247     1
   9222   9244     1
   9222   9241     1
   9223   9238     1
   9223   9232     1
   9223  16999     1
   9226   9235     1
   9226   9232     1
   9226  16976     1
   9229   9235     1
   9229   9238     1
   9229   9250     1
   9235  16995     1
   9238  16972     1
   9244  16971     1
   9244  16988     1
   9247  17011     1
   9247  16994     1
   9251   9276     1
   9251   9273     1
   9251   9270     1
   9252   9267     1
   9252   9261     1
   9252  17045     1
   9255   9264     1
   9255   9261     1
   9255  17022     1
   9258   9264     1
   9258   9267     1
   9258   9279     1
   9264  17041     1
   9267  17018     1
   9273  17017     1
   9273  17034     1
   9276  17057     1
   9276  17040     1
   9280   9305     1
   9280   9302     1
   9280   9299     1
   9281   9296     1
   9281   9290     1
   9281  17091     1
   9284   9293     1
   9284   9290     1
   9284  17068     1
   9287   9293     1
   9287   9296     1
   9287   9308     1
   9293  17087     1
   9296  17064     1
   9302  17063     1
   9302  17080     1
   9305  17103     1
   9305  17086     1
   9309   9334     1
   9309   9331     1
   9309   9328     1
   9310   9325     1
   9310   9319     1
   9310  17137     1
   9313   9322     1
   9313   9319     1
   9313  17114     1
   9316   9322     1
   9316   9325     1
   9316   9337     1
   9322  17133     1
   9325  17110     1
   9331  17109     1
   9331  17126     1
   9334  17149     1
   9334  17132     1
   9338   9363     1
   9338   9360     1
   9338   9357     1
   9339   9354     1
   9339   9348     1
   9339  17183     1
   9342   9351     1
   9342   9348     1
   9342  17160     1
   9345   9351     1
   9345   9354     1
   9345   9366     1
   9351  17179     1
   9354  17156     1
   9360  17155     1
   9360  17172     1
   9363  17195     1
   9363  17178     1
   9367   9392     1
   9367   9389     1
   9367   9386     1
   9368   9383     1
   9368   9377     1
   9368  17229     1
   9371   9380     1
   9371   9377     1
   9371  17206     1
   9374   9380     1
   9374   9383     1
   9374   9395     1
   9380  17225     1
   9383  17202     1
   9389  17201     1
   9389  17218     1
   9392  17241     1
   9392  17224     1
   9396   9421     1
   9396   9418     1
   9396   9415     1
   9397   9412     1
   9397   9406     1
   9397  17275     1
   9400   9409     1
   9400   9406     1
   9400  17252     1
   9403   9409     1
   9403   9412     1
   9403   9424     1
   9409  17271     1
   9412  17248     1
   9418  17247     1
   9418  17264     1
   9421  17287     1
   9421  17270     1
   9425   9450     1
   9425   9447     1
   9425   9444     1
   9426   9441     1
   9426   9435     1
   9426  17321     1
   9429   9438     1
   9429   9435     1
   9429  17298     1
   9432   9438     1
   9432   9441     1
   9432   9453     1
   9438  17317     1
   9441  17294     1
   9447  17293     1
   9447  17310     1
   9450  17333     1
   9450  17316     1
   9454   9479     1
   9454   9476     1
   9454   9473     1
   9455   9470     1
   9455   9464     1
   9455  17367     1
   9458   9467     1
   9458   9464     1
   9458  17344     1
   9461   9467     1
   9461   9470     1
   9461   9482     1
   9467  17363     1
   9470  17340     1
   9476  17339     1
   9476  17356     1
   9479  17379     1
   9479  17362     1
   9483   9508     1
   9483   9505     1
   9483   9502     1
   9484   9499     1
   9484   9493     1
   9484  17413     1
   9487   9496     1
   9487   9493     1
   9487  17390     1
   9490   9496     1
   9490   9499     1
   9490   9511     1
   9496  17409     1
   9499  17386     1
   9505  17385     1
   9505  17402     1
   9508  17425     1
   9508  17408     1
   9512   9537     1
   9512   9534     1
   9512   9531     1
   9513   9528     1
   9513   9522     1
   9513  17459     1
   9516   9525     1
   9516   9522     1
   9516  17436     1
   9519   9525     1
   9519   9528     1
   9519   9540     1
   9525  17455     1
   9528  17432     1
   9534  17431     1
   9534  17448     1
   9537  17471     1
   9537  17454     1
   9541   9566     1
   9541   9563     1
   9541   9560     1
   9542   9557     1
   9542   9551     1
   9542  17505     1
   9545   9554     1
   9545   9551     1
   9545  17482     1
   9548   9554     1
   9548   9557     1
   9548   9569     1
   9554  17501     1
   9557  17478     1
   9563  17477     1
   9563  17494     1
   9566  17517     1
   9566  17500     1
   9570   9595     1
   9570   9592     1
   9570   9589     1
   9571   9586     1
   9571   9580     1
   9571  17551     1
   9574   9583     1
   9574   9580     1
   9574  17528     1
   9577   9583     1
   9577   9586     1
   9577   9598     1
   9583  17547     1
   9586  17524     1
   9592  17523     1
   9592  17540     1
   9595  17563     1
   9595  17546     1
   9599   9624     1
   9599   9621     1
   9599   9618     1
   9600   9615     1
   9600   9609     1
   9600  17597     1
   9603   9612     1
   9603   9609     1
   9603  17574     1
   9606   9612     1
   9606   9615     1
   9606   9627     1
   9612  17593     1
   9615  17570     1
   9621  17569     1
   9621  17586     1
   9624  17609     1
   9624  17592     1
   9628   9653     1
   9628   9650     1
   9628   9647     1
   9629   9644     1
   9629   9638     1
   9629  17643     1
   9632   9641     1
   9632   9638     1
   9632  17620     1
   9635   9641     1
   9635   9644     1
   9635   9656     1
   9641  17639     1
   9644  17616     1
   9650  17615     1
   9650  17632     1
   9653  17655     1
   9653  17638     1
   9657   9682     1
   9657   9679     1
   9657   9676     1
   9658   9673     1
   9658   9667     1
   9658  17689     1
   9661   9670     1
   9661   9667     1
   9661  17666     1
   9664   9670     1
   9664   9673     1
   9664   9685     1
   9670  17685     1
   9673  17662     1
   9679  17661     1
   9679  17678     1
   9682  17701     1
   9682  17684     1
   9686   9711     1
   9686   9708     1
   9686   9705     1
   9687   9702     1
   9687   9696     1
   9687  17735     1
   9690   9699     1
   9690   9696     1
   9690  17712     1
   9693   9699     1
   9693   9702     1
   9693   9714     1
   9699  17731     1
   9702  17708     1
   9708  17707     1
   9708  17724     1
   9711  17747     1
   9711  17730     1
   9715   9740     1
   9715   9737     1
   9715   9734     1
   9716   9731     1
   9716   9725     1
   9716  17781     1
   9719   9728     1
   9719   9725     1
   9719  17758     1
   9722   9728     1
   9722   9731     1
   9722   9743     1
   9728  17777     1
   9731  17754     1
   9737  17753     1
   9737  17770     1
   9740  17793     1
   9740  17776     1
   9744   9769     1
   9744   9766     1
   9744   9763     1
   9745   9760     1
   9745   9754     1
   9745  17827     1
   9748   9757     1
   9748   9754     1
   9748  17804     1
   9751   9757     1
   9751   9760     1
   9751   9772     1
   9757  17823     1
   9760  17800     1
   9766  17799     1
   9766  17816     1
   9769  17839     1
   9769  17822     1
   9773   9798     1
   9773   9795     1
   9773   9792     1
   9774   9789     1
   9774   9783     1
   9774  17873     1
   9777   9786     1
   9777   9783     1
   9777  17850     1
   9780   9786     1
   9780   9789     1
   9780   9801     1
   9786  17869     1
   9789  17846     1
   9795  17845     1
   9795  17862     1
   9798  17885     1
   9798  17868     1
   9802   9827     1
   9802   9824     1
   9802   9821     1
   9803   9818     1
   9803   9812     1
   9803  17919     1
   9806   9815     1
   9806   9812     1
   9806  17896     1
   9809   9815     1
   9809   9818     1
   9809   9830     1
   9815  17915     1
   9818  17892     1
   9824  17891     1
   9824  17908     1
   9827  17931     1
   9827  17914     1
   9831   9856     1
   9831   9853     1
   9831   9850     1
   9832   9847     1
   9832   9841     1
   9832  17965     1
   9835   9844     1
   9835   9841     1
   9835  17942     1
   9838   9844     1
   9838   9847     1
   9838   9859     1
   9844  17961     1
   9847  17938     1
   9853  17937     1
   9853  17954     1
   9856  17977     1
   9856  17960     1
   9860   9885     1
   9860   9882     1
   9860   9879     1
   9861   9876     1
   9861   9870     1
   9861  18011     1
   9864   9873     1
   9864   9870     1
   9864  17988     1
   9867   9873     1
   9867   9876     1
   9867   9888     1
   9873  18007     1
   9876  17984     1
   9882  17983     1
   9882  18000     1
   9885  18023     1
   9885  18006     1
   9889   9914     1
   9889   9911     1
   9889   9908     1
   9890   9905     1
   9890   9899     1
   9890  18057     1
   9893   9902     1
   9893   9899     1
   9893  18034     1
   9896   9902     1
   9896   9905     1
   9896   9917     1
   9902  18053     1
   9905  18030     1
   9911  18029     1
   9911  18046     1
   9914  18069     1
   9914  18052     1
   9918   9943     1
   9918   9940     1
   9918   9937     1
   9919   9934     1
   9919   9928     1
   9919  18103     1
   9922   9931     1
   9922   9928     1
   9922  18080     1
   9925   9931     1
   9925   9934     1
   9925   9946     1
   9931  18099     1
   9934  18076     1
   9940  18075     1
   9940  18092     1
   9943  18115     1
   9943  18098     1
   9947   9972     1
   9947   9969     1
   9947   9966     1
   9948   9963     1
   9948   9957     1
   9948  18149     1
   9951   9960     1
   9951   9957     1
   9951  18126     1
   9954   9960     1
   9954   9963     1
   9954   9975     1
   9960  18145     1
   9963  18122     1
   9969  18121     1
   9969  18138     1
   9972  18161     1
   9972  18144     1
   9976  10001     1
   9976   9998     1
   9976   9995     1
   9977   9992     1
   9977   9986     1
   9977  18195     1
   9980   9989     1
   9980   9986     1
   9980  18172     1
   9983   9989     1
   9983   9992     1
   9983  10004     1
   9989  18191     1
   9992  18168     1
   9998  18167     1
   9998  18184     1
  10001  18207     1
  10001  18190     1
  10005  10030     1
  10005  10027     1
  10005  10024     1
  10006  10021     1
  10006  10015     1
  10006  18241     1
  10009  10018     1
  10009  10015     1
  10009  18218     1
  10012  10018     1
  10012  10021     1
  10012  10033     1
  10018  18237     1
  10021  18214     1
  10027  18213     1
  10027  18230     1
  10030  18253     1
  10030  18236     1
  10034  10059     1
  10034  10056     1
  10034  10053     1
  10035  10050     1
  10035  10044     1
  10035  18287     1
  10038  10047     1
  10038  10044     1
  10038  18264     1
  10041  10047     1
  10041  10050     1
  10041  10062     1
  10047  18283     1
  10050  18260     1
  10056  18259     1
  10056  18276     1
  10059  18299     1
  10059  18282     1
  10063  10088     1
  10063  10085     1
  10063  10082     1
  10064  10079     1
  10064  10073     1
  10064  18333     1
  10067  10076     1
  10067  10073     1
  10067  18310     1
  10070  10076     1
  10070  10079     1
  10070  10091     1
  10076  18329     1
  10079  18306     1
  10085  18305     1
  10085  18322     1
  10088  18345     1
  10088  18328     1
  10092  10117     1
  10092  10114     1
  10092  10111     1
  10093  10108     1
  10093  10102     1
  10093  18379     1
  10096  10105     1
  10096  10102     1
  10096  18356     1
  10099  10105     1
  10099  10108     1
  10099  10120     1
  10105  18375     1
  10108  18352     1
  10114  18351     1
  10114  18368     1
  10117  18391     1
  10117  18374     1
  10121  10146     1
  10121  10143     1
  10121  10140     1
  10122  10137     1
  10122  10131     1
  10122  18425     1
  10125  10134     1
  10125  10131     1
  10125  18402     1
  10128  10134     1
  10128  10137     1
  10128  10149     1
  10134  18421     1
  10137  18398     1
  10143  18397     1
  10143  18414     1
  10146  18437     1
  10146  18420     1
  10150  10175     1
  10150  10172     1
  10150  10169     1
  10151  10166     1
  10151  10160     1
  10151  18471     1
  10154  10163     1
  10154  10160     1
  10154  18448     1
  10157  10163     1
  10157  10166     1
  10157  10178     1
  10163  18467     1
  10166  18444     1
  10172  18443     1
  10172  18460     1
  10175  18483     1
  10175  18466     1
  10179  10204     1
  10179  10201     1
  10179  10198     1
  10180  10195     1
  10180  10189     1
  10180  18517     1
  10183  10192     1
  10183  10189     1
  10183  18494     1
  10186  10192     1
  10186  10195     1
  10186  10207     1
  10192  18513     1
  10195  18490     1
  10201  18489     1
  10201  18506     1
  10204  18529     1
  10204  18512     1
  10208  10233     1
  10208  10230     1
  10208  10227     1
  10209  10224     1
  10209  10218     1
  10209  18563     1
  10212  10221     1
  10212  10218     1
  10212  18540     1
  10215  10221     1
  10215  10224     1
  10215  10236     1
  10221  18559     1
  10224  18536     1
  10230  18535     1
  10230  18552     1
  10233  18575     1
  10233  18558     1
  10237  10262     1
  10237  10259     1
  10237  10256     1
  10238  10253     1
  10238  10247     1
  10238  18609     1
  10241  10250     1
  10241  10247     1
  10241  18586     1
  10244  10250     1
  10244  10253     1
  10244  10265     1
  10250  18605     1
  10253  18582     1
  10259  18581     1
  10259  18598     1
  10262  18621     1
  10262  18604     1
  10266  10291     1
  10266  10288     1
  10266  10285     1
  10267  10282     1
  10267  10276     1
  10267  18655     1
  10270  10279     1
  10270  10276     1
  10270  18632     1
  10273  10279     1
  10273  10282     1
  10273  10294     1
  10279  18651     1
  10282  18628     1
  10288  18627     1
  10288  18644     1
  10291  18667     1
  10291  18650     1
  10295  10320     1
  10295  10317     1
  10295  10314     1
  10296  10311     1
  10296  10305     1
  10296  18701     1
  10299  10308     1
  10299  10305     1
  10299  18678     1
  10302  10308     1
  10302  10311     1
  10302  10323     1
  10308  18697     1
  10311  18674     1
  10317  18673     1
  10317  18690     1
  10320  18713     1
  10320  18696     1
  10324  10349     1
  10324  10346     1
  10324  10343     1
  10325  10340     1
  10325  10334     1
  10325  18747     1
  10328  10337     1
  10328  10334     1
  10328  18724     1
  10331  10337     1
  10331  10340     1
  10331  10352     1
  10337  18743     1
  10340  18720     1
  10346  18719     1
  10346  18736     1
  10349  18759     1
  10349  18742     1
  10353  10378     1
  10353  10375     1
  10353  10372     1
  10354  10369     1
  10354  10363     1
  10354  18793     1
  10357  10366     1
  10357  10363     1
  10357  18770     1
  10360  10366     1
  10360  10369     1
  10360  10381     1
  10366  18789     1
  10369  18766     1
  10375  18765     1
  10375  18782     1
  10378  18805     1
  10378  18788     1
  10382  10407     1
  10382  10404     1
  10382  10401     1
  10383  10398     1
  10383  10392     1
  10383  18839     1
  10386  10395     1
  10386  10392     1
  10386  18816     1
  10389  10395     1
  10389  10398     1
  10389  10410     1
  10395  18835     1
  10398  18812     1
  10404  18811     1
  10404  18828     1
  10407  18851     1
  10407  18834     1
  10411  10436     1
  10411  10433     1
  10411  10430     1
  10412  10427     1
  10412  10421     1
  10412  18885     1
  10415  10424     1
  10415  10421     1
  10415  18862     1
  10418  10424     1
  10418  10427     1
  10418  10439     1
  10424  18881     1
  10427  18858     1
  10433  18857     1
  10433  18874     1
  10436  18897     1
  10436  18880     1
  10440  10465     1
  10440  10462     1
  10440  10459     1
  10441  10456     1
  10441  10450     1
  10441  18931     1
  10444  10453     1
  10444  10450     1
  10444  18908     1
  10447  10453     1
  10447  10456     1
  10447  10468     1
  10453  18927     1
  10456  18904     1
  10462  18903     1
  10462  18920     1
  10465  18943     1
  10465  18926     1
  10469  10494     1
  10469  10491     1
  10469  10488     1
  10470  10485     1
  10470  10479     1
  10470  18977     1
  10473  10482     1
  10473  10479     1
  10473  18954     1
  10476  10482     1
  10476  10485     1
  10476  10497     1
  10482  18973     1
  10485  18950     1
  10491  18949     1
  10491  18966     1
  10494  18989     1
  10494  18972     1
  10498  10523     1
  10498  10520     1
  10498  10517     1
  10499  10514     1
  10499  10508     1
  10499  19023     1
  10502  10511     1
  10502  10508     1
  10502  19000     1
  10505  10511     1
  10505  10514     1
  10505  10526     1
  10511  19019     1
  10514  18996     1
  10520  18995     1
  10520  19012     1
  10523  19035     1
  10523  19018     1
  10527  10552     1
  10527  10549     1
  10527  10546     1
  10528  10543     1
  10528  10537     1
  10528  19069     1
  10531  10540     1
  10531  10537     1
  10531  19046     1
  10534  10540     1
  10534  10543     1
  10534  10555     1
  10540  19065     1
  10543  19042     1
  10549  19041     1
  10549  19058     1
  10552  19081     1
  10552  19064     1
  10556  10581     1
  10556  10578     1
  10556  10575     1
  10557  10572     1
  10557  10566     1
  10557  19115     1
  10560  10569     1
  10560  10566     1
  10560  19092     1
  10563  10569     1
  10563  10572     1
  10563  10584     1
  10569  19111     1
  10572  19088     1
  10578  19087     1
  10578  19104     1
  10581  19127     1
  10581  19110     1
  10585  10610     1
  10585  10607     1
  10585  10604     1
  10586  10601     1
  10586  10595     1
  10586  19161     1
  10589  10598     1
  10589  10595     1
  10589  19138     1
  10592  10598     1
  10592  10601     1
  10592  10613     1
  10598  19157     1
  10601  19134     1
  10607  19133     1
  10607  19150     1
  10610  19173     1
  10610  19156     1
  10614  10639     1
  10614  10636     1
  10614  10633     1
  10615  10630     1
  10615  10624     1
  10615  19207     1
  10618  10627     1
  10618  10624     1
  10618  19184     1
  10621  10627     1
  10621  10630     1
  10621  10642     1
  10627  19203     1
  10630  19180     1
  10636  19179     1
  10636  19196     1
  10639  19219     1
  10639  19202     1
  10643  10668     1
  10643  10665     1
  10643  10662     1
  10644  10659     1
  10644  10653     1
  10644  19253     1
  10647  10656     1
  10647  10653     1
  10647  19230     1
  10650  10656     1
  10650  10659     1
  10650  10671     1
  10656  19249     1
  10659  19226     1
  10665  19225     1
  10665  19242     1
  10668  19265     1
  10668  19248     1
  10672  10697     1
  10672  10694     1
  10672  10691     1
  10673  10688     1
  10673  10682     1
  10673  19299     1
  10676  10685     1
  10676  10682     1
  10676  19276     1
  10679  10685     1
  10679  10688     1
  10679  10700     1
  10685  19295     1
  10688  19272     1
  10694  19271     1
  10694  19288     1
  10697  19311     1
  10697  19294     1
  10701  10726     1
  10701  10723     1
  10701  10720     1
  10702  10717     1
  10702  10711     1
  10702  19345     1
  10705  10714     1
  10705  10711     1
  10705  19322     1
  10708  10714     1
  10708  10717     1
  10708  10729     1
  10714  19341     1
  10717  19318     1
  10723  19317     1
  10723  19334     1
  10726  19357     1
  10726  19340     1
  10730  10755     1
  10730  10752     1
  10730  10749     1
  10731  10746     1
  10731  10740     1
  10731  19391     1
  10734  10743     1
  10734  10740     1
  10734  19368     1
  10737  10743     1
  10737  10746     1
  10737  10758     1
  10743  19387     1
  10746  19364     1
  10752  19363     1
  10752  19380     1
  10755  19403     1
  10755  19386     1
  10759  10784     1
  10759  10781     1
  10759  10778     1
  10760  10775     1
  10760  10769     1
  10760  19437     1
  10763  10772     1
  10763  10769     1
  10763  19414     1
  10766  10772     1
  10766  10775     1
  10766  10787     1
  10772  19433     1
  10775  19410     1
  10781  19409     1
  10781  19426     1
  10784  19449     1
  10784  19432     1
  10788  10813     1
  10788  10810     1
  10788  10807     1
  10789  10804     1
  10789  10798     1
  10789  19483     1
  10792  10801     1
  10792  10798     1
  10792  19460     1
  10795  10801     1
  10795  10804     1
  10795  10816     1
  10801  19479     1
  10804  19456     1
  10810  19455     1
  10810  19472     1
  10813  19495     1
  10813  19478     1
  10817  10842     1
  10817  10839     1
  10817  10836     1
  10818  10833     1
  10818  10827     1
  10818  19529     1
  10821  10830     1
  10821  10827     1
  10821  19506     1
  10824  10830     1
  10824  10833     1
  10824  10845     1
  10830  19525     1
  10833  19502     1
  10839  19501     1
  10839  19518     1
  10842  19541     1
  10842  19524     1
  10846  10871     1
  10846  10868     1
  10846  10865     1
  10847  10862     1
  10847  10856     1
  10847  19575     1
  10850  10859     1
  10850  10856     1
  10850  19552     1
  10853  10859     1
  10853  10862     1
  10853  10874     1
  10859  19571     1
  10862  19548     1
  10868  19547     1
  10868  19564     1
  10871  19587     1
  10871  19570     1
  10875  10900     1
  10875  10897     1
  10875  10894     1
  10876  10891     1
  10876  10885     1
  10876  19621     1
  10879  10888     1
  10879  10885     1
  10879  19598     1
  10882  10888     1
  10882  10891     1
  10882  10903     1
  10888  19617     1
  10891  19594     1
  10897  19593     1
  10897  19610     1
  10900  19633     1
  10900  19616     1
  10904  10929     1
  10904  10926     1
  10904  10923     1
  10905  10920     1
  10905  10914     1
  10905  19667     1
  10908  10917     1
  10908  10914     1
  10908  19644     1
  10911  10917     1
  10911  10920     1
  10911  10932     1
  10917  19663     1
  10920  19640     1
  10926  19639     1
  10926  19656     1
  10929  19679     1
  10929  19662     1
  10933  10958     1
  10933  10955     1
  10933  10952     1
  10934  10949     1
  10934  10943     1
  10934  19713     1
  10937  10946     1
  10937  10943     1
  10937  19690     1
  10940  10946     1
  10940  10949     1
  10940  10961     1
  10946  19709     1
  10949  19686     1
  10955  19685     1
  10955  19702     1
  10958  19725     1
  10958  19708     1
  10962  10987     1
  10962  10984     1
  10962  10981     1
  10963  10978     1
  10963  10972     1
  10963  19759     1
  10966  10975     1
  10966  10972     1
  10966  19736     1
  10969  10975     1
  10969  10978     1
  10969  10990     1
  10975  19755     1
  10978  19732     1
  10984  19731     1
  10984  19748     1
  10987  19771     1
  10987  19754     1
  10991  11016     1
  10991  11013     1
  10991  11010     1
  10992  11007     1
  10992  11001     1
  10992  19805     1
  10995  11004     1
  10995  11001     1
  10995  19782     1
  10998  11004     1
  10998  11007     1
  10998  11019     1
  11004  19801     1
  11007  19778     1
  11013  19777     1
  11013  19794     1
  11016  19817     1
  11016  19800     1
  11020  11045     1
  11020  11042     1
  11020  11039     1
  11021  11036     1
  11021  11030     1
  11021  19851     1
  11024  11033     1
  11024  11030     1
  11024  19828     1
  11027  11033     1
  11027  11036     1
  11027  11048     1
  11033  19847     1
  11036  19824     1
  11042  19823     1
  11042  19840     1
  11045  19863     1
  11045  19846     1
  11049  11074     1
  11049  11071     1
  11049  11068     1
  11050  11065     1
  11050  11059     1
  11050  19897     1
  11053  11062     1
  11053  11059     1
  11053  19874     1
  11056  11062     1
  11056  11065     1
  11056  11077     1
  11062  19893     1
  11065  19870     1
  11071  19869     1
  11071  19886     1
  11074  19909     1
  11074  19892     1
  11078  11083     1
  11078  11090     1
  11078  11088     1
  11079  11098     1
  11079  11084     1
  11079  11089     1
  11082  11092     1
  11082  11100     1
  11082  11088     1
  11083  11091     1
  11084  11090     1
  11084  11092     1
  11088  11089     1
  11089  11090     1
  11089  11100     1
  11090  11091     1
  11091  11092     1
  11091  11100     1
  11098  11100     1
  11101  11106     1
  11101  11113     1
  11101  11111     1
  11102  11107     1
  11102  11112     1
  11102  11121     1
  11105  11111     1
  11105  11123     1
  11105  11115     1
  11106  11114     1
  11107  11115     1
  11107  11113     1
  11111  11112     1
  11112  11123     1
  11112  11113     1
  11113  11114     1
  11114  11115     1
  11114  11123     1
  11121  11123     1
  11124  11129     1
  11124  11136     1
  11124  11134     1
  11125  11144     1
  11125  11130     1
  11125  11135     1
  11128  11138     1
  11128  11146     1
  11128  11134     1
  11129  11137     1
  11130  11136     1
  11130  11138     1
  11134  11135     1
  11135  11136     1
  11135  11146     1
  11136  11137     1
  11137  11138     1
  11137  11146     1
  11144  11146     1
  11147  11152     1
  11147  11159     1
  11147  11157     1
  11148  11153     1
  11148  11158     1
  11148  11167     1
  11151  11157     1
  11151  11169     1
  11151  11161     1
  11152  11160     1
  11153  11161     1
  11153  11159     1
  11157  11158     1
  11158  11169     1
  11158  11159     1
  11159  11160     1
  11160  11161     1
  11160  11169     1
  11167  11169     1
  11170  11175     1
  11170  11182     1
  11170  11180     1
  11171  11190     1
  11171  11176     1
  11171  11181     1
  11174  11184     1
  11174  11192     1
  11174  11180     1
  11175  11183     1
  11176  11182     1
  11176  11184     1
  11180  11181     1
  11181  11182     1
  11181  11192     1
  11182  11183     1
  11183  11184     1
  11183  11192     1
  11190  11192     1
  11193  11198     1
  11193  11205     1
  11193  11203     1
  11194  11199     1
  11194  11204     1
  11194  11213     1
  11197  11203     1
  11197  11215     1
  11197  11207     1
  11198  11206     1
  11199  11207     1
  11199  11205     1
  11203  11204     1
  11204  11215     1
  11204  11205     1
  11205  11206     1
  11206  11207     1
  11206  11215     1
  11213  11215     1
  11216  11221     1
  11216  11228     1
  11216  11226     1
  11217  11236     1
  11217  11222     1
  11217  11227     1
  11220  11230     1
  11220  11238     1
  11220  11226     1
  11221  11229     1
  11222  11228     1
  11222  11230     1
  11226  11227     1
  11227  11228     1
  11227  11238     1
  11228  11229     1
  11229  11230     1
  11229  11238     1
  11236  11238     1
  11239  11244     1
  11239  11251     1
  11239  11249     1
  11240  11245     1
  11240  11250     1
  11240  11259     1
  11243  11249     1
  11243  11261     1
  11243  11253     1
  11244  11252     1
  11245  11253     1
  11245  11251     1
  11249  11250     1
  11250  11261     1
  11250  11251     1
  11251  11252     1
  11252  11253     1
  11252  11261     1
  11259  11261     1
  11262  11267     1
  11262  11274     1
  11262  11272     1
  11263  11282     1
  11263  11268     1
  11263  11273     1
  11266  11276     1
  11266  11284     1
  11266  11272     1
  11267  11275     1
  11268  11274     1
  11268  11276     1
  11272  11273     1
  11273  11274     1
  11273  11284     1
  11274  11275     1
  11275  11276     1
  11275  11284     1
  11282  11284     1
  11285  11290     1
  11285  11297     1
  11285  11295     1
  11286  11291     1
  11286  11296     1
  11286  11305     1
  11289  11295     1
  11289  11307     1
  11289  11299     1
  11290  11298     1
  11291  11299     1
  11291  11297     1
  11295  11296     1
  11296  11307     1
  11296  11297     1
  11297  11298     1
  11298  11299     1
  11298  11307     1
  11305  11307     1
  11308  11313     1
  11308  11320     1
  11308  11318     1
  11309  11328     1
  11309  11314     1
  11309  11319     1
  11312  11322     1
  11312  11330     1
  11312  11318     1
  11313  11321     1
  11314  11320     1
  11314  11322     1
  11318  11319     1
  11319  11320     1
  11319  11330     1
  11320  11321     1
  11321  11322     1
  11321  11330     1
  11328  11330     1
  11331  11336     1
  11331  11343     1
  11331  11341     1
  11332  11337     1
  11332  11342     1
  11332  11351     1
  11335  11341     1
  11335  11353     1
  11335  11345     1
  11336  11344     1
  11337  11345     1
  11337  11343     1
  11341  11342     1
  11342  11353     1
  11342  11343     1
  11343  11344     1
  11344  11345     1
  11344  11353     1
  11351  11353     1
  11354  11359     1
  11354  11366     1
  11354  11364     1
  11355  11374     1
  11355  11360     1
  11355  11365     1
  11358  11368     1
  11358  11376     1
  11358  11364     1
  11359  11367     1
  11360  11366     1
  11360  11368     1
  11364  11365     1
  11365  11366     1
  11365  11376     1
  11366  11367     1
  11367  11368     1
  11367  11376     1
  11374  11376     1
  11377  11382     1
  11377  11389     1
  11377  11387     1
  11378  11383     1
  11378  11388     1
  11378  11397     1
  11381  11387     1
  11381  11399     1
  11381  11391     1
  11382  11390     1
  11383  11391     1
  11383  11389     1
  11387  11388     1
  11388  11399     1
  11388  11389     1
  11389  11390     1
  11390  11391     1
  11390  11399     1
  11397  11399     1
  11400  11405     1
  11400  11412     1
  11400  11410     1
  11401  11420     1
  11401  11406     1
  11401  11411     1
  11404  11414     1
  11404  11422     1
  11404  11410     1
  11405  11413     1
  11406  11412     1
  11406  11414     1
  11410  11411     1
  11411  11412     1
  11411  11422     1
  11412  11413     1
  11413  11414     1
  11413  11422     1
  11420  11422     1
  11423  11428     1
  11423  11435     1
  11423  11433     1
  11424  11429     1
  11424  11434     1
  11424  11443     1
  11427  11433     1
  11427  11445     1
  11427  11437     1
  11428  11436     1
  11429  11437     1
  11429  11435     1
  11433  11434     1
  11434  11445     1
  11434  11435     1
  11435  11436     1
  11436  11437     1
  11436  11445     1
  11443  11445     1
  11446  11451     1
  11446  11458     1
  11446  11456     1
  11447  11466     1
  11447  11452     1
  11447  11457     1
  11450  11460     1
  11450  11468     1
  11450  11456     1
  11451  11459     1
  11452  11458     1
  11452  11460     1
  11456  11457     1
  11457  11458     1
  11457  11468     1
  11458  11459     1
  11459  11460     1
  11459  11468     1
  11466  11468     1
  11469  11474     1
  11469  11481     1
  11469  11479     1
  11470  11475     1
  11470  11480     1
  11470  11489     1
  11473  11479     1
  11473  11491     1
  11473  11483     1
  11474  11482     1
  11475  11483     1
  11475  11481     1
  11479  11480     1
  11480  11491     1
  11480  11481     1
  11481  11482     1
  11482  11483     1
  11482  11491     1
  11489  11491     1
  11492  11497     1
  11492  11504     1
  11492  11502     1
  11493  11512     1
  11493  11498     1
  11493  11503     1
  11496  11506     1
  11496  11514     1
  11496  11502     1
  11497  11505     1
  11498  11504     1
  11498  11506     1
  11502  11503     1
  11503  11504     1
  11503  11514     1
  11504  11505     1
  11505  11506     1
  11505  11514     1
  11512  11514     1
  11515  11520     1
  11515  11527     1
  11515  11525     1
  11516  11521     1
  11516  11526     1
  11516  11535     1
  11519  11525     1
  11519  11537     1
  11519  11529     1
  11520  11528     1
  11521  11529     1
  11521  11527     1
  11525  11526     1
  11526  11537     1
  11526  11527     1
  11527  11528     1
  11528  11529     1
  11528  11537     1
  11535  11537     1
  11538  11543     1
  11538  11550     1
  11538  11548     1
  11539  11558     1
  11539  11544     1
  11539  11549     1
  11542  11552     1
  11542  11560     1
  11542  11548     1
  11543  11551     1
  11544  11550     1
  11544  11552     1
  11548  11549     1
  11549  11550     1
  11549  11560     1
  11550  11551     1
  11551  11552     1
  11551  11560     1
  11558  11560     1
  11561  11566     1
  11561  11573     1
  11561  11571     1
  11562  11567     1
  11562  11572     1
  11562  11581     1
  11565  11571     1
  11565  11583     1
  11565  11575     1
  11566  11574     1
  11567  11575     1
  11567  11573     1
  11571  11572     1
  11572  11583     1
  11572  11573     1
  11573  11574     1
  11574  11575     1
  11574  11583     1
  11581  11583     1
  11584  11589     1
  11584  11596     1
  11584  11594     1
  11585  11604     1
  11585  11590     1
  11585  11595     1
  11588  11598     1
  11588  11606     1
  11588  11594     1
  11589  11597     1
  11590  11596     1
  11590  11598     1
  11594  11595     1
  11595  11596     1
  11595  11606     1
  11596  11597     1
  11597  11598     1
  11597  11606     1
  11604  11606     1
  11607  11612     1
  11607  11619     1
  11607  11617     1
  11608  11613     1
  11608  11618     1
  11608  11627     1
  11611  11617     1
  11611  11629     1
  11611  11621     1
  11612  11620     1
  11613  11621     1
  11613  11619     1
  11617  11618     1
  11618  11629     1
  11618  11619     1
  11619  11620     1
  11620  11621     1
  11620  11629     1
  11627  11629     1
  11630  11635     1
  11630  11642     1
  11630  11640     1
  11631  11650     1
  11631  11636     1
  11631  11641     1
  11634  11644     1
  11634  11652     1
  11634  11640     1
  11635  11643     1
  11636  11642     1
  11636  11644     1
  11640  11641     1
  11641  11642     1
  11641  11652     1
  11642  11643     1
  11643  11644     1
  11643  11652     1
  11650  11652     1
  11653  11658     1
  11653  11665     1
  11653  11663     1
  11654  11659     1
  11654  11664     1
  11654  11673     1
  11657  11663     1
  11657  11675     1
  11657  11667     1
  11658  11666     1
  11659  11667     1
  11659  11665     1
  11663  11664     1
  11664  11675     1
  11664  11665     1
  11665  11666     1
  11666  11667     1
  11666  11675     1
  11673  11675     1
  11676  11681     1
  11676  11688     1
  11676  11686     1
  11677  11696     1
  11677  11682     1
  11677  11687     1
  11680  11690     1
  11680  11698     1
  11680  11686     1
  11681  11689     1
  11682  11688     1
  11682  11690     1
  11686  11687     1
  11687  11688     1
  11687  11698     1
  11688  11689     1
  11689  11690     1
  11689  11698     1
  11696  11698     1
  11699  11704     1
  11699  11711     1
  11699  11709     1
  11700  11705     1
  11700  11710     1
  11700  11719     1
  11703  11709     1
  11703  11721     1
  11703  11713     1
  11704  11712     1
  11705  11713     1
  11705  11711     1
  11709  11710     1
  11710  11721     1
  11710  11711     1
  11711  11712     1
  11712  11713     1
  11712  11721     1
  11719  11721     1
  11722  11727     1
  11722  11734     1
  11722  11732     1
  11723  11742     1
  11723  11728     1
  11723  11733     1
  11726  11736     1
  11726  11744     1
  11726  11732     1
  11727  11735     1
  11728  11734     1
  11728  11736     1
  11732  11733     1
  11733  11734     1
  11733  11744     1
  11734  11735     1
  11735  11736     1
  11735  11744     1
  11742  11744     1
  11745  11750     1
  11745  11757     1
  11745  11755     1
  11746  11751     1
  11746  11756     1
  11746  11765     1
  11749  11755     1
  11749  11767     1
  11749  11759     1
  11750  11758     1
  11751  11759     1
  11751  11757     1
  11755  11756     1
  11756  11767     1
  11756  11757     1
  11757  11758     1
  11758  11759     1
  11758  11767     1
  11765  11767     1
  11768  11773     1
  11768  11780     1
  11768  11778     1
  11769  11788     1
  11769  11774     1
  11769  11779     1
  11772  11782     1
  11772  11790     1
  11772  11778     1
  11773  11781     1
  11774  11780     1
  11774  11782     1
  11778  11779     1
  11779  11780     1
  11779  11790     1
  11780  11781     1
  11781  11782     1
  11781  11790     1
  11788  11790     1
  11791  11796     1
  11791  11803     1
  11791  11801     1
  11792  11797     1
  11792  11802     1
  11792  11811     1
  11795  11801     1
  11795  11813     1
  11795  11805     1
  11796  11804     1
  11797  11805     1
  11797  11803     1
  11801  11802     1
  11802  11813     1
  11802  11803     1
  11803  11804     1
  11804  11805     1
  11804  11813     1
  11811  11813     1
  11814  11819     1
  11814  11826     1
  11814  11824     1
  11815  11834     1
  11815  11820     1
  11815  11825     1
  11818  11828     1
  11818  11836     1
  11818  11824     1
  11819  11827     1
  11820  11826     1
  11820  11828     1
  11824  11825     1
  11825  11826     1
  11825  11836     1
  11826  11827     1
  11827  11828     1
  11827  11836     1
  11834  11836     1
  11837  11842     1
  11837  11849     1
  11837  11847     1
  11838  11843     1
  11838  11848     1
  11838  11857     1
  11841  11847     1
  11841  11859     1
  11841  11851     1
  11842  11850     1
  11843  11851     1
  11843  11849     1
  11847  11848     1
  11848  11859     1
  11848  11849     1
  11849  11850     1
  11850  11851     1
  11850  11859     1
  11857  11859     1
  11860  11865     1
  11860  11872     1
  11860  11870     1
  11861  11880     1
  11861  11866     1
  11861  11871     1
  11864  11874     1
  11864  11882     1
  11864  11870     1
  11865  11873     1
  11866  11872     1
  11866  11874     1
  11870  11871     1
  11871  11872     1
  11871  11882     1
  11872  11873     1
  11873  11874     1
  11873  11882     1
  11880  11882     1
  11883  11888     1
  11883  11895     1
  11883  11893     1
  11884  11889     1
  11884  11894     1
  11884  11903     1
  11887  11893     1
  11887  11905     1
  11887  11897     1
  11888  11896     1
  11889  11897     1
  11889  11895     1
  11893  11894     1
  11894  11905     1
  11894  11895     1
  11895  11896     1
  11896  11897     1
  11896  11905     1
  11903  11905     1
  11906  11911     1
  11906  11918     1
  11906  11916     1
  11907  11926     1
  11907  11912     1
  11907  11917     1
  11910  11920     1
  11910  11928     1
  11910  11916     1
  11911  11919     1
  11912  11918     1
  11912  11920     1
  11916  11917     1
  11917  11918     1
  11917  11928     1
  11918  11919     1
  11919  11920     1
  11919  11928     1
  11926  11928     1
  11929  11934     1
  11929  11941     1
  11929  11939     1
  11930  11935     1
  11930  11940     1
  11930  11949     1
  11933  11939     1
  11933  11951     1
  11933  11943     1
  11934  11942     1
  11935  11943     1
  11935  11941     1
  11939  11940     1
  11940  11951     1
  11940  11941     1
  11941  11942     1
  11942  11943     1
  11942  11951     1
  11949  11951     1
  11952  11957     1
  11952  11964     1
  11952  11962     1
  11953  11972     1
  11953  11958     1
  11953  11963     1
  11956  11966     1
  11956  11974     1
  11956  11962     1
  11957  11965     1
  11958  11964     1
  11958  11966     1
  11962  11963     1
  11963  11964     1
  11963  11974     1
  11964  11965     1
  11965  11966     1
  11965  11974     1
  11972  11974     1
  11975  11980     1
  11975  11987     1
  11975  11985     1
  11976  11981     1
  11976  11986     1
  11976  11995     1
  11979  11985     1
  11979  11997     1
  11979  11989     1
  11980  11988     1
  11981  11989     1
  11981  11987     1
  11985  11986     1
  11986  11997     1
  11986  11987     1
  11987  11988     1
  11988  11989     1
  11988  11997     1
  11995  11997     1
  11998  12003     1
  11998  12010     1
  11998  12008     1
  11999  12018     1
  11999  12004     1
  11999  12009     1
  12002  12012     1
  12002  12020     1
  12002  12008     1
  12003  12011     1
  12004  12010     1
  12004  12012     1
  12008  12009     1
  12009  12010     1
  12009  12020     1
  12010  12011     1
  12011  12012     1
  12011  12020     1
  12018  12020     1
  12021  12026     1
  12021  12033     1
  12021  12031     1
  12022  12027     1
  12022  12032     1
  12022  12041     1
  12025  12031     1
  12025  12043     1
  12025  12035     1
  12026  12034     1
  12027  12035     1
  12027  12033     1
  12031  12032     1
  12032  12043     1
  12032  12033     1
  12033  12034     1
  12034  12035     1
  12034  12043     1
  12041  12043     1
  12044  12049     1
  12044  12056     1
  12044  12054     1
  12045  12064     1
  12045  12050     1
  12045  12055     1
  12048  12058     1
  12048  12066     1
  12048  12054     1
  12049  12057     1
  12050  12056     1
  12050  12058     1
  12054  12055     1
  12055  12056     1
  12055  12066     1
  12056  12057     1
  12057  12058     1
  12057  12066     1
  12064  12066     1
  12067  12072     1
  12067  12079     1
  12067  12077     1
  12068  12073     1
  12068  12078     1
  12068  12087     1
  12071  12077     1
  12071  12089     1
  12071  12081     1
  12072  12080     1
  12073  12081     1
  12073  12079     1
  12077  12078     1
  12078  12089     1
  12078  12079     1
  12079  12080     1
  12080  12081     1
  12080  12089     1
  12087  12089     1
  12090  12095     1
  12090  12102     1
  12090  12100     1
  12091  12110     1
  12091  12096     1
  12091  12101     1
  12094  12104     1
  12094  12112     1
  12094  12100     1
  12095  12103     1
  12096  12102     1
  12096  12104     1
  12100  12101     1
  12101  12102     1
  12101  12112     1
  12102  12103     1
  12103  12104     1
  12103  12112     1
  12110  12112     1
  12113  12118     1
  12113  12125     1
  12113  12123     1
  12114  12119     1
  12114  12124     1
  12114  12133     1
  12117  12123     1
  12117  12135     1
  12117  12127     1
  12118  12126     1
  12119  12127     1
  12119  12125     1
  12123  12124     1
  12124  12135     1
  12124  12125     1
  12125  12126     1
  12126  12127     1
  12126  12135     1
  12133  12135     1
  12136  12141     1
  12136  12148     1
  12136  12146     1
  12137  12156     1
  12137  12142     1
  12137  12147     1
  12140  12150     1
  12140  12158     1
  12140  12146     1
  12141  12149     1
  12142  12148     1
  12142  12150     1
  12146  12147     1
  12147  12148     1
  12147  12158     1
  12148  12149     1
  12149  12150     1
  12149  12158     1
  12156  12158     1
  12159  12164     1
  12159  12171     1
  12159  12169     1
  12160  12165     1
  12160  12170     1
  12160  12179     1
  12163  12169     1
  12163  12181     1
  12163  12173     1
  12164  12172     1
  12165  12173     1
  12165  12171     1
  12169  12170     1
  12170  12181     1
  12170  12171     1
  12171  12172     1
  12172  12173     1
  12172  12181     1
  12179  12181     1
  12182  12187     1
  12182  12194     1
  12182  12192     1
  12183  12202     1
  12183  12188     1
  12183  12193     1
  12186  12196     1
  12186  12204     1
  12186  12192     1
  12187  12195     1
  12188  12194     1
  12188  12196     1
  12192  12193     1
  12193  12194     1
  12193  12204     1
  12194  12195     1
  12195  12196     1
  12195  12204     1
  12202  12204     1
  12205  12210     1
  12205  12217     1
  12205  12215     1
  12206  12211     1
  12206  12216     1
  12206  12225     1
  12209  12215     1
  12209  12227     1
  12209  12219     1
  12210  12218     1
  12211  12219     1
  12211  12217     1
  12215  12216     1
  12216  12227     1
  12216  12217     1
  12217  12218     1
  12218  12219     1
  12218  12227     1
  12225  12227     1
  12228  12233     1
  12228  12240     1
  12228  12238     1
  12229  12248     1
  12229  12234     1
  12229  12239     1
  12232  12242     1
  12232  12250     1
  12232  12238     1
  12233  12241     1
  12234  12240     1
  12234  12242     1
  12238  12239     1
  12239  12240     1
  12239  12250     1
  12240  12241     1
  12241  12242     1
  12241  12250     1
  12248  12250     1
  12251  12256     1
  12251  12263     1
  12251  12261     1
  12252  12257     1
  12252  12262     1
  12252  12271     1
  12255  12261     1
  12255  12273     1
  12255  12265     1
  12256  12264     1
  12257  12265     1
  12257  12263     1
  12261  12262     1
  12262  12273     1
  12262  12263     1
  12263  12264     1
  12264  12265     1
  12264  12273     1
  12271  12273     1
  12274  12279     1
  12274  12286     1
  12274  12284     1
  12275  12294     1
  12275  12280     1
  12275  12285     1
  12278  12288     1
  12278  12296     1
  12278  12284     1
  12279  12287     1
  12280  12286     1
  12280  12288     1
  12284  12285     1
  12285  12286     1
  12285  12296     1
  12286  12287     1
  12287  12288     1
  12287  12296     1
  12294  12296     1
  12297  12302     1
  12297  12309     1
  12297  12307     1
  12298  12303     1
  12298  12308     1
  12298  12317     1
  12301  12307     1
  12301  12319     1
  12301  12311     1
  12302  12310     1
  12303  12311     1
  12303  12309     1
  12307  12308     1
  12308  12319     1
  12308  12309     1
  12309  12310     1
  12310  12311     1
  12310  12319     1
  12317  12319     1
  12320  12325     1
  12320  12332     1
  12320  12330     1
  12321  12340     1
  12321  12326     1
  12321  12331     1
  12324  12334     1
  12324  12342     1
  12324  12330     1
  12325  12333     1
  12326  12332     1
  12326  12334     1
  12330  12331     1
  12331  12332     1
  12331  12342     1
  12332  12333     1
  12333  12334     1
  12333  12342     1
  12340  12342     1
  12343  12348     1
  12343  12355     1
  12343  12353     1
  12344  12349     1
  12344  12354     1
  12344  12363     1
  12347  12353     1
  12347  12365     1
  12347  12357     1
  12348  12356     1
  12349  12357     1
  12349  12355     1
  12353  12354     1
  12354  12365     1
  12354  12355     1
  12355  12356     1
  12356  12357     1
  12356  12365     1
  12363  12365     1
  12366  12371     1
  12366  12378     1
  12366  12376     1
  12367  12386     1
  12367  12372     1
  12367  12377     1
  12370  12380     1
  12370  12388     1
  12370  12376     1
  12371  12379     1
  12372  12378     1
  12372  12380     1
  12376  12377     1
  12377  12378     1
  12377  12388     1
  12378  12379     1
  12379  12380     1
  12379  12388     1
  12386  12388     1
  12389  12394     1
  12389  12401     1
  12389  12399     1
  12390  12395     1
  12390  12400     1
  12390  12409     1
  12393  12399     1
  12393  12411     1
  12393  12403     1
  12394  12402     1
  12395  12403     1
  12395  12401     1
  12399  12400     1
  12400  12411     1
  12400  12401     1
  12401  12402     1
  12402  12403     1
  12402  12411     1
  12409  12411     1
  12412  12417     1
  12412  12424     1
  12412  12422     1
  12413  12432     1
  12413  12418     1
  12413  12423     1
  12416  12426     1
  12416  12434     1
  12416  12422     1
  12417  12425     1
  12418  12424     1
  12418  12426     1
  12422  12423     1
  12423  12424     1
  12423  12434     1
  12424  12425     1
  12425  12426     1
  12425  12434     1
  12432  12434     1
  12435  12440     1
  12435  12447     1
  12435  12445     1
  12436  12441     1
  12436  12446     1
  12436  12455     1
  12439  12445     1
  12439  12457     1
  12439  12449     1
  12440  12448     1
  12441  12449     1
  12441  12447     1
  12445  12446     1
  12446  12457     1
  12446  12447     1
  12447  12448     1
  12448  12449     1
  12448  12457     1
  12455  12457     1
  12458  12463     1
  12458  12470     1
  12458  12468     1
  12459  12478     1
  12459  12464     1
  12459  12469     1
  12462  12472     1
  12462  12480     1
  12462  12468     1
  12463  12471     1
  12464  12470     1
  12464  12472     1
  12468  12469     1
  12469  12470     1
  12469  12480     1
  12470  12471     1
  12471  12472     1
  12471  12480     1
  12478  12480     1
  12481  12486     1
  12481  12493     1
  12481  12491     1
  12482  12487     1
  12482  12492     1
  12482  12501     1
  12485  12491     1
  12485  12503     1
  12485  12495     1
  12486  12494     1
  12487  12495     1
  12487  12493     1
  12491  12492     1
  12492  12503     1
  12492  12493     1
  12493  12494     1
  12494  12495     1
  12494  12503     1
  12501  12503     1
  12504  12509     1
  12504  12516     1
  12504  12514     1
  12505  12524     1
  12505  12510     1
  12505  12515     1
  12508  12518     1
  12508  12526     1
  12508  12514     1
  12509  12517     1
  12510  12516     1
  12510  12518     1
  12514  12515     1
  12515  12516     1
  12515  12526     1
  12516  12517     1
  12517  12518     1
  12517  12526     1
  12524  12526     1
  12527  12532     1
  12527  12539     1
  12527  12537     1
  12528  12533     1
  12528  12538     1
  12528  12547     1
  12531  12537     1
  12531  12549     1
  12531  12541     1
  12532  12540     1
  12533  12541     1
  12533  12539     1
  12537  12538     1
  12538  12549     1
  12538  12539     1
  12539  12540     1
  12540  12541     1
  12540  12549     1
  12547  12549     1
  12550  12555     1
  12550  12562     1
  12550  12560     1
  12551  12570     1
  12551  12556     1
  12551  12561     1
  12554  12564     1
  12554  12572     1
  12554  12560     1
  12555  12563     1
  12556  12562     1
  12556  12564     1
  12560  12561     1
  12561  12562     1
  12561  12572     1
  12562  12563     1
  12563  12564     1
  12563  12572     1
  12570  12572     1
  12573  12578     1
  12573  12585     1
  12573  12583     1
  12574  12579     1
  12574  12584     1
  12574  12593     1
  12577  12583     1
  12577  12595     1
  12577  12587     1
  12578  12586     1
  12579  12587     1
  12579  12585     1
  12583  12584     1
  12584  12595     1
  12584  12585     1
  12585  12586     1
  12586  12587     1
  12586  12595     1
  12593  12595     1
  12596  12601     1
  12596  12608     1
  12596  12606     1
  12597  12616     1
  12597  12602     1
  12597  12607     1
  12600  12610     1
  12600  12618     1
  12600  12606     1
  12601  12609     1
  12602  12608     1
  12602  12610     1
  12606  12607     1
  12607  12608     1
  12607  12618     1
  12608  12609     1
  12609  12610     1
  12609  12618     1
  12616  12618     1
  12619  12624     1
  12619  12631     1
  12619  12629     1
  12620  12625     1
  12620  12630     1
  12620  12639     1
  12623  12629     1
  12623  12641     1
  12623  12633     1
  12624  12632     1
  12625  12633     1
  12625  12631     1
  12629  12630     1
  12630  12641     1
  12630  12631     1
  12631  12632     1
  12632  12633     1
  12632  12641     1
  12639  12641     1
  12642  12647     1
  12642  12654     1
  12642  12652     1
  12643  12662     1
  12643  12648     1
  12643  12653     1
  12646  12656     1
  12646  12664     1
  12646  12652     1
  12647  12655     1
  12648  12654     1
  12648  12656     1
  12652  12653     1
  12653  12654     1
  12653  12664     1
  12654  12655     1
  12655  12656     1
  12655  12664     1
  12662  12664     1
  12665  12670     1
  12665  12677     1
  12665  12675     1
  12666  12671     1
  12666  12676     1
  12666  12685     1
  12669  12675     1
  12669  12687     1
  12669  12679     1
  12670  12678     1
  12671  12679     1
  12671  12677     1
  12675  12676     1
  12676  12687     1
  12676  12677     1
  12677  12678     1
  12678  12679     1
  12678  12687     1
  12685  12687     1
  12688  12693     1
  12688  12700     1
  12688  12698     1
  12689  12708     1
  12689  12694     1
  12689  12699     1
  12692  12702     1
  12692  12710     1
  12692  12698     1
  12693  12701     1
  12694  12700     1
  12694  12702     1
  12698  12699     1
  12699  12700     1
  12699  12710     1
  12700  12701     1
  12701  12702     1
  12701  12710     1
  12708  12710     1
  12711  12716     1
  12711  12723     1
  12711  12721     1
  12712  12717     1
  12712  12722     1
  12712  12731     1
  12715  12721     1
  12715  12733     1
  12715  12725     1
  12716  12724     1
  12717  12725     1
  12717  12723     1
  12721  12722     1
  12722  12733     1
  12722  12723     1
  12723  12724     1
  12724  12725     1
  12724  12733     1
  12731  12733     1
  12734  12739     1
  12734  12746     1
  12734  12744     1
  12735  12754     1
  12735  12740     1
  12735  12745     1
  12738  12748     1
  12738  12756     1
  12738  12744     1
  12739  12747     1
  12740  12746     1
  12740  12748     1
  12744  12745     1
  12745  12746     1
  12745  12756     1
  12746  12747     1
  12747  12748     1
  12747  12756     1
  12754  12756     1
  12757  12762     1
  12757  12769     1
  12757  12767     1
  12758  12763     1
  12758  12768     1
  12758  12777     1
  12761  12767     1
  12761  12779     1
  12761  12771     1
  12762  12770     1
  12763  12771     1
  12763  12769     1
  12767  12768     1
  12768  12779     1
  12768  12769     1
  12769  12770     1
  12770  12771     1
  12770  12779     1
  12777  12779     1
  12780  12785     1
  12780  12792     1
  12780  12790     1
  12781  12800     1
  12781  12786     1
  12781  12791     1
  12784  12794     1
  12784  12802     1
  12784  12790     1
  12785  12793     1
  12786  12792     1
  12786  12794     1
  12790  12791     1
  12791  12792     1
  12791  12802     1
  12792  12793     1
  12793  12794     1
  12793  12802     1
  12800  12802     1
  12803  12808     1
  12803  12815     1
  12803  12813     1
  12804  12809     1
  12804  12814     1
  12804  12823     1
  12807  12813     1
  12807  12825     1
  12807  12817     1
  12808  12816     1
  12809  12817     1
  12809  12815     1
  12813  12814     1
  12814  12825     1
  12814  12815     1
  12815  12816     1
  12816  12817     1
  12816  12825     1
  12823  12825     1
  12826  12831     1
  12826  12838     1
  12826  12836     1
  12827  12846     1
  12827  12832     1
  12827  12837     1
  12830  12840     1
  12830  12848     1
  12830  12836     1
  12831  12839     1
  12832  12838     1
  12832  12840     1
  12836  12837     1
  12837  12838     1
  12837  12848     1
  12838  12839     1
  12839  12840     1
  12839  12848     1
  12846  12848     1
  12849  12854     1
  12849  12861     1
  12849  12859     1
  12850  12855     1
  12850  12860     1
  12850  12869     1
  12853  12859     1
  12853  12871     1
  12853  12863     1
  12854  12862     1
  12855  12863     1
  12855  12861     1
  12859  12860     1
  12860  12871     1
  12860  12861     1
  12861  12862     1
  12862  12863     1
  12862  12871     1
  12869  12871     1
  12872  12877     1
  12872  12884     1
  12872  12882     1
  12873  12892     1
  12873  12878     1
  12873  12883     1
  12876  12886     1
  12876  12894     1
  12876  12882     1
  12877  12885     1
  12878  12884     1
  12878  12886     1
  12882  12883     1
  12883  12884     1
  12883  12894     1
  12884  12885     1
  12885  12886     1
  12885  12894     1
  12892  12894     1
  12895  12900     1
  12895  12907     1
  12895  12905     1
  12896  12901     1
  12896  12906     1
  12896  12915     1
  12899  12905     1
  12899  12917     1
  12899  12909     1
  12900  12908     1
  12901  12909     1
  12901  12907     1
  12905  12906     1
  12906  12917     1
  12906  12907     1
  12907  12908     1
  12908  12909     1
  12908  12917     1
  12915  12917     1
  12918  12923     1
  12918  12930     1
  12918  12928     1
  12919  12938     1
  12919  12924     1
  12919  12929     1
  12922  12932     1
  12922  12940     1
  12922  12928     1
  12923  12931     1
  12924  12930     1
  12924  12932     1
  12928  12929     1
  12929  12930     1
  12929  12940     1
  12930  12931     1
  12931  12932     1
  12931  12940     1
  12938  12940     1
  12941  12946     1
  12941  12953     1
  12941  12951     1
  12942  12947     1
  12942  12952     1
  12942  12961     1
  12945  12951     1
  12945  12963     1
  12945  12955     1
  12946  12954     1
  12947  12955     1
  12947  12953     1
  12951  12952     1
  12952  12963     1
  12952  12953     1
  12953  12954     1
  12954  12955     1
  12954  12963     1
  12961  12963     1
  12964  12969     1
  12964  12976     1
  12964  12974     1
  12965  12984     1
  12965  12970     1
  12965  12975     1
  12968  12978     1
  12968  12986     1
  12968  12974     1
  12969  12977     1
  12970  12976     1
  12970  12978     1
  12974  12975     1
  12975  12976     1
  12975  12986     1
  12976  12977     1
  12977  12978     1
  12977  12986     1
  12984  12986     1
  12987  12992     1
  12987  12999     1
  12987  12997     1
  12988  12993     1
  12988  12998     1
  12988  13007     1
  12991  12997     1
  12991  13009     1
  12991  13001     1
  12992  13000     1
  12993  13001     1
  12993  12999     1
  12997  12998     1
  12998  13009     1
  12998  12999     1
  12999  13000     1
  13000  13001     1
  13000  13009     1
  13007  13009     1
  13010  13015     1
  13010  13022     1
  13010  13020     1
  13011  13030     1
  13011  13016     1
  13011  13021     1
  13014  13024     1
  13014  13032     1
  13014  13020     1
  13015  13023     1
  13016  13022     1
  13016  13024     1
  13020  13021     1
  13021  13022     1
  13021  13032     1
  13022  13023     1
  13023  13024     1
  13023  13032     1
  13030  13032     1
  13033  13038     1
  13033  13045     1
  13033  13043     1
  13034  13039     1
  13034  13044     1
  13034  13053     1
  13037  13043     1
  13037  13055     1
  13037  13047     1
  13038  13046     1
  13039  13047     1
  13039  13045     1
  13043  13044     1
  13044  13055     1
  13044  13045     1
  13045  13046     1
  13046  13047     1
  13046  13055     1
  13053  13055     1
  13056  13061     1
  13056  13068     1
  13056  13066     1
  13057  13076     1
  13057  13062     1
  13057  13067     1
  13060  13070     1
  13060  13078     1
  13060  13066     1
  13061  13069     1
  13062  13068     1
  13062  13070     1
  13066  13067     1
  13067  13068     1
  13067  13078     1
  13068  13069     1
  13069  13070     1
  13069  13078     1
  13076  13078     1
  13079  13084     1
  13079  13091     1
  13079  13089     1
  13080  13085     1
  13080  13090     1
  13080  13099     1
  13083  13089     1
  13083  13101     1
  13083  13093     1
  13084  13092     1
  13085  13093     1
  13085  13091     1
  13089  13090     1
  13090  13101     1
  13090  13091     1
  13091  13092     1
  13092  13093     1
  13092  13101     1
  13099  13101     1
  13102  13107     1
  13102  13114     1
  13102  13112     1
  13103  13122     1
  13103  13108     1
  13103  13113     1
  13106  13116     1
  13106  13124     1
  13106  13112     1
  13107  13115     1
  13108  13114     1
  13108  13116     1
  13112  13113     1
  13113  13114     1
  13113  13124     1
  13114  13115     1
  13115  13116     1
  13115  13124     1
  13122  13124     1
  13125  13130     1
  13125  13137     1
  13125  13135     1
  13126  13131     1
  13126  13136     1
  13126  13145     1
  13129  13135     1
  13129  13147     1
  13129  13139     1
  13130  13138     1
  13131  13139     1
  13131  13137     1
  13135  13136     1
  13136  13147     1
  13136  13137     1
  13137  13138     1
  13138  13139     1
  13138  13147     1
  13145  13147     1
  13148  13153     1
  13148  13160     1
  13148  13158     1
  13149  13168     1
  13149  13154     1
  13149  13159     1
  13152  13162     1
  13152  13170     1
  13152  13158     1
  13153  13161     1
  13154  13160     1
  13154  13162     1
  13158  13159     1
  13159  13160     1
  13159  13170     1
  13160  13161     1
  13161  13162     1
  13161  13170     1
  13168  13170     1
  13171  13176     1
  13171  13183     1
  13171  13181     1
  13172  13177     1
  13172  13182     1
  13172  13191     1
  13175  13181     1
  13175  13193     1
  13175  13185     1
  13176  13184     1
  13177  13185     1
  13177  13183     1
  13181  13182     1
  13182  13193     1
  13182  13183     1
  13183  13184     1
  13184  13185     1
  13184  13193     1
  13191  13193     1
  13194  13199     1
  13194  13206     1
  13194  13204     1
  13195  13214     1
  13195  13200     1
  13195  13205     1
  13198  13208     1
  13198  13216     1
  13198  13204     1
  13199  13207     1
  13200  13206     1
  13200  13208     1
  13204  13205     1
  13205  13206     1
  13205  13216     1
  13206  13207     1
  13207  13208     1
  13207  13216     1
  13214  13216     1
  13217  13222     1
  13217  13229     1
  13217  13227     1
  13218  13223     1
  13218  13228     1
  13218  13237     1
  13221  13227     1
  13221  13239     1
  13221  13231     1
  13222  13230     1
  13223  13231     1
  13223  13229     1
  13227  13228     1
  13228  13239     1
  13228  13229     1
  13229  13230     1
  13230  13231     1
  13230  13239     1
  13237  13239     1
  13240  13245     1
  13240  13252     1
  13240  13250     1
  13241  13260     1
  13241  13246     1
  13241  13251     1
  13244  13254     1
  13244  13262     1
  13244  13250     1
  13245  13253     1
  13246  13252     1
  13246  13254     1
  13250  13251     1
  13251  13252     1
  13251  13262     1
  13252  13253     1
  13253  13254     1
  13253  13262     1
  13260  13262     1
  13263  13268     1
  13263  13275     1
  13263  13273     1
  13264  13269     1
  13264  13274     1
  13264  13283     1
  13267  13273     1
  13267  13285     1
  13267  13277     1
  13268  13276     1
  13269  13277     1
  13269  13275     1
  13273  13274     1
  13274  13285     1
  13274  13275     1
  13275  13276     1
  13276  13277     1
  13276  13285     1
  13283  13285     1
  13286  13291     1
  13286  13298     1
  13286  13296     1
  13287  13306     1
  13287  13292     1
  13287  13297     1
  13290  13300     1
  13290  13308     1
  13290  13296     1
  13291  13299     1
  13292  13298     1
  13292  13300     1
  13296  13297     1
  13297  13298     1
  13297  13308     1
  13298  13299     1
  13299  13300     1
  13299  13308     1
  13306  13308     1
  13309  13314     1
  13309  13321     1
  13309  13319     1
  13310  13315     1
  13310  13320     1
  13310  13329     1
  13313  13319     1
  13313  13331     1
  13313  13323     1
  13314  13322     1
  13315  13323     1
  13315  13321     1
  13319  13320     1
  13320  13331     1
  13320  13321     1
  13321  13322     1
  13322  13323     1
  13322  13331     1
  13329  13331     1
  13332  13337     1
  13332  13344     1
  13332  13342     1
  13333  13352     1
  13333  13338     1
  13333  13343     1
  13336  13346     1
  13336  13354     1
  13336  13342     1
  13337  13345     1
  13338  13344     1
  13338  13346     1
  13342  13343     1
  13343  13344     1
  13343  13354     1
  13344  13345     1
  13345  13346     1
  13345  13354     1
  13352  13354     1
  13355  13360     1
  13355  13367     1
  13355  13365     1
  13356  13361     1
  13356  13366     1
  13356  13375     1
  13359  13365     1
  13359  13377     1
  13359  13369     1
  13360  13368     1
  13361  13369     1
  13361  13367     1
  13365  13366     1
  13366  13377     1
  13366  13367     1
  13367  13368     1
  13368  13369     1
  13368  13377     1
  13375  13377     1
  13378  13383     1
  13378  13390     1
  13378  13388     1
  13379  13398     1
  13379  13384     1
  13379  13389     1
  13382  13392     1
  13382  13400     1
  13382  13388     1
  13383  13391     1
  13384  13390     1
  13384  13392     1
  13388  13389     1
  13389  13390     1
  13389  13400     1
  13390  13391     1
  13391  13392     1
  13391  13400     1
  13398  13400     1
  13401  13406     1
  13401  13413     1
  13401  13411     1
  13402  13407     1
  13402  13412     1
  13402  13421     1
  13405  13411     1
  13405  13423     1
  13405  13415     1
  13406  13414     1
  13407  13415     1
  13407  13413     1
  13411  13412     1
  13412  13423     1
  13412  13413     1
  13413  13414     1
  13414  13415     1
  13414  13423     1
  13421  13423     1
  13424  13429     1
  13424  13436     1
  13424  13434     1
  13425  13444     1
  13425  13430     1
  13425  13435     1
  13428  13438     1
  13428  13446     1
  13428  13434     1
  13429  13437     1
  13430  13436     1
  13430  13438     1
  13434  13435     1
  13435  13436     1
  13435  13446     1
  13436  13437     1
  13437  13438     1
  13437  13446     1
  13444  13446     1
  13447  13452     1
  13447  13459     1
  13447  13457     1
  13448  13453     1
  13448  13458     1
  13448  13467     1
  13451  13457     1
  13451  13469     1
  13451  13461     1
  13452  13460     1
  13453  13461     1
  13453  13459     1
  13457  13458     1
  13458  13469     1
  13458  13459     1
  13459  13460     1
  13460  13461     1
  13460  13469     1
  13467  13469     1
  13470  13475     1
  13470  13482     1
  13470  13480     1
  13471  13490     1
  13471  13476     1
  13471  13481     1
  13474  13484     1
  13474  13492     1
  13474  13480     1
  13475  13483     1
  13476  13482     1
  13476  13484     1
  13480  13481     1
  13481  13482     1
  13481  13492     1
  13482  13483     1
  13483  13484     1
  13483  13492     1
  13490  13492     1
  13493  13498     1
  13493  13505     1
  13493  13503     1
  13494  13499     1
  13494  13504     1
  13494  13513     1
  13497  13503     1
  13497  13515     1
  13497  13507     1
  13498  13506     1
  13499  13507     1
  13499  13505     1
  13503  13504     1
  13504  13515     1
  13504  13505     1
  13505  13506     1
  13506  13507     1
  13506  13515     1
  13513  13515     1
  13516  13521     1
  13516  13528     1
  13516  13526     1
  13517  13536     1
  13517  13522     1
  13517  13527     1
  13520  13530     1
  13520  13538     1
  13520  13526     1
  13521  13529     1
  13522  13528     1
  13522  13530     1
  13526  13527     1
  13527  13528     1
  13527  13538     1
  13528  13529     1
  13529  13530     1
  13529  13538     1
  13536  13538     1
  13539  13544     1
  13539  13551     1
  13539  13549     1
  13540  13545     1
  13540  13550     1
  13540  13559     1
  13543  13549     1
  13543  13561     1
  13543  13553     1
  13544  13552     1
  13545  13553     1
  13545  13551     1
  13549  13550     1
  13550  13561     1
  13550  13551     1
  13551  13552     1
  13552  13553     1
  13552  13561     1
  13559  13561     1
  13562  13567     1
  13562  13574     1
  13562  13572     1
  13563  13582     1
  13563  13568     1
  13563  13573     1
  13566  13576     1
  13566  13584     1
  13566  13572     1
  13567  13575     1
  13568  13574     1
  13568  13576     1
  13572  13573     1
  13573  13574     1
  13573  13584     1
  13574  13575     1
  13575  13576     1
  13575  13584     1
  13582  13584     1
  13585  13590     1
  13585  13597     1
  13585  13595     1
  13586  13591     1
  13586  13596     1
  13586  13605     1
  13589  13595     1
  13589  13607     1
  13589  13599     1
  13590  13598     1
  13591  13599     1
  13591  13597     1
  13595  13596     1
  13596  13607     1
  13596  13597     1
  13597  13598     1
  13598  13599     1
  13598  13607     1
  13605  13607     1
  13608  13613     1
  13608  13620     1
  13608  13618     1
  13609  13628     1
  13609  13614     1
  13609  13619     1
  13612  13622     1
  13612  13630     1
  13612  13618     1
  13613  13621     1
  13614  13620     1
  13614  13622     1
  13618  13619     1
  13619  13620     1
  13619  13630     1
  13620  13621     1
  13621  13622     1
  13621  13630     1
  13628  13630     1
  13631  13636     1
  13631  13643     1
  13631  13641     1
  13632  13637     1
  13632  13642     1
  13632  13651     1
  13635  13641     1
  13635  13653     1
  13635  13645     1
  13636  13644     1
  13637  13645     1
  13637  13643     1
  13641  13642     1
  13642  13653     1
  13642  13643     1
  13643  13644     1
  13644  13645     1
  13644  13653     1
  13651  13653     1
  13654  13659     1
  13654  13666     1
  13654  13664     1
  13655  13674     1
  13655  13660     1
  13655  13665     1
  13658  13668     1
  13658  13676     1
  13658  13664     1
  13659  13667     1
  13660  13666     1
  13660  13668     1
  13664  13665     1
  13665  13666     1
  13665  13676     1
  13666  13667     1
  13667  13668     1
  13667  13676     1
  13674  13676     1
  13677  13682     1
  13677  13689     1
  13677  13687     1
  13678  13683     1
  13678  13688     1
  13678  13697     1
  13681  13687     1
  13681  13699     1
  13681  13691     1
  13682  13690     1
  13683  13691     1
  13683  13689     1
  13687  13688     1
  13688  13699     1
  13688  13689     1
  13689  13690     1
  13690  13691     1
  13690  13699     1
  13697  13699     1
  13700  13705     1
  13700  13712     1
  13700  13710     1
  13701  13720     1
  13701  13706     1
  13701  13711     1
  13704  13714     1
  13704  13722     1
  13704  13710     1
  13705  13713     1
  13706  13712     1
  13706  13714     1
  13710  13711     1
  13711  13712     1
  13711  13722     1
  13712  13713     1
  13713  13714     1
  13713  13722     1
  13720  13722     1
  13723  13728     1
  13723  13735     1
  13723  13733     1
  13724  13729     1
  13724  13734     1
  13724  13743     1
  13727  13733     1
  13727  13745     1
  13727  13737     1
  13728  13736     1
  13729  13737     1
  13729  13735     1
  13733  13734     1
  13734  13745     1
  13734  13735     1
  13735  13736     1
  13736  13737     1
  13736  13745     1
  13743  13745     1
  13746  13751     1
  13746  13758     1
  13746  13756     1
  13747  13766     1
  13747  13752     1
  13747  13757     1
  13750  13760     1
  13750  13768     1
  13750  13756     1
  13751  13759     1
  13752  13758     1
  13752  13760     1
  13756  13757     1
  13757  13758     1
  13757  13768     1
  13758  13759     1
  13759  13760     1
  13759  13768     1
  13766  13768     1
  13769  13774     1
  13769  13781     1
  13769  13779     1
  13770  13775     1
  13770  13780     1
  13770  13789     1
  13773  13779     1
  13773  13791     1
  13773  13783     1
  13774  13782     1
  13775  13783     1
  13775  13781     1
  13779  13780     1
  13780  13791     1
  13780  13781     1
  13781  13782     1
  13782  13783     1
  13782  13791     1
  13789  13791     1
  13792  13797     1
  13792  13804     1
  13792  13802     1
  13793  13812     1
  13793  13798     1
  13793  13803     1
  13796  13806     1
  13796  13814     1
  13796  13802     1
  13797  13805     1
  13798  13804     1
  13798  13806     1
  13802  13803     1
  13803  13804     1
  13803  13814     1
  13804  13805     1
  13805  13806     1
  13805  13814     1
  13812  13814     1
  13815  13820     1
  13815  13827     1
  13815  13825     1
  13816  13821     1
  13816  13826     1
  13816  13835     1
  13819  13825     1
  13819  13837     1
  13819  13829     1
  13820  13828     1
  13821  13829     1
  13821  13827     1
  13825  13826     1
  13826  13837     1
  13826  13827     1
  13827  13828     1
  13828  13829     1
  13828  13837     1
  13835  13837     1
  13838  13843     1
  13838  13850     1
  13838  13848     1
  13839  13858     1
  13839  13844     1
  13839  13849     1
  13842  13852     1
  13842  13860     1
  13842  13848     1
  13843  13851     1
  13844  13850     1
  13844  13852     1
  13848  13849     1
  13849  13850     1
  13849  13860     1
  13850  13851     1
  13851  13852     1
  13851  13860     1
  13858  13860     1
  13861  13866     1
  13861  13873     1
  13861  13871     1
  13862  13867     1
  13862  13872     1
  13862  13881     1
  13865  13871     1
  13865  13883     1
  13865  13875     1
  13866  13874     1
  13867  13875     1
  13867  13873     1
  13871  13872     1
  13872  13883     1
  13872  13873     1
  13873  13874     1
  13874  13875     1
  13874  13883     1
  13881  13883     1
  13884  13889     1
  13884  13896     1
  13884  13894     1
  13885  13904     1
  13885  13890     1
  13885  13895     1
  13888  13898     1
  13888  13906     1
  13888  13894     1
  13889  13897     1
  13890  13896     1
  13890  13898     1
  13894  13895     1
  13895  13896     1
  13895  13906     1
  13896  13897     1
  13897  13898     1
  13897  13906     1
  13904  13906     1
  13907  13912     1
  13907  13919     1
  13907  13917     1
  13908  13913     1
  13908  13918     1
  13908  13927     1
  13911  13917     1
  13911  13929     1
  13911  13921     1
  13912  13920     1
  13913  13921     1
  13913  13919     1
  13917  13918     1
  13918  13929     1
  13918  13919     1
  13919  13920     1
  13920  13921     1
  13920  13929     1
  13927  13929     1
  13930  13935     1
  13930  13942     1
  13930  13940     1
  13931  13950     1
  13931  13936     1
  13931  13941     1
  13934  13944     1
  13934  13952     1
  13934  13940     1
  13935  13943     1
  13936  13942     1
  13936  13944     1
  13940  13941     1
  13941  13942     1
  13941  13952     1
  13942  13943     1
  13943  13944     1
  13943  13952     1
  13950  13952     1
  13953  13958     1
  13953  13965     1
  13953  13963     1
  13954  13959     1
  13954  13964     1
  13954  13973     1
  13957  13963     1
  13957  13975     1
  13957  13967     1
  13958  13966     1
  13959  13967     1
  13959  13965     1
  13963  13964     1
  13964  13975     1
  13964  13965     1
  13965  13966     1
  13966  13967     1
  13966  13975     1
  13973  13975     1
  13976  13981     1
  13976  13988     1
  13976  13986     1
  13977  13996     1
  13977  13982     1
  13977  13987     1
  13980  13990     1
  13980  13998     1
  13980  13986     1
  13981  13989     1
  13982  13988     1
  13982  13990     1
  13986  13987     1
  13987  13988     1
  13987  13998     1
  13988  13989     1
  13989  13990     1
  13989  13998     1
  13996  13998     1
  13999  14004     1
  13999  14011     1
  13999  14009     1
  14000  14005     1
  14000  14010     1
  14000  14019     1
  14003  14009     1
  14003  14021     1
  14003  14013     1
  14004  14012     1
  14005  14013     1
  14005  14011     1
  14009  14010     1
  14010  14021     1
  14010  14011     1
  14011  14012     1
  14012  14013     1
  14012  14021     1
  14019  14021     1
  14022  14027     1
  14022  14034     1
  14022  14032     1
  14023  14042     1
  14023  14028     1
  14023  14033     1
  14026  14036     1
  14026  14044     1
  14026  14032     1
  14027  14035     1
  14028  14034     1
  14028  14036     1
  14032  14033     1
  14033  14034     1
  14033  14044     1
  14034  14035     1
  14035  14036     1
  14035  14044     1
  14042  14044     1
  14045  14050     1
  14045  14057     1
  14045  14055     1
  14046  14051     1
  14046  14056     1
  14046  14065     1
  14049  14055     1
  14049  14067     1
  14049  14059     1
  14050  14058     1
  14051  14059     1
  14051  14057     1
  14055  14056     1
  14056  14067     1
  14056  14057     1
  14057  14058     1
  14058  14059     1
  14058  14067     1
  14065  14067     1
  14068  14073     1
  14068  14080     1
  14068  14078     1
  14069  14088     1
  14069  14074     1
  14069  14079     1
  14072  14082     1
  14072  14090     1
  14072  14078     1
  14073  14081     1
  14074  14080     1
  14074  14082     1
  14078  14079     1
  14079  14080     1
  14079  14090     1
  14080  14081     1
  14081  14082     1
  14081  14090     1
  14088  14090     1
  14091  14096     1
  14091  14103     1
  14091  14101     1
  14092  14097     1
  14092  14102     1
  14092  14111     1
  14095  14101     1
  14095  14113     1
  14095  14105     1
  14096  14104     1
  14097  14105     1
  14097  14103     1
  14101  14102     1
  14102  14113     1
  14102  14103     1
  14103  14104     1
  14104  14105     1
  14104  14113     1
  14111  14113     1
  14114  14119     1
  14114  14126     1
  14114  14124     1
  14115  14134     1
  14115  14120     1
  14115  14125     1
  14118  14128     1
  14118  14136     1
  14118  14124     1
  14119  14127     1
  14120  14126     1
  14120  14128     1
  14124  14125     1
  14125  14126     1
  14125  14136     1
  14126  14127     1
  14127  14128     1
  14127  14136     1
  14134  14136     1
  14137  14142     1
  14137  14149     1
  14137  14147     1
  14138  14143     1
  14138  14148     1
  14138  14157     1
  14141  14147     1
  14141  14159     1
  14141  14151     1
  14142  14150     1
  14143  14151     1
  14143  14149     1
  14147  14148     1
  14148  14159     1
  14148  14149     1
  14149  14150     1
  14150  14151     1
  14150  14159     1
  14157  14159     1
  14160  14165     1
  14160  14172     1
  14160  14170     1
  14161  14180     1
  14161  14166     1
  14161  14171     1
  14164  14174     1
  14164  14182     1
  14164  14170     1
  14165  14173     1
  14166  14172     1
  14166  14174     1
  14170  14171     1
  14171  14172     1
  14171  14182     1
  14172  14173     1
  14173  14174     1
  14173  14182     1
  14180  14182     1
  14183  14188     1
  14183  14195     1
  14183  14193     1
  14184  14189     1
  14184  14194     1
  14184  14203     1
  14187  14193     1
  14187  14205     1
  14187  14197     1
  14188  14196     1
  14189  14197     1
  14189  14195     1
  14193  14194     1
  14194  14205     1
  14194  14195     1
  14195  14196     1
  14196  14197     1
  14196  14205     1
  14203  14205     1
  14206  14211     1
  14206  14218     1
  14206  14216     1
  14207  14226     1
  14207  14212     1
  14207  14217     1
  14210  14220     1
  14210  14228     1
  14210  14216     1
  14211  14219     1
  14212  14218     1
  14212  14220     1
  14216  14217     1
  14217  14218     1
  14217  14228     1
  14218  14219     1
  14219  14220     1
  14219  14228     1
  14226  14228     1
  14229  14234     1
  14229  14241     1
  14229  14239     1
  14230  14235     1
  14230  14240     1
  14230  14249     1
  14233  14239     1
  14233  14251     1
  14233  14243     1
  14234  14242     1
  14235  14243     1
  14235  14241     1
  14239  14240     1
  14240  14251     1
  14240  14241     1
  14241  14242     1
  14242  14243     1
  14242  14251     1
  14249  14251     1
  14252  14257     1
  14252  14264     1
  14252  14262     1
  14253  14272     1
  14253  14258     1
  14253  14263     1
  14256  14266     1
  14256  14274     1
  14256  14262     1
  14257  14265     1
  14258  14264     1
  14258  14266     1
  14262  14263     1
  14263  14264     1
  14263  14274     1
  14264  14265     1
  14265  14266     1
  14265  14274     1
  14272  14274     1
  14275  14280     1
  14275  14287     1
  14275  14285     1
  14276  14281     1
  14276  14286     1
  14276  14295     1
  14279  14285     1
  14279  14297     1
  14279  14289     1
  14280  14288     1
  14281  14289     1
  14281  14287     1
  14285  14286     1
  14286  14297     1
  14286  14287     1
  14287  14288     1
  14288  14289     1
  14288  14297     1
  14295  14297     1
  14298  14303     1
  14298  14310     1
  14298  14308     1
  14299  14318     1
  14299  14304     1
  14299  14309     1
  14302  14312     1
  14302  14320     1
  14302  14308     1
  14303  14311     1
  14304  14310     1
  14304  14312     1
  14308  14309     1
  14309  14310     1
  14309  14320     1
  14310  14311     1
  14311  14312     1
  14311  14320     1
  14318  14320     1
  14321  14326     1
  14321  14333     1
  14321  14331     1
  14322  14327     1
  14322  14332     1
  14322  14341     1
  14325  14331     1
  14325  14343     1
  14325  14335     1
  14326  14334     1
  14327  14335     1
  14327  14333     1
  14331  14332     1
  14332  14343     1
  14332  14333     1
  14333  14334     1
  14334  14335     1
  14334  14343     1
  14341  14343     1
  14344  14349     1
  14344  14356     1
  14344  14354     1
  14345  14364     1
  14345  14350     1
  14345  14355     1
  14348  14358     1
  14348  14366     1
  14348  14354     1
  14349  14357     1
  14350  14356     1
  14350  14358     1
  14354  14355     1
  14355  14356     1
  14355  14366     1
  14356  14357     1
  14357  14358     1
  14357  14366     1
  14364  14366     1
  14367  14372     1
  14367  14379     1
  14367  14377     1
  14368  14373     1
  14368  14378     1
  14368  14387     1
  14371  14377     1
  14371  14389     1
  14371  14381     1
  14372  14380     1
  14373  14381     1
  14373  14379     1
  14377  14378     1
  14378  14389     1
  14378  14379     1
  14379  14380     1
  14380  14381     1
  14380  14389     1
  14387  14389     1
  14390  14395     1
  14390  14402     1
  14390  14400     1
  14391  14410     1
  14391  14396     1
  14391  14401     1
  14394  14404     1
  14394  14412     1
  14394  14400     1
  14395  14403     1
  14396  14402     1
  14396  14404     1
  14400  14401     1
  14401  14402     1
  14401  14412     1
  14402  14403     1
  14403  14404     1
  14403  14412     1
  14410  14412     1
  14413  14418     1
  14413  14425     1
  14413  14423     1
  14414  14419     1
  14414  14424     1
  14414  14433     1
  14417  14423     1
  14417  14435     1
  14417  14427     1
  14418  14426     1
  14419  14427     1
  14419  14425     1
  14423  14424     1
  14424  14435     1
  14424  14425     1
  14425  14426     1
  14426  14427     1
  14426  14435     1
  14433  14435     1
  14436  14441     1
  14436  14448     1
  14436  14446     1
  14437  14456     1
  14437  14442     1
  14437  14447     1
  14440  14450     1
  14440  14458     1
  14440  14446     1
  14441  14449     1
  14442  14448     1
  14442  14450     1
  14446  14447     1
  14447  14448     1
  14447  14458     1
  14448  14449     1
  14449  14450     1
  14449  14458     1
  14456  14458     1
  14459  14464     1
  14459  14471     1
  14459  14469     1
  14460  14465     1
  14460  14470     1
  14460  14479     1
  14463  14469     1
  14463  14481     1
  14463  14473     1
  14464  14472     1
  14465  14473     1
  14465  14471     1
  14469  14470     1
  14470  14481     1
  14470  14471     1
  14471  14472     1
  14472  14473     1
  14472  14481     1
  14479  14481     1
  14482  14487     1
  14482  14494     1
  14482  14492     1
  14483  14502     1
  14483  14488     1
  14483  14493     1
  14486  14496     1
  14486  14504     1
  14486  14492     1
  14487  14495     1
  14488  14494     1
  14488  14496     1
  14492  14493     1
  14493  14494     1
  14493  14504     1
  14494  14495     1
  14495  14496     1
  14495  14504     1
  14502  14504     1
  14505  14510     1
  14505  14517     1
  14505  14515     1
  14506  14511     1
  14506  14516     1
  14506  14525     1
  14509  14515     1
  14509  14527     1
  14509  14519     1
  14510  14518     1
  14511  14519     1
  14511  14517     1
  14515  14516     1
  14516  14527     1
  14516  14517     1
  14517  14518     1
  14518  14519     1
  14518  14527     1
  14525  14527     1
  14528  14533     1
  14528  14540     1
  14528  14538     1
  14529  14548     1
  14529  14534     1
  14529  14539     1
  14532  14542     1
  14532  14550     1
  14532  14538     1
  14533  14541     1
  14534  14540     1
  14534  14542     1
  14538  14539     1
  14539  14540     1
  14539  14550     1
  14540  14541     1
  14541  14542     1
  14541  14550     1
  14548  14550     1
  14551  14556     1
  14551  14563     1
  14551  14561     1
  14552  14557     1
  14552  14562     1
  14552  14571     1
  14555  14561     1
  14555  14573     1
  14555  14565     1
  14556  14564     1
  14557  14565     1
  14557  14563     1
  14561  14562     1
  14562  14573     1
  14562  14563     1
  14563  14564     1
  14564  14565     1
  14564  14573     1
  14571  14573     1
  14574  14579     1
  14574  14586     1
  14574  14584     1
  14575  14594     1
  14575  14580     1
  14575  14585     1
  14578  14588     1
  14578  14596     1
  14578  14584     1
  14579  14587     1
  14580  14586     1
  14580  14588     1
  14584  14585     1
  14585  14586     1
  14585  14596     1
  14586  14587     1
  14587  14588     1
  14587  14596     1
  14594  14596     1
  14597  14602     1
  14597  14609     1
  14597  14607     1
  14598  14603     1
  14598  14608     1
  14598  14617     1
  14601  14607     1
  14601  14619     1
  14601  14611     1
  14602  14610     1
  14603  14611     1
  14603  14609     1
  14607  14608     1
  14608  14619     1
  14608  14609     1
  14609  14610     1
  14610  14611     1
  14610  14619     1
  14617  14619     1
  14620  14625     1
  14620  14632     1
  14620  14630     1
  14621  14640     1
  14621  14626     1
  14621  14631     1
  14624  14634     1
  14624  14642     1
  14624  14630     1
  14625  14633     1
  14626  14632     1
  14626  14634     1
  14630  14631     1
  14631  14632     1
  14631  14642     1
  14632  14633     1
  14633  14634     1
  14633  14642     1
  14640  14642     1
  14643  14648     1
  14643  14655     1
  14643  14653     1
  14644  14649     1
  14644  14654     1
  14644  14663     1
  14647  14653     1
  14647  14665     1
  14647  14657     1
  14648  14656     1
  14649  14657     1
  14649  14655     1
  14653  14654     1
  14654  14665     1
  14654  14655     1
  14655  14656     1
  14656  14657     1
  14656  14665     1
  14663  14665     1
  14666  14671     1
  14666  14678     1
  14666  14676     1
  14667  14686     1
  14667  14672     1
  14667  14677     1
  14670  14680     1
  14670  14688     1
  14670  14676     1
  14671  14679     1
  14672  14678     1
  14672  14680     1
  14676  14677     1
  14677  14678     1
  14677  14688     1
  14678  14679     1
  14679  14680     1
  14679  14688     1
  14686  14688     1
  14689  14694     1
  14689  14701     1
  14689  14699     1
  14690  14695     1
  14690  14700     1
  14690  14709     1
  14693  14699     1
  14693  14711     1
  14693  14703     1
  14694  14702     1
  14695  14703     1
  14695  14701     1
  14699  14700     1
  14700  14711     1
  14700  14701     1
  14701  14702     1
  14702  14703     1
  14702  14711     1
  14709  14711     1
  14712  14717     1
  14712  14724     1
  14712  14722     1
  14713  14732     1
  14713  14718     1
  14713  14723     1
  14716  14726     1
  14716  14734     1
  14716  14722     1
  14717  14725     1
  14718  14724     1
  14718  14726     1
  14722  14723     1
  14723  14724     1
  14723  14734     1
  14724  14725     1
  14725  14726     1
  14725  14734     1
  14732  14734     1
  14735  14740     1
  14735  14747     1
  14735  14745     1
  14736  14741     1
  14736  14746     1
  14736  14755     1
  14739  14745     1
  14739  14757     1
  14739  14749     1
  14740  14748     1
  14741  14749     1
  14741  14747     1
  14745  14746     1
  14746  14757     1
  14746  14747     1
  14747  14748     1
  14748  14749     1
  14748  14757     1
  14755  14757     1
  14758  14763     1
  14758  14770     1
  14758  14768     1
  14759  14778     1
  14759  14764     1
  14759  14769     1
  14762  14772     1
  14762  14780     1
  14762  14768     1
  14763  14771     1
  14764  14770     1
  14764  14772     1
  14768  14769     1
  14769  14770     1
  14769  14780     1
  14770  14771     1
  14771  14772     1
  14771  14780     1
  14778  14780     1
  14781  14786     1
  14781  14793     1
  14781  14791     1
  14782  14787     1
  14782  14792     1
  14782  14801     1
  14785  14791     1
  14785  14803     1
  14785  14795     1
  14786  14794     1
  14787  14795     1
  14787  14793     1
  14791  14792     1
  14792  14803     1
  14792  14793     1
  14793  14794     1
  14794  14795     1
  14794  14803     1
  14801  14803     1
  14804  14809     1
  14804  14816     1
  14804  14814     1
  14805  14824     1
  14805  14810     1
  14805  14815     1
  14808  14818     1
  14808  14826     1
  14808  14814     1
  14809  14817     1
  14810  14816     1
  14810  14818     1
  14814  14815     1
  14815  14816     1
  14815  14826     1
  14816  14817     1
  14817  14818     1
  14817  14826     1
  14824  14826     1
  14827  14832     1
  14827  14839     1
  14827  14837     1
  14828  14833     1
  14828  14838     1
  14828  14847     1
  14831  14837     1
  14831  14849     1
  14831  14841     1
  14832  14840     1
  14833  14841     1
  14833  14839     1
  14837  14838     1
  14838  14849     1
  14838  14839     1
  14839  14840     1
  14840  14841     1
  14840  14849     1
  14847  14849     1
  14850  14855     1
  14850  14862     1
  14850  14860     1
  14851  14870     1
  14851  14856     1
  14851  14861     1
  14854  14864     1
  14854  14872     1
  14854  14860     1
  14855  14863     1
  14856  14862     1
  14856  14864     1
  14860  14861     1
  14861  14862     1
  14861  14872     1
  14862  14863     1
  14863  14864     1
  14863  14872     1
  14870  14872     1
  14873  14878     1
  14873  14885     1
  14873  14883     1
  14874  14879     1
  14874  14884     1
  14874  14893     1
  14877  14883     1
  14877  14895     1
  14877  14887     1
  14878  14886     1
  14879  14887     1
  14879  14885     1
  14883  14884     1
  14884  14895     1
  14884  14885     1
  14885  14886     1
  14886  14887     1
  14886  14895     1
  14893  14895     1
  14896  14901     1
  14896  14908     1
  14896  14906     1
  14897  14916     1
  14897  14902     1
  14897  14907     1
  14900  14910     1
  14900  14918     1
  14900  14906     1
  14901  14909     1
  14902  14908     1
  14902  14910     1
  14906  14907     1
  14907  14908     1
  14907  14918     1
  14908  14909     1
  14909  14910     1
  14909  14918     1
  14916  14918     1
  14919  14924     1
  14919  14931     1
  14919  14929     1
  14920  14925     1
  14920  14930     1
  14920  14939     1
  14923  14929     1
  14923  14941     1
  14923  14933     1
  14924  14932     1
  14925  14933     1
  14925  14931     1
  14929  14930     1
  14930  14941     1
  14930  14931     1
  14931  14932     1
  14932  14933     1
  14932  14941     1
  14939  14941     1
  14942  14947     1
  14942  14954     1
  14942  14952     1
  14943  14962     1
  14943  14948     1
  14943  14953     1
  14946  14956     1
  14946  14964     1
  14946  14952     1
  14947  14955     1
  14948  14954     1
  14948  14956     1
  14952  14953     1
  14953  14954     1
  14953  14964     1
  14954  14955     1
  14955  14956     1
  14955  14964     1
  14962  14964     1
  14965  14970     1
  14965  14977     1
  14965  14975     1
  14966  14971     1
  14966  14976     1
  14966  14985     1
  14969  14975     1
  14969  14987     1
  14969  14979     1
  14970  14978     1
  14971  14979     1
  14971  14977     1
  14975  14976     1
  14976  14987     1
  14976  14977     1
  14977  14978     1
  14978  14979     1
  14978  14987     1
  14985  14987     1
  14988  14993     1
  14988  15000     1
  14988  14998     1
  14989  15008     1
  14989  14994     1
  14989  14999     1
  14992  15002     1
  14992  15010     1
  14992  14998     1
  14993  15001     1
  14994  15000     1
  14994  15002     1
  14998  14999     1
  14999  15000     1
  14999  15010     1
  15000  15001     1
  15001  15002     1
  15001  15010     1
  15008  15010     1
  15011  15016     1
  15011  15023     1
  15011  15021     1
  15012  15017     1
  15012  15022     1
  15012  15031     1
  15015  15021     1
  15015  15033     1
  15015  15025     1
  15016  15024     1
  15017  15025     1
  15017  15023     1
  15021  15022     1
  15022  15033     1
  15022  15023     1
  15023  15024     1
  15024  15025     1
  15024  15033     1
  15031  15033     1
  15034  15039     1
  15034  15046     1
  15034  15044     1
  15035  15054     1
  15035  15040     1
  15035  15045     1
  15038  15048     1
  15038  15056     1
  15038  15044     1
  15039  15047     1
  15040  15046     1
  15040  15048     1
  15044  15045     1
  15045  15046     1
  15045  15056     1
  15046  15047     1
  15047  15048     1
  15047  15056     1
  15054  15056     1
  15057  15062     1
  15057  15069     1
  15057  15067     1
  15058  15063     1
  15058  15068     1
  15058  15077     1
  15061  15067     1
  15061  15079     1
  15061  15071     1
  15062  15070     1
  15063  15071     1
  15063  15069     1
  15067  15068     1
  15068  15079     1
  15068  15069     1
  15069  15070     1
  15070  15071     1
  15070  15079     1
  15077  15079     1
  15080  15085     1
  15080  15092     1
  15080  15090     1
  15081  15100     1
  15081  15086     1
  15081  15091     1
  15084  15094     1
  15084  15102     1
  15084  15090     1
  15085  15093     1
  15086  15092     1
  15086  15094     1
  15090  15091     1
  15091  15092     1
  15091  15102     1
  15092  15093     1
  15093  15094     1
  15093  15102     1
  15100  15102     1
  15103  15108     1
  15103  15115     1
  15103  15113     1
  15104  15109     1
  15104  15114     1
  15104  15123     1
  15107  15113     1
  15107  15125     1
  15107  15117     1
  15108  15116     1
  15109  15117     1
  15109  15115     1
  15113  15114     1
  15114  15125     1
  15114  15115     1
  15115  15116     1
  15116  15117     1
  15116  15125     1
  15123  15125     1
  15126  15131     1
  15126  15138     1
  15126  15136     1
  15127  15146     1
  15127  15132     1
  15127  15137     1
  15130  15140     1
  15130  15148     1
  15130  15136     1
  15131  15139     1
  15132  15138     1
  15132  15140     1
  15136  15137     1
  15137  15138     1
  15137  15148     1
  15138  15139     1
  15139  15140     1
  15139  15148     1
  15146  15148     1
  15149  15154     1
  15149  15161     1
  15149  15159     1
  15150  15155     1
  15150  15160     1
  15150  15169     1
  15153  15159     1
  15153  15171     1
  15153  15163     1
  15154  15162     1
  15155  15163     1
  15155  15161     1
  15159  15160     1
  15160  15171     1
  15160  15161     1
  15161  15162     1
  15162  15163     1
  15162  15171     1
  15169  15171     1
  15172  15177     1
  15172  15184     1
  15172  15182     1
  15173  15192     1
  15173  15178     1
  15173  15183     1
  15176  15186     1
  15176  15194     1
  15176  15182     1
  15177  15185     1
  15178  15184     1
  15178  15186     1
  15182  15183     1
  15183  15184     1
  15183  15194     1
  15184  15185     1
  15185  15186     1
  15185  15194     1
  15192  15194     1
  15195  15200     1
  15195  15207     1
  15195  15205     1
  15196  15201     1
  15196  15206     1
  15196  15215     1
  15199  15205     1
  15199  15217     1
  15199  15209     1
  15200  15208     1
  15201  15209     1
  15201  15207     1
  15205  15206     1
  15206  15217     1
  15206  15207     1
  15207  15208     1
  15208  15209     1
  15208  15217     1
  15215  15217     1
  15218  15223     1
  15218  15230     1
  15218  15228     1
  15219  15238     1
  15219  15224     1
  15219  15229     1
  15222  15232     1
  15222  15240     1
  15222  15228     1
  15223  15231     1
  15224  15230     1
  15224  15232     1
  15228  15229     1
  15229  15230     1
  15229  15240     1
  15230  15231     1
  15231  15232     1
  15231  15240     1
  15238  15240     1
  15241  15246     1
  15241  15253     1
  15241  15251     1
  15242  15247     1
  15242  15252     1
  15242  15261     1
  15245  15251     1
  15245  15263     1
  15245  15255     1
  15246  15254     1
  15247  15255     1
  15247  15253     1
  15251  15252     1
  15252  15263     1
  15252  15253     1
  15253  15254     1
  15254  15255     1
  15254  15263     1
  15261  15263     1
  15264  15269     1
  15264  15276     1
  15264  15274     1
  15265  15284     1
  15265  15270     1
  15265  15275     1
  15268  15278     1
  15268  15286     1
  15268  15274     1
  15269  15277     1
  15270  15276     1
  15270  15278     1
  15274  15275     1
  15275  15276     1
  15275  15286     1
  15276  15277     1
  15277  15278     1
  15277  15286     1
  15284  15286     1
  15287  15292     1
  15287  15299     1
  15287  15297     1
  15288  15293     1
  15288  15298     1
  15288  15307     1
  15291  15297     1
  15291  15309     1
  15291  15301     1
  15292  15300     1
  15293  15301     1
  15293  15299     1
  15297  15298     1
  15298  15309     1
  15298  15299     1
  15299  15300     1
  15300  15301     1
  15300  15309     1
  15307  15309     1
  15310  15315     1
  15310  15322     1
  15310  15320     1
  15311  15330     1
  15311  15316     1
  15311  15321     1
  15314  15324     1
  15314  15332     1
  15314  15320     1
  15315  15323     1
  15316  15322     1
  15316  15324     1
  15320  15321     1
  15321  15322     1
  15321  15332     1
  15322  15323     1
  15323  15324     1
  15323  15332     1
  15330  15332     1
  15333  15338     1
  15333  15345     1
  15333  15343     1
  15334  15339     1
  15334  15344     1
  15334  15353     1
  15337  15343     1
  15337  15355     1
  15337  15347     1
  15338  15346     1
  15339  15347     1
  15339  15345     1
  15343  15344     1
  15344  15355     1
  15344  15345     1
  15345  15346     1
  15346  15347     1
  15346  15355     1
  15353  15355     1
  15356  15361     1
  15356  15368     1
  15356  15366     1
  15357  15376     1
  15357  15362     1
  15357  15367     1
  15360  15370     1
  15360  15378     1
  15360  15366     1
  15361  15369     1
  15362  15368     1
  15362  15370     1
  15366  15367     1
  15367  15368     1
  15367  15378     1
  15368  15369     1
  15369  15370     1
  15369  15378     1
  15376  15378     1
  15379  15384     1
  15379  15391     1
  15379  15389     1
  15380  15385     1
  15380  15390     1
  15380  15399     1
  15383  15389     1
  15383  15401     1
  15383  15393     1
  15384  15392     1
  15385  15393     1
  15385  15391     1
  15389  15390     1
  15390  15401     1
  15390  15391     1
  15391  15392     1
  15392  15393     1
  15392  15401     1
  15399  15401     1
  15402  15407     1
  15402  15414     1
  15402  15412     1
  15403  15422     1
  15403  15408     1
  15403  15413     1
  15406  15416     1
  15406  15424     1
  15406  15412     1
  15407  15415     1
  15408  15414     1
  15408  15416     1
  15412  15413     1
  15413  15414     1
  15413  15424     1
  15414  15415     1
  15415  15416     1
  15415  15424     1
  15422  15424     1
  15425  15430     1
  15425  15437     1
  15425  15435     1
  15426  15431     1
  15426  15436     1
  15426  15445     1
  15429  15435     1
  15429  15447     1
  15429  15439     1
  15430  15438     1
  15431  15439     1
  15431  15437     1
  15435  15436     1
  15436  15447     1
  15436  15437     1
  15437  15438     1
  15438  15439     1
  15438  15447     1
  15445  15447     1
  15448  15453     1
  15448  15460     1
  15448  15458     1
  15449  15468     1
  15449  15454     1
  15449  15459     1
  15452  15462     1
  15452  15470     1
  15452  15458     1
  15453  15461     1
  15454  15460     1
  15454  15462     1
  15458  15459     1
  15459  15460     1
  15459  15470     1
  15460  15461     1
  15461  15462     1
  15461  15470     1
  15468  15470     1
  15471  15476     1
  15471  15483     1
  15471  15481     1
  15472  15477     1
  15472  15482     1
  15472  15491     1
  15475  15481     1
  15475  15493     1
  15475  15485     1
  15476  15484     1
  15477  15485     1
  15477  15483     1
  15481  15482     1
  15482  15493     1
  15482  15483     1
  15483  15484     1
  15484  15485     1
  15484  15493     1
  15491  15493     1
  15494  15499     1
  15494  15506     1
  15494  15504     1
  15495  15514     1
  15495  15500     1
  15495  15505     1
  15498  15508     1
  15498  15516     1
  15498  15504     1
  15499  15507     1
  15500  15506     1
  15500  15508     1
  15504  15505     1
  15505  15506     1
  15505  15516     1
  15506  15507     1
  15507  15508     1
  15507  15516     1
  15514  15516     1
  15517  15522     1
  15517  15529     1
  15517  15527     1
  15518  15523     1
  15518  15528     1
  15518  15537     1
  15521  15527     1
  15521  15539     1
  15521  15531     1
  15522  15530     1
  15523  15531     1
  15523  15529     1
  15527  15528     1
  15528  15539     1
  15528  15529     1
  15529  15530     1
  15530  15531     1
  15530  15539     1
  15537  15539     1
  15540  15545     1
  15540  15552     1
  15540  15550     1
  15541  15560     1
  15541  15546     1
  15541  15551     1
  15544  15554     1
  15544  15562     1
  15544  15550     1
  15545  15553     1
  15546  15552     1
  15546  15554     1
  15550  15551     1
  15551  15552     1
  15551  15562     1
  15552  15553     1
  15553  15554     1
  15553  15562     1
  15560  15562     1
  15563  15568     1
  15563  15575     1
  15563  15573     1
  15564  15569     1
  15564  15574     1
  15564  15583     1
  15567  15573     1
  15567  15585     1
  15567  15577     1
  15568  15576     1
  15569  15577     1
  15569  15575     1
  15573  15574     1
  15574  15585     1
  15574  15575     1
  15575  15576     1
  15576  15577     1
  15576  15585     1
  15583  15585     1
  15586  15591     1
  15586  15598     1
  15586  15596     1
  15587  15606     1
  15587  15592     1
  15587  15597     1
  15590  15600     1
  15590  15608     1
  15590  15596     1
  15591  15599     1
  15592  15598     1
  15592  15600     1
  15596  15597     1
  15597  15598     1
  15597  15608     1
  15598  15599     1
  15599  15600     1
  15599  15608     1
  15606  15608     1
  15609  15614     1
  15609  15621     1
  15609  15619     1
  15610  15615     1
  15610  15620     1
  15610  15629     1
  15613  15619     1
  15613  15631     1
  15613  15623     1
  15614  15622     1
  15615  15623     1
  15615  15621     1
  15619  15620     1
  15620  15631     1
  15620  15621     1
  15621  15622     1
  15622  15623     1
  15622  15631     1
  15629  15631     1
  15632  15637     1
  15632  15644     1
  15632  15642     1
  15633  15652     1
  15633  15638     1
  15633  15643     1
  15636  15646     1
  15636  15654     1
  15636  15642     1
  15637  15645     1
  15638  15644     1
  15638  15646     1
  15642  15643     1
  15643  15644     1
  15643  15654     1
  15644  15645     1
  15645  15646     1
  15645  15654     1
  15652  15654     1
  15655  15660     1
  15655  15667     1
  15655  15665     1
  15656  15661     1
  15656  15666     1
  15656  15675     1
  15659  15665     1
  15659  15677     1
  15659  15669     1
  15660  15668     1
  15661  15669     1
  15661  15667     1
  15665  15666     1
  15666  15677     1
  15666  15667     1
  15667  15668     1
  15668  15669     1
  15668  15677     1
  15675  15677     1
  15678  15683     1
  15678  15690     1
  15678  15688     1
  15679  15698     1
  15679  15684     1
  15679  15689     1
  15682  15692     1
  15682  15700     1
  15682  15688     1
  15683  15691     1
  15684  15690     1
  15684  15692     1
  15688  15689     1
  15689  15690     1
  15689  15700     1
  15690  15691     1
  15691  15692     1
  15691  15700     1
  15698  15700     1
  15701  15706     1
  15701  15713     1
  15701  15711     1
  15702  15707     1
  15702  15712     1
  15702  15721     1
  15705  15711     1
  15705  15723     1
  15705  15715     1
  15706  15714     1
  15707  15715     1
  15707  15713     1
  15711  15712     1
  15712  15723     1
  15712  15713     1
  15713  15714     1
  15714  15715     1
  15714  15723     1
  15721  15723     1
  15724  15729     1
  15724  15736     1
  15724  15734     1
  15725  15744     1
  15725  15730     1
  15725  15735     1
  15728  15738     1
  15728  15746     1
  15728  15734     1
  15729  15737     1
  15730  15736     1
  15730  15738     1
  15734  15735     1
  15735  15736     1
  15735  15746     1
  15736  15737     1
  15737  15738     1
  15737  15746     1
  15744  15746     1
  15747  15752     1
  15747  15759     1
  15747  15757     1
  15748  15753     1
  15748  15758     1
  15748  15767     1
  15751  15757     1
  15751  15769     1
  15751  15761     1
  15752  15760     1
  15753  15761     1
  15753  15759     1
  15757  15758     1
  15758  15769     1
  15758  15759     1
  15759  15760     1
  15760  15761     1
  15760  15769     1
  15767  15769     1
  15770  15775     1
  15770  15782     1
  15770  15780     1
  15771  15790     1
  15771  15776     1
  15771  15781     1
  15774  15784     1
  15774  15792     1
  15774  15780     1
  15775  15783     1
  15776  15782     1
  15776  15784     1
  15780  15781     1
  15781  15782     1
  15781  15792     1
  15782  15783     1
  15783  15784     1
  15783  15792     1
  15790  15792     1
  15793  15798     1
  15793  15805     1
  15793  15803     1
  15794  15799     1
  15794  15804     1
  15794  15813     1
  15797  15803     1
  15797  15815     1
  15797  15807     1
  15798  15806     1
  15799  15807     1
  15799  15805     1
  15803  15804     1
  15804  15815     1
  15804  15805     1
  15805  15806     1
  15806  15807     1
  15806  15815     1
  15813  15815     1
  15816  15821     1
  15816  15828     1
  15816  15826     1
  15817  15836     1
  15817  15822     1
  15817  15827     1
  15820  15830     1
  15820  15838     1
  15820  15826     1
  15821  15829     1
  15822  15828     1
  15822  15830     1
  15826  15827     1
  15827  15828     1
  15827  15838     1
  15828  15829     1
  15829  15830     1
  15829  15838     1
  15836  15838     1
  15839  15844     1
  15839  15851     1
  15839  15849     1
  15840  15845     1
  15840  15850     1
  15840  15859     1
  15843  15849     1
  15843  15861     1
  15843  15853     1
  15844  15852     1
  15845  15853     1
  15845  15851     1
  15849  15850     1
  15850  15861     1
  15850  15851     1
  15851  15852     1
  15852  15853     1
  15852  15861     1
  15859  15861     1
  15862  15867     1
  15862  15874     1
  15862  15872     1
  15863  15882     1
  15863  15868     1
  15863  15873     1
  15866  15876     1
  15866  15884     1
  15866  15872     1
  15867  15875     1
  15868  15874     1
  15868  15876     1
  15872  15873     1
  15873  15874     1
  15873  15884     1
  15874  15875     1
  15875  15876     1
  15875  15884     1
  15882  15884     1
  15885  15890     1
  15885  15897     1
  15885  15895     1
  15886  15891     1
  15886  15896     1
  15886  15905     1
  15889  15895     1
  15889  15907     1
  15889  15899     1
  15890  15898     1
  15891  15899     1
  15891  15897     1
  15895  15896     1
  15896  15907     1
  15896  15897     1
  15897  15898     1
  15898  15899     1
  15898  15907     1
  15905  15907     1
  15908  15913     1
  15908  15920     1
  15908  15918     1
  15909  15928     1
  15909  15914     1
  15909  15919     1
  15912  15922     1
  15912  15930     1
  15912  15918     1
  15913  15921     1
  15914  15920     1
  15914  15922     1
  15918  15919     1
  15919  15920     1
  15919  15930     1
  15920  15921     1
  15921  15922     1
  15921  15930     1
  15928  15930     1
  15931  15936     1
  15931  15943     1
  15931  15941     1
  15932  15937     1
  15932  15942     1
  15932  15951     1
  15935  15941     1
  15935  15953     1
  15935  15945     1
  15936  15944     1
  15937  15945     1
  15937  15943     1
  15941  15942     1
  15942  15953     1
  15942  15943     1
  15943  15944     1
  15944  15945     1
  15944  15953     1
  15951  15953     1
  15954  15959     1
  15954  15966     1
  15954  15964     1
  15955  15974     1
  15955  15960     1
  15955  15965     1
  15958  15968     1
  15958  15976     1
  15958  15964     1
  15959  15967     1
  15960  15966     1
  15960  15968     1
  15964  15965     1
  15965  15966     1
  15965  15976     1
  15966  15967     1
  15967  15968     1
  15967  15976     1
  15974  15976     1
  15977  15982     1
  15977  15989     1
  15977  15987     1
  15978  15983     1
  15978  15988     1
  15978  15997     1
  15981  15987     1
  15981  15999     1
  15981  15991     1
  15982  15990     1
  15983  15991     1
  15983  15989     1
  15987  15988     1
  15988  15999     1
  15988  15989     1
  15989  15990     1
  15990  15991     1
  15990  15999     1
  15997  15999     1
  16000  16005     1
  16000  16012     1
  16000  16010     1
  16001  16020     1
  16001  16006     1
  16001  16011     1
  16004  16014     1
  16004  16022     1
  16004  16010     1
  16005  16013     1
  16006  16012     1
  16006  16014     1
  16010  16011     1
  16011  16012     1
  16011  16022     1
  16012  16013     1
  16013  16014     1
  16013  16022     1
  16020  16022     1
  16023  16028     1
  16023  16035     1
  16023  16033     1
  16024  16029     1
  16024  16034     1
  16024  16043     1
  16027  16033     1
  16027  16045     1
  16027  16037     1
  16028  16036     1
  16029  16037     1
  16029  16035     1
  16033  16034     1
  16034  16045     1
  16034  16035     1
  16035  16036     1
  16036  16037     1
  16036  16045     1
  16043  16045     1
  16046  16051     1
  16046  16058     1
  16046  16056     1
  16047  16066     1
  16047  16052     1
  16047  16057     1
  16050  16060     1
  16050  16068     1
  16050  16056     1
  16051  16059     1
  16052  16058     1
  16052  16060     1
  16056  16057     1
  16057  16058     1
  16057  16068     1
  16058  16059     1
  16059  16060     1
  16059  16068     1
  16066  16068     1
  16069  16074     1
  16069  16081     1
  16069  16079     1
  16070  16075     1
  16070  16080     1
  16070  16089     1
  16073  16079     1
  16073  16091     1
  16073  16083     1
  16074  16082     1
  16075  16083     1
  16075  16081     1
  16079  16080     1
  16080  16091     1
  16080  16081     1
  16081  16082     1
  16082  16083     1
  16082  16091     1
  16089  16091     1
  16092  16097     1
  16092  16104     1
  16092  16102     1
  16093  16112     1
  16093  16098     1
  16093  16103     1
  16096  16106     1
  16096  16114     1
  16096  16102     1
  16097  16105     1
  16098  16104     1
  16098  16106     1
  16102  16103     1
  16103  16104     1
  16103  16114     1
  16104  16105     1
  16105  16106     1
  16105  16114     1
  16112  16114     1
  16115  16120     1
  16115  16127     1
  16115  16125     1
  16116  16121     1
  16116  16126     1
  16116  16135     1
  16119  16125     1
  16119  16137     1
  16119  16129     1
  16120  16128     1
  16121  16129     1
  16121  16127     1
  16125  16126     1
  16126  16137     1
  16126  16127     1
  16127  16128     1
  16128  16129     1
  16128  16137     1
  16135  16137     1
  16138  16143     1
  16138  16150     1
  16138  16148     1
  16139  16158     1
  16139  16144     1
  16139  16149     1
  16142  16152     1
  16142  16160     1
  16142  16148     1
  16143  16151     1
  16144  16150     1
  16144  16152     1
  16148  16149     1
  16149  16150     1
  16149  16160     1
  16150  16151     1
  16151  16152     1
  16151  16160     1
  16158  16160     1
  16161  16166     1
  16161  16173     1
  16161  16171     1
  16162  16167     1
  16162  16172     1
  16162  16181     1
  16165  16171     1
  16165  16183     1
  16165  16175     1
  16166  16174     1
  16167  16175     1
  16167  16173     1
  16171  16172     1
  16172  16183     1
  16172  16173     1
  16173  16174     1
  16174  16175     1
  16174  16183     1
  16181  16183     1
  16184  16189     1
  16184  16196     1
  16184  16194     1
  16185  16204     1
  16185  16190     1
  16185  16195     1
  16188  16198     1
  16188  16206     1
  16188  16194     1
  16189  16197     1
  16190  16196     1
  16190  16198     1
  16194  16195     1
  16195  16196     1
  16195  16206     1
  16196  16197     1
  16197  16198     1
  16197  16206     1
  16204  16206     1
  16207  16212     1
  16207  16219     1
  16207  16217     1
  16208  16213     1
  16208  16218     1
  16208  16227     1
  16211  16217     1
  16211  16229     1
  16211  16221     1
  16212  16220     1
  16213  16221     1
  16213  16219     1
  16217  16218     1
  16218  16229     1
  16218  16219     1
  16219  16220     1
  16220  16221     1
  16220  16229     1
  16227  16229     1
  16230  16235     1
  16230  16242     1
  16230  16240     1
  16231  16250     1
  16231  16236     1
  16231  16241     1
  16234  16244     1
  16234  16252     1
  16234  16240     1
  16235  16243     1
  16236  16242     1
  16236  16244     1
  16240  16241     1
  16241  16242     1
  16241  16252     1
  16242  16243     1
  16243  16244     1
  16243  16252     1
  16250  16252     1
  16253  16258     1
  16253  16265     1
  16253  16263     1
  16254  16259     1
  16254  16264     1
  16254  16273     1
  16257  16263     1
  16257  16275     1
  16257  16267     1
  16258  16266     1
  16259  16267     1
  16259  16265     1
  16263  16264     1
  16264  16275     1
  16264  16265     1
  16265  16266     1
  16266  16267     1
  16266  16275     1
  16273  16275     1
  16276  16281     1
  16276  16288     1
  16276  16286     1
  16277  16296     1
  16277  16282     1
  16277  16287     1
  16280  16290     1
  16280  16298     1
  16280  16286     1
  16281  16289     1
  16282  16288     1
  16282  16290     1
  16286  16287     1
  16287  16288     1
  16287  16298     1
  16288  16289     1
  16289  16290     1
  16289  16298     1
  16296  16298     1
  16299  16304     1
  16299  16311     1
  16299  16309     1
  16300  16305     1
  16300  16310     1
  16300  16319     1
  16303  16309     1
  16303  16321     1
  16303  16313     1
  16304  16312     1
  16305  16313     1
  16305  16311     1
  16309  16310     1
  16310  16321     1
  16310  16311     1
  16311  16312     1
  16312  16313     1
  16312  16321     1
  16319  16321     1
  16322  16327     1
  16322  16334     1
  16322  16332     1
  16323  16342     1
  16323  16328     1
  16323  16333     1
  16326  16336     1
  16326  16344     1
  16326  16332     1
  16327  16335     1
  16328  16334     1
  16328  16336     1
  16332  16333     1
  16333  16334     1
  16333  16344     1
  16334  16335     1
  16335  16336     1
  16335  16344     1
  16342  16344     1
  16345  16350     1
  16345  16357     1
  16345  16355     1
  16346  16351     1
  16346  16356     1
  16346  16365     1
  16349  16355     1
  16349  16367     1
  16349  16359     1
  16350  16358     1
  16351  16359     1
  16351  16357     1
  16355  16356     1
  16356  16367     1
  16356  16357     1
  16357  16358     1
  16358  16359     1
  16358  16367     1
  16365  16367     1
  16368  16373     1
  16368  16380     1
  16368  16378     1
  16369  16388     1
  16369  16374     1
  16369  16379     1
  16372  16382     1
  16372  16390     1
  16372  16378     1
  16373  16381     1
  16374  16380     1
  16374  16382     1
  16378  16379     1
  16379  16380     1
  16379  16390     1
  16380  16381     1
  16381  16382     1
  16381  16390     1
  16388  16390     1
  16391  16396     1
  16391  16403     1
  16391  16401     1
  16392  16397     1
  16392  16402     1
  16392  16411     1
  16395  16401     1
  16395  16413     1
  16395  16405     1
  16396  16404     1
  16397  16405     1
  16397  16403     1
  16401  16402     1
  16402  16413     1
  16402  16403     1
  16403  16404     1
  16404  16405     1
  16404  16413     1
  16411  16413     1
  16414  16419     1
  16414  16426     1
  16414  16424     1
  16415  16434     1
  16415  16420     1
  16415  16425     1
  16418  16428     1
  16418  16436     1
  16418  16424     1
  16419  16427     1
  16420  16426     1
  16420  16428     1
  16424  16425     1
  16425  16426     1
  16425  16436     1
  16426  16427     1
  16427  16428     1
  16427  16436     1
  16434  16436     1
  16437  16442     1
  16437  16449     1
  16437  16447     1
  16438  16443     1
  16438  16448     1
  16438  16457     1
  16441  16447     1
  16441  16459     1
  16441  16451     1
  16442  16450     1
  16443  16451     1
  16443  16449     1
  16447  16448     1
  16448  16459     1
  16448  16449     1
  16449  16450     1
  16450  16451     1
  16450  16459     1
  16457  16459     1
  16460  16465     1
  16460  16472     1
  16460  16470     1
  16461  16480     1
  16461  16466     1
  16461  16471     1
  16464  16474     1
  16464  16482     1
  16464  16470     1
  16465  16473     1
  16466  16472     1
  16466  16474     1
  16470  16471     1
  16471  16472     1
  16471  16482     1
  16472  16473     1
  16473  16474     1
  16473  16482     1
  16480  16482     1
  16483  16488     1
  16483  16495     1
  16483  16493     1
  16484  16489     1
  16484  16494     1
  16484  16503     1
  16487  16493     1
  16487  16505     1
  16487  16497     1
  16488  16496     1
  16489  16497     1
  16489  16495     1
  16493  16494     1
  16494  16505     1
  16494  16495     1
  16495  16496     1
  16496  16497     1
  16496  16505     1
  16503  16505     1
  16506  16511     1
  16506  16518     1
  16506  16516     1
  16507  16526     1
  16507  16512     1
  16507  16517     1
  16510  16520     1
  16510  16528     1
  16510  16516     1
  16511  16519     1
  16512  16518     1
  16512  16520     1
  16516  16517     1
  16517  16518     1
  16517  16528     1
  16518  16519     1
  16519  16520     1
  16519  16528     1
  16526  16528     1
  16529  16534     1
  16529  16541     1
  16529  16539     1
  16530  16535     1
  16530  16540     1
  16530  16549     1
  16533  16539     1
  16533  16551     1
  16533  16543     1
  16534  16542     1
  16535  16543     1
  16535  16541     1
  16539  16540     1
  16540  16551     1
  16540  16541     1
  16541  16542     1
  16542  16543     1
  16542  16551     1
  16549  16551     1
  16552  16557     1
  16552  16564     1
  16552  16562     1
  16553  16572     1
  16553  16558     1
  16553  16563     1
  16556  16566     1
  16556  16574     1
  16556  16562     1
  16557  16565     1
  16558  16564     1
  16558  16566     1
  16562  16563     1
  16563  16564     1
  16563  16574     1
  16564  16565     1
  16565  16566     1
  16565  16574     1
  16572  16574     1
  16575  16580     1
  16575  16587     1
  16575  16585     1
  16576  16581     1
  16576  16586     1
  16576  16595     1
  16579  16585     1
  16579  16597     1
  16579  16589     1
  16580  16588     1
  16581  16589     1
  16581  16587     1
  16585  16586     1
  16586  16597     1
  16586  16587     1
  16587  16588     1
  16588  16589     1
  16588  16597     1
  16595  16597     1
  16598  16603     1
  16598  16610     1
  16598  16608     1
  16599  16618     1
  16599  16604     1
  16599  16609     1
  16602  16612     1
  16602  16620     1
  16602  16608     1
  16603  16611     1
  16604  16610     1
  16604  16612     1
  16608  16609     1
  16609  16610     1
  16609  16620     1
  16610  16611     1
  16611  16612     1
  16611  16620     1
  16618  16620     1
  16621  16626     1
  16621  16633     1
  16621  16631     1
  16622  16627     1
  16622  16632     1
  16622  16641     1
  16625  16631     1
  16625  16643     1
  16625  16635     1
  16626  16634     1
  16627  16635     1
  16627  16633     1
  16631  16632     1
  16632  16643     1
  16632  16633     1
  16633  16634     1
  16634  16635     1
  16634  16643     1
  16641  16643     1
  16644  16649     1
  16644  16656     1
  16644  16654     1
  16645  16664     1
  16645  16650     1
  16645  16655     1
  16648  16658     1
  16648  16666     1
  16648  16654     1
  16649  16657     1
  16650  16656     1
  16650  16658     1
  16654  16655     1
  16655  16656     1
  16655  16666     1
  16656  16657     1
  16657  16658     1
  16657  16666     1
  16664  16666     1
  16667  16672     1
  16667  16679     1
  16667  16677     1
  16668  16673     1
  16668  16678     1
  16668  16687     1
  16671  16677     1
  16671  16689     1
  16671  16681     1
  16672  16680     1
  16673  16681     1
  16673  16679     1
  16677  16678     1
  16678  16689     1
  16678  16679     1
  16679  16680     1
  16680  16681     1
  16680  16689     1
  16687  16689     1
  16690  16695     1
  16690  16702     1
  16690  16700     1
  16691  16710     1
  16691  16696     1
  16691  16701     1
  16694  16704     1
  16694  16712     1
  16694  16700     1
  16695  16703     1
  16696  16702     1
  16696  16704     1
  16700  16701     1
  16701  16702     1
  16701  16712     1
  16702  16703     1
  16703  16704     1
  16703  16712     1
  16710  16712     1
  16713  16718     1
  16713  16725     1
  16713  16723     1
  16714  16719     1
  16714  16724     1
  16714  16733     1
  16717  16723     1
  16717  16735     1
  16717  16727     1
  16718  16726     1
  16719  16727     1
  16719  16725     1
  16723  16724     1
  16724  16735     1
  16724  16725     1
  16725  16726     1
  16726  16727     1
  16726  16735     1
  16733  16735     1
  16736  16741     1
  16736  16748     1
  16736  16746     1
  16737  16756     1
  16737  16742     1
  16737  16747     1
  16740  16750     1
  16740  16758     1
  16740  16746     1
  16741  16749     1
  16742  16748     1
  16742  16750     1
  16746  16747     1
  16747  16748     1
  16747  16758     1
  16748  16749     1
  16749  16750     1
  16749  16758     1
  16756  16758     1
  16759  16764     1
  16759  16771     1
  16759  16769     1
  16760  16765     1
  16760  16770     1
  16760  16779     1
  16763  16769     1
  16763  16781     1
  16763  16773     1
  16764  16772     1
  16765  16773     1
  16765  16771     1
  16769  16770     1
  16770  16781     1
  16770  16771     1
  16771  16772     1
  16772  16773     1
  16772  16781     1
  16779  16781     1
  16782  16787     1
  16782  16794     1
  16782  16792     1
  16783  16802     1
  16783  16788     1
  16783  16793     1
  16786  16796     1
  16786  16804     1
  16786  16792     1
  16787  16795     1
  16788  16794     1
  16788  16796     1
  16792  16793     1
  16793  16794     1
  16793  16804     1
  16794  16795     1
  16795  16796     1
  16795  16804     1
  16802  16804     1
  16805  16810     1
  16805  16817     1
  16805  16815     1
  16806  16811     1
  16806  16816     1
  16806  16825     1
  16809  16815     1
  16809  16827     1
  16809  16819     1
  16810  16818     1
  16811  16819     1
  16811  16817     1
  16815  16816     1
  16816  16827     1
  16816  16817     1
  16817  16818     1
  16818  16819     1
  16818  16827     1
  16825  16827     1
  16828  16833     1
  16828  16840     1
  16828  16838     1
  16829  16848     1
  16829  16834     1
  16829  16839     1
  16832  16842     1
  16832  16850     1
  16832  16838     1
  16833  16841     1
  16834  16840     1
  16834  16842     1
  16838  16839     1
  16839  16840     1
  16839  16850     1
  16840  16841     1
  16841  16842     1
  16841  16850     1
  16848  16850     1
  16851  16856     1
  16851  16863     1
  16851  16861     1
  16852  16857     1
  16852  16862     1
  16852  16871     1
  16855  16861     1
  16855  16873     1
  16855  16865     1
  16856  16864     1
  16857  16865     1
  16857  16863     1
  16861  16862     1
  16862  16873     1
  16862  16863     1
  16863  16864     1
  16864  16865     1
  16864  16873     1
  16871  16873     1
  16874  16879     1
  16874  16886     1
  16874  16884     1
  16875  16894     1
  16875  16880     1
  16875  16885     1
  16878  16888     1
  16878  16896     1
  16878  16884     1
  16879  16887     1
  16880  16886     1
  16880  16888     1
  16884  16885     1
  16885  16886     1
  16885  16896     1
  16886  16887     1
  16887  16888     1
  16887  16896     1
  16894  16896     1
  16897  16902     1
  16897  16909     1
  16897  16907     1
  16898  16903     1
  16898  16908     1
  16898  16917     1
  16901  16907     1
  16901  16919     1
  16901  16911     1
  16902  16910     1
  16903  16911     1
  16903  16909     1
  16907  16908     1
  16908  16919     1
  16908  16909     1
  16909  16910     1
  16910  16911     1
  16910  16919     1
  16917  16919     1
  16920  16925     1
  16920  16932     1
  16920  16930     1
  16921  16940     1
  16921  16926     1
  16921  16931     1
  16924  16934     1
  16924  16942     1
  16924  16930     1
  16925  16933     1
  16926  16932     1
  16926  16934     1
  16930  16931     1
  16931  16932     1
  16931  16942     1
  16932  16933     1
  16933  16934     1
  16933  16942     1
  16940  16942     1
  16943  16948     1
  16943  16955     1
  16943  16953     1
  16944  16949     1
  16944  16954     1
  16944  16963     1
  16947  16953     1
  16947  16965     1
  16947  16957     1
  16948  16956     1
  16949  16957     1
  16949  16955     1
  16953  16954     1
  16954  16965     1
  16954  16955     1
  16955  16956     1
  16956  16957     1
  16956  16965     1
  16963  16965     1
  16966  16971     1
  16966  16978     1
  16966  16976     1
  16967  16986     1
  16967  16972     1
  16967  16977     1
  16970  16980     1
  16970  16988     1
  16970  16976     1
  16971  16979     1
  16972  16978     1
  16972  16980     1
  16976  16977     1
  16977  16978     1
  16977  16988     1
  16978  16979     1
  16979  16980     1
  16979  16988     1
  16986  16988     1
  16989  16994     1
  16989  17001     1
  16989  16999     1
  16990  16995     1
  16990  17000     1
  16990  17009     1
  16993  16999     1
  16993  17011     1
  16993  17003     1
  16994  17002     1
  16995  17003     1
  16995  17001     1
  16999  17000     1
  17000  17011     1
  17000  17001     1
  17001  17002     1
  17002  17003     1
  17002  17011     1
  17009  17011     1
  17012  17017     1
  17012  17024     1
  17012  17022     1
  17013  17032     1
  17013  17018     1
  17013  17023     1
  17016  17026     1
  17016  17034     1
  17016  17022     1
  17017  17025     1
  17018  17024     1
  17018  17026     1
  17022  17023     1
  17023  17024     1
  17023  17034     1
  17024  17025     1
  17025  17026     1
  17025  17034     1
  17032  17034     1
  17035  17040     1
  17035  17047     1
  17035  17045     1
  17036  17041     1
  17036  17046     1
  17036  17055     1
  17039  17045     1
  17039  17057     1
  17039  17049     1
  17040  17048     1
  17041  17049     1
  17041  17047     1
  17045  17046     1
  17046  17057     1
  17046  17047     1
  17047  17048     1
  17048  17049     1
  17048  17057     1
  17055  17057     1
  17058  17063     1
  17058  17070     1
  17058  17068     1
  17059  17078     1
  17059  17064     1
  17059  17069     1
  17062  17072     1
  17062  17080     1
  17062  17068     1
  17063  17071     1
  17064  17070     1
  17064  17072     1
  17068  17069     1
  17069  17070     1
  17069  17080     1
  17070  17071     1
  17071  17072     1
  17071  17080     1
  17078  17080     1
  17081  17086     1
  17081  17093     1
  17081  17091     1
  17082  17087     1
  17082  17092     1
  17082  17101     1
  17085  17091     1
  17085  17103     1
  17085  17095     1
  17086  17094     1
  17087  17095     1
  17087  17093     1
  17091  17092     1
  17092  17103     1
  17092  17093     1
  17093  17094     1
  17094  17095     1
  17094  17103     1
  17101  17103     1
  17104  17109     1
  17104  17116     1
  17104  17114     1
  17105  17124     1
  17105  17110     1
  17105  17115     1
  17108  17118     1
  17108  17126     1
  17108  17114     1
  17109  17117     1
  17110  17116     1
  17110  17118     1
  17114  17115     1
  17115  17116     1
  17115  17126     1
  17116  17117     1
  17117  17118     1
  17117  17126     1
  17124  17126     1
  17127  17132     1
  17127  17139     1
  17127  17137     1
  17128  17133     1
  17128  17138     1
  17128  17147     1
  17131  17137     1
  17131  17149     1
  17131  17141     1
  17132  17140     1
  17133  17141     1
  17133  17139     1
  17137  17138     1
  17138  17149     1
  17138  17139     1
  17139  17140     1
  17140  17141     1
  17140  17149     1
  17147  17149     1
  17150  17155     1
  17150  17162     1
  17150  17160     1
  17151  17170     1
  17151  17156     1
  17151  17161     1
  17154  17164     1
  17154  17172     1
  17154  17160     1
  17155  17163     1
  17156  17162     1
  17156  17164     1
  17160  17161     1
  17161  17162     1
  17161  17172     1
  17162  17163     1
  17163  17164     1
  17163  17172     1
  17170  17172     1
  17173  17178     1
  17173  17185     1
  17173  17183     1
  17174  17179     1
  17174  17184     1
  17174  17193     1
  17177  17183     1
  17177  17195     1
  17177  17187     1
  17178  17186     1
  17179  17187     1
  17179  17185     1
  17183  17184     1
  17184  17195     1
  17184  17185     1
  17185  17186     1
  17186  17187     1
  17186  17195     1
  17193  17195     1
  17196  17201     1
  17196  17208     1
  17196  17206     1
  17197  17216     1
  17197  17202     1
  17197  17207     1
  17200  17210     1
  17200  17218     1
  17200  17206     1
  17201  17209     1
  17202  17208     1
  17202  17210     1
  17206  17207     1
  17207  17208     1
  17207  17218     1
  17208  17209     1
  17209  17210     1
  17209  17218     1
  17216  17218     1
  17219  17224     1
  17219  17231     1
  17219  17229     1
  17220  17225     1
  17220  17230     1
  17220  17239     1
  17223  17229     1
  17223  17241     1
  17223  17233     1
  17224  17232     1
  17225  17233     1
  17225  17231     1
  17229  17230     1
  17230  17241     1
  17230  17231     1
  17231  17232     1
  17232  17233     1
  17232  17241     1
  17239  17241     1
  17242  17247     1
  17242  17254     1
  17242  17252     1
  17243  17262     1
  17243  17248     1
  17243  17253     1
  17246  17256     1
  17246  17264     1
  17246  17252     1
  17247  17255     1
  17248  17254     1
  17248  17256     1
  17252  17253     1
  17253  17254     1
  17253  17264     1
  17254  17255     1
  17255  17256     1
  17255  17264     1
  17262  17264     1
  17265  17270     1
  17265  17277     1
  17265  17275     1
  17266  17271     1
  17266  17276     1
  17266  17285     1
  17269  17275     1
  17269  17287     1
  17269  17279     1
  17270  17278     1
  17271  17279     1
  17271  17277     1
  17275  17276     1
  17276  17287     1
  17276  17277     1
  17277  17278     1
  17278  17279     1
  17278  17287     1
  17285  17287     1
  17288  17293     1
  17288  17300     1
  17288  17298     1
  17289  17308     1
  17289  17294     1
  17289  17299     1
  17292  17302     1
  17292  17310     1
  17292  17298     1
  17293  17301     1
  17294  17300     1
  17294  17302     1
  17298  17299     1
  17299  17300     1
  17299  17310     1
  17300  17301     1
  17301  17302     1
  17301  17310     1
  17308  17310     1
  17311  17316     1
  17311  17323     1
  17311  17321     1
  17312  17317     1
  17312  17322     1
  17312  17331     1
  17315  17321     1
  17315  17333     1
  17315  17325     1
  17316  17324     1
  17317  17325     1
  17317  17323     1
  17321  17322     1
  17322  17333     1
  17322  17323     1
  17323  17324     1
  17324  17325     1
  17324  17333     1
  17331  17333     1
  17334  17339     1
  17334  17346     1
  17334  17344     1
  17335  17354     1
  17335  17340     1
  17335  17345     1
  17338  17348     1
  17338  17356     1
  17338  17344     1
  17339  17347     1
  17340  17346     1
  17340  17348     1
  17344  17345     1
  17345  17346     1
  17345  17356     1
  17346  17347     1
  17347  17348     1
  17347  17356     1
  17354  17356     1
  17357  17362     1
  17357  17369     1
  17357  17367     1
  17358  17363     1
  17358  17368     1
  17358  17377     1
  17361  17367     1
  17361  17379     1
  17361  17371     1
  17362  17370     1
  17363  17371     1
  17363  17369     1
  17367  17368     1
  17368  17379     1
  17368  17369     1
  17369  17370     1
  17370  17371     1
  17370  17379     1
  17377  17379     1
  17380  17385     1
  17380  17392     1
  17380  17390     1
  17381  17400     1
  17381  17386     1
  17381  17391     1
  17384  17394     1
  17384  17402     1
  17384  17390     1
  17385  17393     1
  17386  17392     1
  17386  17394     1
  17390  17391     1
  17391  17392     1
  17391  17402     1
  17392  17393     1
  17393  17394     1
  17393  17402     1
  17400  17402     1
  17403  17408     1
  17403  17415     1
  17403  17413     1
  17404  17409     1
  17404  17414     1
  17404  17423     1
  17407  17413     1
  17407  17425     1
  17407  17417     1
  17408  17416     1
  17409  17417     1
  17409  17415     1
  17413  17414     1
  17414  17425     1
  17414  17415     1
  17415  17416     1
  17416  17417     1
  17416  17425     1
  17423  17425     1
  17426  17431     1
  17426  17438     1
  17426  17436     1
  17427  17446     1
  17427  17432     1
  17427  17437     1
  17430  17440     1
  17430  17448     1
  17430  17436     1
  17431  17439     1
  17432  17438     1
  17432  17440     1
  17436  17437     1
  17437  17438     1
  17437  17448     1
  17438  17439     1
  17439  17440     1
  17439  17448     1
  17446  17448     1
  17449  17454     1
  17449  17461     1
  17449  17459     1
  17450  17455     1
  17450  17460     1
  17450  17469     1
  17453  17459     1
  17453  17471     1
  17453  17463     1
  17454  17462     1
  17455  17463     1
  17455  17461     1
  17459  17460     1
  17460  17471     1
  17460  17461     1
  17461  17462     1
  17462  17463     1
  17462  17471     1
  17469  17471     1
  17472  17477     1
  17472  17484     1
  17472  17482     1
  17473  17492     1
  17473  17478     1
  17473  17483     1
  17476  17486     1
  17476  17494     1
  17476  17482     1
  17477  17485     1
  17478  17484     1
  17478  17486     1
  17482  17483     1
  17483  17484     1
  17483  17494     1
  17484  17485     1
  17485  17486     1
  17485  17494     1
  17492  17494     1
  17495  17500     1
  17495  17507     1
  17495  17505     1
  17496  17501     1
  17496  17506     1
  17496  17515     1
  17499  17505     1
  17499  17517     1
  17499  17509     1
  17500  17508     1
  17501  17509     1
  17501  17507     1
  17505  17506     1
  17506  17517     1
  17506  17507     1
  17507  17508     1
  17508  17509     1
  17508  17517     1
  17515  17517     1
  17518  17523     1
  17518  17530     1
  17518  17528     1
  17519  17538     1
  17519  17524     1
  17519  17529     1
  17522  17532     1
  17522  17540     1
  17522  17528     1
  17523  17531     1
  17524  17530     1
  17524  17532     1
  17528  17529     1
  17529  17530     1
  17529  17540     1
  17530  17531     1
  17531  17532     1
  17531  17540     1
  17538  17540     1
  17541  17546     1
  17541  17553     1
  17541  17551     1
  17542  17547     1
  17542  17552     1
  17542  17561     1
  17545  17551     1
  17545  17563     1
  17545  17555     1
  17546  17554     1
  17547  17555     1
  17547  17553     1
  17551  17552     1
  17552  17563     1
  17552  17553     1
  17553  17554     1
  17554  17555     1
  17554  17563     1
  17561  17563     1
  17564  17569     1
  17564  17576     1
  17564  17574     1
  17565  17584     1
  17565  17570     1
  17565  17575     1
  17568  17578     1
  17568  17586     1
  17568  17574     1
  17569  17577     1
  17570  17576     1
  17570  17578     1
  17574  17575     1
  17575  17576     1
  17575  17586     1
  17576  17577     1
  17577  17578     1
  17577  17586     1
  17584  17586     1
  17587  17592     1
  17587  17599     1
  17587  17597     1
  17588  17593     1
  17588  17598     1
  17588  17607     1
  17591  17597     1
  17591  17609     1
  17591  17601     1
  17592  17600     1
  17593  17601     1
  17593  17599     1
  17597  17598     1
  17598  17609     1
  17598  17599     1
  17599  17600     1
  17600  17601     1
  17600  17609     1
  17607  17609     1
  17610  17615     1
  17610  17622     1
  17610  17620     1
  17611  17630     1
  17611  17616     1
  17611  17621     1
  17614  17624     1
  17614  17632     1
  17614  17620     1
  17615  17623     1
  17616  17622     1
  17616  17624     1
  17620  17621     1
  17621  17622     1
  17621  17632     1
  17622  17623     1
  17623  17624     1
  17623  17632     1
  17630  17632     1
  17633  17638     1
  17633  17645     1
  17633  17643     1
  17634  17639     1
  17634  17644     1
  17634  17653     1
  17637  17643     1
  17637  17655     1
  17637  17647     1
  17638  17646     1
  17639  17647     1
  17639  17645     1
  17643  17644     1
  17644  17655     1
  17644  17645     1
  17645  17646     1
  17646  17647     1
  17646  17655     1
  17653  17655     1
  17656  17661     1
  17656  17668     1
  17656  17666     1
  17657  17676     1
  17657  17662     1
  17657  17667     1
  17660  17670     1
  17660  17678     1
  17660  17666     1
  17661  17669     1
  17662  17668     1
  17662  17670     1
  17666  17667     1
  17667  17668     1
  17667  17678     1
  17668  17669     1
  17669  17670     1
  17669  17678     1
  17676  17678     1
  17679  17684     1
  17679  17691     1
  17679  17689     1
  17680  17685     1
  17680  17690     1
  17680  17699     1
  17683  17689     1
  17683  17701     1
  17683  17693     1
  17684  17692     1
  17685  17693     1
  17685  17691     1
  17689  17690     1
  17690  17701     1
  17690  17691     1
  17691  17692     1
  17692  17693     1
  17692  17701     1
  17699  17701     1
  17702  17707     1
  17702  17714     1
  17702  17712     1
  17703  17722     1
  17703  17708     1
  17703  17713     1
  17706  17716     1
  17706  17724     1
  17706  17712     1
  17707  17715     1
  17708  17714     1
  17708  17716     1
  17712  17713     1
  17713  17714     1
  17713  17724     1
  17714  17715     1
  17715  17716     1
  17715  17724     1
  17722  17724     1
  17725  17730     1
  17725  17737     1
  17725  17735     1
  17726  17731     1
  17726  17736     1
  17726  17745     1
  17729  17735     1
  17729  17747     1
  17729  17739     1
  17730  17738     1
  17731  17739     1
  17731  17737     1
  17735  17736     1
  17736  17747     1
  17736  17737     1
  17737  17738     1
  17738  17739     1
  17738  17747     1
  17745  17747     1
  17748  17753     1
  17748  17760     1
  17748  17758     1
  17749  17768     1
  17749  17754     1
  17749  17759     1
  17752  17762     1
  17752  17770     1
  17752  17758     1
  17753  17761     1
  17754  17760     1
  17754  17762     1
  17758  17759     1
  17759  17760     1
  17759  17770     1
  17760  17761     1
  17761  17762     1
  17761  17770     1
  17768  17770     1
  17771  17776     1
  17771  17783     1
  17771  17781     1
  17772  17777     1
  17772  17782     1
  17772  17791     1
  17775  17781     1
  17775  17793     1
  17775  17785     1
  17776  17784     1
  17777  17785     1
  17777  17783     1
  17781  17782     1
  17782  17793     1
  17782  17783     1
  17783  17784     1
  17784  17785     1
  17784  17793     1
  17791  17793     1
  17794  17799     1
  17794  17806     1
  17794  17804     1
  17795  17814     1
  17795  17800     1
  17795  17805     1
  17798  17808     1
  17798  17816     1
  17798  17804     1
  17799  17807     1
  17800  17806     1
  17800  17808     1
  17804  17805     1
  17805  17806     1
  17805  17816     1
  17806  17807     1
  17807  17808     1
  17807  17816     1
  17814  17816     1
  17817  17822     1
  17817  17829     1
  17817  17827     1
  17818  17823     1
  17818  17828     1
  17818  17837     1
  17821  17827     1
  17821  17839     1
  17821  17831     1
  17822  17830     1
  17823  17831     1
  17823  17829     1
  17827  17828     1
  17828  17839     1
  17828  17829     1
  17829  17830     1
  17830  17831     1
  17830  17839     1
  17837  17839     1
  17840  17845     1
  17840  17852     1
  17840  17850     1
  17841  17860     1
  17841  17846     1
  17841  17851     1
  17844  17854     1
  17844  17862     1
  17844  17850     1
  17845  17853     1
  17846  17852     1
  17846  17854     1
  17850  17851     1
  17851  17852     1
  17851  17862     1
  17852  17853     1
  17853  17854     1
  17853  17862     1
  17860  17862     1
  17863  17868     1
  17863  17875     1
  17863  17873     1
  17864  17869     1
  17864  17874     1
  17864  17883     1
  17867  17873     1
  17867  17885     1
  17867  17877     1
  17868  17876     1
  17869  17877     1
  17869  17875     1
  17873  17874     1
  17874  17885     1
  17874  17875     1
  17875  17876     1
  17876  17877     1
  17876  17885     1
  17883  17885     1
  17886  17891     1
  17886  17898     1
  17886  17896     1
  17887  17906     1
  17887  17892     1
  17887  17897     1
  17890  17900     1
  17890  17908     1
  17890  17896     1
  17891  17899     1
  17892  17898     1
  17892  17900     1
  17896  17897     1
  17897  17898     1
  17897  17908     1
  17898  17899     1
  17899  17900     1
  17899  17908     1
  17906  17908     1
  17909  17914     1
  17909  17921     1
  17909  17919     1
  17910  17915     1
  17910  17920     1
  17910  17929     1
  17913  17919     1
  17913  17931     1
  17913  17923     1
  17914  17922     1
  17915  17923     1
  17915  17921     1
  17919  17920     1
  17920  17931     1
  17920  17921     1
  17921  17922     1
  17922  17923     1
  17922  17931     1
  17929  17931     1
  17932  17937     1
  17932  17944     1
  17932  17942     1
  17933  17952     1
  17933  17938     1
  17933  17943     1
  17936  17946     1
  17936  17954     1
  17936  17942     1
  17937  17945     1
  17938  17944     1
  17938  17946     1
  17942  17943     1
  17943  17944     1
  17943  17954     1
  17944  17945     1
  17945  17946     1
  17945  17954     1
  17952  17954     1
  17955  17960     1
  17955  17967     1
  17955  17965     1
  17956  17961     1
  17956  17966     1
  17956  17975     1
  17959  17965     1
  17959  17977     1
  17959  17969     1
  17960  17968     1
  17961  17969     1
  17961  17967     1
  17965  17966     1
  17966  17977     1
  17966  17967     1
  17967  17968     1
  17968  17969     1
  17968  17977     1
  17975  17977     1
  17978  17983     1
  17978  17990     1
  17978  17988     1
  17979  17998     1
  17979  17984     1
  17979  17989     1
  17982  17992     1
  17982  18000     1
  17982  17988     1
  17983  17991     1
  17984  17990     1
  17984  17992     1
  17988  17989     1
  17989  17990     1
  17989  18000     1
  17990  17991     1
  17991  17992     1
  17991  18000     1
  17998  18000     1
  18001  18006     1
  18001  18013     1
  18001  18011     1
  18002  18007     1
  18002  18012     1
  18002  18021     1
  18005  18011     1
  18005  18023     1
  18005  18015     1
  18006  18014     1
  18007  18015     1
  18007  18013     1
  18011  18012     1
  18012  18023     1
  18012  18013     1
  18013  18014     1
  18014  18015     1
  18014  18023     1
  18021  18023     1
  18024  18029     1
  18024  18036     1
  18024  18034     1
  18025  18044     1
  18025  18030     1
  18025  18035     1
  18028  18038     1
  18028  18046     1
  18028  18034     1
  18029  18037     1
  18030  18036     1
  18030  18038     1
  18034  18035     1
  18035  18036     1
  18035  18046     1
  18036  18037     1
  18037  18038     1
  18037  18046     1
  18044  18046     1
  18047  18052     1
  18047  18059     1
  18047  18057     1
  18048  18053     1
  18048  18058     1
  18048  18067     1
  18051  18057     1
  18051  18069     1
  18051  18061     1
  18052  18060     1
  18053  18061     1
  18053  18059     1
  18057  18058     1
  18058  18069     1
  18058  18059     1
  18059  18060     1
  18060  18061     1
  18060  18069     1
  18067  18069     1
  18070  18075     1
  18070  18082     1
  18070  18080     1
  18071  18090     1
  18071  18076     1
  18071  18081     1
  18074  18084     1
  18074  18092     1
  18074  18080     1
  18075  18083     1
  18076  18082     1
  18076  18084     1
  18080  18081     1
  18081  18082     1
  18081  18092     1
  18082  18083     1
  18083  18084     1
  18083  18092     1
  18090  18092     1
  18093  18098     1
  18093  18105     1
  18093  18103     1
  18094  18099     1
  18094  18104     1
  18094  18113     1
  18097  18103     1
  18097  18115     1
  18097  18107     1
  18098  18106     1
  18099  18107     1
  18099  18105     1
  18103  18104     1
  18104  18115     1
  18104  18105     1
  18105  18106     1
  18106  18107     1
  18106  18115     1
  18113  18115     1
  18116  18121     1
  18116  18128     1
  18116  18126     1
  18117  18136     1
  18117  18122     1
  18117  18127     1
  18120  18130     1
  18120  18138     1
  18120  18126     1
  18121  18129     1
  18122  18128     1
  18122  18130     1
  18126  18127     1
  18127  18128     1
  18127  18138     1
  18128  18129     1
  18129  18130     1
  18129  18138     1
  18136  18138     1
  18139  18144     1
  18139  18151     1
  18139  18149     1
  18140  18145     1
  18140  18150     1
  18140  18159     1
  18143  18149     1
  18143  18161     1
  18143  18153     1
  18144  18152     1
  18145  18153     1
  18145  18151     1
  18149  18150     1
  18150  18161     1
  18150  18151     1
  18151  18152     1
  18152  18153     1
  18152  18161     1
  18159  18161     1
  18162  18167     1
  18162  18174     1
  18162  18172     1
  18163  18182     1
  18163  18168     1
  18163  18173     1
  18166  18176     1
  18166  18184     1
  18166  18172     1
  18167  18175     1
  18168  18174     1
  18168  18176     1
  18172  18173     1
  18173  18174     1
  18173  18184     1
  18174  18175     1
  18175  18176     1
  18175  18184     1
  18182  18184     1
  18185  18190     1
  18185  18197     1
  18185  18195     1
  18186  18191     1
  18186  18196     1
  18186  18205     1
  18189  18195     1
  18189  18207     1
  18189  18199     1
  18190  18198     1
  18191  18199     1
  18191  18197     1
  18195  18196     1
  18196  18207     1
  18196  18197     1
  18197  18198     1
  18198  18199     1
  18198  18207     1
  18205  18207     1
  18208  18213     1
  18208  18220     1
  18208  18218     1
  18209  18228     1
  18209  18214     1
  18209  18219     1
  18212  18222     1
  18212  18230     1
  18212  18218     1
  18213  18221     1
  18214  18220     1
  18214  18222     1
  18218  18219     1
  18219  18220     1
  18219  18230     1
  18220  18221     1
  18221  18222     1
  18221  18230     1
  18228  18230     1
  18231  18236     1
  18231  18243     1
  18231  18241     1
  18232  18237     1
  18232  18242     1
  18232  18251     1
  18235  18241     1
  18235  18253     1
  18235  18245     1
  18236  18244     1
  18237  18245     1
  18237  18243     1
  18241  18242     1
  18242  18253     1
  18242  18243     1
  18243  18244     1
  18244  18245     1
  18244  18253     1
  18251  18253     1
  18254  18259     1
  18254  18266     1
  18254  18264     1
  18255  18274     1
  18255  18260     1
  18255  18265     1
  18258  18268     1
  18258  18276     1
  18258  18264     1
  18259  18267     1
  18260  18266     1
  18260  18268     1
  18264  18265     1
  18265  18266     1
  18265  18276     1
  18266  18267     1
  18267  18268     1
  18267  18276     1
  18274  18276     1
  18277  18282     1
  18277  18289     1
  18277  18287     1
  18278  18283     1
  18278  18288     1
  18278  18297     1
  18281  18287     1
  18281  18299     1
  18281  18291     1
  18282  18290     1
  18283  18291     1
  18283  18289     1
  18287  18288     1
  18288  18299     1
  18288  18289     1
  18289  18290     1
  18290  18291     1
  18290  18299     1
  18297  18299     1
  18300  18305     1
  18300  18312     1
  18300  18310     1
  18301  18320     1
  18301  18306     1
  18301  18311     1
  18304  18314     1
  18304  18322     1
  18304  18310     1
  18305  18313     1
  18306  18312     1
  18306  18314     1
  18310  18311     1
  18311  18312     1
  18311  18322     1
  18312  18313     1
  18313  18314     1
  18313  18322     1
  18320  18322     1
  18323  18328     1
  18323  18335     1
  18323  18333     1
  18324  18329     1
  18324  18334     1
  18324  18343     1
  18327  18333     1
  18327  18345     1
  18327  18337     1
  18328  18336     1
  18329  18337     1
  18329  18335     1
  18333  18334     1
  18334  18345     1
  18334  18335     1
  18335  18336     1
  18336  18337     1
  18336  18345     1
  18343  18345     1
  18346  18351     1
  18346  18358     1
  18346  18356     1
  18347  18366     1
  18347  18352     1
  18347  18357     1
  18350  18360     1
  18350  18368     1
  18350  18356     1
  18351  18359     1
  18352  18358     1
  18352  18360     1
  18356  18357     1
  18357  18358     1
  18357  18368     1
  18358  18359     1
  18359  18360     1
  18359  18368     1
  18366  18368     1
  18369  18374     1
  18369  18381     1
  18369  18379     1
  18370  18375     1
  18370  18380     1
  18370  18389     1
  18373  18379     1
  18373  18391     1
  18373  18383     1
  18374  18382     1
  18375  18383     1
  18375  18381     1
  18379  18380     1
  18380  18391     1
  18380  18381     1
  18381  18382     1
  18382  18383     1
  18382  18391     1
  18389  18391     1
  18392  18397     1
  18392  18404     1
  18392  18402     1
  18393  18412     1
  18393  18398     1
  18393  18403     1
  18396  18406     1
  18396  18414     1
  18396  18402     1
  18397  18405     1
  18398  18404     1
  18398  18406     1
  18402  18403     1
  18403  18404     1
  18403  18414     1
  18404  18405     1
  18405  18406     1
  18405  18414     1
  18412  18414     1
  18415  18420     1
  18415  18427     1
  18415  18425     1
  18416  18421     1
  18416  18426     1
  18416  18435     1
  18419  18425     1
  18419  18437     1
  18419  18429     1
  18420  18428     1
  18421  18429     1
  18421  18427     1
  18425  18426     1
  18426  18437     1
  18426  18427     1
  18427  18428     1
  18428  18429     1
  18428  18437     1
  18435  18437     1
  18438  18443     1
  18438  18450     1
  18438  18448     1
  18439  18458     1
  18439  18444     1
  18439  18449     1
  18442  18452     1
  18442  18460     1
  18442  18448     1
  18443  18451     1
  18444  18450     1
  18444  18452     1
  18448  18449     1
  18449  18450     1
  18449  18460     1
  18450  18451     1
  18451  18452     1
  18451  18460     1
  18458  18460     1
  18461  18466     1
  18461  18473     1
  18461  18471     1
  18462  18467     1
  18462  18472     1
  18462  18481     1
  18465  18471     1
  18465  18483     1
  18465  18475     1
  18466  18474     1
  18467  18475     1
  18467  18473     1
  18471  18472     1
  18472  18483     1
  18472  18473     1
  18473  18474     1
  18474  18475     1
  18474  18483     1
  18481  18483     1
  18484  18489     1
  18484  18496     1
  18484  18494     1
  18485  18504     1
  18485  18490     1
  18485  18495     1
  18488  18498     1
  18488  18506     1
  18488  18494     1
  18489  18497     1
  18490  18496     1
  18490  18498     1
  18494  18495     1
  18495  18496     1
  18495  18506     1
  18496  18497     1
  18497  18498     1
  18497  18506     1
  18504  18506     1
  18507  18512     1
  18507  18519     1
  18507  18517     1
  18508  18513     1
  18508  18518     1
  18508  18527     1
  18511  18517     1
  18511  18529     1
  18511  18521     1
  18512  18520     1
  18513  18521     1
  18513  18519     1
  18517  18518     1
  18518  18529     1
  18518  18519     1
  18519  18520     1
  18520  18521     1
  18520  18529     1
  18527  18529     1
  18530  18535     1
  18530  18542     1
  18530  18540     1
  18531  18550     1
  18531  18536     1
  18531  18541     1
  18534  18544     1
  18534  18552     1
  18534  18540     1
  18535  18543     1
  18536  18542     1
  18536  18544     1
  18540  18541     1
  18541  18542     1
  18541  18552     1
  18542  18543     1
  18543  18544     1
  18543  18552     1
  18550  18552     1
  18553  18558     1
  18553  18565     1
  18553  18563     1
  18554  18559     1
  18554  18564     1
  18554  18573     1
  18557  18563     1
  18557  18575     1
  18557  18567     1
  18558  18566     1
  18559  18567     1
  18559  18565     1
  18563  18564     1
  18564  18575     1
  18564  18565     1
  18565  18566     1
  18566  18567     1
  18566  18575     1
  18573  18575     1
  18576  18581     1
  18576  18588     1
  18576  18586     1
  18577  18596     1
  18577  18582     1
  18577  18587     1
  18580  18590     1
  18580  18598     1
  18580  18586     1
  18581  18589     1
  18582  18588     1
  18582  18590     1
  18586  18587     1
  18587  18588     1
  18587  18598     1
  18588  18589     1
  18589  18590     1
  18589  18598     1
  18596  18598     1
  18599  18604     1
  18599  18611     1
  18599  18609     1
  18600  18605     1
  18600  18610     1
  18600  18619     1
  18603  18609     1
  18603  18621     1
  18603  18613     1
  18604  18612     1
  18605  18613     1
  18605  18611     1
  18609  18610     1
  18610  18621     1
  18610  18611     1
  18611  18612     1
  18612  18613     1
  18612  18621     1
  18619  18621     1
  18622  18627     1
  18622  18634     1
  18622  18632     1
  18623  18642     1
  18623  18628     1
  18623  18633     1
  18626  18636     1
  18626  18644     1
  18626  18632     1
  18627  18635     1
  18628  18634     1
  18628  18636     1
  18632  18633     1
  18633  18634     1
  18633  18644     1
  18634  18635     1
  18635  18636     1
  18635  18644     1
  18642  18644     1
  18645  18650     1
  18645  18657     1
  18645  18655     1
  18646  18651     1
  18646  18656     1
  18646  18665     1
  18649  18655     1
  18649  18667     1
  18649  18659     1
  18650  18658     1
  18651  18659     1
  18651  18657     1
  18655  18656     1
  18656  18667     1
  18656  18657     1
  18657  18658     1
  18658  18659     1
  18658  18667     1
  18665  18667     1
  18668  18673     1
  18668  18680     1
  18668  18678     1
  18669  18688     1
  18669  18674     1
  18669  18679     1
  18672  18682     1
  18672  18690     1
  18672  18678     1
  18673  18681     1
  18674  18680     1
  18674  18682     1
  18678  18679     1
  18679  18680     1
  18679  18690     1
  18680  18681     1
  18681  18682     1
  18681  18690     1
  18688  18690     1
  18691  18696     1
  18691  18703     1
  18691  18701     1
  18692  18697     1
  18692  18702     1
  18692  18711     1
  18695  18701     1
  18695  18713     1
  18695  18705     1
  18696  18704     1
  18697  18705     1
  18697  18703     1
  18701  18702     1
  18702  18713     1
  18702  18703     1
  18703  18704     1
  18704  18705     1
  18704  18713     1
  18711  18713     1
  18714  18719     1
  18714  18726     1
  18714  18724     1
  18715  18734     1
  18715  18720     1
  18715  18725     1
  18718  18728     1
  18718  18736     1
  18718  18724     1
  18719  18727     1
  18720  18726     1
  18720  18728     1
  18724  18725     1
  18725  18726     1
  18725  18736     1
  18726  18727     1
  18727  18728     1
  18727  18736     1
  18734  18736     1
  18737  18742     1
  18737  18749     1
  18737  18747     1
  18738  18743     1
  18738  18748     1
  18738  18757     1
  18741  18747     1
  18741  18759     1
  18741  18751     1
  18742  18750     1
  18743  18751     1
  18743  18749     1
  18747  18748     1
  18748  18759     1
  18748  18749     1
  18749  18750     1
  18750  18751     1
  18750  18759     1
  18757  18759     1
  18760  18765     1
  18760  18772     1
  18760  18770     1
  18761  18780     1
  18761  18766     1
  18761  18771     1
  18764  18774     1
  18764  18782     1
  18764  18770     1
  18765  18773     1
  18766  18772     1
  18766  18774     1
  18770  18771     1
  18771  18772     1
  18771  18782     1
  18772  18773     1
  18773  18774     1
  18773  18782     1
  18780  18782     1
  18783  18788     1
  18783  18795     1
  18783  18793     1
  18784  18789     1
  18784  18794     1
  18784  18803     1
  18787  18793     1
  18787  18805     1
  18787  18797     1
  18788  18796     1
  18789  18797     1
  18789  18795     1
  18793  18794     1
  18794  18805     1
  18794  18795     1
  18795  18796     1
  18796  18797     1
  18796  18805     1
  18803  18805     1
  18806  18811     1
  18806  18818     1
  18806  18816     1
  18807  18826     1
  18807  18812     1
  18807  18817     1
  18810  18820     1
  18810  18828     1
  18810  18816     1
  18811  18819     1
  18812  18818     1
  18812  18820     1
  18816  18817     1
  18817  18818     1
  18817  18828     1
  18818  18819     1
  18819  18820     1
  18819  18828     1
  18826  18828     1
  18829  18834     1
  18829  18841     1
  18829  18839     1
  18830  18835     1
  18830  18840     1
  18830  18849     1
  18833  18839     1
  18833  18851     1
  18833  18843     1
  18834  18842     1
  18835  18843     1
  18835  18841     1
  18839  18840     1
  18840  18851     1
  18840  18841     1
  18841  18842     1
  18842  18843     1
  18842  18851     1
  18849  18851     1
  18852  18857     1
  18852  18864     1
  18852  18862     1
  18853  18872     1
  18853  18858     1
  18853  18863     1
  18856  18866     1
  18856  18874     1
  18856  18862     1
  18857  18865     1
  18858  18864     1
  18858  18866     1
  18862  18863     1
  18863  18864     1
  18863  18874     1
  18864  18865     1
  18865  18866     1
  18865  18874     1
  18872  18874     1
  18875  18880     1
  18875  18887     1
  18875  18885     1
  18876  18881     1
  18876  18886     1
  18876  18895     1
  18879  18885     1
  18879  18897     1
  18879  18889     1
  18880  18888     1
  18881  18889     1
  18881  18887     1
  18885  18886     1
  18886  18897     1
  18886  18887     1
  18887  18888     1
  18888  18889     1
  18888  18897     1
  18895  18897     1
  18898  18903     1
  18898  18910     1
  18898  18908     1
  18899  18918     1
  18899  18904     1
  18899  18909     1
  18902  18912     1
  18902  18920     1
  18902  18908     1
  18903  18911     1
  18904  18910     1
  18904  18912     1
  18908  18909     1
  18909  18910     1
  18909  18920     1
  18910  18911     1
  18911  18912     1
  18911  18920     1
  18918  18920     1
  18921  18926     1
  18921  18933     1
  18921  18931     1
  18922  18927     1
  18922  18932     1
  18922  18941     1
  18925  18931     1
  18925  18943     1
  18925  18935     1
  18926  18934     1
  18927  18935     1
  18927  18933     1
  18931  18932     1
  18932  18943     1
  18932  18933     1
  18933  18934     1
  18934  18935     1
  18934  18943     1
  18941  18943     1
  18944  18949     1
  18944  18956     1
  18944  18954     1
  18945  18964     1
  18945  18950     1
  18945  18955     1
  18948  18958     1
  18948  18966     1
  18948  18954     1
  18949  18957     1
  18950  18956     1
  18950  18958     1
  18954  18955     1
  18955  18956     1
  18955  18966     1
  18956  18957     1
  18957  18958     1
  18957  18966     1
  18964  18966     1
  18967  18972     1
  18967  18979     1
  18967  18977     1
  18968  18973     1
  18968  18978     1
  18968  18987     1
  18971  18977     1
  18971  18989     1
  18971  18981     1
  18972  18980     1
  18973  18981     1
  18973  18979     1
  18977  18978     1
  18978  18989     1
  18978  18979     1
  18979  18980     1
  18980  18981     1
  18980  18989     1
  18987  18989     1
  18990  18995     1
  18990  19002     1
  18990  19000     1
  18991  19010     1
  18991  18996     1
  18991  19001     1
  18994  19004     1
  18994  19012     1
  18994  19000     1
  18995  19003     1
  18996  19002     1
  18996  19004     1
  19000  19001     1
  19001  19002     1
  19001  19012     1
  19002  19003     1
  19003  19004     1
  19003  19012     1
  19010  19012     1
  19013  19018     1
  19013  19025     1
  19013  19023     1
  19014  19019     1
  19014  19024     1
  19014  19033     1
  19017  19023     1
  19017  19035     1
  19017  19027     1
  19018  19026     1
  19019  19027     1
  19019  19025     1
  19023  19024     1
  19024  19035     1
  19024  19025     1
  19025  19026     1
  19026  19027     1
  19026  19035     1
  19033  19035     1
  19036  19041     1
  19036  19048     1
  19036  19046     1
  19037  19056     1
  19037  19042     1
  19037  19047     1
  19040  19050     1
  19040  19058     1
  19040  19046     1
  19041  19049     1
  19042  19048     1
  19042  19050     1
  19046  19047     1
  19047  19048     1
  19047  19058     1
  19048  19049     1
  19049  19050     1
  19049  19058     1
  19056  19058     1
  19059  19064     1
  19059  19071     1
  19059  19069     1
  19060  19065     1
  19060  19070     1
  19060  19079     1
  19063  19069     1
  19063  19081     1
  19063  19073     1
  19064  19072     1
  19065  19073     1
  19065  19071     1
  19069  19070     1
  19070  19081     1
  19070  19071     1
  19071  19072     1
  19072  19073     1
  19072  19081     1
  19079  19081     1
  19082  19087     1
  19082  19094     1
  19082  19092     1
  19083  19102     1
  19083  19088     1
  19083  19093     1
  19086  19096     1
  19086  19104     1
  19086  19092     1
  19087  19095     1
  19088  19094     1
  19088  19096     1
  19092  19093     1
  19093  19094     1
  19093  19104     1
  19094  19095     1
  19095  19096     1
  19095  19104     1
  19102  19104     1
  19105  19110     1
  19105  19117     1
  19105  19115     1
  19106  19111     1
  19106  19116     1
  19106  19125     1
  19109  19115     1
  19109  19127     1
  19109  19119     1
  19110  19118     1
  19111  19119     1
  19111  19117     1
  19115  19116     1
  19116  19127     1
  19116  19117     1
  19117  19118     1
  19118  19119     1
  19118  19127     1
  19125  19127     1
  19128  19133     1
  19128  19140     1
  19128  19138     1
  19129  19148     1
  19129  19134     1
  19129  19139     1
  19132  19142     1
  19132  19150     1
  19132  19138     1
  19133  19141     1
  19134  19140     1
  19134  19142     1
  19138  19139     1
  19139  19140     1
  19139  19150     1
  19140  19141     1
  19141  19142     1
  19141  19150     1
  19148  19150     1
  19151  19156     1
  19151  19163     1
  19151  19161     1
  19152  19157     1
  19152  19162     1
  19152  19171     1
  19155  19161     1
  19155  19173     1
  19155  19165     1
  19156  19164     1
  19157  19165     1
  19157  19163     1
  19161  19162     1
  19162  19173     1
  19162  19163     1
  19163  19164     1
  19164  19165     1
  19164  19173     1
  19171  19173     1
  19174  19179     1
  19174  19186     1
  19174  19184     1
  19175  19194     1
  19175  19180     1
  19175  19185     1
  19178  19188     1
  19178  19196     1
  19178  19184     1
  19179  19187     1
  19180  19186     1
  19180  19188     1
  19184  19185     1
  19185  19186     1
  19185  19196     1
  19186  19187     1
  19187  19188     1
  19187  19196     1
  19194  19196     1
  19197  19202     1
  19197  19209     1
  19197  19207     1
  19198  19203     1
  19198  19208     1
  19198  19217     1
  19201  19207     1
  19201  19219     1
  19201  19211     1
  19202  19210     1
  19203  19211     1
  19203  19209     1
  19207  19208     1
  19208  19219     1
  19208  19209     1
  19209  19210     1
  19210  19211     1
  19210  19219     1
  19217  19219     1
  19220  19225     1
  19220  19232     1
  19220  19230     1
  19221  19240     1
  19221  19226     1
  19221  19231     1
  19224  19234     1
  19224  19242     1
  19224  19230     1
  19225  19233     1
  19226  19232     1
  19226  19234     1
  19230  19231     1
  19231  19232     1
  19231  19242     1
  19232  19233     1
  19233  19234     1
  19233  19242     1
  19240  19242     1
  19243  19248     1
  19243  19255     1
  19243  19253     1
  19244  19249     1
  19244  19254     1
  19244  19263     1
  19247  19253     1
  19247  19265     1
  19247  19257     1
  19248  19256     1
  19249  19257     1
  19249  19255     1
  19253  19254     1
  19254  19265     1
  19254  19255     1
  19255  19256     1
  19256  19257     1
  19256  19265     1
  19263  19265     1
  19266  19271     1
  19266  19278     1
  19266  19276     1
  19267  19286     1
  19267  19272     1
  19267  19277     1
  19270  19280     1
  19270  19288     1
  19270  19276     1
  19271  19279     1
  19272  19278     1
  19272  19280     1
  19276  19277     1
  19277  19278     1
  19277  19288     1
  19278  19279     1
  19279  19280     1
  19279  19288     1
  19286  19288     1
  19289  19294     1
  19289  19301     1
  19289  19299     1
  19290  19295     1
  19290  19300     1
  19290  19309     1
  19293  19299     1
  19293  19311     1
  19293  19303     1
  19294  19302     1
  19295  19303     1
  19295  19301     1
  19299  19300     1
  19300  19311     1
  19300  19301     1
  19301  19302     1
  19302  19303     1
  19302  19311     1
  19309  19311     1
  19312  19317     1
  19312  19324     1
  19312  19322     1
  19313  19332     1
  19313  19318     1
  19313  19323     1
  19316  19326     1
  19316  19334     1
  19316  19322     1
  19317  19325     1
  19318  19324     1
  19318  19326     1
  19322  19323     1
  19323  19324     1
  19323  19334     1
  19324  19325     1
  19325  19326     1
  19325  19334     1
  19332  19334     1
  19335  19340     1
  19335  19347     1
  19335  19345     1
  19336  19341     1
  19336  19346     1
  19336  19355     1
  19339  19345     1
  19339  19357     1
  19339  19349     1
  19340  19348     1
  19341  19349     1
  19341  19347     1
  19345  19346     1
  19346  19357     1
  19346  19347     1
  19347  19348     1
  19348  19349     1
  19348  19357     1
  19355  19357     1
  19358  19363     1
  19358  19370     1
  19358  19368     1
  19359  19378     1
  19359  19364     1
  19359  19369     1
  19362  19372     1
  19362  19380     1
  19362  19368     1
  19363  19371     1
  19364  19370     1
  19364  19372     1
  19368  19369     1
  19369  19370     1
  19369  19380     1
  19370  19371     1
  19371  19372     1
  19371  19380     1
  19378  19380     1
  19381  19386     1
  19381  19393     1
  19381  19391     1
  19382  19387     1
  19382  19392     1
  19382  19401     1
  19385  19391     1
  19385  19403     1
  19385  19395     1
  19386  19394     1
  19387  19395     1
  19387  19393     1
  19391  19392     1
  19392  19403     1
  19392  19393     1
  19393  19394     1
  19394  19395     1
  19394  19403     1
  19401  19403     1
  19404  19409     1
  19404  19416     1
  19404  19414     1
  19405  19424     1
  19405  19410     1
  19405  19415     1
  19408  19418     1
  19408  19426     1
  19408  19414     1
  19409  19417     1
  19410  19416     1
  19410  19418     1
  19414  19415     1
  19415  19416     1
  19415  19426     1
  19416  19417     1
  19417  19418     1
  19417  19426     1
  19424  19426     1
  19427  19432     1
  19427  19439     1
  19427  19437     1
  19428  19433     1
  19428  19438     1
  19428  19447     1
  19431  19437     1
  19431  19449     1
  19431  19441     1
  19432  19440     1
  19433  19441     1
  19433  19439     1
  19437  19438     1
  19438  19449     1
  19438  19439     1
  19439  19440     1
  19440  19441     1
  19440  19449     1
  19447  19449     1
  19450  19455     1
  19450  19462     1
  19450  19460     1
  19451  19470     1
  19451  19456     1
  19451  19461     1
  19454  19464     1
  19454  19472     1
  19454  19460     1
  19455  19463     1
  19456  19462     1
  19456  19464     1
  19460  19461     1
  19461  19462     1
  19461  19472     1
  19462  19463     1
  19463  19464     1
  19463  19472     1
  19470  19472     1
  19473  19478     1
  19473  19485     1
  19473  19483     1
  19474  19479     1
  19474  19484     1
  19474  19493     1
  19477  19483     1
  19477  19495     1
  19477  19487     1
  19478  19486     1
  19479  19487     1
  19479  19485     1
  19483  19484     1
  19484  19495     1
  19484  19485     1
  19485  19486     1
  19486  19487     1
  19486  19495     1
  19493  19495     1
  19496  19501     1
  19496  19508     1
  19496  19506     1
  19497  19516     1
  19497  19502     1
  19497  19507     1
  19500  19510     1
  19500  19518     1
  19500  19506     1
  19501  19509     1
  19502  19508     1
  19502  19510     1
  19506  19507     1
  19507  19508     1
  19507  19518     1
  19508  19509     1
  19509  19510     1
  19509  19518     1
  19516  19518     1
  19519  19524     1
  19519  19531     1
  19519  19529     1
  19520  19525     1
  19520  19530     1
  19520  19539     1
  19523  19529     1
  19523  19541     1
  19523  19533     1
  19524  19532     1
  19525  19533     1
  19525  19531     1
  19529  19530     1
  19530  19541     1
  19530  19531     1
  19531  19532     1
  19532  19533     1
  19532  19541     1
  19539  19541     1
  19542  19547     1
  19542  19554     1
  19542  19552     1
  19543  19562     1
  19543  19548     1
  19543  19553     1
  19546  19556     1
  19546  19564     1
  19546  19552     1
  19547  19555     1
  19548  19554     1
  19548  19556     1
  19552  19553     1
  19553  19554     1
  19553  19564     1
  19554  19555     1
  19555  19556     1
  19555  19564     1
  19562  19564     1
  19565  19570     1
  19565  19577     1
  19565  19575     1
  19566  19571     1
  19566  19576     1
  19566  19585     1
  19569  19575     1
  19569  19587     1
  19569  19579     1
  19570  19578     1
  19571  19579     1
  19571  19577     1
  19575  19576     1
  19576  19587     1
  19576  19577     1
  19577  19578     1
  19578  19579     1
  19578  19587     1
  19585  19587     1
  19588  19593     1
  19588  19600     1
  19588  19598     1
  19589  19608     1
  19589  19594     1
  19589  19599     1
  19592  19602     1
  19592  19610     1
  19592  19598     1
  19593  19601     1
  19594  19600     1
  19594  19602     1
  19598  19599     1
  19599  19600     1
  19599  19610     1
  19600  19601     1
  19601  19602     1
  19601  19610     1
  19608  19610     1
  19611  19616     1
  19611  19623     1
  19611  19621     1
  19612  19617     1
  19612  19622     1
  19612  19631     1
  19615  19621     1
  19615  19633     1
  19615  19625     1
  19616  19624     1
  19617  19625     1
  19617  19623     1
  19621  19622     1
  19622  19633     1
  19622  19623     1
  19623  19624     1
  19624  19625     1
  19624  19633     1
  19631  19633     1
  19634  19639     1
  19634  19646     1
  19634  19644     1
  19635  19654     1
  19635  19640     1
  19635  19645     1
  19638  19648     1
  19638  19656     1
  19638  19644     1
  19639  19647     1
  19640  19646     1
  19640  19648     1
  19644  19645     1
  19645  19646     1
  19645  19656     1
  19646  19647     1
  19647  19648     1
  19647  19656     1
  19654  19656     1
  19657  19662     1
  19657  19669     1
  19657  19667     1
  19658  19663     1
  19658  19668     1
  19658  19677     1
  19661  19667     1
  19661  19679     1
  19661  19671     1
  19662  19670     1
  19663  19671     1
  19663  19669     1
  19667  19668     1
  19668  19679     1
  19668  19669     1
  19669  19670     1
  19670  19671     1
  19670  19679     1
  19677  19679     1
  19680  19685     1
  19680  19692     1
  19680  19690     1
  19681  19700     1
  19681  19686     1
  19681  19691     1
  19684  19694     1
  19684  19702     1
  19684  19690     1
  19685  19693     1
  19686  19692     1
  19686  19694     1
  19690  19691     1
  19691  19692     1
  19691  19702     1
  19692  19693     1
  19693  19694     1
  19693  19702     1
  19700  19702     1
  19703  19708     1
  19703  19715     1
  19703  19713     1
  19704  19709     1
  19704  19714     1
  19704  19723     1
  19707  19713     1
  19707  19725     1
  19707  19717     1
  19708  19716     1
  19709  19717     1
  19709  19715     1
  19713  19714     1
  19714  19725     1
  19714  19715     1
  19715  19716     1
  19716  19717     1
  19716  19725     1
  19723  19725     1
  19726  19731     1
  19726  19738     1
  19726  19736     1
  19727  19746     1
  19727  19732     1
  19727  19737     1
  19730  19740     1
  19730  19748     1
  19730  19736     1
  19731  19739     1
  19732  19738     1
  19732  19740     1
  19736  19737     1
  19737  19738     1
  19737  19748     1
  19738  19739     1
  19739  19740     1
  19739  19748     1
  19746  19748     1
  19749  19754     1
  19749  19761     1
  19749  19759     1
  19750  19755     1
  19750  19760     1
  19750  19769     1
  19753  19759     1
  19753  19771     1
  19753  19763     1
  19754  19762     1
  19755  19763     1
  19755  19761     1
  19759  19760     1
  19760  19771     1
  19760  19761     1
  19761  19762     1
  19762  19763     1
  19762  19771     1
  19769  19771     1
  19772  19777     1
  19772  19784     1
  19772  19782     1
  19773  19792     1
  19773  19778     1
  19773  19783     1
  19776  19786     1
  19776  19794     1
  19776  19782     1
  19777  19785     1
  19778  19784     1
  19778  19786     1
  19782  19783     1
  19783  19784     1
  19783  19794     1
  19784  19785     1
  19785  19786     1
  19785  19794     1
  19792  19794     1
  19795  19800     1
  19795  19807     1
  19795  19805     1
  19796  19801     1
  19796  19806     1
  19796  19815     1
  19799  19805     1
  19799  19817     1
  19799  19809     1
  19800  19808     1
  19801  19809     1
  19801  19807     1
  19805  19806     1
  19806  19817     1
  19806  19807     1
  19807  19808     1
  19808  19809     1
  19808  19817     1
  19815  19817     1
  19818  19823     1
  19818  19830     1
  19818  19828     1
  19819  19838     1
  19819  19824     1
  19819  19829     1
  19822  19832     1
  19822  19840     1
  19822  19828     1
  19823  19831     1
  19824  19830     1
  19824  19832     1
  19828  19829     1
  19829  19830     1
  19829  19840     1
  19830  19831     1
  19831  19832     1
  19831  19840     1
  19838  19840     1
  19841  19846     1
  19841  19853     1
  19841  19851     1
  19842  19847     1
  19842  19852     1
  19842  19861     1
  19845  19851     1
  19845  19863     1
  19845  19855     1
  19846  19854     1
  19847  19855     1
  19847  19853     1
  19851  19852     1
  19852  19863     1
  19852  19853     1
  19853  19854     1
  19854  19855     1
  19854  19863     1
  19861  19863     1
  19864  19869     1
  19864  19876     1
  19864  19874     1
  19865  19884     1
  19865  19870     1
  19865  19875     1
  19868  19878     1
  19868  19886     1
  19868  19874     1
  19869  19877     1
  19870  19876     1
  19870  19878     1
  19874  19875     1
  19875  19876     1
  19875  19886     1
  19876  19877     1
  19877  19878     1
  19877  19886     1
  19884  19886     1
  19887  19892     1
  19887  19899     1
  19887  19897     1
  19888  19893     1
  19888  19898     1
  19888  19907     1
  19891  19897     1
  19891  19909     1
  19891  19901     1
  19892  19900     1
  19893  19901     1
  19893  19899     1
  19897  19898     1
  19898  19909     1
  19898  19899     1
  19899  19900     1
  19900  19901     1
  19900  19909     1
  19907  19909     1
      1     15     1
      1     16     1
      1     18     1
      1     19     1
      1     12     1
      1     13     1
      2      6     1
      2      7     1
      2      9     1
      2     10     1
      2     27     1
      2     28     1
      5      3     1
      8      3     1
      3     26     1
      3     15     1
      3     16     1
      5      4     1
      8      4     1
      4     26     1
      4     15     1
      4     16     1
      5      9     1
      5     10     1
      5     21     1
      5     22     1
      8      6     1
      6     20     1
      6     18     1
      6     19     1
      8      7     1
      7     20     1
      7     18     1
      7     19     1
      8     24     1
      8     25     1
      9     23     1
      9     12     1
      9     13     1
     10     23     1
     10     12     1
     10     13     1
     12     86     1
     12     24     1
     12     25     1
     13     86     1
     13     24     1
     13     25     1
     15    115     1
     15     27     1
     15     28     1
     16    115     1
     16     27     1
     16     28     1
     18     57     1
     18     21     1
     18     22     1
     19     57     1
     19     21     1
     19     22     1
     20     49     1
     20     50     1
     21     48     1
     22     48     1
     23     78     1
     23     79     1
     24     77     1
     25     77     1
     26    107     1
     26    108     1
     27    106     1
     28    106     1
     29     43     1
     29     44     1
     29     46     1
     29     47     1
     29     40     1
     29     41     1
     30     34     1
     30     35     1
     30     37     1
     30     38     1
     30     55     1
     30     56     1
     31     33     1
     31     36     1
     31     54     1
     31     43     1
     31     44     1
     32     33     1
     32     36     1
     32     54     1
     32     43     1
     32     44     1
     33     37     1
     33     38     1
     33     52     1
     33     53     1
     34     36     1
     34     51     1
     34     46     1
     34     47     1
     35     36     1
     35     51     1
     35     46     1
     35     47     1
     36     49     1
     36     50     1
     37     48     1
     37     40     1
     37     41     1
     38     48     1
     38     40     1
     38     41     1
     40     57     1
     40     49     1
     40     50     1
     41     57     1
     41     49     1
     41     50     1
     43    173     1
     43     55     1
     43     56     1
     44    173     1
     44     55     1
     44     56     1
     46    144     1
     46     52     1
     46     53     1
     47    144     1
     47     52     1
     47     53     1
     51    136     1
     51    137     1
     52    135     1
     53    135     1
     54    165     1
     54    166     1
     55    164     1
     56    164     1
     58     72     1
     58     73     1
     58     75     1
     58     76     1
     58     69     1
     58     70     1
     59     63     1
     59     64     1
     59     66     1
     59     67     1
     59     84     1
     59     85     1
     60     62     1
     60     65     1
     60     83     1
     60     72     1
     60     73     1
     61     62     1
     61     65     1
     61     83     1
     61     72     1
     61     73     1
     62     66     1
     62     67     1
     62     81     1
     62     82     1
     63     65     1
     63     80     1
     63     75     1
     63     76     1
     64     65     1
     64     80     1
     64     75     1
     64     76     1
     65     78     1
     65     79     1
     66     77     1
     66     69     1
     66     70     1
     67     77     1
     67     69     1
     67     70     1
     69     86     1
     69     78     1
     69     79     1
     70     86     1
     70     78     1
     70     79     1
     72    231     1
     72     84     1
     72     85     1
     73    231     1
     73     84     1
     73     85     1
     75    202     1
     75     81     1
     75     82     1
     76    202     1
     76     81     1
     76     82     1
     80    194     1
     80    195     1
     81    193     1
     82    193     1
     83    223     1
     83    224     1
     84    222     1
     85    222     1
     87    101     1
     87    102     1
     87    104     1
     87    105     1
     87     98     1
     87     99     1
     88     92     1
     88     93     1
     88     95     1
     88     96     1
     88    113     1
     88    114     1
     89     91     1
     89     94     1
     89    112     1
     89    101     1
     89    102     1
     90     91     1
     90     94     1
     90    112     1
     90    101     1
     90    102     1
     91     95     1
     91     96     1
     91    110     1
     91    111     1
     92     94     1
     92    109     1
     92    104     1
     92    105     1
     93     94     1
     93    109     1
     93    104     1
     93    105     1
     94    107     1
     94    108     1
     95    106     1
     95     98     1
     95     99     1
     96    106     1
     96     98     1
     96     99     1
     98    115     1
     98    107     1
     98    108     1
     99    115     1
     99    107     1
     99    108     1
    101    289     1
    101    113     1
    101    114     1
    102    289     1
    102    113     1
    102    114     1
    104    260     1
    104    110     1
    104    111     1
    105    260     1
    105    110     1
    105    111     1
    109    252     1
    109    253     1
    110    251     1
    111    251     1
    112    281     1
    112    282     1
    113    280     1
    114    280     1
    116    130     1
    116    131     1
    116    133     1
    116    134     1
    116    127     1
    116    128     1
    117    121     1
    117    122     1
    117    124     1
    117    125     1
    117    142     1
    117    143     1
    118    120     1
    118    123     1
    118    141     1
    118    130     1
    118    131     1
    119    120     1
    119    123     1
    119    141     1
    119    130     1
    119    131     1
    120    124     1
    120    125     1
    120    139     1
    120    140     1
    121    123     1
    121    138     1
    121    133     1
    121    134     1
    122    123     1
    122    138     1
    122    133     1
    122    134     1
    123    136     1
    123    137     1
    124    135     1
    124    127     1
    124    128     1
    125    135     1
    125    127     1
    125    128     1
    127    144     1
    127    136     1
    127    137     1
    128    144     1
    128    136     1
    128    137     1
    130    347     1
    130    142     1
    130    143     1
    131    347     1
    131    142     1
    131    143     1
    133    318     1
    133    139     1
    133    140     1
    134    318     1
    134    139     1
    134    140     1
    138    310     1
    138    311     1
    139    309     1
    140    309     1
    141    339     1
    141    340     1
    142    338     1
    143    338     1
    145    159     1
    145    160     1
    145    162     1
    145    163     1
    145    156     1
    145    157     1
    146    150     1
    146    151     1
    146    153     1
    146    154     1
    146    171     1
    146    172     1
    147    149     1
    147    152     1
    147    170     1
    147    159     1
    147    160     1
    148    149     1
    148    152     1
    148    170     1
    148    159     1
    148    160     1
    149    153     1
    149    154     1
    149    168     1
    149    169     1
    150    152     1
    150    167     1
    150    162     1
    150    163     1
    151    152     1
    151    167     1
    151    162     1
    151    163     1
    152    165     1
    152    166     1
    153    164     1
    153    156     1
    153    157     1
    154    164     1
    154    156     1
    154    157     1
    156    173     1
    156    165     1
    156    166     1
    157    173     1
    157    165     1
    157    166     1
    159    405     1
    159    171     1
    159    172     1
    160    405     1
    160    171     1
    160    172     1
    162    376     1
    162    168     1
    162    169     1
    163    376     1
    163    168     1
    163    169     1
    167    368     1
    167    369     1
    168    367     1
    169    367     1
    170    397     1
    170    398     1
    171    396     1
    172    396     1
    174    188     1
    174    189     1
    174    191     1
    174    192     1
    174    185     1
    174    186     1
    175    179     1
    175    180     1
    175    182     1
    175    183     1
    175    200     1
    175    201     1
    176    178     1
    176    181     1
    176    199     1
    176    188     1
    176    189     1
    177    178     1
    177    181     1
    177    199     1
    177    188     1
    177    189     1
    178    182     1
    178    183     1
    178    197     1
    178    198     1
    179    181     1
    179    196     1
    179    191     1
    179    192     1
    180    181     1
    180    196     1
    180    191     1
    180    192     1
    181    194     1
    181    195     1
    182    193     1
    182    185     1
    182    186     1
    183    193     1
    183    185     1
    183    186     1
    185    202     1
    185    194     1
    185    195     1
    186    202     1
    186    194     1
    186    195     1
    188    463     1
    188    200     1
    188    201     1
    189    463     1
    189    200     1
    189    201     1
    191    434     1
    191    197     1
    191    198     1
    192    434     1
    192    197     1
    192    198     1
    196    426     1
    196    427     1
    197    425     1
    198    425     1
    199    455     1
    199    456     1
    200    454     1
    201    454     1
    203    217     1
    203    218     1
    203    220     1
    203    221     1
    203    214     1
    203    215     1
    204    208     1
    204    209     1
    204    211     1
    204    212     1
    204    229     1
    204    230     1
    205    207     1
    205    210     1
    205    228     1
    205    217     1
    205    218     1
    206    207     1
    206    210     1
    206    228     1
    206    217     1
    206    218     1
    207    211     1
    207    212     1
    207    226     1
    207    227     1
    208    210     1
    208    225     1
    208    220     1
    208    221     1
    209    210     1
    209    225     1
    209    220     1
    209    221     1
    210    223     1
    210    224     1
    211    222     1
    211    214     1
    211    215     1
    212    222     1
    212    214     1
    212    215     1
    214    231     1
    214    223     1
    214    224     1
    215    231     1
    215    223     1
    215    224     1
    217    521     1
    217    229     1
    217    230     1
    218    521     1
    218    229     1
    218    230     1
    220    492     1
    220    226     1
    220    227     1
    221    492     1
    221    226     1
    221    227     1
    225    484     1
    225    485     1
    226    483     1
    227    483     1
    228    513     1
    228    514     1
    229    512     1
    230    512     1
    232    246     1
    232    247     1
    232    249     1
    232    250     1
    232    243     1
    232    244     1
    233    237     1
    233    238     1
    233    240     1
    233    241     1
    233    258     1
    233    259     1
    234    236     1
    234    239     1
    234    257     1
    234    246     1
    234    247     1
    235    236     1
    235    239     1
    235    257     1
    235    246     1
    235    247     1
    236    240     1
    236    241     1
    236    255     1
    236    256     1
    237    239     1
    237    254     1
    237    249     1
    237    250     1
    238    239     1
    238    254     1
    238    249     1
    238    250     1
    239    252     1
    239    253     1
    240    251     1
    240    243     1
    240    244     1
    241    251     1
    241    243     1
    241    244     1
    243    260     1
    243    252     1
    243    253     1
    244    260     1
    244    252     1
    244    253     1
    246    579     1
    246    258     1
    246    259     1
    247    579     1
    247    258     1
    247    259     1
    249    550     1
    249    255     1
    249    256     1
    250    550     1
    250    255     1
    250    256     1
    254    542     1
    254    543     1
    255    541     1
    256    541     1
    257    571     1
    257    572     1
    258    570     1
    259    570     1
    261    275     1
    261    276     1
    261    278     1
    261    279     1
    261    272     1
    261    273     1
    262    266     1
    262    267     1
    262    269     1
    262    270     1
    262    287     1
    262    288     1
    263    265     1
    263    268     1
    263    286     1
    263    275     1
    263    276     1
    264    265     1
    264    268     1
    264    286     1
    264    275     1
    264    276     1
    265    269     1
    265    270     1
    265    284     1
    265    285     1
    266    268     1
    266    283     1
    266    278     1
    266    279     1
    267    268     1
    267    283     1
    267    278     1
    267    279     1
    268    281     1
    268    282     1
    269    280     1
    269    272     1
    269    273     1
    270    280     1
    270    272     1
    270    273     1
    272    289     1
    272    281     1
    272    282     1
    273    289     1
    273    281     1
    273    282     1
    275    637     1
    275    287     1
    275    288     1
    276    637     1
    276    287     1
    276    288     1
    278    608     1
    278    284     1
    278    285     1
    279    608     1
    279    284     1
    279    285     1
    283    600     1
    283    601     1
    284    599     1
    285    599     1
    286    629     1
    286    630     1
    287    628     1
    288    628     1
    290    304     1
    290    305     1
    290    307     1
    290    308     1
    290    301     1
    290    302     1
    291    295     1
    291    296     1
    291    298     1
    291    299     1
    291    316     1
    291    317     1
    292    294     1
    292    297     1
    292    315     1
    292    304     1
    292    305     1
    293    294     1
    293    297     1
    293    315     1
    293    304     1
    293    305     1
    294    298     1
    294    299     1
    294    313     1
    294    314     1
    295    297     1
    295    312     1
    295    307     1
    295    308     1
    296    297     1
    296    312     1
    296    307     1
    296    308     1
    297    310     1
    297    311     1
    298    309     1
    298    301     1
    298    302     1
    299    309     1
    299    301     1
    299    302     1
    301    318     1
    301    310     1
    301    311     1
    302    318     1
    302    310     1
    302    311     1
    304    695     1
    304    316     1
    304    317     1
    305    695     1
    305    316     1
    305    317     1
    307    666     1
    307    313     1
    307    314     1
    308    666     1
    308    313     1
    308    314     1
    312    658     1
    312    659     1
    313    657     1
    314    657     1
    315    687     1
    315    688     1
    316    686     1
    317    686     1
    319    333     1
    319    334     1
    319    336     1
    319    337     1
    319    330     1
    319    331     1
    320    324     1
    320    325     1
    320    327     1
    320    328     1
    320    345     1
    320    346     1
    321    323     1
    321    326     1
    321    344     1
    321    333     1
    321    334     1
    322    323     1
    322    326     1
    322    344     1
    322    333     1
    322    334     1
    323    327     1
    323    328     1
    323    342     1
    323    343     1
    324    326     1
    324    341     1
    324    336     1
    324    337     1
    325    326     1
    325    341     1
    325    336     1
    325    337     1
    326    339     1
    326    340     1
    327    338     1
    327    330     1
    327    331     1
    328    338     1
    328    330     1
    328    331     1
    330    347     1
    330    339     1
    330    340     1
    331    347     1
    331    339     1
    331    340     1
    333    753     1
    333    345     1
    333    346     1
    334    753     1
    334    345     1
    334    346     1
    336    724     1
    336    342     1
    336    343     1
    337    724     1
    337    342     1
    337    343     1
    341    716     1
    341    717     1
    342    715     1
    343    715     1
    344    745     1
    344    746     1
    345    744     1
    346    744     1
    348    362     1
    348    363     1
    348    365     1
    348    366     1
    348    359     1
    348    360     1
    349    353     1
    349    354     1
    349    356     1
    349    357     1
    349    374     1
    349    375     1
    350    352     1
    350    355     1
    350    373     1
    350    362     1
    350    363     1
    351    352     1
    351    355     1
    351    373     1
    351    362     1
    351    363     1
    352    356     1
    352    357     1
    352    371     1
    352    372     1
    353    355     1
    353    370     1
    353    365     1
    353    366     1
    354    355     1
    354    370     1
    354    365     1
    354    366     1
    355    368     1
    355    369     1
    356    367     1
    356    359     1
    356    360     1
    357    367     1
    357    359     1
    357    360     1
    359    376     1
    359    368     1
    359    369     1
    360    376     1
    360    368     1
    360    369     1
    362    811     1
    362    374     1
    362    375     1
    363    811     1
    363    374     1
    363    375     1
    365    782     1
    365    371     1
    365    372     1
    366    782     1
    366    371     1
    366    372     1
    370    774     1
    370    775     1
    371    773     1
    372    773     1
    373    803     1
    373    804     1
    374    802     1
    375    802     1
    377    391     1
    377    392     1
    377    394     1
    377    395     1
    377    388     1
    377    389     1
    378    382     1
    378    383     1
    378    385     1
    378    386     1
    378    403     1
    378    404     1
    379    381     1
    379    384     1
    379    402     1
    379    391     1
    379    392     1
    380    381     1
    380    384     1
    380    402     1
    380    391     1
    380    392     1
    381    385     1
    381    386     1
    381    400     1
    381    401     1
    382    384     1
    382    399     1
    382    394     1
    382    395     1
    383    384     1
    383    399     1
    383    394     1
    383    395     1
    384    397     1
    384    398     1
    385    396     1
    385    388     1
    385    389     1
    386    396     1
    386    388     1
    386    389     1
    388    405     1
    388    397     1
    388    398     1
    389    405     1
    389    397     1
    389    398     1
    391    869     1
    391    403     1
    391    404     1
    392    869     1
    392    403     1
    392    404     1
    394    840     1
    394    400     1
    394    401     1
    395    840     1
    395    400     1
    395    401     1
    399    832     1
    399    833     1
    400    831     1
    401    831     1
    402    861     1
    402    862     1
    403    860     1
    404    860     1
    406    420     1
    406    421     1
    406    423     1
    406    424     1
    406    417     1
    406    418     1
    407    411     1
    407    412     1
    407    414     1
    407    415     1
    407    432     1
    407    433     1
    408    410     1
    408    413     1
    408    431     1
    408    420     1
    408    421     1
    409    410     1
    409    413     1
    409    431     1
    409    420     1
    409    421     1
    410    414     1
    410    415     1
    410    429     1
    410    430     1
    411    413     1
    411    428     1
    411    423     1
    411    424     1
    412    413     1
    412    428     1
    412    423     1
    412    424     1
    413    426     1
    413    427     1
    414    425     1
    414    417     1
    414    418     1
    415    425     1
    415    417     1
    415    418     1
    417    434     1
    417    426     1
    417    427     1
    418    434     1
    418    426     1
    418    427     1
    420    927     1
    420    432     1
    420    433     1
    421    927     1
    421    432     1
    421    433     1
    423    898     1
    423    429     1
    423    430     1
    424    898     1
    424    429     1
    424    430     1
    428    890     1
    428    891     1
    429    889     1
    430    889     1
    431    919     1
    431    920     1
    432    918     1
    433    918     1
    435    449     1
    435    450     1
    435    452     1
    435    453     1
    435    446     1
    435    447     1
    436    440     1
    436    441     1
    436    443     1
    436    444     1
    436    461     1
    436    462     1
    437    439     1
    437    442     1
    437    460     1
    437    449     1
    437    450     1
    438    439     1
    438    442     1
    438    460     1
    438    449     1
    438    450     1
    439    443     1
    439    444     1
    439    458     1
    439    459     1
    440    442     1
    440    457     1
    440    452     1
    440    453     1
    441    442     1
    441    457     1
    441    452     1
    441    453     1
    442    455     1
    442    456     1
    443    454     1
    443    446     1
    443    447     1
    444    454     1
    444    446     1
    444    447     1
    446    463     1
    446    455     1
    446    456     1
    447    463     1
    447    455     1
    447    456     1
    449    985     1
    449    461     1
    449    462     1
    450    985     1
    450    461     1
    450    462     1
    452    956     1
    452    458     1
    452    459     1
    453    956     1
    453    458     1
    453    459     1
    457    948     1
    457    949     1
    458    947     1
    459    947     1
    460    977     1
    460    978     1
    461    976     1
    462    976     1
    464    478     1
    464    479     1
    464    481     1
    464    482     1
    464    475     1
    464    476     1
    465    469     1
    465    470     1
    465    472     1
    465    473     1
    465    490     1
    465    491     1
    466    468     1
    466    471     1
    466    489     1
    466    478     1
    466    479     1
    467    468     1
    467    471     1
    467    489     1
    467    478     1
    467    479     1
    468    472     1
    468    473     1
    468    487     1
    468    488     1
    469    471     1
    469    486     1
    469    481     1
    469    482     1
    470    471     1
    470    486     1
    470    481     1
    470    482     1
    471    484     1
    471    485     1
    472    483     1
    472    475     1
    472    476     1
    473    483     1
    473    475     1
    473    476     1
    475    492     1
    475    484     1
    475    485     1
    476    492     1
    476    484     1
    476    485     1
    478   1043     1
    478    490     1
    478    491     1
    479   1043     1
    479    490     1
    479    491     1
    481   1014     1
    481    487     1
    481    488     1
    482   1014     1
    482    487     1
    482    488     1
    486   1006     1
    486   1007     1
    487   1005     1
    488   1005     1
    489   1035     1
    489   1036     1
    490   1034     1
    491   1034     1
    493    507     1
    493    508     1
    493    510     1
    493    511     1
    493    504     1
    493    505     1
    494    498     1
    494    499     1
    494    501     1
    494    502     1
    494    519     1
    494    520     1
    495    497     1
    495    500     1
    495    518     1
    495    507     1
    495    508     1
    496    497     1
    496    500     1
    496    518     1
    496    507     1
    496    508     1
    497    501     1
    497    502     1
    497    516     1
    497    517     1
    498    500     1
    498    515     1
    498    510     1
    498    511     1
    499    500     1
    499    515     1
    499    510     1
    499    511     1
    500    513     1
    500    514     1
    501    512     1
    501    504     1
    501    505     1
    502    512     1
    502    504     1
    502    505     1
    504    521     1
    504    513     1
    504    514     1
    505    521     1
    505    513     1
    505    514     1
    507   1101     1
    507    519     1
    507    520     1
    508   1101     1
    508    519     1
    508    520     1
    510   1072     1
    510    516     1
    510    517     1
    511   1072     1
    511    516     1
    511    517     1
    515   1064     1
    515   1065     1
    516   1063     1
    517   1063     1
    518   1093     1
    518   1094     1
    519   1092     1
    520   1092     1
    522    536     1
    522    537     1
    522    539     1
    522    540     1
    522    533     1
    522    534     1
    523    527     1
    523    528     1
    523    530     1
    523    531     1
    523    548     1
    523    549     1
    524    526     1
    524    529     1
    524    547     1
    524    536     1
    524    537     1
    525    526     1
    525    529     1
    525    547     1
    525    536     1
    525    537     1
    526    530     1
    526    531     1
    526    545     1
    526    546     1
    527    529     1
    527    544     1
    527    539     1
    527    540     1
    528    529     1
    528    544     1
    528    539     1
    528    540     1
    529    542     1
    529    543     1
    530    541     1
    530    533     1
    530    534     1
    531    541     1
    531    533     1
    531    534     1
    533    550     1
    533    542     1
    533    543     1
    534    550     1
    534    542     1
    534    543     1
    536   1159     1
    536    548     1
    536    549     1
    537   1159     1
    537    548     1
    537    549     1
    539   1130     1
    539    545     1
    539    546     1
    540   1130     1
    540    545     1
    540    546     1
    544   1122     1
    544   1123     1
    545   1121     1
    546   1121     1
    547   1151     1
    547   1152     1
    548   1150     1
    549   1150     1
    551    565     1
    551    566     1
    551    568     1
    551    569     1
    551    562     1
    551    563     1
    552    556     1
    552    557     1
    552    559     1
    552    560     1
    552    577     1
    552    578     1
    553    555     1
    553    558     1
    553    576     1
    553    565     1
    553    566     1
    554    555     1
    554    558     1
    554    576     1
    554    565     1
    554    566     1
    555    559     1
    555    560     1
    555    574     1
    555    575     1
    556    558     1
    556    573     1
    556    568     1
    556    569     1
    557    558     1
    557    573     1
    557    568     1
    557    569     1
    558    571     1
    558    572     1
    559    570     1
    559    562     1
    559    563     1
    560    570     1
    560    562     1
    560    563     1
    562    579     1
    562    571     1
    562    572     1
    563    579     1
    563    571     1
    563    572     1
    565   1217     1
    565    577     1
    565    578     1
    566   1217     1
    566    577     1
    566    578     1
    568   1188     1
    568    574     1
    568    575     1
    569   1188     1
    569    574     1
    569    575     1
    573   1180     1
    573   1181     1
    574   1179     1
    575   1179     1
    576   1209     1
    576   1210     1
    577   1208     1
    578   1208     1
    580    594     1
    580    595     1
    580    597     1
    580    598     1
    580    591     1
    580    592     1
    581    585     1
    581    586     1
    581    588     1
    581    589     1
    581    606     1
    581    607     1
    582    584     1
    582    587     1
    582    605     1
    582    594     1
    582    595     1
    583    584     1
    583    587     1
    583    605     1
    583    594     1
    583    595     1
    584    588     1
    584    589     1
    584    603     1
    584    604     1
    585    587     1
    585    602     1
    585    597     1
    585    598     1
    586    587     1
    586    602     1
    586    597     1
    586    598     1
    587    600     1
    587    601     1
    588    599     1
    588    591     1
    588    592     1
    589    599     1
    589    591     1
    589    592     1
    591    608     1
    591    600     1
    591    601     1
    592    608     1
    592    600     1
    592    601     1
    594   1275     1
    594    606     1
    594    607     1
    595   1275     1
    595    606     1
    595    607     1
    597   1246     1
    597    603     1
    597    604     1
    598   1246     1
    598    603     1
    598    604     1
    602   1238     1
    602   1239     1
    603   1237     1
    604   1237     1
    605   1267     1
    605   1268     1
    606   1266     1
    607   1266     1
    609    623     1
    609    624     1
    609    626     1
    609    627     1
    609    620     1
    609    621     1
    610    614     1
    610    615     1
    610    617     1
    610    618     1
    610    635     1
    610    636     1
    611    613     1
    611    616     1
    611    634     1
    611    623     1
    611    624     1
    612    613     1
    612    616     1
    612    634     1
    612    623     1
    612    624     1
    613    617     1
    613    618     1
    613    632     1
    613    633     1
    614    616     1
    614    631     1
    614    626     1
    614    627     1
    615    616     1
    615    631     1
    615    626     1
    615    627     1
    616    629     1
    616    630     1
    617    628     1
    617    620     1
    617    621     1
    618    628     1
    618    620     1
    618    621     1
    620    637     1
    620    629     1
    620    630     1
    621    637     1
    621    629     1
    621    630     1
    623   1333     1
    623    635     1
    623    636     1
    624   1333     1
    624    635     1
    624    636     1
    626   1304     1
    626    632     1
    626    633     1
    627   1304     1
    627    632     1
    627    633     1
    631   1296     1
    631   1297     1
    632   1295     1
    633   1295     1
    634   1325     1
    634   1326     1
    635   1324     1
    636   1324     1
    638    652     1
    638    653     1
    638    655     1
    638    656     1
    638    649     1
    638    650     1
    639    643     1
    639    644     1
    639    646     1
    639    647     1
    639    664     1
    639    665     1
    640    642     1
    640    645     1
    640    663     1
    640    652     1
    640    653     1
    641    642     1
    641    645     1
    641    663     1
    641    652     1
    641    653     1
    642    646     1
    642    647     1
    642    661     1
    642    662     1
    643    645     1
    643    660     1
    643    655     1
    643    656     1
    644    645     1
    644    660     1
    644    655     1
    644    656     1
    645    658     1
    645    659     1
    646    657     1
    646    649     1
    646    650     1
    647    657     1
    647    649     1
    647    650     1
    649    666     1
    649    658     1
    649    659     1
    650    666     1
    650    658     1
    650    659     1
    652   1391     1
    652    664     1
    652    665     1
    653   1391     1
    653    664     1
    653    665     1
    655   1362     1
    655    661     1
    655    662     1
    656   1362     1
    656    661     1
    656    662     1
    660   1354     1
    660   1355     1
    661   1353     1
    662   1353     1
    663   1383     1
    663   1384     1
    664   1382     1
    665   1382     1
    667    681     1
    667    682     1
    667    684     1
    667    685     1
    667    678     1
    667    679     1
    668    672     1
    668    673     1
    668    675     1
    668    676     1
    668    693     1
    668    694     1
    669    671     1
    669    674     1
    669    692     1
    669    681     1
    669    682     1
    670    671     1
    670    674     1
    670    692     1
    670    681     1
    670    682     1
    671    675     1
    671    676     1
    671    690     1
    671    691     1
    672    674     1
    672    689     1
    672    684     1
    672    685     1
    673    674     1
    673    689     1
    673    684     1
    673    685     1
    674    687     1
    674    688     1
    675    686     1
    675    678     1
    675    679     1
    676    686     1
    676    678     1
    676    679     1
    678    695     1
    678    687     1
    678    688     1
    679    695     1
    679    687     1
    679    688     1
    681   1449     1
    681    693     1
    681    694     1
    682   1449     1
    682    693     1
    682    694     1
    684   1420     1
    684    690     1
    684    691     1
    685   1420     1
    685    690     1
    685    691     1
    689   1412     1
    689   1413     1
    690   1411     1
    691   1411     1
    692   1441     1
    692   1442     1
    693   1440     1
    694   1440     1
    696    710     1
    696    711     1
    696    713     1
    696    714     1
    696    707     1
    696    708     1
    697    701     1
    697    702     1
    697    704     1
    697    705     1
    697    722     1
    697    723     1
    698    700     1
    698    703     1
    698    721     1
    698    710     1
    698    711     1
    699    700     1
    699    703     1
    699    721     1
    699    710     1
    699    711     1
    700    704     1
    700    705     1
    700    719     1
    700    720     1
    701    703     1
    701    718     1
    701    713     1
    701    714     1
    702    703     1
    702    718     1
    702    713     1
    702    714     1
    703    716     1
    703    717     1
    704    715     1
    704    707     1
    704    708     1
    705    715     1
    705    707     1
    705    708     1
    707    724     1
    707    716     1
    707    717     1
    708    724     1
    708    716     1
    708    717     1
    710   1507     1
    710    722     1
    710    723     1
    711   1507     1
    711    722     1
    711    723     1
    713   1478     1
    713    719     1
    713    720     1
    714   1478     1
    714    719     1
    714    720     1
    718   1470     1
    718   1471     1
    719   1469     1
    720   1469     1
    721   1499     1
    721   1500     1
    722   1498     1
    723   1498     1
    725    739     1
    725    740     1
    725    742     1
    725    743     1
    725    736     1
    725    737     1
    726    730     1
    726    731     1
    726    733     1
    726    734     1
    726    751     1
    726    752     1
    727    729     1
    727    732     1
    727    750     1
    727    739     1
    727    740     1
    728    729     1
    728    732     1
    728    750     1
    728    739     1
    728    740     1
    729    733     1
    729    734     1
    729    748     1
    729    749     1
    730    732     1
    730    747     1
    730    742     1
    730    743     1
    731    732     1
    731    747     1
    731    742     1
    731    743     1
    732    745     1
    732    746     1
    733    744     1
    733    736     1
    733    737     1
    734    744     1
    734    736     1
    734    737     1
    736    753     1
    736    745     1
    736    746     1
    737    753     1
    737    745     1
    737    746     1
    739   1565     1
    739    751     1
    739    752     1
    740   1565     1
    740    751     1
    740    752     1
    742   1536     1
    742    748     1
    742    749     1
    743   1536     1
    743    748     1
    743    749     1
    747   1528     1
    747   1529     1
    748   1527     1
    749   1527     1
    750   1557     1
    750   1558     1
    751   1556     1
    752   1556     1
    754    768     1
    754    769     1
    754    771     1
    754    772     1
    754    765     1
    754    766     1
    755    759     1
    755    760     1
    755    762     1
    755    763     1
    755    780     1
    755    781     1
    756    758     1
    756    761     1
    756    779     1
    756    768     1
    756    769     1
    757    758     1
    757    761     1
    757    779     1
    757    768     1
    757    769     1
    758    762     1
    758    763     1
    758    777     1
    758    778     1
    759    761     1
    759    776     1
    759    771     1
    759    772     1
    760    761     1
    760    776     1
    760    771     1
    760    772     1
    761    774     1
    761    775     1
    762    773     1
    762    765     1
    762    766     1
    763    773     1
    763    765     1
    763    766     1
    765    782     1
    765    774     1
    765    775     1
    766    782     1
    766    774     1
    766    775     1
    768   1623     1
    768    780     1
    768    781     1
    769   1623     1
    769    780     1
    769    781     1
    771   1594     1
    771    777     1
    771    778     1
    772   1594     1
    772    777     1
    772    778     1
    776   1586     1
    776   1587     1
    777   1585     1
    778   1585     1
    779   1615     1
    779   1616     1
    780   1614     1
    781   1614     1
    783    797     1
    783    798     1
    783    800     1
    783    801     1
    783    794     1
    783    795     1
    784    788     1
    784    789     1
    784    791     1
    784    792     1
    784    809     1
    784    810     1
    785    787     1
    785    790     1
    785    808     1
    785    797     1
    785    798     1
    786    787     1
    786    790     1
    786    808     1
    786    797     1
    786    798     1
    787    791     1
    787    792     1
    787    806     1
    787    807     1
    788    790     1
    788    805     1
    788    800     1
    788    801     1
    789    790     1
    789    805     1
    789    800     1
    789    801     1
    790    803     1
    790    804     1
    791    802     1
    791    794     1
    791    795     1
    792    802     1
    792    794     1
    792    795     1
    794    811     1
    794    803     1
    794    804     1
    795    811     1
    795    803     1
    795    804     1
    797   1681     1
    797    809     1
    797    810     1
    798   1681     1
    798    809     1
    798    810     1
    800   1652     1
    800    806     1
    800    807     1
    801   1652     1
    801    806     1
    801    807     1
    805   1644     1
    805   1645     1
    806   1643     1
    807   1643     1
    808   1673     1
    808   1674     1
    809   1672     1
    810   1672     1
    812    826     1
    812    827     1
    812    829     1
    812    830     1
    812    823     1
    812    824     1
    813    817     1
    813    818     1
    813    820     1
    813    821     1
    813    838     1
    813    839     1
    814    816     1
    814    819     1
    814    837     1
    814    826     1
    814    827     1
    815    816     1
    815    819     1
    815    837     1
    815    826     1
    815    827     1
    816    820     1
    816    821     1
    816    835     1
    816    836     1
    817    819     1
    817    834     1
    817    829     1
    817    830     1
    818    819     1
    818    834     1
    818    829     1
    818    830     1
    819    832     1
    819    833     1
    820    831     1
    820    823     1
    820    824     1
    821    831     1
    821    823     1
    821    824     1
    823    840     1
    823    832     1
    823    833     1
    824    840     1
    824    832     1
    824    833     1
    826   1739     1
    826    838     1
    826    839     1
    827   1739     1
    827    838     1
    827    839     1
    829   1710     1
    829    835     1
    829    836     1
    830   1710     1
    830    835     1
    830    836     1
    834   1702     1
    834   1703     1
    835   1701     1
    836   1701     1
    837   1731     1
    837   1732     1
    838   1730     1
    839   1730     1
    841    855     1
    841    856     1
    841    858     1
    841    859     1
    841    852     1
    841    853     1
    842    846     1
    842    847     1
    842    849     1
    842    850     1
    842    867     1
    842    868     1
    843    845     1
    843    848     1
    843    866     1
    843    855     1
    843    856     1
    844    845     1
    844    848     1
    844    866     1
    844    855     1
    844    856     1
    845    849     1
    845    850     1
    845    864     1
    845    865     1
    846    848     1
    846    863     1
    846    858     1
    846    859     1
    847    848     1
    847    863     1
    847    858     1
    847    859     1
    848    861     1
    848    862     1
    849    860     1
    849    852     1
    849    853     1
    850    860     1
    850    852     1
    850    853     1
    852    869     1
    852    861     1
    852    862     1
    853    869     1
    853    861     1
    853    862     1
    855   1797     1
    855    867     1
    855    868     1
    856   1797     1
    856    867     1
    856    868     1
    858   1768     1
    858    864     1
    858    865     1
    859   1768     1
    859    864     1
    859    865     1
    863   1760     1
    863   1761     1
    864   1759     1
    865   1759     1
    866   1789     1
    866   1790     1
    867   1788     1
    868   1788     1
    870    884     1
    870    885     1
    870    887     1
    870    888     1
    870    881     1
    870    882     1
    871    875     1
    871    876     1
    871    878     1
    871    879     1
    871    896     1
    871    897     1
    872    874     1
    872    877     1
    872    895     1
    872    884     1
    872    885     1
    873    874     1
    873    877     1
    873    895     1
    873    884     1
    873    885     1
    874    878     1
    874    879     1
    874    893     1
    874    894     1
    875    877     1
    875    892     1
    875    887     1
    875    888     1
    876    877     1
    876    892     1
    876    887     1
    876    888     1
    877    890     1
    877    891     1
    878    889     1
    878    881     1
    878    882     1
    879    889     1
    879    881     1
    879    882     1
    881    898     1
    881    890     1
    881    891     1
    882    898     1
    882    890     1
    882    891     1
    884   1855     1
    884    896     1
    884    897     1
    885   1855     1
    885    896     1
    885    897     1
    887   1826     1
    887    893     1
    887    894     1
    888   1826     1
    888    893     1
    888    894     1
    892   1818     1
    892   1819     1
    893   1817     1
    894   1817     1
    895   1847     1
    895   1848     1
    896   1846     1
    897   1846     1
    899    913     1
    899    914     1
    899    916     1
    899    917     1
    899    910     1
    899    911     1
    900    904     1
    900    905     1
    900    907     1
    900    908     1
    900    925     1
    900    926     1
    901    903     1
    901    906     1
    901    924     1
    901    913     1
    901    914     1
    902    903     1
    902    906     1
    902    924     1
    902    913     1
    902    914     1
    903    907     1
    903    908     1
    903    922     1
    903    923     1
    904    906     1
    904    921     1
    904    916     1
    904    917     1
    905    906     1
    905    921     1
    905    916     1
    905    917     1
    906    919     1
    906    920     1
    907    918     1
    907    910     1
    907    911     1
    908    918     1
    908    910     1
    908    911     1
    910    927     1
    910    919     1
    910    920     1
    911    927     1
    911    919     1
    911    920     1
    913   1913     1
    913    925     1
    913    926     1
    914   1913     1
    914    925     1
    914    926     1
    916   1884     1
    916    922     1
    916    923     1
    917   1884     1
    917    922     1
    917    923     1
    921   1876     1
    921   1877     1
    922   1875     1
    923   1875     1
    924   1905     1
    924   1906     1
    925   1904     1
    926   1904     1
    928    942     1
    928    943     1
    928    945     1
    928    946     1
    928    939     1
    928    940     1
    929    933     1
    929    934     1
    929    936     1
    929    937     1
    929    954     1
    929    955     1
    930    932     1
    930    935     1
    930    953     1
    930    942     1
    930    943     1
    931    932     1
    931    935     1
    931    953     1
    931    942     1
    931    943     1
    932    936     1
    932    937     1
    932    951     1
    932    952     1
    933    935     1
    933    950     1
    933    945     1
    933    946     1
    934    935     1
    934    950     1
    934    945     1
    934    946     1
    935    948     1
    935    949     1
    936    947     1
    936    939     1
    936    940     1
    937    947     1
    937    939     1
    937    940     1
    939    956     1
    939    948     1
    939    949     1
    940    956     1
    940    948     1
    940    949     1
    942   1971     1
    942    954     1
    942    955     1
    943   1971     1
    943    954     1
    943    955     1
    945   1942     1
    945    951     1
    945    952     1
    946   1942     1
    946    951     1
    946    952     1
    950   1934     1
    950   1935     1
    951   1933     1
    952   1933     1
    953   1963     1
    953   1964     1
    954   1962     1
    955   1962     1
    957    971     1
    957    972     1
    957    974     1
    957    975     1
    957    968     1
    957    969     1
    958    962     1
    958    963     1
    958    965     1
    958    966     1
    958    983     1
    958    984     1
    959    961     1
    959    964     1
    959    982     1
    959    971     1
    959    972     1
    960    961     1
    960    964     1
    960    982     1
    960    971     1
    960    972     1
    961    965     1
    961    966     1
    961    980     1
    961    981     1
    962    964     1
    962    979     1
    962    974     1
    962    975     1
    963    964     1
    963    979     1
    963    974     1
    963    975     1
    964    977     1
    964    978     1
    965    976     1
    965    968     1
    965    969     1
    966    976     1
    966    968     1
    966    969     1
    968    985     1
    968    977     1
    968    978     1
    969    985     1
    969    977     1
    969    978     1
    971   2029     1
    971    983     1
    971    984     1
    972   2029     1
    972    983     1
    972    984     1
    974   2000     1
    974    980     1
    974    981     1
    975   2000     1
    975    980     1
    975    981     1
    979   1992     1
    979   1993     1
    980   1991     1
    981   1991     1
    982   2021     1
    982   2022     1
    983   2020     1
    984   2020     1
    986   1000     1
    986   1001     1
    986   1003     1
    986   1004     1
    986    997     1
    986    998     1
    987    991     1
    987    992     1
    987    994     1
    987    995     1
    987   1012     1
    987   1013     1
    988    990     1
    988    993     1
    988   1011     1
    988   1000     1
    988   1001     1
    989    990     1
    989    993     1
    989   1011     1
    989   1000     1
    989   1001     1
    990    994     1
    990    995     1
    990   1009     1
    990   1010     1
    991    993     1
    991   1008     1
    991   1003     1
    991   1004     1
    992    993     1
    992   1008     1
    992   1003     1
    992   1004     1
    993   1006     1
    993   1007     1
    994   1005     1
    994    997     1
    994    998     1
    995   1005     1
    995    997     1
    995    998     1
    997   1014     1
    997   1006     1
    997   1007     1
    998   1014     1
    998   1006     1
    998   1007     1
   1000   2087     1
   1000   1012     1
   1000   1013     1
   1001   2087     1
   1001   1012     1
   1001   1013     1
   1003   2058     1
   1003   1009     1
   1003   1010     1
   1004   2058     1
   1004   1009     1
   1004   1010     1
   1008   2050     1
   1008   2051     1
   1009   2049     1
   1010   2049     1
   1011   2079     1
   1011   2080     1
   1012   2078     1
   1013   2078     1
   1015   1029     1
   1015   1030     1
   1015   1032     1
   1015   1033     1
   1015   1026     1
   1015   1027     1
   1016   1020     1
   1016   1021     1
   1016   1023     1
   1016   1024     1
   1016   1041     1
   1016   1042     1
   1017   1019     1
   1017   1022     1
   1017   1040     1
   1017   1029     1
   1017   1030     1
   1018   1019     1
   1018   1022     1
   1018   1040     1
   1018   1029     1
   1018   1030     1
   1019   1023     1
   1019   1024     1
   1019   1038     1
   1019   1039     1
   1020   1022     1
   1020   1037     1
   1020   1032     1
   1020   1033     1
   1021   1022     1
   1021   1037     1
   1021   1032     1
   1021   1033     1
   1022   1035     1
   1022   1036     1
   1023   1034     1
   1023   1026     1
   1023   1027     1
   1024   1034     1
   1024   1026     1
   1024   1027     1
   1026   1043     1
   1026   1035     1
   1026   1036     1
   1027   1043     1
   1027   1035     1
   1027   1036     1
   1029   2145     1
   1029   1041     1
   1029   1042     1
   1030   2145     1
   1030   1041     1
   1030   1042     1
   1032   2116     1
   1032   1038     1
   1032   1039     1
   1033   2116     1
   1033   1038     1
   1033   1039     1
   1037   2108     1
   1037   2109     1
   1038   2107     1
   1039   2107     1
   1040   2137     1
   1040   2138     1
   1041   2136     1
   1042   2136     1
   1044   1058     1
   1044   1059     1
   1044   1061     1
   1044   1062     1
   1044   1055     1
   1044   1056     1
   1045   1049     1
   1045   1050     1
   1045   1052     1
   1045   1053     1
   1045   1070     1
   1045   1071     1
   1046   1048     1
   1046   1051     1
   1046   1069     1
   1046   1058     1
   1046   1059     1
   1047   1048     1
   1047   1051     1
   1047   1069     1
   1047   1058     1
   1047   1059     1
   1048   1052     1
   1048   1053     1
   1048   1067     1
   1048   1068     1
   1049   1051     1
   1049   1066     1
   1049   1061     1
   1049   1062     1
   1050   1051     1
   1050   1066     1
   1050   1061     1
   1050   1062     1
   1051   1064     1
   1051   1065     1
   1052   1063     1
   1052   1055     1
   1052   1056     1
   1053   1063     1
   1053   1055     1
   1053   1056     1
   1055   1072     1
   1055   1064     1
   1055   1065     1
   1056   1072     1
   1056   1064     1
   1056   1065     1
   1058   2203     1
   1058   1070     1
   1058   1071     1
   1059   2203     1
   1059   1070     1
   1059   1071     1
   1061   2174     1
   1061   1067     1
   1061   1068     1
   1062   2174     1
   1062   1067     1
   1062   1068     1
   1066   2166     1
   1066   2167     1
   1067   2165     1
   1068   2165     1
   1069   2195     1
   1069   2196     1
   1070   2194     1
   1071   2194     1
   1073   1087     1
   1073   1088     1
   1073   1090     1
   1073   1091     1
   1073   1084     1
   1073   1085     1
   1074   1078     1
   1074   1079     1
   1074   1081     1
   1074   1082     1
   1074   1099     1
   1074   1100     1
   1075   1077     1
   1075   1080     1
   1075   1098     1
   1075   1087     1
   1075   1088     1
   1076   1077     1
   1076   1080     1
   1076   1098     1
   1076   1087     1
   1076   1088     1
   1077   1081     1
   1077   1082     1
   1077   1096     1
   1077   1097     1
   1078   1080     1
   1078   1095     1
   1078   1090     1
   1078   1091     1
   1079   1080     1
   1079   1095     1
   1079   1090     1
   1079   1091     1
   1080   1093     1
   1080   1094     1
   1081   1092     1
   1081   1084     1
   1081   1085     1
   1082   1092     1
   1082   1084     1
   1082   1085     1
   1084   1101     1
   1084   1093     1
   1084   1094     1
   1085   1101     1
   1085   1093     1
   1085   1094     1
   1087   2261     1
   1087   1099     1
   1087   1100     1
   1088   2261     1
   1088   1099     1
   1088   1100     1
   1090   2232     1
   1090   1096     1
   1090   1097     1
   1091   2232     1
   1091   1096     1
   1091   1097     1
   1095   2224     1
   1095   2225     1
   1096   2223     1
   1097   2223     1
   1098   2253     1
   1098   2254     1
   1099   2252     1
   1100   2252     1
   1102   1116     1
   1102   1117     1
   1102   1119     1
   1102   1120     1
   1102   1113     1
   1102   1114     1
   1103   1107     1
   1103   1108     1
   1103   1110     1
   1103   1111     1
   1103   1128     1
   1103   1129     1
   1104   1106     1
   1104   1109     1
   1104   1127     1
   1104   1116     1
   1104   1117     1
   1105   1106     1
   1105   1109     1
   1105   1127     1
   1105   1116     1
   1105   1117     1
   1106   1110     1
   1106   1111     1
   1106   1125     1
   1106   1126     1
   1107   1109     1
   1107   1124     1
   1107   1119     1
   1107   1120     1
   1108   1109     1
   1108   1124     1
   1108   1119     1
   1108   1120     1
   1109   1122     1
   1109   1123     1
   1110   1121     1
   1110   1113     1
   1110   1114     1
   1111   1121     1
   1111   1113     1
   1111   1114     1
   1113   1130     1
   1113   1122     1
   1113   1123     1
   1114   1130     1
   1114   1122     1
   1114   1123     1
   1116   2319     1
   1116   1128     1
   1116   1129     1
   1117   2319     1
   1117   1128     1
   1117   1129     1
   1119   2290     1
   1119   1125     1
   1119   1126     1
   1120   2290     1
   1120   1125     1
   1120   1126     1
   1124   2282     1
   1124   2283     1
   1125   2281     1
   1126   2281     1
   1127   2311     1
   1127   2312     1
   1128   2310     1
   1129   2310     1
   1131   1145     1
   1131   1146     1
   1131   1148     1
   1131   1149     1
   1131   1142     1
   1131   1143     1
   1132   1136     1
   1132   1137     1
   1132   1139     1
   1132   1140     1
   1132   1157     1
   1132   1158     1
   1133   1135     1
   1133   1138     1
   1133   1156     1
   1133   1145     1
   1133   1146     1
   1134   1135     1
   1134   1138     1
   1134   1156     1
   1134   1145     1
   1134   1146     1
   1135   1139     1
   1135   1140     1
   1135   1154     1
   1135   1155     1
   1136   1138     1
   1136   1153     1
   1136   1148     1
   1136   1149     1
   1137   1138     1
   1137   1153     1
   1137   1148     1
   1137   1149     1
   1138   1151     1
   1138   1152     1
   1139   1150     1
   1139   1142     1
   1139   1143     1
   1140   1150     1
   1140   1142     1
   1140   1143     1
   1142   1159     1
   1142   1151     1
   1142   1152     1
   1143   1159     1
   1143   1151     1
   1143   1152     1
   1145   2377     1
   1145   1157     1
   1145   1158     1
   1146   2377     1
   1146   1157     1
   1146   1158     1
   1148   2348     1
   1148   1154     1
   1148   1155     1
   1149   2348     1
   1149   1154     1
   1149   1155     1
   1153   2340     1
   1153   2341     1
   1154   2339     1
   1155   2339     1
   1156   2369     1
   1156   2370     1
   1157   2368     1
   1158   2368     1
   1160   1174     1
   1160   1175     1
   1160   1177     1
   1160   1178     1
   1160   1171     1
   1160   1172     1
   1161   1165     1
   1161   1166     1
   1161   1168     1
   1161   1169     1
   1161   1186     1
   1161   1187     1
   1162   1164     1
   1162   1167     1
   1162   1185     1
   1162   1174     1
   1162   1175     1
   1163   1164     1
   1163   1167     1
   1163   1185     1
   1163   1174     1
   1163   1175     1
   1164   1168     1
   1164   1169     1
   1164   1183     1
   1164   1184     1
   1165   1167     1
   1165   1182     1
   1165   1177     1
   1165   1178     1
   1166   1167     1
   1166   1182     1
   1166   1177     1
   1166   1178     1
   1167   1180     1
   1167   1181     1
   1168   1179     1
   1168   1171     1
   1168   1172     1
   1169   1179     1
   1169   1171     1
   1169   1172     1
   1171   1188     1
   1171   1180     1
   1171   1181     1
   1172   1188     1
   1172   1180     1
   1172   1181     1
   1174   2435     1
   1174   1186     1
   1174   1187     1
   1175   2435     1
   1175   1186     1
   1175   1187     1
   1177   2406     1
   1177   1183     1
   1177   1184     1
   1178   2406     1
   1178   1183     1
   1178   1184     1
   1182   2398     1
   1182   2399     1
   1183   2397     1
   1184   2397     1
   1185   2427     1
   1185   2428     1
   1186   2426     1
   1187   2426     1
   1189   1203     1
   1189   1204     1
   1189   1206     1
   1189   1207     1
   1189   1200     1
   1189   1201     1
   1190   1194     1
   1190   1195     1
   1190   1197     1
   1190   1198     1
   1190   1215     1
   1190   1216     1
   1191   1193     1
   1191   1196     1
   1191   1214     1
   1191   1203     1
   1191   1204     1
   1192   1193     1
   1192   1196     1
   1192   1214     1
   1192   1203     1
   1192   1204     1
   1193   1197     1
   1193   1198     1
   1193   1212     1
   1193   1213     1
   1194   1196     1
   1194   1211     1
   1194   1206     1
   1194   1207     1
   1195   1196     1
   1195   1211     1
   1195   1206     1
   1195   1207     1
   1196   1209     1
   1196   1210     1
   1197   1208     1
   1197   1200     1
   1197   1201     1
   1198   1208     1
   1198   1200     1
   1198   1201     1
   1200   1217     1
   1200   1209     1
   1200   1210     1
   1201   1217     1
   1201   1209     1
   1201   1210     1
   1203   2493     1
   1203   1215     1
   1203   1216     1
   1204   2493     1
   1204   1215     1
   1204   1216     1
   1206   2464     1
   1206   1212     1
   1206   1213     1
   1207   2464     1
   1207   1212     1
   1207   1213     1
   1211   2456     1
   1211   2457     1
   1212   2455     1
   1213   2455     1
   1214   2485     1
   1214   2486     1
   1215   2484     1
   1216   2484     1
   1218   1232     1
   1218   1233     1
   1218   1235     1
   1218   1236     1
   1218   1229     1
   1218   1230     1
   1219   1223     1
   1219   1224     1
   1219   1226     1
   1219   1227     1
   1219   1244     1
   1219   1245     1
   1220   1222     1
   1220   1225     1
   1220   1243     1
   1220   1232     1
   1220   1233     1
   1221   1222     1
   1221   1225     1
   1221   1243     1
   1221   1232     1
   1221   1233     1
   1222   1226     1
   1222   1227     1
   1222   1241     1
   1222   1242     1
   1223   1225     1
   1223   1240     1
   1223   1235     1
   1223   1236     1
   1224   1225     1
   1224   1240     1
   1224   1235     1
   1224   1236     1
   1225   1238     1
   1225   1239     1
   1226   1237     1
   1226   1229     1
   1226   1230     1
   1227   1237     1
   1227   1229     1
   1227   1230     1
   1229   1246     1
   1229   1238     1
   1229   1239     1
   1230   1246     1
   1230   1238     1
   1230   1239     1
   1232   2551     1
   1232   1244     1
   1232   1245     1
   1233   2551     1
   1233   1244     1
   1233   1245     1
   1235   2522     1
   1235   1241     1
   1235   1242     1
   1236   2522     1
   1236   1241     1
   1236   1242     1
   1240   2514     1
   1240   2515     1
   1241   2513     1
   1242   2513     1
   1243   2543     1
   1243   2544     1
   1244   2542     1
   1245   2542     1
   1247   1261     1
   1247   1262     1
   1247   1264     1
   1247   1265     1
   1247   1258     1
   1247   1259     1
   1248   1252     1
   1248   1253     1
   1248   1255     1
   1248   1256     1
   1248   1273     1
   1248   1274     1
   1249   1251     1
   1249   1254     1
   1249   1272     1
   1249   1261     1
   1249   1262     1
   1250   1251     1
   1250   1254     1
   1250   1272     1
   1250   1261     1
   1250   1262     1
   1251   1255     1
   1251   1256     1
   1251   1270     1
   1251   1271     1
   1252   1254     1
   1252   1269     1
   1252   1264     1
   1252   1265     1
   1253   1254     1
   1253   1269     1
   1253   1264     1
   1253   1265     1
   1254   1267     1
   1254   1268     1
   1255   1266     1
   1255   1258     1
   1255   1259     1
   1256   1266     1
   1256   1258     1
   1256   1259     1
   1258   1275     1
   1258   1267     1
   1258   1268     1
   1259   1275     1
   1259   1267     1
   1259   1268     1
   1261   2609     1
   1261   1273     1
   1261   1274     1
   1262   2609     1
   1262   1273     1
   1262   1274     1
   1264   2580     1
   1264   1270     1
   1264   1271     1
   1265   2580     1
   1265   1270     1
   1265   1271     1
   1269   2572     1
   1269   2573     1
   1270   2571     1
   1271   2571     1
   1272   2601     1
   1272   2602     1
   1273   2600     1
   1274   2600     1
   1276   1290     1
   1276   1291     1
   1276   1293     1
   1276   1294     1
   1276   1287     1
   1276   1288     1
   1277   1281     1
   1277   1282     1
   1277   1284     1
   1277   1285     1
   1277   1302     1
   1277   1303     1
   1278   1280     1
   1278   1283     1
   1278   1301     1
   1278   1290     1
   1278   1291     1
   1279   1280     1
   1279   1283     1
   1279   1301     1
   1279   1290     1
   1279   1291     1
   1280   1284     1
   1280   1285     1
   1280   1299     1
   1280   1300     1
   1281   1283     1
   1281   1298     1
   1281   1293     1
   1281   1294     1
   1282   1283     1
   1282   1298     1
   1282   1293     1
   1282   1294     1
   1283   1296     1
   1283   1297     1
   1284   1295     1
   1284   1287     1
   1284   1288     1
   1285   1295     1
   1285   1287     1
   1285   1288     1
   1287   1304     1
   1287   1296     1
   1287   1297     1
   1288   1304     1
   1288   1296     1
   1288   1297     1
   1290   2667     1
   1290   1302     1
   1290   1303     1
   1291   2667     1
   1291   1302     1
   1291   1303     1
   1293   2638     1
   1293   1299     1
   1293   1300     1
   1294   2638     1
   1294   1299     1
   1294   1300     1
   1298   2630     1
   1298   2631     1
   1299   2629     1
   1300   2629     1
   1301   2659     1
   1301   2660     1
   1302   2658     1
   1303   2658     1
   1305   1319     1
   1305   1320     1
   1305   1322     1
   1305   1323     1
   1305   1316     1
   1305   1317     1
   1306   1310     1
   1306   1311     1
   1306   1313     1
   1306   1314     1
   1306   1331     1
   1306   1332     1
   1307   1309     1
   1307   1312     1
   1307   1330     1
   1307   1319     1
   1307   1320     1
   1308   1309     1
   1308   1312     1
   1308   1330     1
   1308   1319     1
   1308   1320     1
   1309   1313     1
   1309   1314     1
   1309   1328     1
   1309   1329     1
   1310   1312     1
   1310   1327     1
   1310   1322     1
   1310   1323     1
   1311   1312     1
   1311   1327     1
   1311   1322     1
   1311   1323     1
   1312   1325     1
   1312   1326     1
   1313   1324     1
   1313   1316     1
   1313   1317     1
   1314   1324     1
   1314   1316     1
   1314   1317     1
   1316   1333     1
   1316   1325     1
   1316   1326     1
   1317   1333     1
   1317   1325     1
   1317   1326     1
   1319   2725     1
   1319   1331     1
   1319   1332     1
   1320   2725     1
   1320   1331     1
   1320   1332     1
   1322   2696     1
   1322   1328     1
   1322   1329     1
   1323   2696     1
   1323   1328     1
   1323   1329     1
   1327   2688     1
   1327   2689     1
   1328   2687     1
   1329   2687     1
   1330   2717     1
   1330   2718     1
   1331   2716     1
   1332   2716     1
   1334   1348     1
   1334   1349     1
   1334   1351     1
   1334   1352     1
   1334   1345     1
   1334   1346     1
   1335   1339     1
   1335   1340     1
   1335   1342     1
   1335   1343     1
   1335   1360     1
   1335   1361     1
   1336   1338     1
   1336   1341     1
   1336   1359     1
   1336   1348     1
   1336   1349     1
   1337   1338     1
   1337   1341     1
   1337   1359     1
   1337   1348     1
   1337   1349     1
   1338   1342     1
   1338   1343     1
   1338   1357     1
   1338   1358     1
   1339   1341     1
   1339   1356     1
   1339   1351     1
   1339   1352     1
   1340   1341     1
   1340   1356     1
   1340   1351     1
   1340   1352     1
   1341   1354     1
   1341   1355     1
   1342   1353     1
   1342   1345     1
   1342   1346     1
   1343   1353     1
   1343   1345     1
   1343   1346     1
   1345   1362     1
   1345   1354     1
   1345   1355     1
   1346   1362     1
   1346   1354     1
   1346   1355     1
   1348   2783     1
   1348   1360     1
   1348   1361     1
   1349   2783     1
   1349   1360     1
   1349   1361     1
   1351   2754     1
   1351   1357     1
   1351   1358     1
   1352   2754     1
   1352   1357     1
   1352   1358     1
   1356   2746     1
   1356   2747     1
   1357   2745     1
   1358   2745     1
   1359   2775     1
   1359   2776     1
   1360   2774     1
   1361   2774     1
   1363   1377     1
   1363   1378     1
   1363   1380     1
   1363   1381     1
   1363   1374     1
   1363   1375     1
   1364   1368     1
   1364   1369     1
   1364   1371     1
   1364   1372     1
   1364   1389     1
   1364   1390     1
   1365   1367     1
   1365   1370     1
   1365   1388     1
   1365   1377     1
   1365   1378     1
   1366   1367     1
   1366   1370     1
   1366   1388     1
   1366   1377     1
   1366   1378     1
   1367   1371     1
   1367   1372     1
   1367   1386     1
   1367   1387     1
   1368   1370     1
   1368   1385     1
   1368   1380     1
   1368   1381     1
   1369   1370     1
   1369   1385     1
   1369   1380     1
   1369   1381     1
   1370   1383     1
   1370   1384     1
   1371   1382     1
   1371   1374     1
   1371   1375     1
   1372   1382     1
   1372   1374     1
   1372   1375     1
   1374   1391     1
   1374   1383     1
   1374   1384     1
   1375   1391     1
   1375   1383     1
   1375   1384     1
   1377   2841     1
   1377   1389     1
   1377   1390     1
   1378   2841     1
   1378   1389     1
   1378   1390     1
   1380   2812     1
   1380   1386     1
   1380   1387     1
   1381   2812     1
   1381   1386     1
   1381   1387     1
   1385   2804     1
   1385   2805     1
   1386   2803     1
   1387   2803     1
   1388   2833     1
   1388   2834     1
   1389   2832     1
   1390   2832     1
   1392   1406     1
   1392   1407     1
   1392   1409     1
   1392   1410     1
   1392   1403     1
   1392   1404     1
   1393   1397     1
   1393   1398     1
   1393   1400     1
   1393   1401     1
   1393   1418     1
   1393   1419     1
   1394   1396     1
   1394   1399     1
   1394   1417     1
   1394   1406     1
   1394   1407     1
   1395   1396     1
   1395   1399     1
   1395   1417     1
   1395   1406     1
   1395   1407     1
   1396   1400     1
   1396   1401     1
   1396   1415     1
   1396   1416     1
   1397   1399     1
   1397   1414     1
   1397   1409     1
   1397   1410     1
   1398   1399     1
   1398   1414     1
   1398   1409     1
   1398   1410     1
   1399   1412     1
   1399   1413     1
   1400   1411     1
   1400   1403     1
   1400   1404     1
   1401   1411     1
   1401   1403     1
   1401   1404     1
   1403   1420     1
   1403   1412     1
   1403   1413     1
   1404   1420     1
   1404   1412     1
   1404   1413     1
   1406   2899     1
   1406   1418     1
   1406   1419     1
   1407   2899     1
   1407   1418     1
   1407   1419     1
   1409   2870     1
   1409   1415     1
   1409   1416     1
   1410   2870     1
   1410   1415     1
   1410   1416     1
   1414   2862     1
   1414   2863     1
   1415   2861     1
   1416   2861     1
   1417   2891     1
   1417   2892     1
   1418   2890     1
   1419   2890     1
   1421   1435     1
   1421   1436     1
   1421   1438     1
   1421   1439     1
   1421   1432     1
   1421   1433     1
   1422   1426     1
   1422   1427     1
   1422   1429     1
   1422   1430     1
   1422   1447     1
   1422   1448     1
   1423   1425     1
   1423   1428     1
   1423   1446     1
   1423   1435     1
   1423   1436     1
   1424   1425     1
   1424   1428     1
   1424   1446     1
   1424   1435     1
   1424   1436     1
   1425   1429     1
   1425   1430     1
   1425   1444     1
   1425   1445     1
   1426   1428     1
   1426   1443     1
   1426   1438     1
   1426   1439     1
   1427   1428     1
   1427   1443     1
   1427   1438     1
   1427   1439     1
   1428   1441     1
   1428   1442     1
   1429   1440     1
   1429   1432     1
   1429   1433     1
   1430   1440     1
   1430   1432     1
   1430   1433     1
   1432   1449     1
   1432   1441     1
   1432   1442     1
   1433   1449     1
   1433   1441     1
   1433   1442     1
   1435   2957     1
   1435   1447     1
   1435   1448     1
   1436   2957     1
   1436   1447     1
   1436   1448     1
   1438   2928     1
   1438   1444     1
   1438   1445     1
   1439   2928     1
   1439   1444     1
   1439   1445     1
   1443   2920     1
   1443   2921     1
   1444   2919     1
   1445   2919     1
   1446   2949     1
   1446   2950     1
   1447   2948     1
   1448   2948     1
   1450   1464     1
   1450   1465     1
   1450   1467     1
   1450   1468     1
   1450   1461     1
   1450   1462     1
   1451   1455     1
   1451   1456     1
   1451   1458     1
   1451   1459     1
   1451   1476     1
   1451   1477     1
   1452   1454     1
   1452   1457     1
   1452   1475     1
   1452   1464     1
   1452   1465     1
   1453   1454     1
   1453   1457     1
   1453   1475     1
   1453   1464     1
   1453   1465     1
   1454   1458     1
   1454   1459     1
   1454   1473     1
   1454   1474     1
   1455   1457     1
   1455   1472     1
   1455   1467     1
   1455   1468     1
   1456   1457     1
   1456   1472     1
   1456   1467     1
   1456   1468     1
   1457   1470     1
   1457   1471     1
   1458   1469     1
   1458   1461     1
   1458   1462     1
   1459   1469     1
   1459   1461     1
   1459   1462     1
   1461   1478     1
   1461   1470     1
   1461   1471     1
   1462   1478     1
   1462   1470     1
   1462   1471     1
   1464   3015     1
   1464   1476     1
   1464   1477     1
   1465   3015     1
   1465   1476     1
   1465   1477     1
   1467   2986     1
   1467   1473     1
   1467   1474     1
   1468   2986     1
   1468   1473     1
   1468   1474     1
   1472   2978     1
   1472   2979     1
   1473   2977     1
   1474   2977     1
   1475   3007     1
   1475   3008     1
   1476   3006     1
   1477   3006     1
   1479   1493     1
   1479   1494     1
   1479   1496     1
   1479   1497     1
   1479   1490     1
   1479   1491     1
   1480   1484     1
   1480   1485     1
   1480   1487     1
   1480   1488     1
   1480   1505     1
   1480   1506     1
   1481   1483     1
   1481   1486     1
   1481   1504     1
   1481   1493     1
   1481   1494     1
   1482   1483     1
   1482   1486     1
   1482   1504     1
   1482   1493     1
   1482   1494     1
   1483   1487     1
   1483   1488     1
   1483   1502     1
   1483   1503     1
   1484   1486     1
   1484   1501     1
   1484   1496     1
   1484   1497     1
   1485   1486     1
   1485   1501     1
   1485   1496     1
   1485   1497     1
   1486   1499     1
   1486   1500     1
   1487   1498     1
   1487   1490     1
   1487   1491     1
   1488   1498     1
   1488   1490     1
   1488   1491     1
   1490   1507     1
   1490   1499     1
   1490   1500     1
   1491   1507     1
   1491   1499     1
   1491   1500     1
   1493   3073     1
   1493   1505     1
   1493   1506     1
   1494   3073     1
   1494   1505     1
   1494   1506     1
   1496   3044     1
   1496   1502     1
   1496   1503     1
   1497   3044     1
   1497   1502     1
   1497   1503     1
   1501   3036     1
   1501   3037     1
   1502   3035     1
   1503   3035     1
   1504   3065     1
   1504   3066     1
   1505   3064     1
   1506   3064     1
   1508   1522     1
   1508   1523     1
   1508   1525     1
   1508   1526     1
   1508   1519     1
   1508   1520     1
   1509   1513     1
   1509   1514     1
   1509   1516     1
   1509   1517     1
   1509   1534     1
   1509   1535     1
   1510   1512     1
   1510   1515     1
   1510   1533     1
   1510   1522     1
   1510   1523     1
   1511   1512     1
   1511   1515     1
   1511   1533     1
   1511   1522     1
   1511   1523     1
   1512   1516     1
   1512   1517     1
   1512   1531     1
   1512   1532     1
   1513   1515     1
   1513   1530     1
   1513   1525     1
   1513   1526     1
   1514   1515     1
   1514   1530     1
   1514   1525     1
   1514   1526     1
   1515   1528     1
   1515   1529     1
   1516   1527     1
   1516   1519     1
   1516   1520     1
   1517   1527     1
   1517   1519     1
   1517   1520     1
   1519   1536     1
   1519   1528     1
   1519   1529     1
   1520   1536     1
   1520   1528     1
   1520   1529     1
   1522   3131     1
   1522   1534     1
   1522   1535     1
   1523   3131     1
   1523   1534     1
   1523   1535     1
   1525   3102     1
   1525   1531     1
   1525   1532     1
   1526   3102     1
   1526   1531     1
   1526   1532     1
   1530   3094     1
   1530   3095     1
   1531   3093     1
   1532   3093     1
   1533   3123     1
   1533   3124     1
   1534   3122     1
   1535   3122     1
   1537   1551     1
   1537   1552     1
   1537   1554     1
   1537   1555     1
   1537   1548     1
   1537   1549     1
   1538   1542     1
   1538   1543     1
   1538   1545     1
   1538   1546     1
   1538   1563     1
   1538   1564     1
   1539   1541     1
   1539   1544     1
   1539   1562     1
   1539   1551     1
   1539   1552     1
   1540   1541     1
   1540   1544     1
   1540   1562     1
   1540   1551     1
   1540   1552     1
   1541   1545     1
   1541   1546     1
   1541   1560     1
   1541   1561     1
   1542   1544     1
   1542   1559     1
   1542   1554     1
   1542   1555     1
   1543   1544     1
   1543   1559     1
   1543   1554     1
   1543   1555     1
   1544   1557     1
   1544   1558     1
   1545   1556     1
   1545   1548     1
   1545   1549     1
   1546   1556     1
   1546   1548     1
   1546   1549     1
   1548   1565     1
   1548   1557     1
   1548   1558     1
   1549   1565     1
   1549   1557     1
   1549   1558     1
   1551   3189     1
   1551   1563     1
   1551   1564     1
   1552   3189     1
   1552   1563     1
   1552   1564     1
   1554   3160     1
   1554   1560     1
   1554   1561     1
   1555   3160     1
   1555   1560     1
   1555   1561     1
   1559   3152     1
   1559   3153     1
   1560   3151     1
   1561   3151     1
   1562   3181     1
   1562   3182     1
   1563   3180     1
   1564   3180     1
   1566   1580     1
   1566   1581     1
   1566   1583     1
   1566   1584     1
   1566   1577     1
   1566   1578     1
   1567   1571     1
   1567   1572     1
   1567   1574     1
   1567   1575     1
   1567   1592     1
   1567   1593     1
   1568   1570     1
   1568   1573     1
   1568   1591     1
   1568   1580     1
   1568   1581     1
   1569   1570     1
   1569   1573     1
   1569   1591     1
   1569   1580     1
   1569   1581     1
   1570   1574     1
   1570   1575     1
   1570   1589     1
   1570   1590     1
   1571   1573     1
   1571   1588     1
   1571   1583     1
   1571   1584     1
   1572   1573     1
   1572   1588     1
   1572   1583     1
   1572   1584     1
   1573   1586     1
   1573   1587     1
   1574   1585     1
   1574   1577     1
   1574   1578     1
   1575   1585     1
   1575   1577     1
   1575   1578     1
   1577   1594     1
   1577   1586     1
   1577   1587     1
   1578   1594     1
   1578   1586     1
   1578   1587     1
   1580   3247     1
   1580   1592     1
   1580   1593     1
   1581   3247     1
   1581   1592     1
   1581   1593     1
   1583   3218     1
   1583   1589     1
   1583   1590     1
   1584   3218     1
   1584   1589     1
   1584   1590     1
   1588   3210     1
   1588   3211     1
   1589   3209     1
   1590   3209     1
   1591   3239     1
   1591   3240     1
   1592   3238     1
   1593   3238     1
   1595   1609     1
   1595   1610     1
   1595   1612     1
   1595   1613     1
   1595   1606     1
   1595   1607     1
   1596   1600     1
   1596   1601     1
   1596   1603     1
   1596   1604     1
   1596   1621     1
   1596   1622     1
   1597   1599     1
   1597   1602     1
   1597   1620     1
   1597   1609     1
   1597   1610     1
   1598   1599     1
   1598   1602     1
   1598   1620     1
   1598   1609     1
   1598   1610     1
   1599   1603     1
   1599   1604     1
   1599   1618     1
   1599   1619     1
   1600   1602     1
   1600   1617     1
   1600   1612     1
   1600   1613     1
   1601   1602     1
   1601   1617     1
   1601   1612     1
   1601   1613     1
   1602   1615     1
   1602   1616     1
   1603   1614     1
   1603   1606     1
   1603   1607     1
   1604   1614     1
   1604   1606     1
   1604   1607     1
   1606   1623     1
   1606   1615     1
   1606   1616     1
   1607   1623     1
   1607   1615     1
   1607   1616     1
   1609   3305     1
   1609   1621     1
   1609   1622     1
   1610   3305     1
   1610   1621     1
   1610   1622     1
   1612   3276     1
   1612   1618     1
   1612   1619     1
   1613   3276     1
   1613   1618     1
   1613   1619     1
   1617   3268     1
   1617   3269     1
   1618   3267     1
   1619   3267     1
   1620   3297     1
   1620   3298     1
   1621   3296     1
   1622   3296     1
   1624   1638     1
   1624   1639     1
   1624   1641     1
   1624   1642     1
   1624   1635     1
   1624   1636     1
   1625   1629     1
   1625   1630     1
   1625   1632     1
   1625   1633     1
   1625   1650     1
   1625   1651     1
   1626   1628     1
   1626   1631     1
   1626   1649     1
   1626   1638     1
   1626   1639     1
   1627   1628     1
   1627   1631     1
   1627   1649     1
   1627   1638     1
   1627   1639     1
   1628   1632     1
   1628   1633     1
   1628   1647     1
   1628   1648     1
   1629   1631     1
   1629   1646     1
   1629   1641     1
   1629   1642     1
   1630   1631     1
   1630   1646     1
   1630   1641     1
   1630   1642     1
   1631   1644     1
   1631   1645     1
   1632   1643     1
   1632   1635     1
   1632   1636     1
   1633   1643     1
   1633   1635     1
   1633   1636     1
   1635   1652     1
   1635   1644     1
   1635   1645     1
   1636   1652     1
   1636   1644     1
   1636   1645     1
   1638   3363     1
   1638   1650     1
   1638   1651     1
   1639   3363     1
   1639   1650     1
   1639   1651     1
   1641   3334     1
   1641   1647     1
   1641   1648     1
   1642   3334     1
   1642   1647     1
   1642   1648     1
   1646   3326     1
   1646   3327     1
   1647   3325     1
   1648   3325     1
   1649   3355     1
   1649   3356     1
   1650   3354     1
   1651   3354     1
   1653   1667     1
   1653   1668     1
   1653   1670     1
   1653   1671     1
   1653   1664     1
   1653   1665     1
   1654   1658     1
   1654   1659     1
   1654   1661     1
   1654   1662     1
   1654   1679     1
   1654   1680     1
   1655   1657     1
   1655   1660     1
   1655   1678     1
   1655   1667     1
   1655   1668     1
   1656   1657     1
   1656   1660     1
   1656   1678     1
   1656   1667     1
   1656   1668     1
   1657   1661     1
   1657   1662     1
   1657   1676     1
   1657   1677     1
   1658   1660     1
   1658   1675     1
   1658   1670     1
   1658   1671     1
   1659   1660     1
   1659   1675     1
   1659   1670     1
   1659   1671     1
   1660   1673     1
   1660   1674     1
   1661   1672     1
   1661   1664     1
   1661   1665     1
   1662   1672     1
   1662   1664     1
   1662   1665     1
   1664   1681     1
   1664   1673     1
   1664   1674     1
   1665   1681     1
   1665   1673     1
   1665   1674     1
   1667   3421     1
   1667   1679     1
   1667   1680     1
   1668   3421     1
   1668   1679     1
   1668   1680     1
   1670   3392     1
   1670   1676     1
   1670   1677     1
   1671   3392     1
   1671   1676     1
   1671   1677     1
   1675   3384     1
   1675   3385     1
   1676   3383     1
   1677   3383     1
   1678   3413     1
   1678   3414     1
   1679   3412     1
   1680   3412     1
   1682   1696     1
   1682   1697     1
   1682   1699     1
   1682   1700     1
   1682   1693     1
   1682   1694     1
   1683   1687     1
   1683   1688     1
   1683   1690     1
   1683   1691     1
   1683   1708     1
   1683   1709     1
   1684   1686     1
   1684   1689     1
   1684   1707     1
   1684   1696     1
   1684   1697     1
   1685   1686     1
   1685   1689     1
   1685   1707     1
   1685   1696     1
   1685   1697     1
   1686   1690     1
   1686   1691     1
   1686   1705     1
   1686   1706     1
   1687   1689     1
   1687   1704     1
   1687   1699     1
   1687   1700     1
   1688   1689     1
   1688   1704     1
   1688   1699     1
   1688   1700     1
   1689   1702     1
   1689   1703     1
   1690   1701     1
   1690   1693     1
   1690   1694     1
   1691   1701     1
   1691   1693     1
   1691   1694     1
   1693   1710     1
   1693   1702     1
   1693   1703     1
   1694   1710     1
   1694   1702     1
   1694   1703     1
   1696   3479     1
   1696   1708     1
   1696   1709     1
   1697   3479     1
   1697   1708     1
   1697   1709     1
   1699   3450     1
   1699   1705     1
   1699   1706     1
   1700   3450     1
   1700   1705     1
   1700   1706     1
   1704   3442     1
   1704   3443     1
   1705   3441     1
   1706   3441     1
   1707   3471     1
   1707   3472     1
   1708   3470     1
   1709   3470     1
   1711   1725     1
   1711   1726     1
   1711   1728     1
   1711   1729     1
   1711   1722     1
   1711   1723     1
   1712   1716     1
   1712   1717     1
   1712   1719     1
   1712   1720     1
   1712   1737     1
   1712   1738     1
   1713   1715     1
   1713   1718     1
   1713   1736     1
   1713   1725     1
   1713   1726     1
   1714   1715     1
   1714   1718     1
   1714   1736     1
   1714   1725     1
   1714   1726     1
   1715   1719     1
   1715   1720     1
   1715   1734     1
   1715   1735     1
   1716   1718     1
   1716   1733     1
   1716   1728     1
   1716   1729     1
   1717   1718     1
   1717   1733     1
   1717   1728     1
   1717   1729     1
   1718   1731     1
   1718   1732     1
   1719   1730     1
   1719   1722     1
   1719   1723     1
   1720   1730     1
   1720   1722     1
   1720   1723     1
   1722   1739     1
   1722   1731     1
   1722   1732     1
   1723   1739     1
   1723   1731     1
   1723   1732     1
   1725   3537     1
   1725   1737     1
   1725   1738     1
   1726   3537     1
   1726   1737     1
   1726   1738     1
   1728   3508     1
   1728   1734     1
   1728   1735     1
   1729   3508     1
   1729   1734     1
   1729   1735     1
   1733   3500     1
   1733   3501     1
   1734   3499     1
   1735   3499     1
   1736   3529     1
   1736   3530     1
   1737   3528     1
   1738   3528     1
   1740   1754     1
   1740   1755     1
   1740   1757     1
   1740   1758     1
   1740   1751     1
   1740   1752     1
   1741   1745     1
   1741   1746     1
   1741   1748     1
   1741   1749     1
   1741   1766     1
   1741   1767     1
   1742   1744     1
   1742   1747     1
   1742   1765     1
   1742   1754     1
   1742   1755     1
   1743   1744     1
   1743   1747     1
   1743   1765     1
   1743   1754     1
   1743   1755     1
   1744   1748     1
   1744   1749     1
   1744   1763     1
   1744   1764     1
   1745   1747     1
   1745   1762     1
   1745   1757     1
   1745   1758     1
   1746   1747     1
   1746   1762     1
   1746   1757     1
   1746   1758     1
   1747   1760     1
   1747   1761     1
   1748   1759     1
   1748   1751     1
   1748   1752     1
   1749   1759     1
   1749   1751     1
   1749   1752     1
   1751   1768     1
   1751   1760     1
   1751   1761     1
   1752   1768     1
   1752   1760     1
   1752   1761     1
   1754   3595     1
   1754   1766     1
   1754   1767     1
   1755   3595     1
   1755   1766     1
   1755   1767     1
   1757   3566     1
   1757   1763     1
   1757   1764     1
   1758   3566     1
   1758   1763     1
   1758   1764     1
   1762   3558     1
   1762   3559     1
   1763   3557     1
   1764   3557     1
   1765   3587     1
   1765   3588     1
   1766   3586     1
   1767   3586     1
   1769   1783     1
   1769   1784     1
   1769   1786     1
   1769   1787     1
   1769   1780     1
   1769   1781     1
   1770   1774     1
   1770   1775     1
   1770   1777     1
   1770   1778     1
   1770   1795     1
   1770   1796     1
   1771   1773     1
   1771   1776     1
   1771   1794     1
   1771   1783     1
   1771   1784     1
   1772   1773     1
   1772   1776     1
   1772   1794     1
   1772   1783     1
   1772   1784     1
   1773   1777     1
   1773   1778     1
   1773   1792     1
   1773   1793     1
   1774   1776     1
   1774   1791     1
   1774   1786     1
   1774   1787     1
   1775   1776     1
   1775   1791     1
   1775   1786     1
   1775   1787     1
   1776   1789     1
   1776   1790     1
   1777   1788     1
   1777   1780     1
   1777   1781     1
   1778   1788     1
   1778   1780     1
   1778   1781     1
   1780   1797     1
   1780   1789     1
   1780   1790     1
   1781   1797     1
   1781   1789     1
   1781   1790     1
   1783   3653     1
   1783   1795     1
   1783   1796     1
   1784   3653     1
   1784   1795     1
   1784   1796     1
   1786   3624     1
   1786   1792     1
   1786   1793     1
   1787   3624     1
   1787   1792     1
   1787   1793     1
   1791   3616     1
   1791   3617     1
   1792   3615     1
   1793   3615     1
   1794   3645     1
   1794   3646     1
   1795   3644     1
   1796   3644     1
   1798   1812     1
   1798   1813     1
   1798   1815     1
   1798   1816     1
   1798   1809     1
   1798   1810     1
   1799   1803     1
   1799   1804     1
   1799   1806     1
   1799   1807     1
   1799   1824     1
   1799   1825     1
   1800   1802     1
   1800   1805     1
   1800   1823     1
   1800   1812     1
   1800   1813     1
   1801   1802     1
   1801   1805     1
   1801   1823     1
   1801   1812     1
   1801   1813     1
   1802   1806     1
   1802   1807     1
   1802   1821     1
   1802   1822     1
   1803   1805     1
   1803   1820     1
   1803   1815     1
   1803   1816     1
   1804   1805     1
   1804   1820     1
   1804   1815     1
   1804   1816     1
   1805   1818     1
   1805   1819     1
   1806   1817     1
   1806   1809     1
   1806   1810     1
   1807   1817     1
   1807   1809     1
   1807   1810     1
   1809   1826     1
   1809   1818     1
   1809   1819     1
   1810   1826     1
   1810   1818     1
   1810   1819     1
   1812   3711     1
   1812   1824     1
   1812   1825     1
   1813   3711     1
   1813   1824     1
   1813   1825     1
   1815   3682     1
   1815   1821     1
   1815   1822     1
   1816   3682     1
   1816   1821     1
   1816   1822     1
   1820   3674     1
   1820   3675     1
   1821   3673     1
   1822   3673     1
   1823   3703     1
   1823   3704     1
   1824   3702     1
   1825   3702     1
   1827   1841     1
   1827   1842     1
   1827   1844     1
   1827   1845     1
   1827   1838     1
   1827   1839     1
   1828   1832     1
   1828   1833     1
   1828   1835     1
   1828   1836     1
   1828   1853     1
   1828   1854     1
   1829   1831     1
   1829   1834     1
   1829   1852     1
   1829   1841     1
   1829   1842     1
   1830   1831     1
   1830   1834     1
   1830   1852     1
   1830   1841     1
   1830   1842     1
   1831   1835     1
   1831   1836     1
   1831   1850     1
   1831   1851     1
   1832   1834     1
   1832   1849     1
   1832   1844     1
   1832   1845     1
   1833   1834     1
   1833   1849     1
   1833   1844     1
   1833   1845     1
   1834   1847     1
   1834   1848     1
   1835   1846     1
   1835   1838     1
   1835   1839     1
   1836   1846     1
   1836   1838     1
   1836   1839     1
   1838   1855     1
   1838   1847     1
   1838   1848     1
   1839   1855     1
   1839   1847     1
   1839   1848     1
   1841   3769     1
   1841   1853     1
   1841   1854     1
   1842   3769     1
   1842   1853     1
   1842   1854     1
   1844   3740     1
   1844   1850     1
   1844   1851     1
   1845   3740     1
   1845   1850     1
   1845   1851     1
   1849   3732     1
   1849   3733     1
   1850   3731     1
   1851   3731     1
   1852   3761     1
   1852   3762     1
   1853   3760     1
   1854   3760     1
   1856   1870     1
   1856   1871     1
   1856   1873     1
   1856   1874     1
   1856   1867     1
   1856   1868     1
   1857   1861     1
   1857   1862     1
   1857   1864     1
   1857   1865     1
   1857   1882     1
   1857   1883     1
   1858   1860     1
   1858   1863     1
   1858   1881     1
   1858   1870     1
   1858   1871     1
   1859   1860     1
   1859   1863     1
   1859   1881     1
   1859   1870     1
   1859   1871     1
   1860   1864     1
   1860   1865     1
   1860   1879     1
   1860   1880     1
   1861   1863     1
   1861   1878     1
   1861   1873     1
   1861   1874     1
   1862   1863     1
   1862   1878     1
   1862   1873     1
   1862   1874     1
   1863   1876     1
   1863   1877     1
   1864   1875     1
   1864   1867     1
   1864   1868     1
   1865   1875     1
   1865   1867     1
   1865   1868     1
   1867   1884     1
   1867   1876     1
   1867   1877     1
   1868   1884     1
   1868   1876     1
   1868   1877     1
   1870   3827     1
   1870   1882     1
   1870   1883     1
   1871   3827     1
   1871   1882     1
   1871   1883     1
   1873   3798     1
   1873   1879     1
   1873   1880     1
   1874   3798     1
   1874   1879     1
   1874   1880     1
   1878   3790     1
   1878   3791     1
   1879   3789     1
   1880   3789     1
   1881   3819     1
   1881   3820     1
   1882   3818     1
   1883   3818     1
   1885   1899     1
   1885   1900     1
   1885   1902     1
   1885   1903     1
   1885   1896     1
   1885   1897     1
   1886   1890     1
   1886   1891     1
   1886   1893     1
   1886   1894     1
   1886   1911     1
   1886   1912     1
   1887   1889     1
   1887   1892     1
   1887   1910     1
   1887   1899     1
   1887   1900     1
   1888   1889     1
   1888   1892     1
   1888   1910     1
   1888   1899     1
   1888   1900     1
   1889   1893     1
   1889   1894     1
   1889   1908     1
   1889   1909     1
   1890   1892     1
   1890   1907     1
   1890   1902     1
   1890   1903     1
   1891   1892     1
   1891   1907     1
   1891   1902     1
   1891   1903     1
   1892   1905     1
   1892   1906     1
   1893   1904     1
   1893   1896     1
   1893   1897     1
   1894   1904     1
   1894   1896     1
   1894   1897     1
   1896   1913     1
   1896   1905     1
   1896   1906     1
   1897   1913     1
   1897   1905     1
   1897   1906     1
   1899   3885     1
   1899   1911     1
   1899   1912     1
   1900   3885     1
   1900   1911     1
   1900   1912     1
   1902   3856     1
   1902   1908     1
   1902   1909     1
   1903   3856     1
   1903   1908     1
   1903   1909     1
   1907   3848     1
   1907   3849     1
   1908   3847     1
   1909   3847     1
   1910   3877     1
   1910   3878     1
   1911   3876     1
   1912   3876     1
   1914   1928     1
   1914   1929     1
   1914   1931     1
   1914   1932     1
   1914   1925     1
   1914   1926     1
   1915   1919     1
   1915   1920     1
   1915   1922     1
   1915   1923     1
   1915   1940     1
   1915   1941     1
   1916   1918     1
   1916   1921     1
   1916   1939     1
   1916   1928     1
   1916   1929     1
   1917   1918     1
   1917   1921     1
   1917   1939     1
   1917   1928     1
   1917   1929     1
   1918   1922     1
   1918   1923     1
   1918   1937     1
   1918   1938     1
   1919   1921     1
   1919   1936     1
   1919   1931     1
   1919   1932     1
   1920   1921     1
   1920   1936     1
   1920   1931     1
   1920   1932     1
   1921   1934     1
   1921   1935     1
   1922   1933     1
   1922   1925     1
   1922   1926     1
   1923   1933     1
   1923   1925     1
   1923   1926     1
   1925   1942     1
   1925   1934     1
   1925   1935     1
   1926   1942     1
   1926   1934     1
   1926   1935     1
   1928   3943     1
   1928   1940     1
   1928   1941     1
   1929   3943     1
   1929   1940     1
   1929   1941     1
   1931   3914     1
   1931   1937     1
   1931   1938     1
   1932   3914     1
   1932   1937     1
   1932   1938     1
   1936   3906     1
   1936   3907     1
   1937   3905     1
   1938   3905     1
   1939   3935     1
   1939   3936     1
   1940   3934     1
   1941   3934     1
   1943   1957     1
   1943   1958     1
   1943   1960     1
   1943   1961     1
   1943   1954     1
   1943   1955     1
   1944   1948     1
   1944   1949     1
   1944   1951     1
   1944   1952     1
   1944   1969     1
   1944   1970     1
   1945   1947     1
   1945   1950     1
   1945   1968     1
   1945   1957     1
   1945   1958     1
   1946   1947     1
   1946   1950     1
   1946   1968     1
   1946   1957     1
   1946   1958     1
   1947   1951     1
   1947   1952     1
   1947   1966     1
   1947   1967     1
   1948   1950     1
   1948   1965     1
   1948   1960     1
   1948   1961     1
   1949   1950     1
   1949   1965     1
   1949   1960     1
   1949   1961     1
   1950   1963     1
   1950   1964     1
   1951   1962     1
   1951   1954     1
   1951   1955     1
   1952   1962     1
   1952   1954     1
   1952   1955     1
   1954   1971     1
   1954   1963     1
   1954   1964     1
   1955   1971     1
   1955   1963     1
   1955   1964     1
   1957   4001     1
   1957   1969     1
   1957   1970     1
   1958   4001     1
   1958   1969     1
   1958   1970     1
   1960   3972     1
   1960   1966     1
   1960   1967     1
   1961   3972     1
   1961   1966     1
   1961   1967     1
   1965   3964     1
   1965   3965     1
   1966   3963     1
   1967   3963     1
   1968   3993     1
   1968   3994     1
   1969   3992     1
   1970   3992     1
   1972   1986     1
   1972   1987     1
   1972   1989     1
   1972   1990     1
   1972   1983     1
   1972   1984     1
   1973   1977     1
   1973   1978     1
   1973   1980     1
   1973   1981     1
   1973   1998     1
   1973   1999     1
   1974   1976     1
   1974   1979     1
   1974   1997     1
   1974   1986     1
   1974   1987     1
   1975   1976     1
   1975   1979     1
   1975   1997     1
   1975   1986     1
   1975   1987     1
   1976   1980     1
   1976   1981     1
   1976   1995     1
   1976   1996     1
   1977   1979     1
   1977   1994     1
   1977   1989     1
   1977   1990     1
   1978   1979     1
   1978   1994     1
   1978   1989     1
   1978   1990     1
   1979   1992     1
   1979   1993     1
   1980   1991     1
   1980   1983     1
   1980   1984     1
   1981   1991     1
   1981   1983     1
   1981   1984     1
   1983   2000     1
   1983   1992     1
   1983   1993     1
   1984   2000     1
   1984   1992     1
   1984   1993     1
   1986   4059     1
   1986   1998     1
   1986   1999     1
   1987   4059     1
   1987   1998     1
   1987   1999     1
   1989   4030     1
   1989   1995     1
   1989   1996     1
   1990   4030     1
   1990   1995     1
   1990   1996     1
   1994   4022     1
   1994   4023     1
   1995   4021     1
   1996   4021     1
   1997   4051     1
   1997   4052     1
   1998   4050     1
   1999   4050     1
   2001   2015     1
   2001   2016     1
   2001   2018     1
   2001   2019     1
   2001   2012     1
   2001   2013     1
   2002   2006     1
   2002   2007     1
   2002   2009     1
   2002   2010     1
   2002   2027     1
   2002   2028     1
   2003   2005     1
   2003   2008     1
   2003   2026     1
   2003   2015     1
   2003   2016     1
   2004   2005     1
   2004   2008     1
   2004   2026     1
   2004   2015     1
   2004   2016     1
   2005   2009     1
   2005   2010     1
   2005   2024     1
   2005   2025     1
   2006   2008     1
   2006   2023     1
   2006   2018     1
   2006   2019     1
   2007   2008     1
   2007   2023     1
   2007   2018     1
   2007   2019     1
   2008   2021     1
   2008   2022     1
   2009   2020     1
   2009   2012     1
   2009   2013     1
   2010   2020     1
   2010   2012     1
   2010   2013     1
   2012   2029     1
   2012   2021     1
   2012   2022     1
   2013   2029     1
   2013   2021     1
   2013   2022     1
   2015   4117     1
   2015   2027     1
   2015   2028     1
   2016   4117     1
   2016   2027     1
   2016   2028     1
   2018   4088     1
   2018   2024     1
   2018   2025     1
   2019   4088     1
   2019   2024     1
   2019   2025     1
   2023   4080     1
   2023   4081     1
   2024   4079     1
   2025   4079     1
   2026   4109     1
   2026   4110     1
   2027   4108     1
   2028   4108     1
   2030   2044     1
   2030   2045     1
   2030   2047     1
   2030   2048     1
   2030   2041     1
   2030   2042     1
   2031   2035     1
   2031   2036     1
   2031   2038     1
   2031   2039     1
   2031   2056     1
   2031   2057     1
   2032   2034     1
   2032   2037     1
   2032   2055     1
   2032   2044     1
   2032   2045     1
   2033   2034     1
   2033   2037     1
   2033   2055     1
   2033   2044     1
   2033   2045     1
   2034   2038     1
   2034   2039     1
   2034   2053     1
   2034   2054     1
   2035   2037     1
   2035   2052     1
   2035   2047     1
   2035   2048     1
   2036   2037     1
   2036   2052     1
   2036   2047     1
   2036   2048     1
   2037   2050     1
   2037   2051     1
   2038   2049     1
   2038   2041     1
   2038   2042     1
   2039   2049     1
   2039   2041     1
   2039   2042     1
   2041   2058     1
   2041   2050     1
   2041   2051     1
   2042   2058     1
   2042   2050     1
   2042   2051     1
   2044   4175     1
   2044   2056     1
   2044   2057     1
   2045   4175     1
   2045   2056     1
   2045   2057     1
   2047   4146     1
   2047   2053     1
   2047   2054     1
   2048   4146     1
   2048   2053     1
   2048   2054     1
   2052   4138     1
   2052   4139     1
   2053   4137     1
   2054   4137     1
   2055   4167     1
   2055   4168     1
   2056   4166     1
   2057   4166     1
   2059   2073     1
   2059   2074     1
   2059   2076     1
   2059   2077     1
   2059   2070     1
   2059   2071     1
   2060   2064     1
   2060   2065     1
   2060   2067     1
   2060   2068     1
   2060   2085     1
   2060   2086     1
   2061   2063     1
   2061   2066     1
   2061   2084     1
   2061   2073     1
   2061   2074     1
   2062   2063     1
   2062   2066     1
   2062   2084     1
   2062   2073     1
   2062   2074     1
   2063   2067     1
   2063   2068     1
   2063   2082     1
   2063   2083     1
   2064   2066     1
   2064   2081     1
   2064   2076     1
   2064   2077     1
   2065   2066     1
   2065   2081     1
   2065   2076     1
   2065   2077     1
   2066   2079     1
   2066   2080     1
   2067   2078     1
   2067   2070     1
   2067   2071     1
   2068   2078     1
   2068   2070     1
   2068   2071     1
   2070   2087     1
   2070   2079     1
   2070   2080     1
   2071   2087     1
   2071   2079     1
   2071   2080     1
   2073   4233     1
   2073   2085     1
   2073   2086     1
   2074   4233     1
   2074   2085     1
   2074   2086     1
   2076   4204     1
   2076   2082     1
   2076   2083     1
   2077   4204     1
   2077   2082     1
   2077   2083     1
   2081   4196     1
   2081   4197     1
   2082   4195     1
   2083   4195     1
   2084   4225     1
   2084   4226     1
   2085   4224     1
   2086   4224     1
   2088   2102     1
   2088   2103     1
   2088   2105     1
   2088   2106     1
   2088   2099     1
   2088   2100     1
   2089   2093     1
   2089   2094     1
   2089   2096     1
   2089   2097     1
   2089   2114     1
   2089   2115     1
   2090   2092     1
   2090   2095     1
   2090   2113     1
   2090   2102     1
   2090   2103     1
   2091   2092     1
   2091   2095     1
   2091   2113     1
   2091   2102     1
   2091   2103     1
   2092   2096     1
   2092   2097     1
   2092   2111     1
   2092   2112     1
   2093   2095     1
   2093   2110     1
   2093   2105     1
   2093   2106     1
   2094   2095     1
   2094   2110     1
   2094   2105     1
   2094   2106     1
   2095   2108     1
   2095   2109     1
   2096   2107     1
   2096   2099     1
   2096   2100     1
   2097   2107     1
   2097   2099     1
   2097   2100     1
   2099   2116     1
   2099   2108     1
   2099   2109     1
   2100   2116     1
   2100   2108     1
   2100   2109     1
   2102   4291     1
   2102   2114     1
   2102   2115     1
   2103   4291     1
   2103   2114     1
   2103   2115     1
   2105   4262     1
   2105   2111     1
   2105   2112     1
   2106   4262     1
   2106   2111     1
   2106   2112     1
   2110   4254     1
   2110   4255     1
   2111   4253     1
   2112   4253     1
   2113   4283     1
   2113   4284     1
   2114   4282     1
   2115   4282     1
   2117   2131     1
   2117   2132     1
   2117   2134     1
   2117   2135     1
   2117   2128     1
   2117   2129     1
   2118   2122     1
   2118   2123     1
   2118   2125     1
   2118   2126     1
   2118   2143     1
   2118   2144     1
   2119   2121     1
   2119   2124     1
   2119   2142     1
   2119   2131     1
   2119   2132     1
   2120   2121     1
   2120   2124     1
   2120   2142     1
   2120   2131     1
   2120   2132     1
   2121   2125     1
   2121   2126     1
   2121   2140     1
   2121   2141     1
   2122   2124     1
   2122   2139     1
   2122   2134     1
   2122   2135     1
   2123   2124     1
   2123   2139     1
   2123   2134     1
   2123   2135     1
   2124   2137     1
   2124   2138     1
   2125   2136     1
   2125   2128     1
   2125   2129     1
   2126   2136     1
   2126   2128     1
   2126   2129     1
   2128   2145     1
   2128   2137     1
   2128   2138     1
   2129   2145     1
   2129   2137     1
   2129   2138     1
   2131   4349     1
   2131   2143     1
   2131   2144     1
   2132   4349     1
   2132   2143     1
   2132   2144     1
   2134   4320     1
   2134   2140     1
   2134   2141     1
   2135   4320     1
   2135   2140     1
   2135   2141     1
   2139   4312     1
   2139   4313     1
   2140   4311     1
   2141   4311     1
   2142   4341     1
   2142   4342     1
   2143   4340     1
   2144   4340     1
   2146   2160     1
   2146   2161     1
   2146   2163     1
   2146   2164     1
   2146   2157     1
   2146   2158     1
   2147   2151     1
   2147   2152     1
   2147   2154     1
   2147   2155     1
   2147   2172     1
   2147   2173     1
   2148   2150     1
   2148   2153     1
   2148   2171     1
   2148   2160     1
   2148   2161     1
   2149   2150     1
   2149   2153     1
   2149   2171     1
   2149   2160     1
   2149   2161     1
   2150   2154     1
   2150   2155     1
   2150   2169     1
   2150   2170     1
   2151   2153     1
   2151   2168     1
   2151   2163     1
   2151   2164     1
   2152   2153     1
   2152   2168     1
   2152   2163     1
   2152   2164     1
   2153   2166     1
   2153   2167     1
   2154   2165     1
   2154   2157     1
   2154   2158     1
   2155   2165     1
   2155   2157     1
   2155   2158     1
   2157   2174     1
   2157   2166     1
   2157   2167     1
   2158   2174     1
   2158   2166     1
   2158   2167     1
   2160   4407     1
   2160   2172     1
   2160   2173     1
   2161   4407     1
   2161   2172     1
   2161   2173     1
   2163   4378     1
   2163   2169     1
   2163   2170     1
   2164   4378     1
   2164   2169     1
   2164   2170     1
   2168   4370     1
   2168   4371     1
   2169   4369     1
   2170   4369     1
   2171   4399     1
   2171   4400     1
   2172   4398     1
   2173   4398     1
   2175   2189     1
   2175   2190     1
   2175   2192     1
   2175   2193     1
   2175   2186     1
   2175   2187     1
   2176   2180     1
   2176   2181     1
   2176   2183     1
   2176   2184     1
   2176   2201     1
   2176   2202     1
   2177   2179     1
   2177   2182     1
   2177   2200     1
   2177   2189     1
   2177   2190     1
   2178   2179     1
   2178   2182     1
   2178   2200     1
   2178   2189     1
   2178   2190     1
   2179   2183     1
   2179   2184     1
   2179   2198     1
   2179   2199     1
   2180   2182     1
   2180   2197     1
   2180   2192     1
   2180   2193     1
   2181   2182     1
   2181   2197     1
   2181   2192     1
   2181   2193     1
   2182   2195     1
   2182   2196     1
   2183   2194     1
   2183   2186     1
   2183   2187     1
   2184   2194     1
   2184   2186     1
   2184   2187     1
   2186   2203     1
   2186   2195     1
   2186   2196     1
   2187   2203     1
   2187   2195     1
   2187   2196     1
   2189   4465     1
   2189   2201     1
   2189   2202     1
   2190   4465     1
   2190   2201     1
   2190   2202     1
   2192   4436     1
   2192   2198     1
   2192   2199     1
   2193   4436     1
   2193   2198     1
   2193   2199     1
   2197   4428     1
   2197   4429     1
   2198   4427     1
   2199   4427     1
   2200   4457     1
   2200   4458     1
   2201   4456     1
   2202   4456     1
   2204   2218     1
   2204   2219     1
   2204   2221     1
   2204   2222     1
   2204   2215     1
   2204   2216     1
   2205   2209     1
   2205   2210     1
   2205   2212     1
   2205   2213     1
   2205   2230     1
   2205   2231     1
   2206   2208     1
   2206   2211     1
   2206   2229     1
   2206   2218     1
   2206   2219     1
   2207   2208     1
   2207   2211     1
   2207   2229     1
   2207   2218     1
   2207   2219     1
   2208   2212     1
   2208   2213     1
   2208   2227     1
   2208   2228     1
   2209   2211     1
   2209   2226     1
   2209   2221     1
   2209   2222     1
   2210   2211     1
   2210   2226     1
   2210   2221     1
   2210   2222     1
   2211   2224     1
   2211   2225     1
   2212   2223     1
   2212   2215     1
   2212   2216     1
   2213   2223     1
   2213   2215     1
   2213   2216     1
   2215   2232     1
   2215   2224     1
   2215   2225     1
   2216   2232     1
   2216   2224     1
   2216   2225     1
   2218   4523     1
   2218   2230     1
   2218   2231     1
   2219   4523     1
   2219   2230     1
   2219   2231     1
   2221   4494     1
   2221   2227     1
   2221   2228     1
   2222   4494     1
   2222   2227     1
   2222   2228     1
   2226   4486     1
   2226   4487     1
   2227   4485     1
   2228   4485     1
   2229   4515     1
   2229   4516     1
   2230   4514     1
   2231   4514     1
   2233   2247     1
   2233   2248     1
   2233   2250     1
   2233   2251     1
   2233   2244     1
   2233   2245     1
   2234   2238     1
   2234   2239     1
   2234   2241     1
   2234   2242     1
   2234   2259     1
   2234   2260     1
   2235   2237     1
   2235   2240     1
   2235   2258     1
   2235   2247     1
   2235   2248     1
   2236   2237     1
   2236   2240     1
   2236   2258     1
   2236   2247     1
   2236   2248     1
   2237   2241     1
   2237   2242     1
   2237   2256     1
   2237   2257     1
   2238   2240     1
   2238   2255     1
   2238   2250     1
   2238   2251     1
   2239   2240     1
   2239   2255     1
   2239   2250     1
   2239   2251     1
   2240   2253     1
   2240   2254     1
   2241   2252     1
   2241   2244     1
   2241   2245     1
   2242   2252     1
   2242   2244     1
   2242   2245     1
   2244   2261     1
   2244   2253     1
   2244   2254     1
   2245   2261     1
   2245   2253     1
   2245   2254     1
   2247   4581     1
   2247   2259     1
   2247   2260     1
   2248   4581     1
   2248   2259     1
   2248   2260     1
   2250   4552     1
   2250   2256     1
   2250   2257     1
   2251   4552     1
   2251   2256     1
   2251   2257     1
   2255   4544     1
   2255   4545     1
   2256   4543     1
   2257   4543     1
   2258   4573     1
   2258   4574     1
   2259   4572     1
   2260   4572     1
   2262   2276     1
   2262   2277     1
   2262   2279     1
   2262   2280     1
   2262   2273     1
   2262   2274     1
   2263   2267     1
   2263   2268     1
   2263   2270     1
   2263   2271     1
   2263   2288     1
   2263   2289     1
   2264   2266     1
   2264   2269     1
   2264   2287     1
   2264   2276     1
   2264   2277     1
   2265   2266     1
   2265   2269     1
   2265   2287     1
   2265   2276     1
   2265   2277     1
   2266   2270     1
   2266   2271     1
   2266   2285     1
   2266   2286     1
   2267   2269     1
   2267   2284     1
   2267   2279     1
   2267   2280     1
   2268   2269     1
   2268   2284     1
   2268   2279     1
   2268   2280     1
   2269   2282     1
   2269   2283     1
   2270   2281     1
   2270   2273     1
   2270   2274     1
   2271   2281     1
   2271   2273     1
   2271   2274     1
   2273   2290     1
   2273   2282     1
   2273   2283     1
   2274   2290     1
   2274   2282     1
   2274   2283     1
   2276   4639     1
   2276   2288     1
   2276   2289     1
   2277   4639     1
   2277   2288     1
   2277   2289     1
   2279   4610     1
   2279   2285     1
   2279   2286     1
   2280   4610     1
   2280   2285     1
   2280   2286     1
   2284   4602     1
   2284   4603     1
   2285   4601     1
   2286   4601     1
   2287   4631     1
   2287   4632     1
   2288   4630     1
   2289   4630     1
   2291   2305     1
   2291   2306     1
   2291   2308     1
   2291   2309     1
   2291   2302     1
   2291   2303     1
   2292   2296     1
   2292   2297     1
   2292   2299     1
   2292   2300     1
   2292   2317     1
   2292   2318     1
   2293   2295     1
   2293   2298     1
   2293   2316     1
   2293   2305     1
   2293   2306     1
   2294   2295     1
   2294   2298     1
   2294   2316     1
   2294   2305     1
   2294   2306     1
   2295   2299     1
   2295   2300     1
   2295   2314     1
   2295   2315     1
   2296   2298     1
   2296   2313     1
   2296   2308     1
   2296   2309     1
   2297   2298     1
   2297   2313     1
   2297   2308     1
   2297   2309     1
   2298   2311     1
   2298   2312     1
   2299   2310     1
   2299   2302     1
   2299   2303     1
   2300   2310     1
   2300   2302     1
   2300   2303     1
   2302   2319     1
   2302   2311     1
   2302   2312     1
   2303   2319     1
   2303   2311     1
   2303   2312     1
   2305   4697     1
   2305   2317     1
   2305   2318     1
   2306   4697     1
   2306   2317     1
   2306   2318     1
   2308   4668     1
   2308   2314     1
   2308   2315     1
   2309   4668     1
   2309   2314     1
   2309   2315     1
   2313   4660     1
   2313   4661     1
   2314   4659     1
   2315   4659     1
   2316   4689     1
   2316   4690     1
   2317   4688     1
   2318   4688     1
   2320   2334     1
   2320   2335     1
   2320   2337     1
   2320   2338     1
   2320   2331     1
   2320   2332     1
   2321   2325     1
   2321   2326     1
   2321   2328     1
   2321   2329     1
   2321   2346     1
   2321   2347     1
   2322   2324     1
   2322   2327     1
   2322   2345     1
   2322   2334     1
   2322   2335     1
   2323   2324     1
   2323   2327     1
   2323   2345     1
   2323   2334     1
   2323   2335     1
   2324   2328     1
   2324   2329     1
   2324   2343     1
   2324   2344     1
   2325   2327     1
   2325   2342     1
   2325   2337     1
   2325   2338     1
   2326   2327     1
   2326   2342     1
   2326   2337     1
   2326   2338     1
   2327   2340     1
   2327   2341     1
   2328   2339     1
   2328   2331     1
   2328   2332     1
   2329   2339     1
   2329   2331     1
   2329   2332     1
   2331   2348     1
   2331   2340     1
   2331   2341     1
   2332   2348     1
   2332   2340     1
   2332   2341     1
   2334   4755     1
   2334   2346     1
   2334   2347     1
   2335   4755     1
   2335   2346     1
   2335   2347     1
   2337   4726     1
   2337   2343     1
   2337   2344     1
   2338   4726     1
   2338   2343     1
   2338   2344     1
   2342   4718     1
   2342   4719     1
   2343   4717     1
   2344   4717     1
   2345   4747     1
   2345   4748     1
   2346   4746     1
   2347   4746     1
   2349   2363     1
   2349   2364     1
   2349   2366     1
   2349   2367     1
   2349   2360     1
   2349   2361     1
   2350   2354     1
   2350   2355     1
   2350   2357     1
   2350   2358     1
   2350   2375     1
   2350   2376     1
   2351   2353     1
   2351   2356     1
   2351   2374     1
   2351   2363     1
   2351   2364     1
   2352   2353     1
   2352   2356     1
   2352   2374     1
   2352   2363     1
   2352   2364     1
   2353   2357     1
   2353   2358     1
   2353   2372     1
   2353   2373     1
   2354   2356     1
   2354   2371     1
   2354   2366     1
   2354   2367     1
   2355   2356     1
   2355   2371     1
   2355   2366     1
   2355   2367     1
   2356   2369     1
   2356   2370     1
   2357   2368     1
   2357   2360     1
   2357   2361     1
   2358   2368     1
   2358   2360     1
   2358   2361     1
   2360   2377     1
   2360   2369     1
   2360   2370     1
   2361   2377     1
   2361   2369     1
   2361   2370     1
   2363   4813     1
   2363   2375     1
   2363   2376     1
   2364   4813     1
   2364   2375     1
   2364   2376     1
   2366   4784     1
   2366   2372     1
   2366   2373     1
   2367   4784     1
   2367   2372     1
   2367   2373     1
   2371   4776     1
   2371   4777     1
   2372   4775     1
   2373   4775     1
   2374   4805     1
   2374   4806     1
   2375   4804     1
   2376   4804     1
   2378   2392     1
   2378   2393     1
   2378   2395     1
   2378   2396     1
   2378   2389     1
   2378   2390     1
   2379   2383     1
   2379   2384     1
   2379   2386     1
   2379   2387     1
   2379   2404     1
   2379   2405     1
   2380   2382     1
   2380   2385     1
   2380   2403     1
   2380   2392     1
   2380   2393     1
   2381   2382     1
   2381   2385     1
   2381   2403     1
   2381   2392     1
   2381   2393     1
   2382   2386     1
   2382   2387     1
   2382   2401     1
   2382   2402     1
   2383   2385     1
   2383   2400     1
   2383   2395     1
   2383   2396     1
   2384   2385     1
   2384   2400     1
   2384   2395     1
   2384   2396     1
   2385   2398     1
   2385   2399     1
   2386   2397     1
   2386   2389     1
   2386   2390     1
   2387   2397     1
   2387   2389     1
   2387   2390     1
   2389   2406     1
   2389   2398     1
   2389   2399     1
   2390   2406     1
   2390   2398     1
   2390   2399     1
   2392   4871     1
   2392   2404     1
   2392   2405     1
   2393   4871     1
   2393   2404     1
   2393   2405     1
   2395   4842     1
   2395   2401     1
   2395   2402     1
   2396   4842     1
   2396   2401     1
   2396   2402     1
   2400   4834     1
   2400   4835     1
   2401   4833     1
   2402   4833     1
   2403   4863     1
   2403   4864     1
   2404   4862     1
   2405   4862     1
   2407   2421     1
   2407   2422     1
   2407   2424     1
   2407   2425     1
   2407   2418     1
   2407   2419     1
   2408   2412     1
   2408   2413     1
   2408   2415     1
   2408   2416     1
   2408   2433     1
   2408   2434     1
   2409   2411     1
   2409   2414     1
   2409   2432     1
   2409   2421     1
   2409   2422     1
   2410   2411     1
   2410   2414     1
   2410   2432     1
   2410   2421     1
   2410   2422     1
   2411   2415     1
   2411   2416     1
   2411   2430     1
   2411   2431     1
   2412   2414     1
   2412   2429     1
   2412   2424     1
   2412   2425     1
   2413   2414     1
   2413   2429     1
   2413   2424     1
   2413   2425     1
   2414   2427     1
   2414   2428     1
   2415   2426     1
   2415   2418     1
   2415   2419     1
   2416   2426     1
   2416   2418     1
   2416   2419     1
   2418   2435     1
   2418   2427     1
   2418   2428     1
   2419   2435     1
   2419   2427     1
   2419   2428     1
   2421   4929     1
   2421   2433     1
   2421   2434     1
   2422   4929     1
   2422   2433     1
   2422   2434     1
   2424   4900     1
   2424   2430     1
   2424   2431     1
   2425   4900     1
   2425   2430     1
   2425   2431     1
   2429   4892     1
   2429   4893     1
   2430   4891     1
   2431   4891     1
   2432   4921     1
   2432   4922     1
   2433   4920     1
   2434   4920     1
   2436   2450     1
   2436   2451     1
   2436   2453     1
   2436   2454     1
   2436   2447     1
   2436   2448     1
   2437   2441     1
   2437   2442     1
   2437   2444     1
   2437   2445     1
   2437   2462     1
   2437   2463     1
   2438   2440     1
   2438   2443     1
   2438   2461     1
   2438   2450     1
   2438   2451     1
   2439   2440     1
   2439   2443     1
   2439   2461     1
   2439   2450     1
   2439   2451     1
   2440   2444     1
   2440   2445     1
   2440   2459     1
   2440   2460     1
   2441   2443     1
   2441   2458     1
   2441   2453     1
   2441   2454     1
   2442   2443     1
   2442   2458     1
   2442   2453     1
   2442   2454     1
   2443   2456     1
   2443   2457     1
   2444   2455     1
   2444   2447     1
   2444   2448     1
   2445   2455     1
   2445   2447     1
   2445   2448     1
   2447   2464     1
   2447   2456     1
   2447   2457     1
   2448   2464     1
   2448   2456     1
   2448   2457     1
   2450   4987     1
   2450   2462     1
   2450   2463     1
   2451   4987     1
   2451   2462     1
   2451   2463     1
   2453   4958     1
   2453   2459     1
   2453   2460     1
   2454   4958     1
   2454   2459     1
   2454   2460     1
   2458   4950     1
   2458   4951     1
   2459   4949     1
   2460   4949     1
   2461   4979     1
   2461   4980     1
   2462   4978     1
   2463   4978     1
   2465   2479     1
   2465   2480     1
   2465   2482     1
   2465   2483     1
   2465   2476     1
   2465   2477     1
   2466   2470     1
   2466   2471     1
   2466   2473     1
   2466   2474     1
   2466   2491     1
   2466   2492     1
   2467   2469     1
   2467   2472     1
   2467   2490     1
   2467   2479     1
   2467   2480     1
   2468   2469     1
   2468   2472     1
   2468   2490     1
   2468   2479     1
   2468   2480     1
   2469   2473     1
   2469   2474     1
   2469   2488     1
   2469   2489     1
   2470   2472     1
   2470   2487     1
   2470   2482     1
   2470   2483     1
   2471   2472     1
   2471   2487     1
   2471   2482     1
   2471   2483     1
   2472   2485     1
   2472   2486     1
   2473   2484     1
   2473   2476     1
   2473   2477     1
   2474   2484     1
   2474   2476     1
   2474   2477     1
   2476   2493     1
   2476   2485     1
   2476   2486     1
   2477   2493     1
   2477   2485     1
   2477   2486     1
   2479   5045     1
   2479   2491     1
   2479   2492     1
   2480   5045     1
   2480   2491     1
   2480   2492     1
   2482   5016     1
   2482   2488     1
   2482   2489     1
   2483   5016     1
   2483   2488     1
   2483   2489     1
   2487   5008     1
   2487   5009     1
   2488   5007     1
   2489   5007     1
   2490   5037     1
   2490   5038     1
   2491   5036     1
   2492   5036     1
   2494   2508     1
   2494   2509     1
   2494   2511     1
   2494   2512     1
   2494   2505     1
   2494   2506     1
   2495   2499     1
   2495   2500     1
   2495   2502     1
   2495   2503     1
   2495   2520     1
   2495   2521     1
   2496   2498     1
   2496   2501     1
   2496   2519     1
   2496   2508     1
   2496   2509     1
   2497   2498     1
   2497   2501     1
   2497   2519     1
   2497   2508     1
   2497   2509     1
   2498   2502     1
   2498   2503     1
   2498   2517     1
   2498   2518     1
   2499   2501     1
   2499   2516     1
   2499   2511     1
   2499   2512     1
   2500   2501     1
   2500   2516     1
   2500   2511     1
   2500   2512     1
   2501   2514     1
   2501   2515     1
   2502   2513     1
   2502   2505     1
   2502   2506     1
   2503   2513     1
   2503   2505     1
   2503   2506     1
   2505   2522     1
   2505   2514     1
   2505   2515     1
   2506   2522     1
   2506   2514     1
   2506   2515     1
   2508   5103     1
   2508   2520     1
   2508   2521     1
   2509   5103     1
   2509   2520     1
   2509   2521     1
   2511   5074     1
   2511   2517     1
   2511   2518     1
   2512   5074     1
   2512   2517     1
   2512   2518     1
   2516   5066     1
   2516   5067     1
   2517   5065     1
   2518   5065     1
   2519   5095     1
   2519   5096     1
   2520   5094     1
   2521   5094     1
   2523   2537     1
   2523   2538     1
   2523   2540     1
   2523   2541     1
   2523   2534     1
   2523   2535     1
   2524   2528     1
   2524   2529     1
   2524   2531     1
   2524   2532     1
   2524   2549     1
   2524   2550     1
   2525   2527     1
   2525   2530     1
   2525   2548     1
   2525   2537     1
   2525   2538     1
   2526   2527     1
   2526   2530     1
   2526   2548     1
   2526   2537     1
   2526   2538     1
   2527   2531     1
   2527   2532     1
   2527   2546     1
   2527   2547     1
   2528   2530     1
   2528   2545     1
   2528   2540     1
   2528   2541     1
   2529   2530     1
   2529   2545     1
   2529   2540     1
   2529   2541     1
   2530   2543     1
   2530   2544     1
   2531   2542     1
   2531   2534     1
   2531   2535     1
   2532   2542     1
   2532   2534     1
   2532   2535     1
   2534   2551     1
   2534   2543     1
   2534   2544     1
   2535   2551     1
   2535   2543     1
   2535   2544     1
   2537   5161     1
   2537   2549     1
   2537   2550     1
   2538   5161     1
   2538   2549     1
   2538   2550     1
   2540   5132     1
   2540   2546     1
   2540   2547     1
   2541   5132     1
   2541   2546     1
   2541   2547     1
   2545   5124     1
   2545   5125     1
   2546   5123     1
   2547   5123     1
   2548   5153     1
   2548   5154     1
   2549   5152     1
   2550   5152     1
   2552   2566     1
   2552   2567     1
   2552   2569     1
   2552   2570     1
   2552   2563     1
   2552   2564     1
   2553   2557     1
   2553   2558     1
   2553   2560     1
   2553   2561     1
   2553   2578     1
   2553   2579     1
   2554   2556     1
   2554   2559     1
   2554   2577     1
   2554   2566     1
   2554   2567     1
   2555   2556     1
   2555   2559     1
   2555   2577     1
   2555   2566     1
   2555   2567     1
   2556   2560     1
   2556   2561     1
   2556   2575     1
   2556   2576     1
   2557   2559     1
   2557   2574     1
   2557   2569     1
   2557   2570     1
   2558   2559     1
   2558   2574     1
   2558   2569     1
   2558   2570     1
   2559   2572     1
   2559   2573     1
   2560   2571     1
   2560   2563     1
   2560   2564     1
   2561   2571     1
   2561   2563     1
   2561   2564     1
   2563   2580     1
   2563   2572     1
   2563   2573     1
   2564   2580     1
   2564   2572     1
   2564   2573     1
   2566   5219     1
   2566   2578     1
   2566   2579     1
   2567   5219     1
   2567   2578     1
   2567   2579     1
   2569   5190     1
   2569   2575     1
   2569   2576     1
   2570   5190     1
   2570   2575     1
   2570   2576     1
   2574   5182     1
   2574   5183     1
   2575   5181     1
   2576   5181     1
   2577   5211     1
   2577   5212     1
   2578   5210     1
   2579   5210     1
   2581   2595     1
   2581   2596     1
   2581   2598     1
   2581   2599     1
   2581   2592     1
   2581   2593     1
   2582   2586     1
   2582   2587     1
   2582   2589     1
   2582   2590     1
   2582   2607     1
   2582   2608     1
   2583   2585     1
   2583   2588     1
   2583   2606     1
   2583   2595     1
   2583   2596     1
   2584   2585     1
   2584   2588     1
   2584   2606     1
   2584   2595     1
   2584   2596     1
   2585   2589     1
   2585   2590     1
   2585   2604     1
   2585   2605     1
   2586   2588     1
   2586   2603     1
   2586   2598     1
   2586   2599     1
   2587   2588     1
   2587   2603     1
   2587   2598     1
   2587   2599     1
   2588   2601     1
   2588   2602     1
   2589   2600     1
   2589   2592     1
   2589   2593     1
   2590   2600     1
   2590   2592     1
   2590   2593     1
   2592   2609     1
   2592   2601     1
   2592   2602     1
   2593   2609     1
   2593   2601     1
   2593   2602     1
   2595   5277     1
   2595   2607     1
   2595   2608     1
   2596   5277     1
   2596   2607     1
   2596   2608     1
   2598   5248     1
   2598   2604     1
   2598   2605     1
   2599   5248     1
   2599   2604     1
   2599   2605     1
   2603   5240     1
   2603   5241     1
   2604   5239     1
   2605   5239     1
   2606   5269     1
   2606   5270     1
   2607   5268     1
   2608   5268     1
   2610   2624     1
   2610   2625     1
   2610   2627     1
   2610   2628     1
   2610   2621     1
   2610   2622     1
   2611   2615     1
   2611   2616     1
   2611   2618     1
   2611   2619     1
   2611   2636     1
   2611   2637     1
   2612   2614     1
   2612   2617     1
   2612   2635     1
   2612   2624     1
   2612   2625     1
   2613   2614     1
   2613   2617     1
   2613   2635     1
   2613   2624     1
   2613   2625     1
   2614   2618     1
   2614   2619     1
   2614   2633     1
   2614   2634     1
   2615   2617     1
   2615   2632     1
   2615   2627     1
   2615   2628     1
   2616   2617     1
   2616   2632     1
   2616   2627     1
   2616   2628     1
   2617   2630     1
   2617   2631     1
   2618   2629     1
   2618   2621     1
   2618   2622     1
   2619   2629     1
   2619   2621     1
   2619   2622     1
   2621   2638     1
   2621   2630     1
   2621   2631     1
   2622   2638     1
   2622   2630     1
   2622   2631     1
   2624   5335     1
   2624   2636     1
   2624   2637     1
   2625   5335     1
   2625   2636     1
   2625   2637     1
   2627   5306     1
   2627   2633     1
   2627   2634     1
   2628   5306     1
   2628   2633     1
   2628   2634     1
   2632   5298     1
   2632   5299     1
   2633   5297     1
   2634   5297     1
   2635   5327     1
   2635   5328     1
   2636   5326     1
   2637   5326     1
   2639   2653     1
   2639   2654     1
   2639   2656     1
   2639   2657     1
   2639   2650     1
   2639   2651     1
   2640   2644     1
   2640   2645     1
   2640   2647     1
   2640   2648     1
   2640   2665     1
   2640   2666     1
   2641   2643     1
   2641   2646     1
   2641   2664     1
   2641   2653     1
   2641   2654     1
   2642   2643     1
   2642   2646     1
   2642   2664     1
   2642   2653     1
   2642   2654     1
   2643   2647     1
   2643   2648     1
   2643   2662     1
   2643   2663     1
   2644   2646     1
   2644   2661     1
   2644   2656     1
   2644   2657     1
   2645   2646     1
   2645   2661     1
   2645   2656     1
   2645   2657     1
   2646   2659     1
   2646   2660     1
   2647   2658     1
   2647   2650     1
   2647   2651     1
   2648   2658     1
   2648   2650     1
   2648   2651     1
   2650   2667     1
   2650   2659     1
   2650   2660     1
   2651   2667     1
   2651   2659     1
   2651   2660     1
   2653   5393     1
   2653   2665     1
   2653   2666     1
   2654   5393     1
   2654   2665     1
   2654   2666     1
   2656   5364     1
   2656   2662     1
   2656   2663     1
   2657   5364     1
   2657   2662     1
   2657   2663     1
   2661   5356     1
   2661   5357     1
   2662   5355     1
   2663   5355     1
   2664   5385     1
   2664   5386     1
   2665   5384     1
   2666   5384     1
   2668   2682     1
   2668   2683     1
   2668   2685     1
   2668   2686     1
   2668   2679     1
   2668   2680     1
   2669   2673     1
   2669   2674     1
   2669   2676     1
   2669   2677     1
   2669   2694     1
   2669   2695     1
   2670   2672     1
   2670   2675     1
   2670   2693     1
   2670   2682     1
   2670   2683     1
   2671   2672     1
   2671   2675     1
   2671   2693     1
   2671   2682     1
   2671   2683     1
   2672   2676     1
   2672   2677     1
   2672   2691     1
   2672   2692     1
   2673   2675     1
   2673   2690     1
   2673   2685     1
   2673   2686     1
   2674   2675     1
   2674   2690     1
   2674   2685     1
   2674   2686     1
   2675   2688     1
   2675   2689     1
   2676   2687     1
   2676   2679     1
   2676   2680     1
   2677   2687     1
   2677   2679     1
   2677   2680     1
   2679   2696     1
   2679   2688     1
   2679   2689     1
   2680   2696     1
   2680   2688     1
   2680   2689     1
   2682   5451     1
   2682   2694     1
   2682   2695     1
   2683   5451     1
   2683   2694     1
   2683   2695     1
   2685   5422     1
   2685   2691     1
   2685   2692     1
   2686   5422     1
   2686   2691     1
   2686   2692     1
   2690   5414     1
   2690   5415     1
   2691   5413     1
   2692   5413     1
   2693   5443     1
   2693   5444     1
   2694   5442     1
   2695   5442     1
   2697   2711     1
   2697   2712     1
   2697   2714     1
   2697   2715     1
   2697   2708     1
   2697   2709     1
   2698   2702     1
   2698   2703     1
   2698   2705     1
   2698   2706     1
   2698   2723     1
   2698   2724     1
   2699   2701     1
   2699   2704     1
   2699   2722     1
   2699   2711     1
   2699   2712     1
   2700   2701     1
   2700   2704     1
   2700   2722     1
   2700   2711     1
   2700   2712     1
   2701   2705     1
   2701   2706     1
   2701   2720     1
   2701   2721     1
   2702   2704     1
   2702   2719     1
   2702   2714     1
   2702   2715     1
   2703   2704     1
   2703   2719     1
   2703   2714     1
   2703   2715     1
   2704   2717     1
   2704   2718     1
   2705   2716     1
   2705   2708     1
   2705   2709     1
   2706   2716     1
   2706   2708     1
   2706   2709     1
   2708   2725     1
   2708   2717     1
   2708   2718     1
   2709   2725     1
   2709   2717     1
   2709   2718     1
   2711   5509     1
   2711   2723     1
   2711   2724     1
   2712   5509     1
   2712   2723     1
   2712   2724     1
   2714   5480     1
   2714   2720     1
   2714   2721     1
   2715   5480     1
   2715   2720     1
   2715   2721     1
   2719   5472     1
   2719   5473     1
   2720   5471     1
   2721   5471     1
   2722   5501     1
   2722   5502     1
   2723   5500     1
   2724   5500     1
   2726   2740     1
   2726   2741     1
   2726   2743     1
   2726   2744     1
   2726   2737     1
   2726   2738     1
   2727   2731     1
   2727   2732     1
   2727   2734     1
   2727   2735     1
   2727   2752     1
   2727   2753     1
   2728   2730     1
   2728   2733     1
   2728   2751     1
   2728   2740     1
   2728   2741     1
   2729   2730     1
   2729   2733     1
   2729   2751     1
   2729   2740     1
   2729   2741     1
   2730   2734     1
   2730   2735     1
   2730   2749     1
   2730   2750     1
   2731   2733     1
   2731   2748     1
   2731   2743     1
   2731   2744     1
   2732   2733     1
   2732   2748     1
   2732   2743     1
   2732   2744     1
   2733   2746     1
   2733   2747     1
   2734   2745     1
   2734   2737     1
   2734   2738     1
   2735   2745     1
   2735   2737     1
   2735   2738     1
   2737   2754     1
   2737   2746     1
   2737   2747     1
   2738   2754     1
   2738   2746     1
   2738   2747     1
   2740   5567     1
   2740   2752     1
   2740   2753     1
   2741   5567     1
   2741   2752     1
   2741   2753     1
   2743   5538     1
   2743   2749     1
   2743   2750     1
   2744   5538     1
   2744   2749     1
   2744   2750     1
   2748   5530     1
   2748   5531     1
   2749   5529     1
   2750   5529     1
   2751   5559     1
   2751   5560     1
   2752   5558     1
   2753   5558     1
   2755   2769     1
   2755   2770     1
   2755   2772     1
   2755   2773     1
   2755   2766     1
   2755   2767     1
   2756   2760     1
   2756   2761     1
   2756   2763     1
   2756   2764     1
   2756   2781     1
   2756   2782     1
   2757   2759     1
   2757   2762     1
   2757   2780     1
   2757   2769     1
   2757   2770     1
   2758   2759     1
   2758   2762     1
   2758   2780     1
   2758   2769     1
   2758   2770     1
   2759   2763     1
   2759   2764     1
   2759   2778     1
   2759   2779     1
   2760   2762     1
   2760   2777     1
   2760   2772     1
   2760   2773     1
   2761   2762     1
   2761   2777     1
   2761   2772     1
   2761   2773     1
   2762   2775     1
   2762   2776     1
   2763   2774     1
   2763   2766     1
   2763   2767     1
   2764   2774     1
   2764   2766     1
   2764   2767     1
   2766   2783     1
   2766   2775     1
   2766   2776     1
   2767   2783     1
   2767   2775     1
   2767   2776     1
   2769   5625     1
   2769   2781     1
   2769   2782     1
   2770   5625     1
   2770   2781     1
   2770   2782     1
   2772   5596     1
   2772   2778     1
   2772   2779     1
   2773   5596     1
   2773   2778     1
   2773   2779     1
   2777   5588     1
   2777   5589     1
   2778   5587     1
   2779   5587     1
   2780   5617     1
   2780   5618     1
   2781   5616     1
   2782   5616     1
   2784   2798     1
   2784   2799     1
   2784   2801     1
   2784   2802     1
   2784   2795     1
   2784   2796     1
   2785   2789     1
   2785   2790     1
   2785   2792     1
   2785   2793     1
   2785   2810     1
   2785   2811     1
   2786   2788     1
   2786   2791     1
   2786   2809     1
   2786   2798     1
   2786   2799     1
   2787   2788     1
   2787   2791     1
   2787   2809     1
   2787   2798     1
   2787   2799     1
   2788   2792     1
   2788   2793     1
   2788   2807     1
   2788   2808     1
   2789   2791     1
   2789   2806     1
   2789   2801     1
   2789   2802     1
   2790   2791     1
   2790   2806     1
   2790   2801     1
   2790   2802     1
   2791   2804     1
   2791   2805     1
   2792   2803     1
   2792   2795     1
   2792   2796     1
   2793   2803     1
   2793   2795     1
   2793   2796     1
   2795   2812     1
   2795   2804     1
   2795   2805     1
   2796   2812     1
   2796   2804     1
   2796   2805     1
   2798   5683     1
   2798   2810     1
   2798   2811     1
   2799   5683     1
   2799   2810     1
   2799   2811     1
   2801   5654     1
   2801   2807     1
   2801   2808     1
   2802   5654     1
   2802   2807     1
   2802   2808     1
   2806   5646     1
   2806   5647     1
   2807   5645     1
   2808   5645     1
   2809   5675     1
   2809   5676     1
   2810   5674     1
   2811   5674     1
   2813   2827     1
   2813   2828     1
   2813   2830     1
   2813   2831     1
   2813   2824     1
   2813   2825     1
   2814   2818     1
   2814   2819     1
   2814   2821     1
   2814   2822     1
   2814   2839     1
   2814   2840     1
   2815   2817     1
   2815   2820     1
   2815   2838     1
   2815   2827     1
   2815   2828     1
   2816   2817     1
   2816   2820     1
   2816   2838     1
   2816   2827     1
   2816   2828     1
   2817   2821     1
   2817   2822     1
   2817   2836     1
   2817   2837     1
   2818   2820     1
   2818   2835     1
   2818   2830     1
   2818   2831     1
   2819   2820     1
   2819   2835     1
   2819   2830     1
   2819   2831     1
   2820   2833     1
   2820   2834     1
   2821   2832     1
   2821   2824     1
   2821   2825     1
   2822   2832     1
   2822   2824     1
   2822   2825     1
   2824   2841     1
   2824   2833     1
   2824   2834     1
   2825   2841     1
   2825   2833     1
   2825   2834     1
   2827   5741     1
   2827   2839     1
   2827   2840     1
   2828   5741     1
   2828   2839     1
   2828   2840     1
   2830   5712     1
   2830   2836     1
   2830   2837     1
   2831   5712     1
   2831   2836     1
   2831   2837     1
   2835   5704     1
   2835   5705     1
   2836   5703     1
   2837   5703     1
   2838   5733     1
   2838   5734     1
   2839   5732     1
   2840   5732     1
   2842   2856     1
   2842   2857     1
   2842   2859     1
   2842   2860     1
   2842   2853     1
   2842   2854     1
   2843   2847     1
   2843   2848     1
   2843   2850     1
   2843   2851     1
   2843   2868     1
   2843   2869     1
   2844   2846     1
   2844   2849     1
   2844   2867     1
   2844   2856     1
   2844   2857     1
   2845   2846     1
   2845   2849     1
   2845   2867     1
   2845   2856     1
   2845   2857     1
   2846   2850     1
   2846   2851     1
   2846   2865     1
   2846   2866     1
   2847   2849     1
   2847   2864     1
   2847   2859     1
   2847   2860     1
   2848   2849     1
   2848   2864     1
   2848   2859     1
   2848   2860     1
   2849   2862     1
   2849   2863     1
   2850   2861     1
   2850   2853     1
   2850   2854     1
   2851   2861     1
   2851   2853     1
   2851   2854     1
   2853   2870     1
   2853   2862     1
   2853   2863     1
   2854   2870     1
   2854   2862     1
   2854   2863     1
   2856   5799     1
   2856   2868     1
   2856   2869     1
   2857   5799     1
   2857   2868     1
   2857   2869     1
   2859   5770     1
   2859   2865     1
   2859   2866     1
   2860   5770     1
   2860   2865     1
   2860   2866     1
   2864   5762     1
   2864   5763     1
   2865   5761     1
   2866   5761     1
   2867   5791     1
   2867   5792     1
   2868   5790     1
   2869   5790     1
   2871   2885     1
   2871   2886     1
   2871   2888     1
   2871   2889     1
   2871   2882     1
   2871   2883     1
   2872   2876     1
   2872   2877     1
   2872   2879     1
   2872   2880     1
   2872   2897     1
   2872   2898     1
   2873   2875     1
   2873   2878     1
   2873   2896     1
   2873   2885     1
   2873   2886     1
   2874   2875     1
   2874   2878     1
   2874   2896     1
   2874   2885     1
   2874   2886     1
   2875   2879     1
   2875   2880     1
   2875   2894     1
   2875   2895     1
   2876   2878     1
   2876   2893     1
   2876   2888     1
   2876   2889     1
   2877   2878     1
   2877   2893     1
   2877   2888     1
   2877   2889     1
   2878   2891     1
   2878   2892     1
   2879   2890     1
   2879   2882     1
   2879   2883     1
   2880   2890     1
   2880   2882     1
   2880   2883     1
   2882   2899     1
   2882   2891     1
   2882   2892     1
   2883   2899     1
   2883   2891     1
   2883   2892     1
   2885   5857     1
   2885   2897     1
   2885   2898     1
   2886   5857     1
   2886   2897     1
   2886   2898     1
   2888   5828     1
   2888   2894     1
   2888   2895     1
   2889   5828     1
   2889   2894     1
   2889   2895     1
   2893   5820     1
   2893   5821     1
   2894   5819     1
   2895   5819     1
   2896   5849     1
   2896   5850     1
   2897   5848     1
   2898   5848     1
   2900   2914     1
   2900   2915     1
   2900   2917     1
   2900   2918     1
   2900   2911     1
   2900   2912     1
   2901   2905     1
   2901   2906     1
   2901   2908     1
   2901   2909     1
   2901   2926     1
   2901   2927     1
   2902   2904     1
   2902   2907     1
   2902   2925     1
   2902   2914     1
   2902   2915     1
   2903   2904     1
   2903   2907     1
   2903   2925     1
   2903   2914     1
   2903   2915     1
   2904   2908     1
   2904   2909     1
   2904   2923     1
   2904   2924     1
   2905   2907     1
   2905   2922     1
   2905   2917     1
   2905   2918     1
   2906   2907     1
   2906   2922     1
   2906   2917     1
   2906   2918     1
   2907   2920     1
   2907   2921     1
   2908   2919     1
   2908   2911     1
   2908   2912     1
   2909   2919     1
   2909   2911     1
   2909   2912     1
   2911   2928     1
   2911   2920     1
   2911   2921     1
   2912   2928     1
   2912   2920     1
   2912   2921     1
   2914   5915     1
   2914   2926     1
   2914   2927     1
   2915   5915     1
   2915   2926     1
   2915   2927     1
   2917   5886     1
   2917   2923     1
   2917   2924     1
   2918   5886     1
   2918   2923     1
   2918   2924     1
   2922   5878     1
   2922   5879     1
   2923   5877     1
   2924   5877     1
   2925   5907     1
   2925   5908     1
   2926   5906     1
   2927   5906     1
   2929   2943     1
   2929   2944     1
   2929   2946     1
   2929   2947     1
   2929   2940     1
   2929   2941     1
   2930   2934     1
   2930   2935     1
   2930   2937     1
   2930   2938     1
   2930   2955     1
   2930   2956     1
   2931   2933     1
   2931   2936     1
   2931   2954     1
   2931   2943     1
   2931   2944     1
   2932   2933     1
   2932   2936     1
   2932   2954     1
   2932   2943     1
   2932   2944     1
   2933   2937     1
   2933   2938     1
   2933   2952     1
   2933   2953     1
   2934   2936     1
   2934   2951     1
   2934   2946     1
   2934   2947     1
   2935   2936     1
   2935   2951     1
   2935   2946     1
   2935   2947     1
   2936   2949     1
   2936   2950     1
   2937   2948     1
   2937   2940     1
   2937   2941     1
   2938   2948     1
   2938   2940     1
   2938   2941     1
   2940   2957     1
   2940   2949     1
   2940   2950     1
   2941   2957     1
   2941   2949     1
   2941   2950     1
   2943   5973     1
   2943   2955     1
   2943   2956     1
   2944   5973     1
   2944   2955     1
   2944   2956     1
   2946   5944     1
   2946   2952     1
   2946   2953     1
   2947   5944     1
   2947   2952     1
   2947   2953     1
   2951   5936     1
   2951   5937     1
   2952   5935     1
   2953   5935     1
   2954   5965     1
   2954   5966     1
   2955   5964     1
   2956   5964     1
   2958   2972     1
   2958   2973     1
   2958   2975     1
   2958   2976     1
   2958   2969     1
   2958   2970     1
   2959   2963     1
   2959   2964     1
   2959   2966     1
   2959   2967     1
   2959   2984     1
   2959   2985     1
   2960   2962     1
   2960   2965     1
   2960   2983     1
   2960   2972     1
   2960   2973     1
   2961   2962     1
   2961   2965     1
   2961   2983     1
   2961   2972     1
   2961   2973     1
   2962   2966     1
   2962   2967     1
   2962   2981     1
   2962   2982     1
   2963   2965     1
   2963   2980     1
   2963   2975     1
   2963   2976     1
   2964   2965     1
   2964   2980     1
   2964   2975     1
   2964   2976     1
   2965   2978     1
   2965   2979     1
   2966   2977     1
   2966   2969     1
   2966   2970     1
   2967   2977     1
   2967   2969     1
   2967   2970     1
   2969   2986     1
   2969   2978     1
   2969   2979     1
   2970   2986     1
   2970   2978     1
   2970   2979     1
   2972   6031     1
   2972   2984     1
   2972   2985     1
   2973   6031     1
   2973   2984     1
   2973   2985     1
   2975   6002     1
   2975   2981     1
   2975   2982     1
   2976   6002     1
   2976   2981     1
   2976   2982     1
   2980   5994     1
   2980   5995     1
   2981   5993     1
   2982   5993     1
   2983   6023     1
   2983   6024     1
   2984   6022     1
   2985   6022     1
   2987   3001     1
   2987   3002     1
   2987   3004     1
   2987   3005     1
   2987   2998     1
   2987   2999     1
   2988   2992     1
   2988   2993     1
   2988   2995     1
   2988   2996     1
   2988   3013     1
   2988   3014     1
   2989   2991     1
   2989   2994     1
   2989   3012     1
   2989   3001     1
   2989   3002     1
   2990   2991     1
   2990   2994     1
   2990   3012     1
   2990   3001     1
   2990   3002     1
   2991   2995     1
   2991   2996     1
   2991   3010     1
   2991   3011     1
   2992   2994     1
   2992   3009     1
   2992   3004     1
   2992   3005     1
   2993   2994     1
   2993   3009     1
   2993   3004     1
   2993   3005     1
   2994   3007     1
   2994   3008     1
   2995   3006     1
   2995   2998     1
   2995   2999     1
   2996   3006     1
   2996   2998     1
   2996   2999     1
   2998   3015     1
   2998   3007     1
   2998   3008     1
   2999   3015     1
   2999   3007     1
   2999   3008     1
   3001   6089     1
   3001   3013     1
   3001   3014     1
   3002   6089     1
   3002   3013     1
   3002   3014     1
   3004   6060     1
   3004   3010     1
   3004   3011     1
   3005   6060     1
   3005   3010     1
   3005   3011     1
   3009   6052     1
   3009   6053     1
   3010   6051     1
   3011   6051     1
   3012   6081     1
   3012   6082     1
   3013   6080     1
   3014   6080     1
   3016   3030     1
   3016   3031     1
   3016   3033     1
   3016   3034     1
   3016   3027     1
   3016   3028     1
   3017   3021     1
   3017   3022     1
   3017   3024     1
   3017   3025     1
   3017   3042     1
   3017   3043     1
   3018   3020     1
   3018   3023     1
   3018   3041     1
   3018   3030     1
   3018   3031     1
   3019   3020     1
   3019   3023     1
   3019   3041     1
   3019   3030     1
   3019   3031     1
   3020   3024     1
   3020   3025     1
   3020   3039     1
   3020   3040     1
   3021   3023     1
   3021   3038     1
   3021   3033     1
   3021   3034     1
   3022   3023     1
   3022   3038     1
   3022   3033     1
   3022   3034     1
   3023   3036     1
   3023   3037     1
   3024   3035     1
   3024   3027     1
   3024   3028     1
   3025   3035     1
   3025   3027     1
   3025   3028     1
   3027   3044     1
   3027   3036     1
   3027   3037     1
   3028   3044     1
   3028   3036     1
   3028   3037     1
   3030   6147     1
   3030   3042     1
   3030   3043     1
   3031   6147     1
   3031   3042     1
   3031   3043     1
   3033   6118     1
   3033   3039     1
   3033   3040     1
   3034   6118     1
   3034   3039     1
   3034   3040     1
   3038   6110     1
   3038   6111     1
   3039   6109     1
   3040   6109     1
   3041   6139     1
   3041   6140     1
   3042   6138     1
   3043   6138     1
   3045   3059     1
   3045   3060     1
   3045   3062     1
   3045   3063     1
   3045   3056     1
   3045   3057     1
   3046   3050     1
   3046   3051     1
   3046   3053     1
   3046   3054     1
   3046   3071     1
   3046   3072     1
   3047   3049     1
   3047   3052     1
   3047   3070     1
   3047   3059     1
   3047   3060     1
   3048   3049     1
   3048   3052     1
   3048   3070     1
   3048   3059     1
   3048   3060     1
   3049   3053     1
   3049   3054     1
   3049   3068     1
   3049   3069     1
   3050   3052     1
   3050   3067     1
   3050   3062     1
   3050   3063     1
   3051   3052     1
   3051   3067     1
   3051   3062     1
   3051   3063     1
   3052   3065     1
   3052   3066     1
   3053   3064     1
   3053   3056     1
   3053   3057     1
   3054   3064     1
   3054   3056     1
   3054   3057     1
   3056   3073     1
   3056   3065     1
   3056   3066     1
   3057   3073     1
   3057   3065     1
   3057   3066     1
   3059   6205     1
   3059   3071     1
   3059   3072     1
   3060   6205     1
   3060   3071     1
   3060   3072     1
   3062   6176     1
   3062   3068     1
   3062   3069     1
   3063   6176     1
   3063   3068     1
   3063   3069     1
   3067   6168     1
   3067   6169     1
   3068   6167     1
   3069   6167     1
   3070   6197     1
   3070   6198     1
   3071   6196     1
   3072   6196     1
   3074   3088     1
   3074   3089     1
   3074   3091     1
   3074   3092     1
   3074   3085     1
   3074   3086     1
   3075   3079     1
   3075   3080     1
   3075   3082     1
   3075   3083     1
   3075   3100     1
   3075   3101     1
   3076   3078     1
   3076   3081     1
   3076   3099     1
   3076   3088     1
   3076   3089     1
   3077   3078     1
   3077   3081     1
   3077   3099     1
   3077   3088     1
   3077   3089     1
   3078   3082     1
   3078   3083     1
   3078   3097     1
   3078   3098     1
   3079   3081     1
   3079   3096     1
   3079   3091     1
   3079   3092     1
   3080   3081     1
   3080   3096     1
   3080   3091     1
   3080   3092     1
   3081   3094     1
   3081   3095     1
   3082   3093     1
   3082   3085     1
   3082   3086     1
   3083   3093     1
   3083   3085     1
   3083   3086     1
   3085   3102     1
   3085   3094     1
   3085   3095     1
   3086   3102     1
   3086   3094     1
   3086   3095     1
   3088   6263     1
   3088   3100     1
   3088   3101     1
   3089   6263     1
   3089   3100     1
   3089   3101     1
   3091   6234     1
   3091   3097     1
   3091   3098     1
   3092   6234     1
   3092   3097     1
   3092   3098     1
   3096   6226     1
   3096   6227     1
   3097   6225     1
   3098   6225     1
   3099   6255     1
   3099   6256     1
   3100   6254     1
   3101   6254     1
   3103   3117     1
   3103   3118     1
   3103   3120     1
   3103   3121     1
   3103   3114     1
   3103   3115     1
   3104   3108     1
   3104   3109     1
   3104   3111     1
   3104   3112     1
   3104   3129     1
   3104   3130     1
   3105   3107     1
   3105   3110     1
   3105   3128     1
   3105   3117     1
   3105   3118     1
   3106   3107     1
   3106   3110     1
   3106   3128     1
   3106   3117     1
   3106   3118     1
   3107   3111     1
   3107   3112     1
   3107   3126     1
   3107   3127     1
   3108   3110     1
   3108   3125     1
   3108   3120     1
   3108   3121     1
   3109   3110     1
   3109   3125     1
   3109   3120     1
   3109   3121     1
   3110   3123     1
   3110   3124     1
   3111   3122     1
   3111   3114     1
   3111   3115     1
   3112   3122     1
   3112   3114     1
   3112   3115     1
   3114   3131     1
   3114   3123     1
   3114   3124     1
   3115   3131     1
   3115   3123     1
   3115   3124     1
   3117   6321     1
   3117   3129     1
   3117   3130     1
   3118   6321     1
   3118   3129     1
   3118   3130     1
   3120   6292     1
   3120   3126     1
   3120   3127     1
   3121   6292     1
   3121   3126     1
   3121   3127     1
   3125   6284     1
   3125   6285     1
   3126   6283     1
   3127   6283     1
   3128   6313     1
   3128   6314     1
   3129   6312     1
   3130   6312     1
   3132   3146     1
   3132   3147     1
   3132   3149     1
   3132   3150     1
   3132   3143     1
   3132   3144     1
   3133   3137     1
   3133   3138     1
   3133   3140     1
   3133   3141     1
   3133   3158     1
   3133   3159     1
   3134   3136     1
   3134   3139     1
   3134   3157     1
   3134   3146     1
   3134   3147     1
   3135   3136     1
   3135   3139     1
   3135   3157     1
   3135   3146     1
   3135   3147     1
   3136   3140     1
   3136   3141     1
   3136   3155     1
   3136   3156     1
   3137   3139     1
   3137   3154     1
   3137   3149     1
   3137   3150     1
   3138   3139     1
   3138   3154     1
   3138   3149     1
   3138   3150     1
   3139   3152     1
   3139   3153     1
   3140   3151     1
   3140   3143     1
   3140   3144     1
   3141   3151     1
   3141   3143     1
   3141   3144     1
   3143   3160     1
   3143   3152     1
   3143   3153     1
   3144   3160     1
   3144   3152     1
   3144   3153     1
   3146   6379     1
   3146   3158     1
   3146   3159     1
   3147   6379     1
   3147   3158     1
   3147   3159     1
   3149   6350     1
   3149   3155     1
   3149   3156     1
   3150   6350     1
   3150   3155     1
   3150   3156     1
   3154   6342     1
   3154   6343     1
   3155   6341     1
   3156   6341     1
   3157   6371     1
   3157   6372     1
   3158   6370     1
   3159   6370     1
   3161   3175     1
   3161   3176     1
   3161   3178     1
   3161   3179     1
   3161   3172     1
   3161   3173     1
   3162   3166     1
   3162   3167     1
   3162   3169     1
   3162   3170     1
   3162   3187     1
   3162   3188     1
   3163   3165     1
   3163   3168     1
   3163   3186     1
   3163   3175     1
   3163   3176     1
   3164   3165     1
   3164   3168     1
   3164   3186     1
   3164   3175     1
   3164   3176     1
   3165   3169     1
   3165   3170     1
   3165   3184     1
   3165   3185     1
   3166   3168     1
   3166   3183     1
   3166   3178     1
   3166   3179     1
   3167   3168     1
   3167   3183     1
   3167   3178     1
   3167   3179     1
   3168   3181     1
   3168   3182     1
   3169   3180     1
   3169   3172     1
   3169   3173     1
   3170   3180     1
   3170   3172     1
   3170   3173     1
   3172   3189     1
   3172   3181     1
   3172   3182     1
   3173   3189     1
   3173   3181     1
   3173   3182     1
   3175   6437     1
   3175   3187     1
   3175   3188     1
   3176   6437     1
   3176   3187     1
   3176   3188     1
   3178   6408     1
   3178   3184     1
   3178   3185     1
   3179   6408     1
   3179   3184     1
   3179   3185     1
   3183   6400     1
   3183   6401     1
   3184   6399     1
   3185   6399     1
   3186   6429     1
   3186   6430     1
   3187   6428     1
   3188   6428     1
   3190   3204     1
   3190   3205     1
   3190   3207     1
   3190   3208     1
   3190   3201     1
   3190   3202     1
   3191   3195     1
   3191   3196     1
   3191   3198     1
   3191   3199     1
   3191   3216     1
   3191   3217     1
   3192   3194     1
   3192   3197     1
   3192   3215     1
   3192   3204     1
   3192   3205     1
   3193   3194     1
   3193   3197     1
   3193   3215     1
   3193   3204     1
   3193   3205     1
   3194   3198     1
   3194   3199     1
   3194   3213     1
   3194   3214     1
   3195   3197     1
   3195   3212     1
   3195   3207     1
   3195   3208     1
   3196   3197     1
   3196   3212     1
   3196   3207     1
   3196   3208     1
   3197   3210     1
   3197   3211     1
   3198   3209     1
   3198   3201     1
   3198   3202     1
   3199   3209     1
   3199   3201     1
   3199   3202     1
   3201   3218     1
   3201   3210     1
   3201   3211     1
   3202   3218     1
   3202   3210     1
   3202   3211     1
   3204   6495     1
   3204   3216     1
   3204   3217     1
   3205   6495     1
   3205   3216     1
   3205   3217     1
   3207   6466     1
   3207   3213     1
   3207   3214     1
   3208   6466     1
   3208   3213     1
   3208   3214     1
   3212   6458     1
   3212   6459     1
   3213   6457     1
   3214   6457     1
   3215   6487     1
   3215   6488     1
   3216   6486     1
   3217   6486     1
   3219   3233     1
   3219   3234     1
   3219   3236     1
   3219   3237     1
   3219   3230     1
   3219   3231     1
   3220   3224     1
   3220   3225     1
   3220   3227     1
   3220   3228     1
   3220   3245     1
   3220   3246     1
   3221   3223     1
   3221   3226     1
   3221   3244     1
   3221   3233     1
   3221   3234     1
   3222   3223     1
   3222   3226     1
   3222   3244     1
   3222   3233     1
   3222   3234     1
   3223   3227     1
   3223   3228     1
   3223   3242     1
   3223   3243     1
   3224   3226     1
   3224   3241     1
   3224   3236     1
   3224   3237     1
   3225   3226     1
   3225   3241     1
   3225   3236     1
   3225   3237     1
   3226   3239     1
   3226   3240     1
   3227   3238     1
   3227   3230     1
   3227   3231     1
   3228   3238     1
   3228   3230     1
   3228   3231     1
   3230   3247     1
   3230   3239     1
   3230   3240     1
   3231   3247     1
   3231   3239     1
   3231   3240     1
   3233   6553     1
   3233   3245     1
   3233   3246     1
   3234   6553     1
   3234   3245     1
   3234   3246     1
   3236   6524     1
   3236   3242     1
   3236   3243     1
   3237   6524     1
   3237   3242     1
   3237   3243     1
   3241   6516     1
   3241   6517     1
   3242   6515     1
   3243   6515     1
   3244   6545     1
   3244   6546     1
   3245   6544     1
   3246   6544     1
   3248   3262     1
   3248   3263     1
   3248   3265     1
   3248   3266     1
   3248   3259     1
   3248   3260     1
   3249   3253     1
   3249   3254     1
   3249   3256     1
   3249   3257     1
   3249   3274     1
   3249   3275     1
   3250   3252     1
   3250   3255     1
   3250   3273     1
   3250   3262     1
   3250   3263     1
   3251   3252     1
   3251   3255     1
   3251   3273     1
   3251   3262     1
   3251   3263     1
   3252   3256     1
   3252   3257     1
   3252   3271     1
   3252   3272     1
   3253   3255     1
   3253   3270     1
   3253   3265     1
   3253   3266     1
   3254   3255     1
   3254   3270     1
   3254   3265     1
   3254   3266     1
   3255   3268     1
   3255   3269     1
   3256   3267     1
   3256   3259     1
   3256   3260     1
   3257   3267     1
   3257   3259     1
   3257   3260     1
   3259   3276     1
   3259   3268     1
   3259   3269     1
   3260   3276     1
   3260   3268     1
   3260   3269     1
   3262   6611     1
   3262   3274     1
   3262   3275     1
   3263   6611     1
   3263   3274     1
   3263   3275     1
   3265   6582     1
   3265   3271     1
   3265   3272     1
   3266   6582     1
   3266   3271     1
   3266   3272     1
   3270   6574     1
   3270   6575     1
   3271   6573     1
   3272   6573     1
   3273   6603     1
   3273   6604     1
   3274   6602     1
   3275   6602     1
   3277   3291     1
   3277   3292     1
   3277   3294     1
   3277   3295     1
   3277   3288     1
   3277   3289     1
   3278   3282     1
   3278   3283     1
   3278   3285     1
   3278   3286     1
   3278   3303     1
   3278   3304     1
   3279   3281     1
   3279   3284     1
   3279   3302     1
   3279   3291     1
   3279   3292     1
   3280   3281     1
   3280   3284     1
   3280   3302     1
   3280   3291     1
   3280   3292     1
   3281   3285     1
   3281   3286     1
   3281   3300     1
   3281   3301     1
   3282   3284     1
   3282   3299     1
   3282   3294     1
   3282   3295     1
   3283   3284     1
   3283   3299     1
   3283   3294     1
   3283   3295     1
   3284   3297     1
   3284   3298     1
   3285   3296     1
   3285   3288     1
   3285   3289     1
   3286   3296     1
   3286   3288     1
   3286   3289     1
   3288   3305     1
   3288   3297     1
   3288   3298     1
   3289   3305     1
   3289   3297     1
   3289   3298     1
   3291   6669     1
   3291   3303     1
   3291   3304     1
   3292   6669     1
   3292   3303     1
   3292   3304     1
   3294   6640     1
   3294   3300     1
   3294   3301     1
   3295   6640     1
   3295   3300     1
   3295   3301     1
   3299   6632     1
   3299   6633     1
   3300   6631     1
   3301   6631     1
   3302   6661     1
   3302   6662     1
   3303   6660     1
   3304   6660     1
   3306   3320     1
   3306   3321     1
   3306   3323     1
   3306   3324     1
   3306   3317     1
   3306   3318     1
   3307   3311     1
   3307   3312     1
   3307   3314     1
   3307   3315     1
   3307   3332     1
   3307   3333     1
   3308   3310     1
   3308   3313     1
   3308   3331     1
   3308   3320     1
   3308   3321     1
   3309   3310     1
   3309   3313     1
   3309   3331     1
   3309   3320     1
   3309   3321     1
   3310   3314     1
   3310   3315     1
   3310   3329     1
   3310   3330     1
   3311   3313     1
   3311   3328     1
   3311   3323     1
   3311   3324     1
   3312   3313     1
   3312   3328     1
   3312   3323     1
   3312   3324     1
   3313   3326     1
   3313   3327     1
   3314   3325     1
   3314   3317     1
   3314   3318     1
   3315   3325     1
   3315   3317     1
   3315   3318     1
   3317   3334     1
   3317   3326     1
   3317   3327     1
   3318   3334     1
   3318   3326     1
   3318   3327     1
   3320   6727     1
   3320   3332     1
   3320   3333     1
   3321   6727     1
   3321   3332     1
   3321   3333     1
   3323   6698     1
   3323   3329     1
   3323   3330     1
   3324   6698     1
   3324   3329     1
   3324   3330     1
   3328   6690     1
   3328   6691     1
   3329   6689     1
   3330   6689     1
   3331   6719     1
   3331   6720     1
   3332   6718     1
   3333   6718     1
   3335   3349     1
   3335   3350     1
   3335   3352     1
   3335   3353     1
   3335   3346     1
   3335   3347     1
   3336   3340     1
   3336   3341     1
   3336   3343     1
   3336   3344     1
   3336   3361     1
   3336   3362     1
   3337   3339     1
   3337   3342     1
   3337   3360     1
   3337   3349     1
   3337   3350     1
   3338   3339     1
   3338   3342     1
   3338   3360     1
   3338   3349     1
   3338   3350     1
   3339   3343     1
   3339   3344     1
   3339   3358     1
   3339   3359     1
   3340   3342     1
   3340   3357     1
   3340   3352     1
   3340   3353     1
   3341   3342     1
   3341   3357     1
   3341   3352     1
   3341   3353     1
   3342   3355     1
   3342   3356     1
   3343   3354     1
   3343   3346     1
   3343   3347     1
   3344   3354     1
   3344   3346     1
   3344   3347     1
   3346   3363     1
   3346   3355     1
   3346   3356     1
   3347   3363     1
   3347   3355     1
   3347   3356     1
   3349   6785     1
   3349   3361     1
   3349   3362     1
   3350   6785     1
   3350   3361     1
   3350   3362     1
   3352   6756     1
   3352   3358     1
   3352   3359     1
   3353   6756     1
   3353   3358     1
   3353   3359     1
   3357   6748     1
   3357   6749     1
   3358   6747     1
   3359   6747     1
   3360   6777     1
   3360   6778     1
   3361   6776     1
   3362   6776     1
   3364   3378     1
   3364   3379     1
   3364   3381     1
   3364   3382     1
   3364   3375     1
   3364   3376     1
   3365   3369     1
   3365   3370     1
   3365   3372     1
   3365   3373     1
   3365   3390     1
   3365   3391     1
   3366   3368     1
   3366   3371     1
   3366   3389     1
   3366   3378     1
   3366   3379     1
   3367   3368     1
   3367   3371     1
   3367   3389     1
   3367   3378     1
   3367   3379     1
   3368   3372     1
   3368   3373     1
   3368   3387     1
   3368   3388     1
   3369   3371     1
   3369   3386     1
   3369   3381     1
   3369   3382     1
   3370   3371     1
   3370   3386     1
   3370   3381     1
   3370   3382     1
   3371   3384     1
   3371   3385     1
   3372   3383     1
   3372   3375     1
   3372   3376     1
   3373   3383     1
   3373   3375     1
   3373   3376     1
   3375   3392     1
   3375   3384     1
   3375   3385     1
   3376   3392     1
   3376   3384     1
   3376   3385     1
   3378   6843     1
   3378   3390     1
   3378   3391     1
   3379   6843     1
   3379   3390     1
   3379   3391     1
   3381   6814     1
   3381   3387     1
   3381   3388     1
   3382   6814     1
   3382   3387     1
   3382   3388     1
   3386   6806     1
   3386   6807     1
   3387   6805     1
   3388   6805     1
   3389   6835     1
   3389   6836     1
   3390   6834     1
   3391   6834     1
   3393   3407     1
   3393   3408     1
   3393   3410     1
   3393   3411     1
   3393   3404     1
   3393   3405     1
   3394   3398     1
   3394   3399     1
   3394   3401     1
   3394   3402     1
   3394   3419     1
   3394   3420     1
   3395   3397     1
   3395   3400     1
   3395   3418     1
   3395   3407     1
   3395   3408     1
   3396   3397     1
   3396   3400     1
   3396   3418     1
   3396   3407     1
   3396   3408     1
   3397   3401     1
   3397   3402     1
   3397   3416     1
   3397   3417     1
   3398   3400     1
   3398   3415     1
   3398   3410     1
   3398   3411     1
   3399   3400     1
   3399   3415     1
   3399   3410     1
   3399   3411     1
   3400   3413     1
   3400   3414     1
   3401   3412     1
   3401   3404     1
   3401   3405     1
   3402   3412     1
   3402   3404     1
   3402   3405     1
   3404   3421     1
   3404   3413     1
   3404   3414     1
   3405   3421     1
   3405   3413     1
   3405   3414     1
   3407   6901     1
   3407   3419     1
   3407   3420     1
   3408   6901     1
   3408   3419     1
   3408   3420     1
   3410   6872     1
   3410   3416     1
   3410   3417     1
   3411   6872     1
   3411   3416     1
   3411   3417     1
   3415   6864     1
   3415   6865     1
   3416   6863     1
   3417   6863     1
   3418   6893     1
   3418   6894     1
   3419   6892     1
   3420   6892     1
   3422   3436     1
   3422   3437     1
   3422   3439     1
   3422   3440     1
   3422   3433     1
   3422   3434     1
   3423   3427     1
   3423   3428     1
   3423   3430     1
   3423   3431     1
   3423   3448     1
   3423   3449     1
   3424   3426     1
   3424   3429     1
   3424   3447     1
   3424   3436     1
   3424   3437     1
   3425   3426     1
   3425   3429     1
   3425   3447     1
   3425   3436     1
   3425   3437     1
   3426   3430     1
   3426   3431     1
   3426   3445     1
   3426   3446     1
   3427   3429     1
   3427   3444     1
   3427   3439     1
   3427   3440     1
   3428   3429     1
   3428   3444     1
   3428   3439     1
   3428   3440     1
   3429   3442     1
   3429   3443     1
   3430   3441     1
   3430   3433     1
   3430   3434     1
   3431   3441     1
   3431   3433     1
   3431   3434     1
   3433   3450     1
   3433   3442     1
   3433   3443     1
   3434   3450     1
   3434   3442     1
   3434   3443     1
   3436   6959     1
   3436   3448     1
   3436   3449     1
   3437   6959     1
   3437   3448     1
   3437   3449     1
   3439   6930     1
   3439   3445     1
   3439   3446     1
   3440   6930     1
   3440   3445     1
   3440   3446     1
   3444   6922     1
   3444   6923     1
   3445   6921     1
   3446   6921     1
   3447   6951     1
   3447   6952     1
   3448   6950     1
   3449   6950     1
   3451   3465     1
   3451   3466     1
   3451   3468     1
   3451   3469     1
   3451   3462     1
   3451   3463     1
   3452   3456     1
   3452   3457     1
   3452   3459     1
   3452   3460     1
   3452   3477     1
   3452   3478     1
   3453   3455     1
   3453   3458     1
   3453   3476     1
   3453   3465     1
   3453   3466     1
   3454   3455     1
   3454   3458     1
   3454   3476     1
   3454   3465     1
   3454   3466     1
   3455   3459     1
   3455   3460     1
   3455   3474     1
   3455   3475     1
   3456   3458     1
   3456   3473     1
   3456   3468     1
   3456   3469     1
   3457   3458     1
   3457   3473     1
   3457   3468     1
   3457   3469     1
   3458   3471     1
   3458   3472     1
   3459   3470     1
   3459   3462     1
   3459   3463     1
   3460   3470     1
   3460   3462     1
   3460   3463     1
   3462   3479     1
   3462   3471     1
   3462   3472     1
   3463   3479     1
   3463   3471     1
   3463   3472     1
   3465   7017     1
   3465   3477     1
   3465   3478     1
   3466   7017     1
   3466   3477     1
   3466   3478     1
   3468   6988     1
   3468   3474     1
   3468   3475     1
   3469   6988     1
   3469   3474     1
   3469   3475     1
   3473   6980     1
   3473   6981     1
   3474   6979     1
   3475   6979     1
   3476   7009     1
   3476   7010     1
   3477   7008     1
   3478   7008     1
   3480   3494     1
   3480   3495     1
   3480   3497     1
   3480   3498     1
   3480   3491     1
   3480   3492     1
   3481   3485     1
   3481   3486     1
   3481   3488     1
   3481   3489     1
   3481   3506     1
   3481   3507     1
   3482   3484     1
   3482   3487     1
   3482   3505     1
   3482   3494     1
   3482   3495     1
   3483   3484     1
   3483   3487     1
   3483   3505     1
   3483   3494     1
   3483   3495     1
   3484   3488     1
   3484   3489     1
   3484   3503     1
   3484   3504     1
   3485   3487     1
   3485   3502     1
   3485   3497     1
   3485   3498     1
   3486   3487     1
   3486   3502     1
   3486   3497     1
   3486   3498     1
   3487   3500     1
   3487   3501     1
   3488   3499     1
   3488   3491     1
   3488   3492     1
   3489   3499     1
   3489   3491     1
   3489   3492     1
   3491   3508     1
   3491   3500     1
   3491   3501     1
   3492   3508     1
   3492   3500     1
   3492   3501     1
   3494   7075     1
   3494   3506     1
   3494   3507     1
   3495   7075     1
   3495   3506     1
   3495   3507     1
   3497   7046     1
   3497   3503     1
   3497   3504     1
   3498   7046     1
   3498   3503     1
   3498   3504     1
   3502   7038     1
   3502   7039     1
   3503   7037     1
   3504   7037     1
   3505   7067     1
   3505   7068     1
   3506   7066     1
   3507   7066     1
   3509   3523     1
   3509   3524     1
   3509   3526     1
   3509   3527     1
   3509   3520     1
   3509   3521     1
   3510   3514     1
   3510   3515     1
   3510   3517     1
   3510   3518     1
   3510   3535     1
   3510   3536     1
   3511   3513     1
   3511   3516     1
   3511   3534     1
   3511   3523     1
   3511   3524     1
   3512   3513     1
   3512   3516     1
   3512   3534     1
   3512   3523     1
   3512   3524     1
   3513   3517     1
   3513   3518     1
   3513   3532     1
   3513   3533     1
   3514   3516     1
   3514   3531     1
   3514   3526     1
   3514   3527     1
   3515   3516     1
   3515   3531     1
   3515   3526     1
   3515   3527     1
   3516   3529     1
   3516   3530     1
   3517   3528     1
   3517   3520     1
   3517   3521     1
   3518   3528     1
   3518   3520     1
   3518   3521     1
   3520   3537     1
   3520   3529     1
   3520   3530     1
   3521   3537     1
   3521   3529     1
   3521   3530     1
   3523   7133     1
   3523   3535     1
   3523   3536     1
   3524   7133     1
   3524   3535     1
   3524   3536     1
   3526   7104     1
   3526   3532     1
   3526   3533     1
   3527   7104     1
   3527   3532     1
   3527   3533     1
   3531   7096     1
   3531   7097     1
   3532   7095     1
   3533   7095     1
   3534   7125     1
   3534   7126     1
   3535   7124     1
   3536   7124     1
   3538   3552     1
   3538   3553     1
   3538   3555     1
   3538   3556     1
   3538   3549     1
   3538   3550     1
   3539   3543     1
   3539   3544     1
   3539   3546     1
   3539   3547     1
   3539   3564     1
   3539   3565     1
   3540   3542     1
   3540   3545     1
   3540   3563     1
   3540   3552     1
   3540   3553     1
   3541   3542     1
   3541   3545     1
   3541   3563     1
   3541   3552     1
   3541   3553     1
   3542   3546     1
   3542   3547     1
   3542   3561     1
   3542   3562     1
   3543   3545     1
   3543   3560     1
   3543   3555     1
   3543   3556     1
   3544   3545     1
   3544   3560     1
   3544   3555     1
   3544   3556     1
   3545   3558     1
   3545   3559     1
   3546   3557     1
   3546   3549     1
   3546   3550     1
   3547   3557     1
   3547   3549     1
   3547   3550     1
   3549   3566     1
   3549   3558     1
   3549   3559     1
   3550   3566     1
   3550   3558     1
   3550   3559     1
   3552   7191     1
   3552   3564     1
   3552   3565     1
   3553   7191     1
   3553   3564     1
   3553   3565     1
   3555   7162     1
   3555   3561     1
   3555   3562     1
   3556   7162     1
   3556   3561     1
   3556   3562     1
   3560   7154     1
   3560   7155     1
   3561   7153     1
   3562   7153     1
   3563   7183     1
   3563   7184     1
   3564   7182     1
   3565   7182     1
   3567   3581     1
   3567   3582     1
   3567   3584     1
   3567   3585     1
   3567   3578     1
   3567   3579     1
   3568   3572     1
   3568   3573     1
   3568   3575     1
   3568   3576     1
   3568   3593     1
   3568   3594     1
   3569   3571     1
   3569   3574     1
   3569   3592     1
   3569   3581     1
   3569   3582     1
   3570   3571     1
   3570   3574     1
   3570   3592     1
   3570   3581     1
   3570   3582     1
   3571   3575     1
   3571   3576     1
   3571   3590     1
   3571   3591     1
   3572   3574     1
   3572   3589     1
   3572   3584     1
   3572   3585     1
   3573   3574     1
   3573   3589     1
   3573   3584     1
   3573   3585     1
   3574   3587     1
   3574   3588     1
   3575   3586     1
   3575   3578     1
   3575   3579     1
   3576   3586     1
   3576   3578     1
   3576   3579     1
   3578   3595     1
   3578   3587     1
   3578   3588     1
   3579   3595     1
   3579   3587     1
   3579   3588     1
   3581   7249     1
   3581   3593     1
   3581   3594     1
   3582   7249     1
   3582   3593     1
   3582   3594     1
   3584   7220     1
   3584   3590     1
   3584   3591     1
   3585   7220     1
   3585   3590     1
   3585   3591     1
   3589   7212     1
   3589   7213     1
   3590   7211     1
   3591   7211     1
   3592   7241     1
   3592   7242     1
   3593   7240     1
   3594   7240     1
   3596   3610     1
   3596   3611     1
   3596   3613     1
   3596   3614     1
   3596   3607     1
   3596   3608     1
   3597   3601     1
   3597   3602     1
   3597   3604     1
   3597   3605     1
   3597   3622     1
   3597   3623     1
   3598   3600     1
   3598   3603     1
   3598   3621     1
   3598   3610     1
   3598   3611     1
   3599   3600     1
   3599   3603     1
   3599   3621     1
   3599   3610     1
   3599   3611     1
   3600   3604     1
   3600   3605     1
   3600   3619     1
   3600   3620     1
   3601   3603     1
   3601   3618     1
   3601   3613     1
   3601   3614     1
   3602   3603     1
   3602   3618     1
   3602   3613     1
   3602   3614     1
   3603   3616     1
   3603   3617     1
   3604   3615     1
   3604   3607     1
   3604   3608     1
   3605   3615     1
   3605   3607     1
   3605   3608     1
   3607   3624     1
   3607   3616     1
   3607   3617     1
   3608   3624     1
   3608   3616     1
   3608   3617     1
   3610   7307     1
   3610   3622     1
   3610   3623     1
   3611   7307     1
   3611   3622     1
   3611   3623     1
   3613   7278     1
   3613   3619     1
   3613   3620     1
   3614   7278     1
   3614   3619     1
   3614   3620     1
   3618   7270     1
   3618   7271     1
   3619   7269     1
   3620   7269     1
   3621   7299     1
   3621   7300     1
   3622   7298     1
   3623   7298     1
   3625   3639     1
   3625   3640     1
   3625   3642     1
   3625   3643     1
   3625   3636     1
   3625   3637     1
   3626   3630     1
   3626   3631     1
   3626   3633     1
   3626   3634     1
   3626   3651     1
   3626   3652     1
   3627   3629     1
   3627   3632     1
   3627   3650     1
   3627   3639     1
   3627   3640     1
   3628   3629     1
   3628   3632     1
   3628   3650     1
   3628   3639     1
   3628   3640     1
   3629   3633     1
   3629   3634     1
   3629   3648     1
   3629   3649     1
   3630   3632     1
   3630   3647     1
   3630   3642     1
   3630   3643     1
   3631   3632     1
   3631   3647     1
   3631   3642     1
   3631   3643     1
   3632   3645     1
   3632   3646     1
   3633   3644     1
   3633   3636     1
   3633   3637     1
   3634   3644     1
   3634   3636     1
   3634   3637     1
   3636   3653     1
   3636   3645     1
   3636   3646     1
   3637   3653     1
   3637   3645     1
   3637   3646     1
   3639   7365     1
   3639   3651     1
   3639   3652     1
   3640   7365     1
   3640   3651     1
   3640   3652     1
   3642   7336     1
   3642   3648     1
   3642   3649     1
   3643   7336     1
   3643   3648     1
   3643   3649     1
   3647   7328     1
   3647   7329     1
   3648   7327     1
   3649   7327     1
   3650   7357     1
   3650   7358     1
   3651   7356     1
   3652   7356     1
   3654   3668     1
   3654   3669     1
   3654   3671     1
   3654   3672     1
   3654   3665     1
   3654   3666     1
   3655   3659     1
   3655   3660     1
   3655   3662     1
   3655   3663     1
   3655   3680     1
   3655   3681     1
   3656   3658     1
   3656   3661     1
   3656   3679     1
   3656   3668     1
   3656   3669     1
   3657   3658     1
   3657   3661     1
   3657   3679     1
   3657   3668     1
   3657   3669     1
   3658   3662     1
   3658   3663     1
   3658   3677     1
   3658   3678     1
   3659   3661     1
   3659   3676     1
   3659   3671     1
   3659   3672     1
   3660   3661     1
   3660   3676     1
   3660   3671     1
   3660   3672     1
   3661   3674     1
   3661   3675     1
   3662   3673     1
   3662   3665     1
   3662   3666     1
   3663   3673     1
   3663   3665     1
   3663   3666     1
   3665   3682     1
   3665   3674     1
   3665   3675     1
   3666   3682     1
   3666   3674     1
   3666   3675     1
   3668   7423     1
   3668   3680     1
   3668   3681     1
   3669   7423     1
   3669   3680     1
   3669   3681     1
   3671   7394     1
   3671   3677     1
   3671   3678     1
   3672   7394     1
   3672   3677     1
   3672   3678     1
   3676   7386     1
   3676   7387     1
   3677   7385     1
   3678   7385     1
   3679   7415     1
   3679   7416     1
   3680   7414     1
   3681   7414     1
   3683   3697     1
   3683   3698     1
   3683   3700     1
   3683   3701     1
   3683   3694     1
   3683   3695     1
   3684   3688     1
   3684   3689     1
   3684   3691     1
   3684   3692     1
   3684   3709     1
   3684   3710     1
   3685   3687     1
   3685   3690     1
   3685   3708     1
   3685   3697     1
   3685   3698     1
   3686   3687     1
   3686   3690     1
   3686   3708     1
   3686   3697     1
   3686   3698     1
   3687   3691     1
   3687   3692     1
   3687   3706     1
   3687   3707     1
   3688   3690     1
   3688   3705     1
   3688   3700     1
   3688   3701     1
   3689   3690     1
   3689   3705     1
   3689   3700     1
   3689   3701     1
   3690   3703     1
   3690   3704     1
   3691   3702     1
   3691   3694     1
   3691   3695     1
   3692   3702     1
   3692   3694     1
   3692   3695     1
   3694   3711     1
   3694   3703     1
   3694   3704     1
   3695   3711     1
   3695   3703     1
   3695   3704     1
   3697   7481     1
   3697   3709     1
   3697   3710     1
   3698   7481     1
   3698   3709     1
   3698   3710     1
   3700   7452     1
   3700   3706     1
   3700   3707     1
   3701   7452     1
   3701   3706     1
   3701   3707     1
   3705   7444     1
   3705   7445     1
   3706   7443     1
   3707   7443     1
   3708   7473     1
   3708   7474     1
   3709   7472     1
   3710   7472     1
   3712   3726     1
   3712   3727     1
   3712   3729     1
   3712   3730     1
   3712   3723     1
   3712   3724     1
   3713   3717     1
   3713   3718     1
   3713   3720     1
   3713   3721     1
   3713   3738     1
   3713   3739     1
   3714   3716     1
   3714   3719     1
   3714   3737     1
   3714   3726     1
   3714   3727     1
   3715   3716     1
   3715   3719     1
   3715   3737     1
   3715   3726     1
   3715   3727     1
   3716   3720     1
   3716   3721     1
   3716   3735     1
   3716   3736     1
   3717   3719     1
   3717   3734     1
   3717   3729     1
   3717   3730     1
   3718   3719     1
   3718   3734     1
   3718   3729     1
   3718   3730     1
   3719   3732     1
   3719   3733     1
   3720   3731     1
   3720   3723     1
   3720   3724     1
   3721   3731     1
   3721   3723     1
   3721   3724     1
   3723   3740     1
   3723   3732     1
   3723   3733     1
   3724   3740     1
   3724   3732     1
   3724   3733     1
   3726   7539     1
   3726   3738     1
   3726   3739     1
   3727   7539     1
   3727   3738     1
   3727   3739     1
   3729   7510     1
   3729   3735     1
   3729   3736     1
   3730   7510     1
   3730   3735     1
   3730   3736     1
   3734   7502     1
   3734   7503     1
   3735   7501     1
   3736   7501     1
   3737   7531     1
   3737   7532     1
   3738   7530     1
   3739   7530     1
   3741   3755     1
   3741   3756     1
   3741   3758     1
   3741   3759     1
   3741   3752     1
   3741   3753     1
   3742   3746     1
   3742   3747     1
   3742   3749     1
   3742   3750     1
   3742   3767     1
   3742   3768     1
   3743   3745     1
   3743   3748     1
   3743   3766     1
   3743   3755     1
   3743   3756     1
   3744   3745     1
   3744   3748     1
   3744   3766     1
   3744   3755     1
   3744   3756     1
   3745   3749     1
   3745   3750     1
   3745   3764     1
   3745   3765     1
   3746   3748     1
   3746   3763     1
   3746   3758     1
   3746   3759     1
   3747   3748     1
   3747   3763     1
   3747   3758     1
   3747   3759     1
   3748   3761     1
   3748   3762     1
   3749   3760     1
   3749   3752     1
   3749   3753     1
   3750   3760     1
   3750   3752     1
   3750   3753     1
   3752   3769     1
   3752   3761     1
   3752   3762     1
   3753   3769     1
   3753   3761     1
   3753   3762     1
   3755   7597     1
   3755   3767     1
   3755   3768     1
   3756   7597     1
   3756   3767     1
   3756   3768     1
   3758   7568     1
   3758   3764     1
   3758   3765     1
   3759   7568     1
   3759   3764     1
   3759   3765     1
   3763   7560     1
   3763   7561     1
   3764   7559     1
   3765   7559     1
   3766   7589     1
   3766   7590     1
   3767   7588     1
   3768   7588     1
   3770   3784     1
   3770   3785     1
   3770   3787     1
   3770   3788     1
   3770   3781     1
   3770   3782     1
   3771   3775     1
   3771   3776     1
   3771   3778     1
   3771   3779     1
   3771   3796     1
   3771   3797     1
   3772   3774     1
   3772   3777     1
   3772   3795     1
   3772   3784     1
   3772   3785     1
   3773   3774     1
   3773   3777     1
   3773   3795     1
   3773   3784     1
   3773   3785     1
   3774   3778     1
   3774   3779     1
   3774   3793     1
   3774   3794     1
   3775   3777     1
   3775   3792     1
   3775   3787     1
   3775   3788     1
   3776   3777     1
   3776   3792     1
   3776   3787     1
   3776   3788     1
   3777   3790     1
   3777   3791     1
   3778   3789     1
   3778   3781     1
   3778   3782     1
   3779   3789     1
   3779   3781     1
   3779   3782     1
   3781   3798     1
   3781   3790     1
   3781   3791     1
   3782   3798     1
   3782   3790     1
   3782   3791     1
   3784   7655     1
   3784   3796     1
   3784   3797     1
   3785   7655     1
   3785   3796     1
   3785   3797     1
   3787   7626     1
   3787   3793     1
   3787   3794     1
   3788   7626     1
   3788   3793     1
   3788   3794     1
   3792   7618     1
   3792   7619     1
   3793   7617     1
   3794   7617     1
   3795   7647     1
   3795   7648     1
   3796   7646     1
   3797   7646     1
   3799   3813     1
   3799   3814     1
   3799   3816     1
   3799   3817     1
   3799   3810     1
   3799   3811     1
   3800   3804     1
   3800   3805     1
   3800   3807     1
   3800   3808     1
   3800   3825     1
   3800   3826     1
   3801   3803     1
   3801   3806     1
   3801   3824     1
   3801   3813     1
   3801   3814     1
   3802   3803     1
   3802   3806     1
   3802   3824     1
   3802   3813     1
   3802   3814     1
   3803   3807     1
   3803   3808     1
   3803   3822     1
   3803   3823     1
   3804   3806     1
   3804   3821     1
   3804   3816     1
   3804   3817     1
   3805   3806     1
   3805   3821     1
   3805   3816     1
   3805   3817     1
   3806   3819     1
   3806   3820     1
   3807   3818     1
   3807   3810     1
   3807   3811     1
   3808   3818     1
   3808   3810     1
   3808   3811     1
   3810   3827     1
   3810   3819     1
   3810   3820     1
   3811   3827     1
   3811   3819     1
   3811   3820     1
   3813   7713     1
   3813   3825     1
   3813   3826     1
   3814   7713     1
   3814   3825     1
   3814   3826     1
   3816   7684     1
   3816   3822     1
   3816   3823     1
   3817   7684     1
   3817   3822     1
   3817   3823     1
   3821   7676     1
   3821   7677     1
   3822   7675     1
   3823   7675     1
   3824   7705     1
   3824   7706     1
   3825   7704     1
   3826   7704     1
   3828   3842     1
   3828   3843     1
   3828   3845     1
   3828   3846     1
   3828   3839     1
   3828   3840     1
   3829   3833     1
   3829   3834     1
   3829   3836     1
   3829   3837     1
   3829   3854     1
   3829   3855     1
   3830   3832     1
   3830   3835     1
   3830   3853     1
   3830   3842     1
   3830   3843     1
   3831   3832     1
   3831   3835     1
   3831   3853     1
   3831   3842     1
   3831   3843     1
   3832   3836     1
   3832   3837     1
   3832   3851     1
   3832   3852     1
   3833   3835     1
   3833   3850     1
   3833   3845     1
   3833   3846     1
   3834   3835     1
   3834   3850     1
   3834   3845     1
   3834   3846     1
   3835   3848     1
   3835   3849     1
   3836   3847     1
   3836   3839     1
   3836   3840     1
   3837   3847     1
   3837   3839     1
   3837   3840     1
   3839   3856     1
   3839   3848     1
   3839   3849     1
   3840   3856     1
   3840   3848     1
   3840   3849     1
   3842   7771     1
   3842   3854     1
   3842   3855     1
   3843   7771     1
   3843   3854     1
   3843   3855     1
   3845   7742     1
   3845   3851     1
   3845   3852     1
   3846   7742     1
   3846   3851     1
   3846   3852     1
   3850   7734     1
   3850   7735     1
   3851   7733     1
   3852   7733     1
   3853   7763     1
   3853   7764     1
   3854   7762     1
   3855   7762     1
   3857   3871     1
   3857   3872     1
   3857   3874     1
   3857   3875     1
   3857   3868     1
   3857   3869     1
   3858   3862     1
   3858   3863     1
   3858   3865     1
   3858   3866     1
   3858   3883     1
   3858   3884     1
   3859   3861     1
   3859   3864     1
   3859   3882     1
   3859   3871     1
   3859   3872     1
   3860   3861     1
   3860   3864     1
   3860   3882     1
   3860   3871     1
   3860   3872     1
   3861   3865     1
   3861   3866     1
   3861   3880     1
   3861   3881     1
   3862   3864     1
   3862   3879     1
   3862   3874     1
   3862   3875     1
   3863   3864     1
   3863   3879     1
   3863   3874     1
   3863   3875     1
   3864   3877     1
   3864   3878     1
   3865   3876     1
   3865   3868     1
   3865   3869     1
   3866   3876     1
   3866   3868     1
   3866   3869     1
   3868   3885     1
   3868   3877     1
   3868   3878     1
   3869   3885     1
   3869   3877     1
   3869   3878     1
   3871   7829     1
   3871   3883     1
   3871   3884     1
   3872   7829     1
   3872   3883     1
   3872   3884     1
   3874   7800     1
   3874   3880     1
   3874   3881     1
   3875   7800     1
   3875   3880     1
   3875   3881     1
   3879   7792     1
   3879   7793     1
   3880   7791     1
   3881   7791     1
   3882   7821     1
   3882   7822     1
   3883   7820     1
   3884   7820     1
   3886   3900     1
   3886   3901     1
   3886   3903     1
   3886   3904     1
   3886   3897     1
   3886   3898     1
   3887   3891     1
   3887   3892     1
   3887   3894     1
   3887   3895     1
   3887   3912     1
   3887   3913     1
   3888   3890     1
   3888   3893     1
   3888   3911     1
   3888   3900     1
   3888   3901     1
   3889   3890     1
   3889   3893     1
   3889   3911     1
   3889   3900     1
   3889   3901     1
   3890   3894     1
   3890   3895     1
   3890   3909     1
   3890   3910     1
   3891   3893     1
   3891   3908     1
   3891   3903     1
   3891   3904     1
   3892   3893     1
   3892   3908     1
   3892   3903     1
   3892   3904     1
   3893   3906     1
   3893   3907     1
   3894   3905     1
   3894   3897     1
   3894   3898     1
   3895   3905     1
   3895   3897     1
   3895   3898     1
   3897   3914     1
   3897   3906     1
   3897   3907     1
   3898   3914     1
   3898   3906     1
   3898   3907     1
   3900   7887     1
   3900   3912     1
   3900   3913     1
   3901   7887     1
   3901   3912     1
   3901   3913     1
   3903   7858     1
   3903   3909     1
   3903   3910     1
   3904   7858     1
   3904   3909     1
   3904   3910     1
   3908   7850     1
   3908   7851     1
   3909   7849     1
   3910   7849     1
   3911   7879     1
   3911   7880     1
   3912   7878     1
   3913   7878     1
   3915   3929     1
   3915   3930     1
   3915   3932     1
   3915   3933     1
   3915   3926     1
   3915   3927     1
   3916   3920     1
   3916   3921     1
   3916   3923     1
   3916   3924     1
   3916   3941     1
   3916   3942     1
   3917   3919     1
   3917   3922     1
   3917   3940     1
   3917   3929     1
   3917   3930     1
   3918   3919     1
   3918   3922     1
   3918   3940     1
   3918   3929     1
   3918   3930     1
   3919   3923     1
   3919   3924     1
   3919   3938     1
   3919   3939     1
   3920   3922     1
   3920   3937     1
   3920   3932     1
   3920   3933     1
   3921   3922     1
   3921   3937     1
   3921   3932     1
   3921   3933     1
   3922   3935     1
   3922   3936     1
   3923   3934     1
   3923   3926     1
   3923   3927     1
   3924   3934     1
   3924   3926     1
   3924   3927     1
   3926   3943     1
   3926   3935     1
   3926   3936     1
   3927   3943     1
   3927   3935     1
   3927   3936     1
   3929   7945     1
   3929   3941     1
   3929   3942     1
   3930   7945     1
   3930   3941     1
   3930   3942     1
   3932   7916     1
   3932   3938     1
   3932   3939     1
   3933   7916     1
   3933   3938     1
   3933   3939     1
   3937   7908     1
   3937   7909     1
   3938   7907     1
   3939   7907     1
   3940   7937     1
   3940   7938     1
   3941   7936     1
   3942   7936     1
   3944   3958     1
   3944   3959     1
   3944   3961     1
   3944   3962     1
   3944   3955     1
   3944   3956     1
   3945   3949     1
   3945   3950     1
   3945   3952     1
   3945   3953     1
   3945   3970     1
   3945   3971     1
   3946   3948     1
   3946   3951     1
   3946   3969     1
   3946   3958     1
   3946   3959     1
   3947   3948     1
   3947   3951     1
   3947   3969     1
   3947   3958     1
   3947   3959     1
   3948   3952     1
   3948   3953     1
   3948   3967     1
   3948   3968     1
   3949   3951     1
   3949   3966     1
   3949   3961     1
   3949   3962     1
   3950   3951     1
   3950   3966     1
   3950   3961     1
   3950   3962     1
   3951   3964     1
   3951   3965     1
   3952   3963     1
   3952   3955     1
   3952   3956     1
   3953   3963     1
   3953   3955     1
   3953   3956     1
   3955   3972     1
   3955   3964     1
   3955   3965     1
   3956   3972     1
   3956   3964     1
   3956   3965     1
   3958   8003     1
   3958   3970     1
   3958   3971     1
   3959   8003     1
   3959   3970     1
   3959   3971     1
   3961   7974     1
   3961   3967     1
   3961   3968     1
   3962   7974     1
   3962   3967     1
   3962   3968     1
   3966   7966     1
   3966   7967     1
   3967   7965     1
   3968   7965     1
   3969   7995     1
   3969   7996     1
   3970   7994     1
   3971   7994     1
   3973   3987     1
   3973   3988     1
   3973   3990     1
   3973   3991     1
   3973   3984     1
   3973   3985     1
   3974   3978     1
   3974   3979     1
   3974   3981     1
   3974   3982     1
   3974   3999     1
   3974   4000     1
   3975   3977     1
   3975   3980     1
   3975   3998     1
   3975   3987     1
   3975   3988     1
   3976   3977     1
   3976   3980     1
   3976   3998     1
   3976   3987     1
   3976   3988     1
   3977   3981     1
   3977   3982     1
   3977   3996     1
   3977   3997     1
   3978   3980     1
   3978   3995     1
   3978   3990     1
   3978   3991     1
   3979   3980     1
   3979   3995     1
   3979   3990     1
   3979   3991     1
   3980   3993     1
   3980   3994     1
   3981   3992     1
   3981   3984     1
   3981   3985     1
   3982   3992     1
   3982   3984     1
   3982   3985     1
   3984   4001     1
   3984   3993     1
   3984   3994     1
   3985   4001     1
   3985   3993     1
   3985   3994     1
   3987   8061     1
   3987   3999     1
   3987   4000     1
   3988   8061     1
   3988   3999     1
   3988   4000     1
   3990   8032     1
   3990   3996     1
   3990   3997     1
   3991   8032     1
   3991   3996     1
   3991   3997     1
   3995   8024     1
   3995   8025     1
   3996   8023     1
   3997   8023     1
   3998   8053     1
   3998   8054     1
   3999   8052     1
   4000   8052     1
   4002   4016     1
   4002   4017     1
   4002   4019     1
   4002   4020     1
   4002   4013     1
   4002   4014     1
   4003   4007     1
   4003   4008     1
   4003   4010     1
   4003   4011     1
   4003   4028     1
   4003   4029     1
   4004   4006     1
   4004   4009     1
   4004   4027     1
   4004   4016     1
   4004   4017     1
   4005   4006     1
   4005   4009     1
   4005   4027     1
   4005   4016     1
   4005   4017     1
   4006   4010     1
   4006   4011     1
   4006   4025     1
   4006   4026     1
   4007   4009     1
   4007   4024     1
   4007   4019     1
   4007   4020     1
   4008   4009     1
   4008   4024     1
   4008   4019     1
   4008   4020     1
   4009   4022     1
   4009   4023     1
   4010   4021     1
   4010   4013     1
   4010   4014     1
   4011   4021     1
   4011   4013     1
   4011   4014     1
   4013   4030     1
   4013   4022     1
   4013   4023     1
   4014   4030     1
   4014   4022     1
   4014   4023     1
   4016   8119     1
   4016   4028     1
   4016   4029     1
   4017   8119     1
   4017   4028     1
   4017   4029     1
   4019   8090     1
   4019   4025     1
   4019   4026     1
   4020   8090     1
   4020   4025     1
   4020   4026     1
   4024   8082     1
   4024   8083     1
   4025   8081     1
   4026   8081     1
   4027   8111     1
   4027   8112     1
   4028   8110     1
   4029   8110     1
   4031   4045     1
   4031   4046     1
   4031   4048     1
   4031   4049     1
   4031   4042     1
   4031   4043     1
   4032   4036     1
   4032   4037     1
   4032   4039     1
   4032   4040     1
   4032   4057     1
   4032   4058     1
   4033   4035     1
   4033   4038     1
   4033   4056     1
   4033   4045     1
   4033   4046     1
   4034   4035     1
   4034   4038     1
   4034   4056     1
   4034   4045     1
   4034   4046     1
   4035   4039     1
   4035   4040     1
   4035   4054     1
   4035   4055     1
   4036   4038     1
   4036   4053     1
   4036   4048     1
   4036   4049     1
   4037   4038     1
   4037   4053     1
   4037   4048     1
   4037   4049     1
   4038   4051     1
   4038   4052     1
   4039   4050     1
   4039   4042     1
   4039   4043     1
   4040   4050     1
   4040   4042     1
   4040   4043     1
   4042   4059     1
   4042   4051     1
   4042   4052     1
   4043   4059     1
   4043   4051     1
   4043   4052     1
   4045   8177     1
   4045   4057     1
   4045   4058     1
   4046   8177     1
   4046   4057     1
   4046   4058     1
   4048   8148     1
   4048   4054     1
   4048   4055     1
   4049   8148     1
   4049   4054     1
   4049   4055     1
   4053   8140     1
   4053   8141     1
   4054   8139     1
   4055   8139     1
   4056   8169     1
   4056   8170     1
   4057   8168     1
   4058   8168     1
   4060   4074     1
   4060   4075     1
   4060   4077     1
   4060   4078     1
   4060   4071     1
   4060   4072     1
   4061   4065     1
   4061   4066     1
   4061   4068     1
   4061   4069     1
   4061   4086     1
   4061   4087     1
   4062   4064     1
   4062   4067     1
   4062   4085     1
   4062   4074     1
   4062   4075     1
   4063   4064     1
   4063   4067     1
   4063   4085     1
   4063   4074     1
   4063   4075     1
   4064   4068     1
   4064   4069     1
   4064   4083     1
   4064   4084     1
   4065   4067     1
   4065   4082     1
   4065   4077     1
   4065   4078     1
   4066   4067     1
   4066   4082     1
   4066   4077     1
   4066   4078     1
   4067   4080     1
   4067   4081     1
   4068   4079     1
   4068   4071     1
   4068   4072     1
   4069   4079     1
   4069   4071     1
   4069   4072     1
   4071   4088     1
   4071   4080     1
   4071   4081     1
   4072   4088     1
   4072   4080     1
   4072   4081     1
   4074   8235     1
   4074   4086     1
   4074   4087     1
   4075   8235     1
   4075   4086     1
   4075   4087     1
   4077   8206     1
   4077   4083     1
   4077   4084     1
   4078   8206     1
   4078   4083     1
   4078   4084     1
   4082   8198     1
   4082   8199     1
   4083   8197     1
   4084   8197     1
   4085   8227     1
   4085   8228     1
   4086   8226     1
   4087   8226     1
   4089   4103     1
   4089   4104     1
   4089   4106     1
   4089   4107     1
   4089   4100     1
   4089   4101     1
   4090   4094     1
   4090   4095     1
   4090   4097     1
   4090   4098     1
   4090   4115     1
   4090   4116     1
   4091   4093     1
   4091   4096     1
   4091   4114     1
   4091   4103     1
   4091   4104     1
   4092   4093     1
   4092   4096     1
   4092   4114     1
   4092   4103     1
   4092   4104     1
   4093   4097     1
   4093   4098     1
   4093   4112     1
   4093   4113     1
   4094   4096     1
   4094   4111     1
   4094   4106     1
   4094   4107     1
   4095   4096     1
   4095   4111     1
   4095   4106     1
   4095   4107     1
   4096   4109     1
   4096   4110     1
   4097   4108     1
   4097   4100     1
   4097   4101     1
   4098   4108     1
   4098   4100     1
   4098   4101     1
   4100   4117     1
   4100   4109     1
   4100   4110     1
   4101   4117     1
   4101   4109     1
   4101   4110     1
   4103   8293     1
   4103   4115     1
   4103   4116     1
   4104   8293     1
   4104   4115     1
   4104   4116     1
   4106   8264     1
   4106   4112     1
   4106   4113     1
   4107   8264     1
   4107   4112     1
   4107   4113     1
   4111   8256     1
   4111   8257     1
   4112   8255     1
   4113   8255     1
   4114   8285     1
   4114   8286     1
   4115   8284     1
   4116   8284     1
   4118   4132     1
   4118   4133     1
   4118   4135     1
   4118   4136     1
   4118   4129     1
   4118   4130     1
   4119   4123     1
   4119   4124     1
   4119   4126     1
   4119   4127     1
   4119   4144     1
   4119   4145     1
   4120   4122     1
   4120   4125     1
   4120   4143     1
   4120   4132     1
   4120   4133     1
   4121   4122     1
   4121   4125     1
   4121   4143     1
   4121   4132     1
   4121   4133     1
   4122   4126     1
   4122   4127     1
   4122   4141     1
   4122   4142     1
   4123   4125     1
   4123   4140     1
   4123   4135     1
   4123   4136     1
   4124   4125     1
   4124   4140     1
   4124   4135     1
   4124   4136     1
   4125   4138     1
   4125   4139     1
   4126   4137     1
   4126   4129     1
   4126   4130     1
   4127   4137     1
   4127   4129     1
   4127   4130     1
   4129   4146     1
   4129   4138     1
   4129   4139     1
   4130   4146     1
   4130   4138     1
   4130   4139     1
   4132   8351     1
   4132   4144     1
   4132   4145     1
   4133   8351     1
   4133   4144     1
   4133   4145     1
   4135   8322     1
   4135   4141     1
   4135   4142     1
   4136   8322     1
   4136   4141     1
   4136   4142     1
   4140   8314     1
   4140   8315     1
   4141   8313     1
   4142   8313     1
   4143   8343     1
   4143   8344     1
   4144   8342     1
   4145   8342     1
   4147   4161     1
   4147   4162     1
   4147   4164     1
   4147   4165     1
   4147   4158     1
   4147   4159     1
   4148   4152     1
   4148   4153     1
   4148   4155     1
   4148   4156     1
   4148   4173     1
   4148   4174     1
   4149   4151     1
   4149   4154     1
   4149   4172     1
   4149   4161     1
   4149   4162     1
   4150   4151     1
   4150   4154     1
   4150   4172     1
   4150   4161     1
   4150   4162     1
   4151   4155     1
   4151   4156     1
   4151   4170     1
   4151   4171     1
   4152   4154     1
   4152   4169     1
   4152   4164     1
   4152   4165     1
   4153   4154     1
   4153   4169     1
   4153   4164     1
   4153   4165     1
   4154   4167     1
   4154   4168     1
   4155   4166     1
   4155   4158     1
   4155   4159     1
   4156   4166     1
   4156   4158     1
   4156   4159     1
   4158   4175     1
   4158   4167     1
   4158   4168     1
   4159   4175     1
   4159   4167     1
   4159   4168     1
   4161   8409     1
   4161   4173     1
   4161   4174     1
   4162   8409     1
   4162   4173     1
   4162   4174     1
   4164   8380     1
   4164   4170     1
   4164   4171     1
   4165   8380     1
   4165   4170     1
   4165   4171     1
   4169   8372     1
   4169   8373     1
   4170   8371     1
   4171   8371     1
   4172   8401     1
   4172   8402     1
   4173   8400     1
   4174   8400     1
   4176   4190     1
   4176   4191     1
   4176   4193     1
   4176   4194     1
   4176   4187     1
   4176   4188     1
   4177   4181     1
   4177   4182     1
   4177   4184     1
   4177   4185     1
   4177   4202     1
   4177   4203     1
   4178   4180     1
   4178   4183     1
   4178   4201     1
   4178   4190     1
   4178   4191     1
   4179   4180     1
   4179   4183     1
   4179   4201     1
   4179   4190     1
   4179   4191     1
   4180   4184     1
   4180   4185     1
   4180   4199     1
   4180   4200     1
   4181   4183     1
   4181   4198     1
   4181   4193     1
   4181   4194     1
   4182   4183     1
   4182   4198     1
   4182   4193     1
   4182   4194     1
   4183   4196     1
   4183   4197     1
   4184   4195     1
   4184   4187     1
   4184   4188     1
   4185   4195     1
   4185   4187     1
   4185   4188     1
   4187   4204     1
   4187   4196     1
   4187   4197     1
   4188   4204     1
   4188   4196     1
   4188   4197     1
   4190   8467     1
   4190   4202     1
   4190   4203     1
   4191   8467     1
   4191   4202     1
   4191   4203     1
   4193   8438     1
   4193   4199     1
   4193   4200     1
   4194   8438     1
   4194   4199     1
   4194   4200     1
   4198   8430     1
   4198   8431     1
   4199   8429     1
   4200   8429     1
   4201   8459     1
   4201   8460     1
   4202   8458     1
   4203   8458     1
   4205   4219     1
   4205   4220     1
   4205   4222     1
   4205   4223     1
   4205   4216     1
   4205   4217     1
   4206   4210     1
   4206   4211     1
   4206   4213     1
   4206   4214     1
   4206   4231     1
   4206   4232     1
   4207   4209     1
   4207   4212     1
   4207   4230     1
   4207   4219     1
   4207   4220     1
   4208   4209     1
   4208   4212     1
   4208   4230     1
   4208   4219     1
   4208   4220     1
   4209   4213     1
   4209   4214     1
   4209   4228     1
   4209   4229     1
   4210   4212     1
   4210   4227     1
   4210   4222     1
   4210   4223     1
   4211   4212     1
   4211   4227     1
   4211   4222     1
   4211   4223     1
   4212   4225     1
   4212   4226     1
   4213   4224     1
   4213   4216     1
   4213   4217     1
   4214   4224     1
   4214   4216     1
   4214   4217     1
   4216   4233     1
   4216   4225     1
   4216   4226     1
   4217   4233     1
   4217   4225     1
   4217   4226     1
   4219   8525     1
   4219   4231     1
   4219   4232     1
   4220   8525     1
   4220   4231     1
   4220   4232     1
   4222   8496     1
   4222   4228     1
   4222   4229     1
   4223   8496     1
   4223   4228     1
   4223   4229     1
   4227   8488     1
   4227   8489     1
   4228   8487     1
   4229   8487     1
   4230   8517     1
   4230   8518     1
   4231   8516     1
   4232   8516     1
   4234   4248     1
   4234   4249     1
   4234   4251     1
   4234   4252     1
   4234   4245     1
   4234   4246     1
   4235   4239     1
   4235   4240     1
   4235   4242     1
   4235   4243     1
   4235   4260     1
   4235   4261     1
   4236   4238     1
   4236   4241     1
   4236   4259     1
   4236   4248     1
   4236   4249     1
   4237   4238     1
   4237   4241     1
   4237   4259     1
   4237   4248     1
   4237   4249     1
   4238   4242     1
   4238   4243     1
   4238   4257     1
   4238   4258     1
   4239   4241     1
   4239   4256     1
   4239   4251     1
   4239   4252     1
   4240   4241     1
   4240   4256     1
   4240   4251     1
   4240   4252     1
   4241   4254     1
   4241   4255     1
   4242   4253     1
   4242   4245     1
   4242   4246     1
   4243   4253     1
   4243   4245     1
   4243   4246     1
   4245   4262     1
   4245   4254     1
   4245   4255     1
   4246   4262     1
   4246   4254     1
   4246   4255     1
   4248   8583     1
   4248   4260     1
   4248   4261     1
   4249   8583     1
   4249   4260     1
   4249   4261     1
   4251   8554     1
   4251   4257     1
   4251   4258     1
   4252   8554     1
   4252   4257     1
   4252   4258     1
   4256   8546     1
   4256   8547     1
   4257   8545     1
   4258   8545     1
   4259   8575     1
   4259   8576     1
   4260   8574     1
   4261   8574     1
   4263   4277     1
   4263   4278     1
   4263   4280     1
   4263   4281     1
   4263   4274     1
   4263   4275     1
   4264   4268     1
   4264   4269     1
   4264   4271     1
   4264   4272     1
   4264   4289     1
   4264   4290     1
   4265   4267     1
   4265   4270     1
   4265   4288     1
   4265   4277     1
   4265   4278     1
   4266   4267     1
   4266   4270     1
   4266   4288     1
   4266   4277     1
   4266   4278     1
   4267   4271     1
   4267   4272     1
   4267   4286     1
   4267   4287     1
   4268   4270     1
   4268   4285     1
   4268   4280     1
   4268   4281     1
   4269   4270     1
   4269   4285     1
   4269   4280     1
   4269   4281     1
   4270   4283     1
   4270   4284     1
   4271   4282     1
   4271   4274     1
   4271   4275     1
   4272   4282     1
   4272   4274     1
   4272   4275     1
   4274   4291     1
   4274   4283     1
   4274   4284     1
   4275   4291     1
   4275   4283     1
   4275   4284     1
   4277   8641     1
   4277   4289     1
   4277   4290     1
   4278   8641     1
   4278   4289     1
   4278   4290     1
   4280   8612     1
   4280   4286     1
   4280   4287     1
   4281   8612     1
   4281   4286     1
   4281   4287     1
   4285   8604     1
   4285   8605     1
   4286   8603     1
   4287   8603     1
   4288   8633     1
   4288   8634     1
   4289   8632     1
   4290   8632     1
   4292   4306     1
   4292   4307     1
   4292   4309     1
   4292   4310     1
   4292   4303     1
   4292   4304     1
   4293   4297     1
   4293   4298     1
   4293   4300     1
   4293   4301     1
   4293   4318     1
   4293   4319     1
   4294   4296     1
   4294   4299     1
   4294   4317     1
   4294   4306     1
   4294   4307     1
   4295   4296     1
   4295   4299     1
   4295   4317     1
   4295   4306     1
   4295   4307     1
   4296   4300     1
   4296   4301     1
   4296   4315     1
   4296   4316     1
   4297   4299     1
   4297   4314     1
   4297   4309     1
   4297   4310     1
   4298   4299     1
   4298   4314     1
   4298   4309     1
   4298   4310     1
   4299   4312     1
   4299   4313     1
   4300   4311     1
   4300   4303     1
   4300   4304     1
   4301   4311     1
   4301   4303     1
   4301   4304     1
   4303   4320     1
   4303   4312     1
   4303   4313     1
   4304   4320     1
   4304   4312     1
   4304   4313     1
   4306   8699     1
   4306   4318     1
   4306   4319     1
   4307   8699     1
   4307   4318     1
   4307   4319     1
   4309   8670     1
   4309   4315     1
   4309   4316     1
   4310   8670     1
   4310   4315     1
   4310   4316     1
   4314   8662     1
   4314   8663     1
   4315   8661     1
   4316   8661     1
   4317   8691     1
   4317   8692     1
   4318   8690     1
   4319   8690     1
   4321   4335     1
   4321   4336     1
   4321   4338     1
   4321   4339     1
   4321   4332     1
   4321   4333     1
   4322   4326     1
   4322   4327     1
   4322   4329     1
   4322   4330     1
   4322   4347     1
   4322   4348     1
   4323   4325     1
   4323   4328     1
   4323   4346     1
   4323   4335     1
   4323   4336     1
   4324   4325     1
   4324   4328     1
   4324   4346     1
   4324   4335     1
   4324   4336     1
   4325   4329     1
   4325   4330     1
   4325   4344     1
   4325   4345     1
   4326   4328     1
   4326   4343     1
   4326   4338     1
   4326   4339     1
   4327   4328     1
   4327   4343     1
   4327   4338     1
   4327   4339     1
   4328   4341     1
   4328   4342     1
   4329   4340     1
   4329   4332     1
   4329   4333     1
   4330   4340     1
   4330   4332     1
   4330   4333     1
   4332   4349     1
   4332   4341     1
   4332   4342     1
   4333   4349     1
   4333   4341     1
   4333   4342     1
   4335   8757     1
   4335   4347     1
   4335   4348     1
   4336   8757     1
   4336   4347     1
   4336   4348     1
   4338   8728     1
   4338   4344     1
   4338   4345     1
   4339   8728     1
   4339   4344     1
   4339   4345     1
   4343   8720     1
   4343   8721     1
   4344   8719     1
   4345   8719     1
   4346   8749     1
   4346   8750     1
   4347   8748     1
   4348   8748     1
   4350   4364     1
   4350   4365     1
   4350   4367     1
   4350   4368     1
   4350   4361     1
   4350   4362     1
   4351   4355     1
   4351   4356     1
   4351   4358     1
   4351   4359     1
   4351   4376     1
   4351   4377     1
   4352   4354     1
   4352   4357     1
   4352   4375     1
   4352   4364     1
   4352   4365     1
   4353   4354     1
   4353   4357     1
   4353   4375     1
   4353   4364     1
   4353   4365     1
   4354   4358     1
   4354   4359     1
   4354   4373     1
   4354   4374     1
   4355   4357     1
   4355   4372     1
   4355   4367     1
   4355   4368     1
   4356   4357     1
   4356   4372     1
   4356   4367     1
   4356   4368     1
   4357   4370     1
   4357   4371     1
   4358   4369     1
   4358   4361     1
   4358   4362     1
   4359   4369     1
   4359   4361     1
   4359   4362     1
   4361   4378     1
   4361   4370     1
   4361   4371     1
   4362   4378     1
   4362   4370     1
   4362   4371     1
   4364   8815     1
   4364   4376     1
   4364   4377     1
   4365   8815     1
   4365   4376     1
   4365   4377     1
   4367   8786     1
   4367   4373     1
   4367   4374     1
   4368   8786     1
   4368   4373     1
   4368   4374     1
   4372   8778     1
   4372   8779     1
   4373   8777     1
   4374   8777     1
   4375   8807     1
   4375   8808     1
   4376   8806     1
   4377   8806     1
   4379   4393     1
   4379   4394     1
   4379   4396     1
   4379   4397     1
   4379   4390     1
   4379   4391     1
   4380   4384     1
   4380   4385     1
   4380   4387     1
   4380   4388     1
   4380   4405     1
   4380   4406     1
   4381   4383     1
   4381   4386     1
   4381   4404     1
   4381   4393     1
   4381   4394     1
   4382   4383     1
   4382   4386     1
   4382   4404     1
   4382   4393     1
   4382   4394     1
   4383   4387     1
   4383   4388     1
   4383   4402     1
   4383   4403     1
   4384   4386     1
   4384   4401     1
   4384   4396     1
   4384   4397     1
   4385   4386     1
   4385   4401     1
   4385   4396     1
   4385   4397     1
   4386   4399     1
   4386   4400     1
   4387   4398     1
   4387   4390     1
   4387   4391     1
   4388   4398     1
   4388   4390     1
   4388   4391     1
   4390   4407     1
   4390   4399     1
   4390   4400     1
   4391   4407     1
   4391   4399     1
   4391   4400     1
   4393   8873     1
   4393   4405     1
   4393   4406     1
   4394   8873     1
   4394   4405     1
   4394   4406     1
   4396   8844     1
   4396   4402     1
   4396   4403     1
   4397   8844     1
   4397   4402     1
   4397   4403     1
   4401   8836     1
   4401   8837     1
   4402   8835     1
   4403   8835     1
   4404   8865     1
   4404   8866     1
   4405   8864     1
   4406   8864     1
   4408   4422     1
   4408   4423     1
   4408   4425     1
   4408   4426     1
   4408   4419     1
   4408   4420     1
   4409   4413     1
   4409   4414     1
   4409   4416     1
   4409   4417     1
   4409   4434     1
   4409   4435     1
   4410   4412     1
   4410   4415     1
   4410   4433     1
   4410   4422     1
   4410   4423     1
   4411   4412     1
   4411   4415     1
   4411   4433     1
   4411   4422     1
   4411   4423     1
   4412   4416     1
   4412   4417     1
   4412   4431     1
   4412   4432     1
   4413   4415     1
   4413   4430     1
   4413   4425     1
   4413   4426     1
   4414   4415     1
   4414   4430     1
   4414   4425     1
   4414   4426     1
   4415   4428     1
   4415   4429     1
   4416   4427     1
   4416   4419     1
   4416   4420     1
   4417   4427     1
   4417   4419     1
   4417   4420     1
   4419   4436     1
   4419   4428     1
   4419   4429     1
   4420   4436     1
   4420   4428     1
   4420   4429     1
   4422   8931     1
   4422   4434     1
   4422   4435     1
   4423   8931     1
   4423   4434     1
   4423   4435     1
   4425   8902     1
   4425   4431     1
   4425   4432     1
   4426   8902     1
   4426   4431     1
   4426   4432     1
   4430   8894     1
   4430   8895     1
   4431   8893     1
   4432   8893     1
   4433   8923     1
   4433   8924     1
   4434   8922     1
   4435   8922     1
   4437   4451     1
   4437   4452     1
   4437   4454     1
   4437   4455     1
   4437   4448     1
   4437   4449     1
   4438   4442     1
   4438   4443     1
   4438   4445     1
   4438   4446     1
   4438   4463     1
   4438   4464     1
   4439   4441     1
   4439   4444     1
   4439   4462     1
   4439   4451     1
   4439   4452     1
   4440   4441     1
   4440   4444     1
   4440   4462     1
   4440   4451     1
   4440   4452     1
   4441   4445     1
   4441   4446     1
   4441   4460     1
   4441   4461     1
   4442   4444     1
   4442   4459     1
   4442   4454     1
   4442   4455     1
   4443   4444     1
   4443   4459     1
   4443   4454     1
   4443   4455     1
   4444   4457     1
   4444   4458     1
   4445   4456     1
   4445   4448     1
   4445   4449     1
   4446   4456     1
   4446   4448     1
   4446   4449     1
   4448   4465     1
   4448   4457     1
   4448   4458     1
   4449   4465     1
   4449   4457     1
   4449   4458     1
   4451   8989     1
   4451   4463     1
   4451   4464     1
   4452   8989     1
   4452   4463     1
   4452   4464     1
   4454   8960     1
   4454   4460     1
   4454   4461     1
   4455   8960     1
   4455   4460     1
   4455   4461     1
   4459   8952     1
   4459   8953     1
   4460   8951     1
   4461   8951     1
   4462   8981     1
   4462   8982     1
   4463   8980     1
   4464   8980     1
   4466   4480     1
   4466   4481     1
   4466   4483     1
   4466   4484     1
   4466   4477     1
   4466   4478     1
   4467   4471     1
   4467   4472     1
   4467   4474     1
   4467   4475     1
   4467   4492     1
   4467   4493     1
   4468   4470     1
   4468   4473     1
   4468   4491     1
   4468   4480     1
   4468   4481     1
   4469   4470     1
   4469   4473     1
   4469   4491     1
   4469   4480     1
   4469   4481     1
   4470   4474     1
   4470   4475     1
   4470   4489     1
   4470   4490     1
   4471   4473     1
   4471   4488     1
   4471   4483     1
   4471   4484     1
   4472   4473     1
   4472   4488     1
   4472   4483     1
   4472   4484     1
   4473   4486     1
   4473   4487     1
   4474   4485     1
   4474   4477     1
   4474   4478     1
   4475   4485     1
   4475   4477     1
   4475   4478     1
   4477   4494     1
   4477   4486     1
   4477   4487     1
   4478   4494     1
   4478   4486     1
   4478   4487     1
   4480   9047     1
   4480   4492     1
   4480   4493     1
   4481   9047     1
   4481   4492     1
   4481   4493     1
   4483   9018     1
   4483   4489     1
   4483   4490     1
   4484   9018     1
   4484   4489     1
   4484   4490     1
   4488   9010     1
   4488   9011     1
   4489   9009     1
   4490   9009     1
   4491   9039     1
   4491   9040     1
   4492   9038     1
   4493   9038     1
   4495   4509     1
   4495   4510     1
   4495   4512     1
   4495   4513     1
   4495   4506     1
   4495   4507     1
   4496   4500     1
   4496   4501     1
   4496   4503     1
   4496   4504     1
   4496   4521     1
   4496   4522     1
   4497   4499     1
   4497   4502     1
   4497   4520     1
   4497   4509     1
   4497   4510     1
   4498   4499     1
   4498   4502     1
   4498   4520     1
   4498   4509     1
   4498   4510     1
   4499   4503     1
   4499   4504     1
   4499   4518     1
   4499   4519     1
   4500   4502     1
   4500   4517     1
   4500   4512     1
   4500   4513     1
   4501   4502     1
   4501   4517     1
   4501   4512     1
   4501   4513     1
   4502   4515     1
   4502   4516     1
   4503   4514     1
   4503   4506     1
   4503   4507     1
   4504   4514     1
   4504   4506     1
   4504   4507     1
   4506   4523     1
   4506   4515     1
   4506   4516     1
   4507   4523     1
   4507   4515     1
   4507   4516     1
   4509   9105     1
   4509   4521     1
   4509   4522     1
   4510   9105     1
   4510   4521     1
   4510   4522     1
   4512   9076     1
   4512   4518     1
   4512   4519     1
   4513   9076     1
   4513   4518     1
   4513   4519     1
   4517   9068     1
   4517   9069     1
   4518   9067     1
   4519   9067     1
   4520   9097     1
   4520   9098     1
   4521   9096     1
   4522   9096     1
   4524   4538     1
   4524   4539     1
   4524   4541     1
   4524   4542     1
   4524   4535     1
   4524   4536     1
   4525   4529     1
   4525   4530     1
   4525   4532     1
   4525   4533     1
   4525   4550     1
   4525   4551     1
   4526   4528     1
   4526   4531     1
   4526   4549     1
   4526   4538     1
   4526   4539     1
   4527   4528     1
   4527   4531     1
   4527   4549     1
   4527   4538     1
   4527   4539     1
   4528   4532     1
   4528   4533     1
   4528   4547     1
   4528   4548     1
   4529   4531     1
   4529   4546     1
   4529   4541     1
   4529   4542     1
   4530   4531     1
   4530   4546     1
   4530   4541     1
   4530   4542     1
   4531   4544     1
   4531   4545     1
   4532   4543     1
   4532   4535     1
   4532   4536     1
   4533   4543     1
   4533   4535     1
   4533   4536     1
   4535   4552     1
   4535   4544     1
   4535   4545     1
   4536   4552     1
   4536   4544     1
   4536   4545     1
   4538   9163     1
   4538   4550     1
   4538   4551     1
   4539   9163     1
   4539   4550     1
   4539   4551     1
   4541   9134     1
   4541   4547     1
   4541   4548     1
   4542   9134     1
   4542   4547     1
   4542   4548     1
   4546   9126     1
   4546   9127     1
   4547   9125     1
   4548   9125     1
   4549   9155     1
   4549   9156     1
   4550   9154     1
   4551   9154     1
   4553   4567     1
   4553   4568     1
   4553   4570     1
   4553   4571     1
   4553   4564     1
   4553   4565     1
   4554   4558     1
   4554   4559     1
   4554   4561     1
   4554   4562     1
   4554   4579     1
   4554   4580     1
   4555   4557     1
   4555   4560     1
   4555   4578     1
   4555   4567     1
   4555   4568     1
   4556   4557     1
   4556   4560     1
   4556   4578     1
   4556   4567     1
   4556   4568     1
   4557   4561     1
   4557   4562     1
   4557   4576     1
   4557   4577     1
   4558   4560     1
   4558   4575     1
   4558   4570     1
   4558   4571     1
   4559   4560     1
   4559   4575     1
   4559   4570     1
   4559   4571     1
   4560   4573     1
   4560   4574     1
   4561   4572     1
   4561   4564     1
   4561   4565     1
   4562   4572     1
   4562   4564     1
   4562   4565     1
   4564   4581     1
   4564   4573     1
   4564   4574     1
   4565   4581     1
   4565   4573     1
   4565   4574     1
   4567   9221     1
   4567   4579     1
   4567   4580     1
   4568   9221     1
   4568   4579     1
   4568   4580     1
   4570   9192     1
   4570   4576     1
   4570   4577     1
   4571   9192     1
   4571   4576     1
   4571   4577     1
   4575   9184     1
   4575   9185     1
   4576   9183     1
   4577   9183     1
   4578   9213     1
   4578   9214     1
   4579   9212     1
   4580   9212     1
   4582   4596     1
   4582   4597     1
   4582   4599     1
   4582   4600     1
   4582   4593     1
   4582   4594     1
   4583   4587     1
   4583   4588     1
   4583   4590     1
   4583   4591     1
   4583   4608     1
   4583   4609     1
   4584   4586     1
   4584   4589     1
   4584   4607     1
   4584   4596     1
   4584   4597     1
   4585   4586     1
   4585   4589     1
   4585   4607     1
   4585   4596     1
   4585   4597     1
   4586   4590     1
   4586   4591     1
   4586   4605     1
   4586   4606     1
   4587   4589     1
   4587   4604     1
   4587   4599     1
   4587   4600     1
   4588   4589     1
   4588   4604     1
   4588   4599     1
   4588   4600     1
   4589   4602     1
   4589   4603     1
   4590   4601     1
   4590   4593     1
   4590   4594     1
   4591   4601     1
   4591   4593     1
   4591   4594     1
   4593   4610     1
   4593   4602     1
   4593   4603     1
   4594   4610     1
   4594   4602     1
   4594   4603     1
   4596   9279     1
   4596   4608     1
   4596   4609     1
   4597   9279     1
   4597   4608     1
   4597   4609     1
   4599   9250     1
   4599   4605     1
   4599   4606     1
   4600   9250     1
   4600   4605     1
   4600   4606     1
   4604   9242     1
   4604   9243     1
   4605   9241     1
   4606   9241     1
   4607   9271     1
   4607   9272     1
   4608   9270     1
   4609   9270     1
   4611   4625     1
   4611   4626     1
   4611   4628     1
   4611   4629     1
   4611   4622     1
   4611   4623     1
   4612   4616     1
   4612   4617     1
   4612   4619     1
   4612   4620     1
   4612   4637     1
   4612   4638     1
   4613   4615     1
   4613   4618     1
   4613   4636     1
   4613   4625     1
   4613   4626     1
   4614   4615     1
   4614   4618     1
   4614   4636     1
   4614   4625     1
   4614   4626     1
   4615   4619     1
   4615   4620     1
   4615   4634     1
   4615   4635     1
   4616   4618     1
   4616   4633     1
   4616   4628     1
   4616   4629     1
   4617   4618     1
   4617   4633     1
   4617   4628     1
   4617   4629     1
   4618   4631     1
   4618   4632     1
   4619   4630     1
   4619   4622     1
   4619   4623     1
   4620   4630     1
   4620   4622     1
   4620   4623     1
   4622   4639     1
   4622   4631     1
   4622   4632     1
   4623   4639     1
   4623   4631     1
   4623   4632     1
   4625   9337     1
   4625   4637     1
   4625   4638     1
   4626   9337     1
   4626   4637     1
   4626   4638     1
   4628   9308     1
   4628   4634     1
   4628   4635     1
   4629   9308     1
   4629   4634     1
   4629   4635     1
   4633   9300     1
   4633   9301     1
   4634   9299     1
   4635   9299     1
   4636   9329     1
   4636   9330     1
   4637   9328     1
   4638   9328     1
   4640   4654     1
   4640   4655     1
   4640   4657     1
   4640   4658     1
   4640   4651     1
   4640   4652     1
   4641   4645     1
   4641   4646     1
   4641   4648     1
   4641   4649     1
   4641   4666     1
   4641   4667     1
   4642   4644     1
   4642   4647     1
   4642   4665     1
   4642   4654     1
   4642   4655     1
   4643   4644     1
   4643   4647     1
   4643   4665     1
   4643   4654     1
   4643   4655     1
   4644   4648     1
   4644   4649     1
   4644   4663     1
   4644   4664     1
   4645   4647     1
   4645   4662     1
   4645   4657     1
   4645   4658     1
   4646   4647     1
   4646   4662     1
   4646   4657     1
   4646   4658     1
   4647   4660     1
   4647   4661     1
   4648   4659     1
   4648   4651     1
   4648   4652     1
   4649   4659     1
   4649   4651     1
   4649   4652     1
   4651   4668     1
   4651   4660     1
   4651   4661     1
   4652   4668     1
   4652   4660     1
   4652   4661     1
   4654   9395     1
   4654   4666     1
   4654   4667     1
   4655   9395     1
   4655   4666     1
   4655   4667     1
   4657   9366     1
   4657   4663     1
   4657   4664     1
   4658   9366     1
   4658   4663     1
   4658   4664     1
   4662   9358     1
   4662   9359     1
   4663   9357     1
   4664   9357     1
   4665   9387     1
   4665   9388     1
   4666   9386     1
   4667   9386     1
   4669   4683     1
   4669   4684     1
   4669   4686     1
   4669   4687     1
   4669   4680     1
   4669   4681     1
   4670   4674     1
   4670   4675     1
   4670   4677     1
   4670   4678     1
   4670   4695     1
   4670   4696     1
   4671   4673     1
   4671   4676     1
   4671   4694     1
   4671   4683     1
   4671   4684     1
   4672   4673     1
   4672   4676     1
   4672   4694     1
   4672   4683     1
   4672   4684     1
   4673   4677     1
   4673   4678     1
   4673   4692     1
   4673   4693     1
   4674   4676     1
   4674   4691     1
   4674   4686     1
   4674   4687     1
   4675   4676     1
   4675   4691     1
   4675   4686     1
   4675   4687     1
   4676   4689     1
   4676   4690     1
   4677   4688     1
   4677   4680     1
   4677   4681     1
   4678   4688     1
   4678   4680     1
   4678   4681     1
   4680   4697     1
   4680   4689     1
   4680   4690     1
   4681   4697     1
   4681   4689     1
   4681   4690     1
   4683   9453     1
   4683   4695     1
   4683   4696     1
   4684   9453     1
   4684   4695     1
   4684   4696     1
   4686   9424     1
   4686   4692     1
   4686   4693     1
   4687   9424     1
   4687   4692     1
   4687   4693     1
   4691   9416     1
   4691   9417     1
   4692   9415     1
   4693   9415     1
   4694   9445     1
   4694   9446     1
   4695   9444     1
   4696   9444     1
   4698   4712     1
   4698   4713     1
   4698   4715     1
   4698   4716     1
   4698   4709     1
   4698   4710     1
   4699   4703     1
   4699   4704     1
   4699   4706     1
   4699   4707     1
   4699   4724     1
   4699   4725     1
   4700   4702     1
   4700   4705     1
   4700   4723     1
   4700   4712     1
   4700   4713     1
   4701   4702     1
   4701   4705     1
   4701   4723     1
   4701   4712     1
   4701   4713     1
   4702   4706     1
   4702   4707     1
   4702   4721     1
   4702   4722     1
   4703   4705     1
   4703   4720     1
   4703   4715     1
   4703   4716     1
   4704   4705     1
   4704   4720     1
   4704   4715     1
   4704   4716     1
   4705   4718     1
   4705   4719     1
   4706   4717     1
   4706   4709     1
   4706   4710     1
   4707   4717     1
   4707   4709     1
   4707   4710     1
   4709   4726     1
   4709   4718     1
   4709   4719     1
   4710   4726     1
   4710   4718     1
   4710   4719     1
   4712   9511     1
   4712   4724     1
   4712   4725     1
   4713   9511     1
   4713   4724     1
   4713   4725     1
   4715   9482     1
   4715   4721     1
   4715   4722     1
   4716   9482     1
   4716   4721     1
   4716   4722     1
   4720   9474     1
   4720   9475     1
   4721   9473     1
   4722   9473     1
   4723   9503     1
   4723   9504     1
   4724   9502     1
   4725   9502     1
   4727   4741     1
   4727   4742     1
   4727   4744     1
   4727   4745     1
   4727   4738     1
   4727   4739     1
   4728   4732     1
   4728   4733     1
   4728   4735     1
   4728   4736     1
   4728   4753     1
   4728   4754     1
   4729   4731     1
   4729   4734     1
   4729   4752     1
   4729   4741     1
   4729   4742     1
   4730   4731     1
   4730   4734     1
   4730   4752     1
   4730   4741     1
   4730   4742     1
   4731   4735     1
   4731   4736     1
   4731   4750     1
   4731   4751     1
   4732   4734     1
   4732   4749     1
   4732   4744     1
   4732   4745     1
   4733   4734     1
   4733   4749     1
   4733   4744     1
   4733   4745     1
   4734   4747     1
   4734   4748     1
   4735   4746     1
   4735   4738     1
   4735   4739     1
   4736   4746     1
   4736   4738     1
   4736   4739     1
   4738   4755     1
   4738   4747     1
   4738   4748     1
   4739   4755     1
   4739   4747     1
   4739   4748     1
   4741   9569     1
   4741   4753     1
   4741   4754     1
   4742   9569     1
   4742   4753     1
   4742   4754     1
   4744   9540     1
   4744   4750     1
   4744   4751     1
   4745   9540     1
   4745   4750     1
   4745   4751     1
   4749   9532     1
   4749   9533     1
   4750   9531     1
   4751   9531     1
   4752   9561     1
   4752   9562     1
   4753   9560     1
   4754   9560     1
   4756   4770     1
   4756   4771     1
   4756   4773     1
   4756   4774     1
   4756   4767     1
   4756   4768     1
   4757   4761     1
   4757   4762     1
   4757   4764     1
   4757   4765     1
   4757   4782     1
   4757   4783     1
   4758   4760     1
   4758   4763     1
   4758   4781     1
   4758   4770     1
   4758   4771     1
   4759   4760     1
   4759   4763     1
   4759   4781     1
   4759   4770     1
   4759   4771     1
   4760   4764     1
   4760   4765     1
   4760   4779     1
   4760   4780     1
   4761   4763     1
   4761   4778     1
   4761   4773     1
   4761   4774     1
   4762   4763     1
   4762   4778     1
   4762   4773     1
   4762   4774     1
   4763   4776     1
   4763   4777     1
   4764   4775     1
   4764   4767     1
   4764   4768     1
   4765   4775     1
   4765   4767     1
   4765   4768     1
   4767   4784     1
   4767   4776     1
   4767   4777     1
   4768   4784     1
   4768   4776     1
   4768   4777     1
   4770   9627     1
   4770   4782     1
   4770   4783     1
   4771   9627     1
   4771   4782     1
   4771   4783     1
   4773   9598     1
   4773   4779     1
   4773   4780     1
   4774   9598     1
   4774   4779     1
   4774   4780     1
   4778   9590     1
   4778   9591     1
   4779   9589     1
   4780   9589     1
   4781   9619     1
   4781   9620     1
   4782   9618     1
   4783   9618     1
   4785   4799     1
   4785   4800     1
   4785   4802     1
   4785   4803     1
   4785   4796     1
   4785   4797     1
   4786   4790     1
   4786   4791     1
   4786   4793     1
   4786   4794     1
   4786   4811     1
   4786   4812     1
   4787   4789     1
   4787   4792     1
   4787   4810     1
   4787   4799     1
   4787   4800     1
   4788   4789     1
   4788   4792     1
   4788   4810     1
   4788   4799     1
   4788   4800     1
   4789   4793     1
   4789   4794     1
   4789   4808     1
   4789   4809     1
   4790   4792     1
   4790   4807     1
   4790   4802     1
   4790   4803     1
   4791   4792     1
   4791   4807     1
   4791   4802     1
   4791   4803     1
   4792   4805     1
   4792   4806     1
   4793   4804     1
   4793   4796     1
   4793   4797     1
   4794   4804     1
   4794   4796     1
   4794   4797     1
   4796   4813     1
   4796   4805     1
   4796   4806     1
   4797   4813     1
   4797   4805     1
   4797   4806     1
   4799   9685     1
   4799   4811     1
   4799   4812     1
   4800   9685     1
   4800   4811     1
   4800   4812     1
   4802   9656     1
   4802   4808     1
   4802   4809     1
   4803   9656     1
   4803   4808     1
   4803   4809     1
   4807   9648     1
   4807   9649     1
   4808   9647     1
   4809   9647     1
   4810   9677     1
   4810   9678     1
   4811   9676     1
   4812   9676     1
   4814   4828     1
   4814   4829     1
   4814   4831     1
   4814   4832     1
   4814   4825     1
   4814   4826     1
   4815   4819     1
   4815   4820     1
   4815   4822     1
   4815   4823     1
   4815   4840     1
   4815   4841     1
   4816   4818     1
   4816   4821     1
   4816   4839     1
   4816   4828     1
   4816   4829     1
   4817   4818     1
   4817   4821     1
   4817   4839     1
   4817   4828     1
   4817   4829     1
   4818   4822     1
   4818   4823     1
   4818   4837     1
   4818   4838     1
   4819   4821     1
   4819   4836     1
   4819   4831     1
   4819   4832     1
   4820   4821     1
   4820   4836     1
   4820   4831     1
   4820   4832     1
   4821   4834     1
   4821   4835     1
   4822   4833     1
   4822   4825     1
   4822   4826     1
   4823   4833     1
   4823   4825     1
   4823   4826     1
   4825   4842     1
   4825   4834     1
   4825   4835     1
   4826   4842     1
   4826   4834     1
   4826   4835     1
   4828   9743     1
   4828   4840     1
   4828   4841     1
   4829   9743     1
   4829   4840     1
   4829   4841     1
   4831   9714     1
   4831   4837     1
   4831   4838     1
   4832   9714     1
   4832   4837     1
   4832   4838     1
   4836   9706     1
   4836   9707     1
   4837   9705     1
   4838   9705     1
   4839   9735     1
   4839   9736     1
   4840   9734     1
   4841   9734     1
   4843   4857     1
   4843   4858     1
   4843   4860     1
   4843   4861     1
   4843   4854     1
   4843   4855     1
   4844   4848     1
   4844   4849     1
   4844   4851     1
   4844   4852     1
   4844   4869     1
   4844   4870     1
   4845   4847     1
   4845   4850     1
   4845   4868     1
   4845   4857     1
   4845   4858     1
   4846   4847     1
   4846   4850     1
   4846   4868     1
   4846   4857     1
   4846   4858     1
   4847   4851     1
   4847   4852     1
   4847   4866     1
   4847   4867     1
   4848   4850     1
   4848   4865     1
   4848   4860     1
   4848   4861     1
   4849   4850     1
   4849   4865     1
   4849   4860     1
   4849   4861     1
   4850   4863     1
   4850   4864     1
   4851   4862     1
   4851   4854     1
   4851   4855     1
   4852   4862     1
   4852   4854     1
   4852   4855     1
   4854   4871     1
   4854   4863     1
   4854   4864     1
   4855   4871     1
   4855   4863     1
   4855   4864     1
   4857   9801     1
   4857   4869     1
   4857   4870     1
   4858   9801     1
   4858   4869     1
   4858   4870     1
   4860   9772     1
   4860   4866     1
   4860   4867     1
   4861   9772     1
   4861   4866     1
   4861   4867     1
   4865   9764     1
   4865   9765     1
   4866   9763     1
   4867   9763     1
   4868   9793     1
   4868   9794     1
   4869   9792     1
   4870   9792     1
   4872   4886     1
   4872   4887     1
   4872   4889     1
   4872   4890     1
   4872   4883     1
   4872   4884     1
   4873   4877     1
   4873   4878     1
   4873   4880     1
   4873   4881     1
   4873   4898     1
   4873   4899     1
   4874   4876     1
   4874   4879     1
   4874   4897     1
   4874   4886     1
   4874   4887     1
   4875   4876     1
   4875   4879     1
   4875   4897     1
   4875   4886     1
   4875   4887     1
   4876   4880     1
   4876   4881     1
   4876   4895     1
   4876   4896     1
   4877   4879     1
   4877   4894     1
   4877   4889     1
   4877   4890     1
   4878   4879     1
   4878   4894     1
   4878   4889     1
   4878   4890     1
   4879   4892     1
   4879   4893     1
   4880   4891     1
   4880   4883     1
   4880   4884     1
   4881   4891     1
   4881   4883     1
   4881   4884     1
   4883   4900     1
   4883   4892     1
   4883   4893     1
   4884   4900     1
   4884   4892     1
   4884   4893     1
   4886   9859     1
   4886   4898     1
   4886   4899     1
   4887   9859     1
   4887   4898     1
   4887   4899     1
   4889   9830     1
   4889   4895     1
   4889   4896     1
   4890   9830     1
   4890   4895     1
   4890   4896     1
   4894   9822     1
   4894   9823     1
   4895   9821     1
   4896   9821     1
   4897   9851     1
   4897   9852     1
   4898   9850     1
   4899   9850     1
   4901   4915     1
   4901   4916     1
   4901   4918     1
   4901   4919     1
   4901   4912     1
   4901   4913     1
   4902   4906     1
   4902   4907     1
   4902   4909     1
   4902   4910     1
   4902   4927     1
   4902   4928     1
   4903   4905     1
   4903   4908     1
   4903   4926     1
   4903   4915     1
   4903   4916     1
   4904   4905     1
   4904   4908     1
   4904   4926     1
   4904   4915     1
   4904   4916     1
   4905   4909     1
   4905   4910     1
   4905   4924     1
   4905   4925     1
   4906   4908     1
   4906   4923     1
   4906   4918     1
   4906   4919     1
   4907   4908     1
   4907   4923     1
   4907   4918     1
   4907   4919     1
   4908   4921     1
   4908   4922     1
   4909   4920     1
   4909   4912     1
   4909   4913     1
   4910   4920     1
   4910   4912     1
   4910   4913     1
   4912   4929     1
   4912   4921     1
   4912   4922     1
   4913   4929     1
   4913   4921     1
   4913   4922     1
   4915   9917     1
   4915   4927     1
   4915   4928     1
   4916   9917     1
   4916   4927     1
   4916   4928     1
   4918   9888     1
   4918   4924     1
   4918   4925     1
   4919   9888     1
   4919   4924     1
   4919   4925     1
   4923   9880     1
   4923   9881     1
   4924   9879     1
   4925   9879     1
   4926   9909     1
   4926   9910     1
   4927   9908     1
   4928   9908     1
   4930   4944     1
   4930   4945     1
   4930   4947     1
   4930   4948     1
   4930   4941     1
   4930   4942     1
   4931   4935     1
   4931   4936     1
   4931   4938     1
   4931   4939     1
   4931   4956     1
   4931   4957     1
   4932   4934     1
   4932   4937     1
   4932   4955     1
   4932   4944     1
   4932   4945     1
   4933   4934     1
   4933   4937     1
   4933   4955     1
   4933   4944     1
   4933   4945     1
   4934   4938     1
   4934   4939     1
   4934   4953     1
   4934   4954     1
   4935   4937     1
   4935   4952     1
   4935   4947     1
   4935   4948     1
   4936   4937     1
   4936   4952     1
   4936   4947     1
   4936   4948     1
   4937   4950     1
   4937   4951     1
   4938   4949     1
   4938   4941     1
   4938   4942     1
   4939   4949     1
   4939   4941     1
   4939   4942     1
   4941   4958     1
   4941   4950     1
   4941   4951     1
   4942   4958     1
   4942   4950     1
   4942   4951     1
   4944   9975     1
   4944   4956     1
   4944   4957     1
   4945   9975     1
   4945   4956     1
   4945   4957     1
   4947   9946     1
   4947   4953     1
   4947   4954     1
   4948   9946     1
   4948   4953     1
   4948   4954     1
   4952   9938     1
   4952   9939     1
   4953   9937     1
   4954   9937     1
   4955   9967     1
   4955   9968     1
   4956   9966     1
   4957   9966     1
   4959   4973     1
   4959   4974     1
   4959   4976     1
   4959   4977     1
   4959   4970     1
   4959   4971     1
   4960   4964     1
   4960   4965     1
   4960   4967     1
   4960   4968     1
   4960   4985     1
   4960   4986     1
   4961   4963     1
   4961   4966     1
   4961   4984     1
   4961   4973     1
   4961   4974     1
   4962   4963     1
   4962   4966     1
   4962   4984     1
   4962   4973     1
   4962   4974     1
   4963   4967     1
   4963   4968     1
   4963   4982     1
   4963   4983     1
   4964   4966     1
   4964   4981     1
   4964   4976     1
   4964   4977     1
   4965   4966     1
   4965   4981     1
   4965   4976     1
   4965   4977     1
   4966   4979     1
   4966   4980     1
   4967   4978     1
   4967   4970     1
   4967   4971     1
   4968   4978     1
   4968   4970     1
   4968   4971     1
   4970   4987     1
   4970   4979     1
   4970   4980     1
   4971   4987     1
   4971   4979     1
   4971   4980     1
   4973  10033     1
   4973   4985     1
   4973   4986     1
   4974  10033     1
   4974   4985     1
   4974   4986     1
   4976  10004     1
   4976   4982     1
   4976   4983     1
   4977  10004     1
   4977   4982     1
   4977   4983     1
   4981   9996     1
   4981   9997     1
   4982   9995     1
   4983   9995     1
   4984  10025     1
   4984  10026     1
   4985  10024     1
   4986  10024     1
   4988   5002     1
   4988   5003     1
   4988   5005     1
   4988   5006     1
   4988   4999     1
   4988   5000     1
   4989   4993     1
   4989   4994     1
   4989   4996     1
   4989   4997     1
   4989   5014     1
   4989   5015     1
   4990   4992     1
   4990   4995     1
   4990   5013     1
   4990   5002     1
   4990   5003     1
   4991   4992     1
   4991   4995     1
   4991   5013     1
   4991   5002     1
   4991   5003     1
   4992   4996     1
   4992   4997     1
   4992   5011     1
   4992   5012     1
   4993   4995     1
   4993   5010     1
   4993   5005     1
   4993   5006     1
   4994   4995     1
   4994   5010     1
   4994   5005     1
   4994   5006     1
   4995   5008     1
   4995   5009     1
   4996   5007     1
   4996   4999     1
   4996   5000     1
   4997   5007     1
   4997   4999     1
   4997   5000     1
   4999   5016     1
   4999   5008     1
   4999   5009     1
   5000   5016     1
   5000   5008     1
   5000   5009     1
   5002  10091     1
   5002   5014     1
   5002   5015     1
   5003  10091     1
   5003   5014     1
   5003   5015     1
   5005  10062     1
   5005   5011     1
   5005   5012     1
   5006  10062     1
   5006   5011     1
   5006   5012     1
   5010  10054     1
   5010  10055     1
   5011  10053     1
   5012  10053     1
   5013  10083     1
   5013  10084     1
   5014  10082     1
   5015  10082     1
   5017   5031     1
   5017   5032     1
   5017   5034     1
   5017   5035     1
   5017   5028     1
   5017   5029     1
   5018   5022     1
   5018   5023     1
   5018   5025     1
   5018   5026     1
   5018   5043     1
   5018   5044     1
   5019   5021     1
   5019   5024     1
   5019   5042     1
   5019   5031     1
   5019   5032     1
   5020   5021     1
   5020   5024     1
   5020   5042     1
   5020   5031     1
   5020   5032     1
   5021   5025     1
   5021   5026     1
   5021   5040     1
   5021   5041     1
   5022   5024     1
   5022   5039     1
   5022   5034     1
   5022   5035     1
   5023   5024     1
   5023   5039     1
   5023   5034     1
   5023   5035     1
   5024   5037     1
   5024   5038     1
   5025   5036     1
   5025   5028     1
   5025   5029     1
   5026   5036     1
   5026   5028     1
   5026   5029     1
   5028   5045     1
   5028   5037     1
   5028   5038     1
   5029   5045     1
   5029   5037     1
   5029   5038     1
   5031  10149     1
   5031   5043     1
   5031   5044     1
   5032  10149     1
   5032   5043     1
   5032   5044     1
   5034  10120     1
   5034   5040     1
   5034   5041     1
   5035  10120     1
   5035   5040     1
   5035   5041     1
   5039  10112     1
   5039  10113     1
   5040  10111     1
   5041  10111     1
   5042  10141     1
   5042  10142     1
   5043  10140     1
   5044  10140     1
   5046   5060     1
   5046   5061     1
   5046   5063     1
   5046   5064     1
   5046   5057     1
   5046   5058     1
   5047   5051     1
   5047   5052     1
   5047   5054     1
   5047   5055     1
   5047   5072     1
   5047   5073     1
   5048   5050     1
   5048   5053     1
   5048   5071     1
   5048   5060     1
   5048   5061     1
   5049   5050     1
   5049   5053     1
   5049   5071     1
   5049   5060     1
   5049   5061     1
   5050   5054     1
   5050   5055     1
   5050   5069     1
   5050   5070     1
   5051   5053     1
   5051   5068     1
   5051   5063     1
   5051   5064     1
   5052   5053     1
   5052   5068     1
   5052   5063     1
   5052   5064     1
   5053   5066     1
   5053   5067     1
   5054   5065     1
   5054   5057     1
   5054   5058     1
   5055   5065     1
   5055   5057     1
   5055   5058     1
   5057   5074     1
   5057   5066     1
   5057   5067     1
   5058   5074     1
   5058   5066     1
   5058   5067     1
   5060  10207     1
   5060   5072     1
   5060   5073     1
   5061  10207     1
   5061   5072     1
   5061   5073     1
   5063  10178     1
   5063   5069     1
   5063   5070     1
   5064  10178     1
   5064   5069     1
   5064   5070     1
   5068  10170     1
   5068  10171     1
   5069  10169     1
   5070  10169     1
   5071  10199     1
   5071  10200     1
   5072  10198     1
   5073  10198     1
   5075   5089     1
   5075   5090     1
   5075   5092     1
   5075   5093     1
   5075   5086     1
   5075   5087     1
   5076   5080     1
   5076   5081     1
   5076   5083     1
   5076   5084     1
   5076   5101     1
   5076   5102     1
   5077   5079     1
   5077   5082     1
   5077   5100     1
   5077   5089     1
   5077   5090     1
   5078   5079     1
   5078   5082     1
   5078   5100     1
   5078   5089     1
   5078   5090     1
   5079   5083     1
   5079   5084     1
   5079   5098     1
   5079   5099     1
   5080   5082     1
   5080   5097     1
   5080   5092     1
   5080   5093     1
   5081   5082     1
   5081   5097     1
   5081   5092     1
   5081   5093     1
   5082   5095     1
   5082   5096     1
   5083   5094     1
   5083   5086     1
   5083   5087     1
   5084   5094     1
   5084   5086     1
   5084   5087     1
   5086   5103     1
   5086   5095     1
   5086   5096     1
   5087   5103     1
   5087   5095     1
   5087   5096     1
   5089  10265     1
   5089   5101     1
   5089   5102     1
   5090  10265     1
   5090   5101     1
   5090   5102     1
   5092  10236     1
   5092   5098     1
   5092   5099     1
   5093  10236     1
   5093   5098     1
   5093   5099     1
   5097  10228     1
   5097  10229     1
   5098  10227     1
   5099  10227     1
   5100  10257     1
   5100  10258     1
   5101  10256     1
   5102  10256     1
   5104   5118     1
   5104   5119     1
   5104   5121     1
   5104   5122     1
   5104   5115     1
   5104   5116     1
   5105   5109     1
   5105   5110     1
   5105   5112     1
   5105   5113     1
   5105   5130     1
   5105   5131     1
   5106   5108     1
   5106   5111     1
   5106   5129     1
   5106   5118     1
   5106   5119     1
   5107   5108     1
   5107   5111     1
   5107   5129     1
   5107   5118     1
   5107   5119     1
   5108   5112     1
   5108   5113     1
   5108   5127     1
   5108   5128     1
   5109   5111     1
   5109   5126     1
   5109   5121     1
   5109   5122     1
   5110   5111     1
   5110   5126     1
   5110   5121     1
   5110   5122     1
   5111   5124     1
   5111   5125     1
   5112   5123     1
   5112   5115     1
   5112   5116     1
   5113   5123     1
   5113   5115     1
   5113   5116     1
   5115   5132     1
   5115   5124     1
   5115   5125     1
   5116   5132     1
   5116   5124     1
   5116   5125     1
   5118  10323     1
   5118   5130     1
   5118   5131     1
   5119  10323     1
   5119   5130     1
   5119   5131     1
   5121  10294     1
   5121   5127     1
   5121   5128     1
   5122  10294     1
   5122   5127     1
   5122   5128     1
   5126  10286     1
   5126  10287     1
   5127  10285     1
   5128  10285     1
   5129  10315     1
   5129  10316     1
   5130  10314     1
   5131  10314     1
   5133   5147     1
   5133   5148     1
   5133   5150     1
   5133   5151     1
   5133   5144     1
   5133   5145     1
   5134   5138     1
   5134   5139     1
   5134   5141     1
   5134   5142     1
   5134   5159     1
   5134   5160     1
   5135   5137     1
   5135   5140     1
   5135   5158     1
   5135   5147     1
   5135   5148     1
   5136   5137     1
   5136   5140     1
   5136   5158     1
   5136   5147     1
   5136   5148     1
   5137   5141     1
   5137   5142     1
   5137   5156     1
   5137   5157     1
   5138   5140     1
   5138   5155     1
   5138   5150     1
   5138   5151     1
   5139   5140     1
   5139   5155     1
   5139   5150     1
   5139   5151     1
   5140   5153     1
   5140   5154     1
   5141   5152     1
   5141   5144     1
   5141   5145     1
   5142   5152     1
   5142   5144     1
   5142   5145     1
   5144   5161     1
   5144   5153     1
   5144   5154     1
   5145   5161     1
   5145   5153     1
   5145   5154     1
   5147  10381     1
   5147   5159     1
   5147   5160     1
   5148  10381     1
   5148   5159     1
   5148   5160     1
   5150  10352     1
   5150   5156     1
   5150   5157     1
   5151  10352     1
   5151   5156     1
   5151   5157     1
   5155  10344     1
   5155  10345     1
   5156  10343     1
   5157  10343     1
   5158  10373     1
   5158  10374     1
   5159  10372     1
   5160  10372     1
   5162   5176     1
   5162   5177     1
   5162   5179     1
   5162   5180     1
   5162   5173     1
   5162   5174     1
   5163   5167     1
   5163   5168     1
   5163   5170     1
   5163   5171     1
   5163   5188     1
   5163   5189     1
   5164   5166     1
   5164   5169     1
   5164   5187     1
   5164   5176     1
   5164   5177     1
   5165   5166     1
   5165   5169     1
   5165   5187     1
   5165   5176     1
   5165   5177     1
   5166   5170     1
   5166   5171     1
   5166   5185     1
   5166   5186     1
   5167   5169     1
   5167   5184     1
   5167   5179     1
   5167   5180     1
   5168   5169     1
   5168   5184     1
   5168   5179     1
   5168   5180     1
   5169   5182     1
   5169   5183     1
   5170   5181     1
   5170   5173     1
   5170   5174     1
   5171   5181     1
   5171   5173     1
   5171   5174     1
   5173   5190     1
   5173   5182     1
   5173   5183     1
   5174   5190     1
   5174   5182     1
   5174   5183     1
   5176  10439     1
   5176   5188     1
   5176   5189     1
   5177  10439     1
   5177   5188     1
   5177   5189     1
   5179  10410     1
   5179   5185     1
   5179   5186     1
   5180  10410     1
   5180   5185     1
   5180   5186     1
   5184  10402     1
   5184  10403     1
   5185  10401     1
   5186  10401     1
   5187  10431     1
   5187  10432     1
   5188  10430     1
   5189  10430     1
   5191   5205     1
   5191   5206     1
   5191   5208     1
   5191   5209     1
   5191   5202     1
   5191   5203     1
   5192   5196     1
   5192   5197     1
   5192   5199     1
   5192   5200     1
   5192   5217     1
   5192   5218     1
   5193   5195     1
   5193   5198     1
   5193   5216     1
   5193   5205     1
   5193   5206     1
   5194   5195     1
   5194   5198     1
   5194   5216     1
   5194   5205     1
   5194   5206     1
   5195   5199     1
   5195   5200     1
   5195   5214     1
   5195   5215     1
   5196   5198     1
   5196   5213     1
   5196   5208     1
   5196   5209     1
   5197   5198     1
   5197   5213     1
   5197   5208     1
   5197   5209     1
   5198   5211     1
   5198   5212     1
   5199   5210     1
   5199   5202     1
   5199   5203     1
   5200   5210     1
   5200   5202     1
   5200   5203     1
   5202   5219     1
   5202   5211     1
   5202   5212     1
   5203   5219     1
   5203   5211     1
   5203   5212     1
   5205  10497     1
   5205   5217     1
   5205   5218     1
   5206  10497     1
   5206   5217     1
   5206   5218     1
   5208  10468     1
   5208   5214     1
   5208   5215     1
   5209  10468     1
   5209   5214     1
   5209   5215     1
   5213  10460     1
   5213  10461     1
   5214  10459     1
   5215  10459     1
   5216  10489     1
   5216  10490     1
   5217  10488     1
   5218  10488     1
   5220   5234     1
   5220   5235     1
   5220   5237     1
   5220   5238     1
   5220   5231     1
   5220   5232     1
   5221   5225     1
   5221   5226     1
   5221   5228     1
   5221   5229     1
   5221   5246     1
   5221   5247     1
   5222   5224     1
   5222   5227     1
   5222   5245     1
   5222   5234     1
   5222   5235     1
   5223   5224     1
   5223   5227     1
   5223   5245     1
   5223   5234     1
   5223   5235     1
   5224   5228     1
   5224   5229     1
   5224   5243     1
   5224   5244     1
   5225   5227     1
   5225   5242     1
   5225   5237     1
   5225   5238     1
   5226   5227     1
   5226   5242     1
   5226   5237     1
   5226   5238     1
   5227   5240     1
   5227   5241     1
   5228   5239     1
   5228   5231     1
   5228   5232     1
   5229   5239     1
   5229   5231     1
   5229   5232     1
   5231   5248     1
   5231   5240     1
   5231   5241     1
   5232   5248     1
   5232   5240     1
   5232   5241     1
   5234  10555     1
   5234   5246     1
   5234   5247     1
   5235  10555     1
   5235   5246     1
   5235   5247     1
   5237  10526     1
   5237   5243     1
   5237   5244     1
   5238  10526     1
   5238   5243     1
   5238   5244     1
   5242  10518     1
   5242  10519     1
   5243  10517     1
   5244  10517     1
   5245  10547     1
   5245  10548     1
   5246  10546     1
   5247  10546     1
   5249   5263     1
   5249   5264     1
   5249   5266     1
   5249   5267     1
   5249   5260     1
   5249   5261     1
   5250   5254     1
   5250   5255     1
   5250   5257     1
   5250   5258     1
   5250   5275     1
   5250   5276     1
   5251   5253     1
   5251   5256     1
   5251   5274     1
   5251   5263     1
   5251   5264     1
   5252   5253     1
   5252   5256     1
   5252   5274     1
   5252   5263     1
   5252   5264     1
   5253   5257     1
   5253   5258     1
   5253   5272     1
   5253   5273     1
   5254   5256     1
   5254   5271     1
   5254   5266     1
   5254   5267     1
   5255   5256     1
   5255   5271     1
   5255   5266     1
   5255   5267     1
   5256   5269     1
   5256   5270     1
   5257   5268     1
   5257   5260     1
   5257   5261     1
   5258   5268     1
   5258   5260     1
   5258   5261     1
   5260   5277     1
   5260   5269     1
   5260   5270     1
   5261   5277     1
   5261   5269     1
   5261   5270     1
   5263  10613     1
   5263   5275     1
   5263   5276     1
   5264  10613     1
   5264   5275     1
   5264   5276     1
   5266  10584     1
   5266   5272     1
   5266   5273     1
   5267  10584     1
   5267   5272     1
   5267   5273     1
   5271  10576     1
   5271  10577     1
   5272  10575     1
   5273  10575     1
   5274  10605     1
   5274  10606     1
   5275  10604     1
   5276  10604     1
   5278   5292     1
   5278   5293     1
   5278   5295     1
   5278   5296     1
   5278   5289     1
   5278   5290     1
   5279   5283     1
   5279   5284     1
   5279   5286     1
   5279   5287     1
   5279   5304     1
   5279   5305     1
   5280   5282     1
   5280   5285     1
   5280   5303     1
   5280   5292     1
   5280   5293     1
   5281   5282     1
   5281   5285     1
   5281   5303     1
   5281   5292     1
   5281   5293     1
   5282   5286     1
   5282   5287     1
   5282   5301     1
   5282   5302     1
   5283   5285     1
   5283   5300     1
   5283   5295     1
   5283   5296     1
   5284   5285     1
   5284   5300     1
   5284   5295     1
   5284   5296     1
   5285   5298     1
   5285   5299     1
   5286   5297     1
   5286   5289     1
   5286   5290     1
   5287   5297     1
   5287   5289     1
   5287   5290     1
   5289   5306     1
   5289   5298     1
   5289   5299     1
   5290   5306     1
   5290   5298     1
   5290   5299     1
   5292  10671     1
   5292   5304     1
   5292   5305     1
   5293  10671     1
   5293   5304     1
   5293   5305     1
   5295  10642     1
   5295   5301     1
   5295   5302     1
   5296  10642     1
   5296   5301     1
   5296   5302     1
   5300  10634     1
   5300  10635     1
   5301  10633     1
   5302  10633     1
   5303  10663     1
   5303  10664     1
   5304  10662     1
   5305  10662     1
   5307   5321     1
   5307   5322     1
   5307   5324     1
   5307   5325     1
   5307   5318     1
   5307   5319     1
   5308   5312     1
   5308   5313     1
   5308   5315     1
   5308   5316     1
   5308   5333     1
   5308   5334     1
   5309   5311     1
   5309   5314     1
   5309   5332     1
   5309   5321     1
   5309   5322     1
   5310   5311     1
   5310   5314     1
   5310   5332     1
   5310   5321     1
   5310   5322     1
   5311   5315     1
   5311   5316     1
   5311   5330     1
   5311   5331     1
   5312   5314     1
   5312   5329     1
   5312   5324     1
   5312   5325     1
   5313   5314     1
   5313   5329     1
   5313   5324     1
   5313   5325     1
   5314   5327     1
   5314   5328     1
   5315   5326     1
   5315   5318     1
   5315   5319     1
   5316   5326     1
   5316   5318     1
   5316   5319     1
   5318   5335     1
   5318   5327     1
   5318   5328     1
   5319   5335     1
   5319   5327     1
   5319   5328     1
   5321  10729     1
   5321   5333     1
   5321   5334     1
   5322  10729     1
   5322   5333     1
   5322   5334     1
   5324  10700     1
   5324   5330     1
   5324   5331     1
   5325  10700     1
   5325   5330     1
   5325   5331     1
   5329  10692     1
   5329  10693     1
   5330  10691     1
   5331  10691     1
   5332  10721     1
   5332  10722     1
   5333  10720     1
   5334  10720     1
   5336   5350     1
   5336   5351     1
   5336   5353     1
   5336   5354     1
   5336   5347     1
   5336   5348     1
   5337   5341     1
   5337   5342     1
   5337   5344     1
   5337   5345     1
   5337   5362     1
   5337   5363     1
   5338   5340     1
   5338   5343     1
   5338   5361     1
   5338   5350     1
   5338   5351     1
   5339   5340     1
   5339   5343     1
   5339   5361     1
   5339   5350     1
   5339   5351     1
   5340   5344     1
   5340   5345     1
   5340   5359     1
   5340   5360     1
   5341   5343     1
   5341   5358     1
   5341   5353     1
   5341   5354     1
   5342   5343     1
   5342   5358     1
   5342   5353     1
   5342   5354     1
   5343   5356     1
   5343   5357     1
   5344   5355     1
   5344   5347     1
   5344   5348     1
   5345   5355     1
   5345   5347     1
   5345   5348     1
   5347   5364     1
   5347   5356     1
   5347   5357     1
   5348   5364     1
   5348   5356     1
   5348   5357     1
   5350  10787     1
   5350   5362     1
   5350   5363     1
   5351  10787     1
   5351   5362     1
   5351   5363     1
   5353  10758     1
   5353   5359     1
   5353   5360     1
   5354  10758     1
   5354   5359     1
   5354   5360     1
   5358  10750     1
   5358  10751     1
   5359  10749     1
   5360  10749     1
   5361  10779     1
   5361  10780     1
   5362  10778     1
   5363  10778     1
   5365   5379     1
   5365   5380     1
   5365   5382     1
   5365   5383     1
   5365   5376     1
   5365   5377     1
   5366   5370     1
   5366   5371     1
   5366   5373     1
   5366   5374     1
   5366   5391     1
   5366   5392     1
   5367   5369     1
   5367   5372     1
   5367   5390     1
   5367   5379     1
   5367   5380     1
   5368   5369     1
   5368   5372     1
   5368   5390     1
   5368   5379     1
   5368   5380     1
   5369   5373     1
   5369   5374     1
   5369   5388     1
   5369   5389     1
   5370   5372     1
   5370   5387     1
   5370   5382     1
   5370   5383     1
   5371   5372     1
   5371   5387     1
   5371   5382     1
   5371   5383     1
   5372   5385     1
   5372   5386     1
   5373   5384     1
   5373   5376     1
   5373   5377     1
   5374   5384     1
   5374   5376     1
   5374   5377     1
   5376   5393     1
   5376   5385     1
   5376   5386     1
   5377   5393     1
   5377   5385     1
   5377   5386     1
   5379  10845     1
   5379   5391     1
   5379   5392     1
   5380  10845     1
   5380   5391     1
   5380   5392     1
   5382  10816     1
   5382   5388     1
   5382   5389     1
   5383  10816     1
   5383   5388     1
   5383   5389     1
   5387  10808     1
   5387  10809     1
   5388  10807     1
   5389  10807     1
   5390  10837     1
   5390  10838     1
   5391  10836     1
   5392  10836     1
   5394   5408     1
   5394   5409     1
   5394   5411     1
   5394   5412     1
   5394   5405     1
   5394   5406     1
   5395   5399     1
   5395   5400     1
   5395   5402     1
   5395   5403     1
   5395   5420     1
   5395   5421     1
   5396   5398     1
   5396   5401     1
   5396   5419     1
   5396   5408     1
   5396   5409     1
   5397   5398     1
   5397   5401     1
   5397   5419     1
   5397   5408     1
   5397   5409     1
   5398   5402     1
   5398   5403     1
   5398   5417     1
   5398   5418     1
   5399   5401     1
   5399   5416     1
   5399   5411     1
   5399   5412     1
   5400   5401     1
   5400   5416     1
   5400   5411     1
   5400   5412     1
   5401   5414     1
   5401   5415     1
   5402   5413     1
   5402   5405     1
   5402   5406     1
   5403   5413     1
   5403   5405     1
   5403   5406     1
   5405   5422     1
   5405   5414     1
   5405   5415     1
   5406   5422     1
   5406   5414     1
   5406   5415     1
   5408  10903     1
   5408   5420     1
   5408   5421     1
   5409  10903     1
   5409   5420     1
   5409   5421     1
   5411  10874     1
   5411   5417     1
   5411   5418     1
   5412  10874     1
   5412   5417     1
   5412   5418     1
   5416  10866     1
   5416  10867     1
   5417  10865     1
   5418  10865     1
   5419  10895     1
   5419  10896     1
   5420  10894     1
   5421  10894     1
   5423   5437     1
   5423   5438     1
   5423   5440     1
   5423   5441     1
   5423   5434     1
   5423   5435     1
   5424   5428     1
   5424   5429     1
   5424   5431     1
   5424   5432     1
   5424   5449     1
   5424   5450     1
   5425   5427     1
   5425   5430     1
   5425   5448     1
   5425   5437     1
   5425   5438     1
   5426   5427     1
   5426   5430     1
   5426   5448     1
   5426   5437     1
   5426   5438     1
   5427   5431     1
   5427   5432     1
   5427   5446     1
   5427   5447     1
   5428   5430     1
   5428   5445     1
   5428   5440     1
   5428   5441     1
   5429   5430     1
   5429   5445     1
   5429   5440     1
   5429   5441     1
   5430   5443     1
   5430   5444     1
   5431   5442     1
   5431   5434     1
   5431   5435     1
   5432   5442     1
   5432   5434     1
   5432   5435     1
   5434   5451     1
   5434   5443     1
   5434   5444     1
   5435   5451     1
   5435   5443     1
   5435   5444     1
   5437  10961     1
   5437   5449     1
   5437   5450     1
   5438  10961     1
   5438   5449     1
   5438   5450     1
   5440  10932     1
   5440   5446     1
   5440   5447     1
   5441  10932     1
   5441   5446     1
   5441   5447     1
   5445  10924     1
   5445  10925     1
   5446  10923     1
   5447  10923     1
   5448  10953     1
   5448  10954     1
   5449  10952     1
   5450  10952     1
   5452   5466     1
   5452   5467     1
   5452   5469     1
   5452   5470     1
   5452   5463     1
   5452   5464     1
   5453   5457     1
   5453   5458     1
   5453   5460     1
   5453   5461     1
   5453   5478     1
   5453   5479     1
   5454   5456     1
   5454   5459     1
   5454   5477     1
   5454   5466     1
   5454   5467     1
   5455   5456     1
   5455   5459     1
   5455   5477     1
   5455   5466     1
   5455   5467     1
   5456   5460     1
   5456   5461     1
   5456   5475     1
   5456   5476     1
   5457   5459     1
   5457   5474     1
   5457   5469     1
   5457   5470     1
   5458   5459     1
   5458   5474     1
   5458   5469     1
   5458   5470     1
   5459   5472     1
   5459   5473     1
   5460   5471     1
   5460   5463     1
   5460   5464     1
   5461   5471     1
   5461   5463     1
   5461   5464     1
   5463   5480     1
   5463   5472     1
   5463   5473     1
   5464   5480     1
   5464   5472     1
   5464   5473     1
   5466  11019     1
   5466   5478     1
   5466   5479     1
   5467  11019     1
   5467   5478     1
   5467   5479     1
   5469  10990     1
   5469   5475     1
   5469   5476     1
   5470  10990     1
   5470   5475     1
   5470   5476     1
   5474  10982     1
   5474  10983     1
   5475  10981     1
   5476  10981     1
   5477  11011     1
   5477  11012     1
   5478  11010     1
   5479  11010     1
   5481   5495     1
   5481   5496     1
   5481   5498     1
   5481   5499     1
   5481   5492     1
   5481   5493     1
   5482   5486     1
   5482   5487     1
   5482   5489     1
   5482   5490     1
   5482   5507     1
   5482   5508     1
   5483   5485     1
   5483   5488     1
   5483   5506     1
   5483   5495     1
   5483   5496     1
   5484   5485     1
   5484   5488     1
   5484   5506     1
   5484   5495     1
   5484   5496     1
   5485   5489     1
   5485   5490     1
   5485   5504     1
   5485   5505     1
   5486   5488     1
   5486   5503     1
   5486   5498     1
   5486   5499     1
   5487   5488     1
   5487   5503     1
   5487   5498     1
   5487   5499     1
   5488   5501     1
   5488   5502     1
   5489   5500     1
   5489   5492     1
   5489   5493     1
   5490   5500     1
   5490   5492     1
   5490   5493     1
   5492   5509     1
   5492   5501     1
   5492   5502     1
   5493   5509     1
   5493   5501     1
   5493   5502     1
   5495  11077     1
   5495   5507     1
   5495   5508     1
   5496  11077     1
   5496   5507     1
   5496   5508     1
   5498  11048     1
   5498   5504     1
   5498   5505     1
   5499  11048     1
   5499   5504     1
   5499   5505     1
   5503  11040     1
   5503  11041     1
   5504  11039     1
   5505  11039     1
   5506  11069     1
   5506  11070     1
   5507  11068     1
   5508  11068     1
   5510   5524     1
   5510   5525     1
   5510   5527     1
   5510   5528     1
   5510   5521     1
   5510   5522     1
   5511   5515     1
   5511   5516     1
   5511   5518     1
   5511   5519     1
   5511   5536     1
   5511   5537     1
   5512   5514     1
   5512   5517     1
   5512   5535     1
   5512   5524     1
   5512   5525     1
   5513   5514     1
   5513   5517     1
   5513   5535     1
   5513   5524     1
   5513   5525     1
   5514   5518     1
   5514   5519     1
   5514   5533     1
   5514   5534     1
   5515   5517     1
   5515   5532     1
   5515   5527     1
   5515   5528     1
   5516   5517     1
   5516   5532     1
   5516   5527     1
   5516   5528     1
   5517   5530     1
   5517   5531     1
   5518   5529     1
   5518   5521     1
   5518   5522     1
   5519   5529     1
   5519   5521     1
   5519   5522     1
   5521   5538     1
   5521   5530     1
   5521   5531     1
   5522   5538     1
   5522   5530     1
   5522   5531     1
   5524  11111     1
   5524   5536     1
   5524   5537     1
   5525  11111     1
   5525   5536     1
   5525   5537     1
   5527  11088     1
   5527   5533     1
   5527   5534     1
   5528  11088     1
   5528   5533     1
   5528   5534     1
   5532  11087     1
   5533  11084     1
   5534  11084     1
   5535  11110     1
   5536  11107     1
   5537  11107     1
   5539   5553     1
   5539   5554     1
   5539   5556     1
   5539   5557     1
   5539   5550     1
   5539   5551     1
   5540   5544     1
   5540   5545     1
   5540   5547     1
   5540   5548     1
   5540   5565     1
   5540   5566     1
   5541   5543     1
   5541   5546     1
   5541   5564     1
   5541   5553     1
   5541   5554     1
   5542   5543     1
   5542   5546     1
   5542   5564     1
   5542   5553     1
   5542   5554     1
   5543   5547     1
   5543   5548     1
   5543   5562     1
   5543   5563     1
   5544   5546     1
   5544   5561     1
   5544   5556     1
   5544   5557     1
   5545   5546     1
   5545   5561     1
   5545   5556     1
   5545   5557     1
   5546   5559     1
   5546   5560     1
   5547   5558     1
   5547   5550     1
   5547   5551     1
   5548   5558     1
   5548   5550     1
   5548   5551     1
   5550   5567     1
   5550   5559     1
   5550   5560     1
   5551   5567     1
   5551   5559     1
   5551   5560     1
   5553  11157     1
   5553   5565     1
   5553   5566     1
   5554  11157     1
   5554   5565     1
   5554   5566     1
   5556  11134     1
   5556   5562     1
   5556   5563     1
   5557  11134     1
   5557   5562     1
   5557   5563     1
   5561  11133     1
   5562  11130     1
   5563  11130     1
   5564  11156     1
   5565  11153     1
   5566  11153     1
   5568   5582     1
   5568   5583     1
   5568   5585     1
   5568   5586     1
   5568   5579     1
   5568   5580     1
   5569   5573     1
   5569   5574     1
   5569   5576     1
   5569   5577     1
   5569   5594     1
   5569   5595     1
   5570   5572     1
   5570   5575     1
   5570   5593     1
   5570   5582     1
   5570   5583     1
   5571   5572     1
   5571   5575     1
   5571   5593     1
   5571   5582     1
   5571   5583     1
   5572   5576     1
   5572   5577     1
   5572   5591     1
   5572   5592     1
   5573   5575     1
   5573   5590     1
   5573   5585     1
   5573   5586     1
   5574   5575     1
   5574   5590     1
   5574   5585     1
   5574   5586     1
   5575   5588     1
   5575   5589     1
   5576   5587     1
   5576   5579     1
   5576   5580     1
   5577   5587     1
   5577   5579     1
   5577   5580     1
   5579   5596     1
   5579   5588     1
   5579   5589     1
   5580   5596     1
   5580   5588     1
   5580   5589     1
   5582  11203     1
   5582   5594     1
   5582   5595     1
   5583  11203     1
   5583   5594     1
   5583   5595     1
   5585  11180     1
   5585   5591     1
   5585   5592     1
   5586  11180     1
   5586   5591     1
   5586   5592     1
   5590  11179     1
   5591  11176     1
   5592  11176     1
   5593  11202     1
   5594  11199     1
   5595  11199     1
   5597   5611     1
   5597   5612     1
   5597   5614     1
   5597   5615     1
   5597   5608     1
   5597   5609     1
   5598   5602     1
   5598   5603     1
   5598   5605     1
   5598   5606     1
   5598   5623     1
   5598   5624     1
   5599   5601     1
   5599   5604     1
   5599   5622     1
   5599   5611     1
   5599   5612     1
   5600   5601     1
   5600   5604     1
   5600   5622     1
   5600   5611     1
   5600   5612     1
   5601   5605     1
   5601   5606     1
   5601   5620     1
   5601   5621     1
   5602   5604     1
   5602   5619     1
   5602   5614     1
   5602   5615     1
   5603   5604     1
   5603   5619     1
   5603   5614     1
   5603   5615     1
   5604   5617     1
   5604   5618     1
   5605   5616     1
   5605   5608     1
   5605   5609     1
   5606   5616     1
   5606   5608     1
   5606   5609     1
   5608   5625     1
   5608   5617     1
   5608   5618     1
   5609   5625     1
   5609   5617     1
   5609   5618     1
   5611  11249     1
   5611   5623     1
   5611   5624     1
   5612  11249     1
   5612   5623     1
   5612   5624     1
   5614  11226     1
   5614   5620     1
   5614   5621     1
   5615  11226     1
   5615   5620     1
   5615   5621     1
   5619  11225     1
   5620  11222     1
   5621  11222     1
   5622  11248     1
   5623  11245     1
   5624  11245     1
   5626   5640     1
   5626   5641     1
   5626   5643     1
   5626   5644     1
   5626   5637     1
   5626   5638     1
   5627   5631     1
   5627   5632     1
   5627   5634     1
   5627   5635     1
   5627   5652     1
   5627   5653     1
   5628   5630     1
   5628   5633     1
   5628   5651     1
   5628   5640     1
   5628   5641     1
   5629   5630     1
   5629   5633     1
   5629   5651     1
   5629   5640     1
   5629   5641     1
   5630   5634     1
   5630   5635     1
   5630   5649     1
   5630   5650     1
   5631   5633     1
   5631   5648     1
   5631   5643     1
   5631   5644     1
   5632   5633     1
   5632   5648     1
   5632   5643     1
   5632   5644     1
   5633   5646     1
   5633   5647     1
   5634   5645     1
   5634   5637     1
   5634   5638     1
   5635   5645     1
   5635   5637     1
   5635   5638     1
   5637   5654     1
   5637   5646     1
   5637   5647     1
   5638   5654     1
   5638   5646     1
   5638   5647     1
   5640  11295     1
   5640   5652     1
   5640   5653     1
   5641  11295     1
   5641   5652     1
   5641   5653     1
   5643  11272     1
   5643   5649     1
   5643   5650     1
   5644  11272     1
   5644   5649     1
   5644   5650     1
   5648  11271     1
   5649  11268     1
   5650  11268     1
   5651  11294     1
   5652  11291     1
   5653  11291     1
   5655   5669     1
   5655   5670     1
   5655   5672     1
   5655   5673     1
   5655   5666     1
   5655   5667     1
   5656   5660     1
   5656   5661     1
   5656   5663     1
   5656   5664     1
   5656   5681     1
   5656   5682     1
   5657   5659     1
   5657   5662     1
   5657   5680     1
   5657   5669     1
   5657   5670     1
   5658   5659     1
   5658   5662     1
   5658   5680     1
   5658   5669     1
   5658   5670     1
   5659   5663     1
   5659   5664     1
   5659   5678     1
   5659   5679     1
   5660   5662     1
   5660   5677     1
   5660   5672     1
   5660   5673     1
   5661   5662     1
   5661   5677     1
   5661   5672     1
   5661   5673     1
   5662   5675     1
   5662   5676     1
   5663   5674     1
   5663   5666     1
   5663   5667     1
   5664   5674     1
   5664   5666     1
   5664   5667     1
   5666   5683     1
   5666   5675     1
   5666   5676     1
   5667   5683     1
   5667   5675     1
   5667   5676     1
   5669  11341     1
   5669   5681     1
   5669   5682     1
   5670  11341     1
   5670   5681     1
   5670   5682     1
   5672  11318     1
   5672   5678     1
   5672   5679     1
   5673  11318     1
   5673   5678     1
   5673   5679     1
   5677  11317     1
   5678  11314     1
   5679  11314     1
   5680  11340     1
   5681  11337     1
   5682  11337     1
   5684   5698     1
   5684   5699     1
   5684   5701     1
   5684   5702     1
   5684   5695     1
   5684   5696     1
   5685   5689     1
   5685   5690     1
   5685   5692     1
   5685   5693     1
   5685   5710     1
   5685   5711     1
   5686   5688     1
   5686   5691     1
   5686   5709     1
   5686   5698     1
   5686   5699     1
   5687   5688     1
   5687   5691     1
   5687   5709     1
   5687   5698     1
   5687   5699     1
   5688   5692     1
   5688   5693     1
   5688   5707     1
   5688   5708     1
   5689   5691     1
   5689   5706     1
   5689   5701     1
   5689   5702     1
   5690   5691     1
   5690   5706     1
   5690   5701     1
   5690   5702     1
   5691   5704     1
   5691   5705     1
   5692   5703     1
   5692   5695     1
   5692   5696     1
   5693   5703     1
   5693   5695     1
   5693   5696     1
   5695   5712     1
   5695   5704     1
   5695   5705     1
   5696   5712     1
   5696   5704     1
   5696   5705     1
   5698  11387     1
   5698   5710     1
   5698   5711     1
   5699  11387     1
   5699   5710     1
   5699   5711     1
   5701  11364     1
   5701   5707     1
   5701   5708     1
   5702  11364     1
   5702   5707     1
   5702   5708     1
   5706  11363     1
   5707  11360     1
   5708  11360     1
   5709  11386     1
   5710  11383     1
   5711  11383     1
   5713   5727     1
   5713   5728     1
   5713   5730     1
   5713   5731     1
   5713   5724     1
   5713   5725     1
   5714   5718     1
   5714   5719     1
   5714   5721     1
   5714   5722     1
   5714   5739     1
   5714   5740     1
   5715   5717     1
   5715   5720     1
   5715   5738     1
   5715   5727     1
   5715   5728     1
   5716   5717     1
   5716   5720     1
   5716   5738     1
   5716   5727     1
   5716   5728     1
   5717   5721     1
   5717   5722     1
   5717   5736     1
   5717   5737     1
   5718   5720     1
   5718   5735     1
   5718   5730     1
   5718   5731     1
   5719   5720     1
   5719   5735     1
   5719   5730     1
   5719   5731     1
   5720   5733     1
   5720   5734     1
   5721   5732     1
   5721   5724     1
   5721   5725     1
   5722   5732     1
   5722   5724     1
   5722   5725     1
   5724   5741     1
   5724   5733     1
   5724   5734     1
   5725   5741     1
   5725   5733     1
   5725   5734     1
   5727  11433     1
   5727   5739     1
   5727   5740     1
   5728  11433     1
   5728   5739     1
   5728   5740     1
   5730  11410     1
   5730   5736     1
   5730   5737     1
   5731  11410     1
   5731   5736     1
   5731   5737     1
   5735  11409     1
   5736  11406     1
   5737  11406     1
   5738  11432     1
   5739  11429     1
   5740  11429     1
   5742   5756     1
   5742   5757     1
   5742   5759     1
   5742   5760     1
   5742   5753     1
   5742   5754     1
   5743   5747     1
   5743   5748     1
   5743   5750     1
   5743   5751     1
   5743   5768     1
   5743   5769     1
   5744   5746     1
   5744   5749     1
   5744   5767     1
   5744   5756     1
   5744   5757     1
   5745   5746     1
   5745   5749     1
   5745   5767     1
   5745   5756     1
   5745   5757     1
   5746   5750     1
   5746   5751     1
   5746   5765     1
   5746   5766     1
   5747   5749     1
   5747   5764     1
   5747   5759     1
   5747   5760     1
   5748   5749     1
   5748   5764     1
   5748   5759     1
   5748   5760     1
   5749   5762     1
   5749   5763     1
   5750   5761     1
   5750   5753     1
   5750   5754     1
   5751   5761     1
   5751   5753     1
   5751   5754     1
   5753   5770     1
   5753   5762     1
   5753   5763     1
   5754   5770     1
   5754   5762     1
   5754   5763     1
   5756  11479     1
   5756   5768     1
   5756   5769     1
   5757  11479     1
   5757   5768     1
   5757   5769     1
   5759  11456     1
   5759   5765     1
   5759   5766     1
   5760  11456     1
   5760   5765     1
   5760   5766     1
   5764  11455     1
   5765  11452     1
   5766  11452     1
   5767  11478     1
   5768  11475     1
   5769  11475     1
   5771   5785     1
   5771   5786     1
   5771   5788     1
   5771   5789     1
   5771   5782     1
   5771   5783     1
   5772   5776     1
   5772   5777     1
   5772   5779     1
   5772   5780     1
   5772   5797     1
   5772   5798     1
   5773   5775     1
   5773   5778     1
   5773   5796     1
   5773   5785     1
   5773   5786     1
   5774   5775     1
   5774   5778     1
   5774   5796     1
   5774   5785     1
   5774   5786     1
   5775   5779     1
   5775   5780     1
   5775   5794     1
   5775   5795     1
   5776   5778     1
   5776   5793     1
   5776   5788     1
   5776   5789     1
   5777   5778     1
   5777   5793     1
   5777   5788     1
   5777   5789     1
   5778   5791     1
   5778   5792     1
   5779   5790     1
   5779   5782     1
   5779   5783     1
   5780   5790     1
   5780   5782     1
   5780   5783     1
   5782   5799     1
   5782   5791     1
   5782   5792     1
   5783   5799     1
   5783   5791     1
   5783   5792     1
   5785  11525     1
   5785   5797     1
   5785   5798     1
   5786  11525     1
   5786   5797     1
   5786   5798     1
   5788  11502     1
   5788   5794     1
   5788   5795     1
   5789  11502     1
   5789   5794     1
   5789   5795     1
   5793  11501     1
   5794  11498     1
   5795  11498     1
   5796  11524     1
   5797  11521     1
   5798  11521     1
   5800   5814     1
   5800   5815     1
   5800   5817     1
   5800   5818     1
   5800   5811     1
   5800   5812     1
   5801   5805     1
   5801   5806     1
   5801   5808     1
   5801   5809     1
   5801   5826     1
   5801   5827     1
   5802   5804     1
   5802   5807     1
   5802   5825     1
   5802   5814     1
   5802   5815     1
   5803   5804     1
   5803   5807     1
   5803   5825     1
   5803   5814     1
   5803   5815     1
   5804   5808     1
   5804   5809     1
   5804   5823     1
   5804   5824     1
   5805   5807     1
   5805   5822     1
   5805   5817     1
   5805   5818     1
   5806   5807     1
   5806   5822     1
   5806   5817     1
   5806   5818     1
   5807   5820     1
   5807   5821     1
   5808   5819     1
   5808   5811     1
   5808   5812     1
   5809   5819     1
   5809   5811     1
   5809   5812     1
   5811   5828     1
   5811   5820     1
   5811   5821     1
   5812   5828     1
   5812   5820     1
   5812   5821     1
   5814  11571     1
   5814   5826     1
   5814   5827     1
   5815  11571     1
   5815   5826     1
   5815   5827     1
   5817  11548     1
   5817   5823     1
   5817   5824     1
   5818  11548     1
   5818   5823     1
   5818   5824     1
   5822  11547     1
   5823  11544     1
   5824  11544     1
   5825  11570     1
   5826  11567     1
   5827  11567     1
   5829   5843     1
   5829   5844     1
   5829   5846     1
   5829   5847     1
   5829   5840     1
   5829   5841     1
   5830   5834     1
   5830   5835     1
   5830   5837     1
   5830   5838     1
   5830   5855     1
   5830   5856     1
   5831   5833     1
   5831   5836     1
   5831   5854     1
   5831   5843     1
   5831   5844     1
   5832   5833     1
   5832   5836     1
   5832   5854     1
   5832   5843     1
   5832   5844     1
   5833   5837     1
   5833   5838     1
   5833   5852     1
   5833   5853     1
   5834   5836     1
   5834   5851     1
   5834   5846     1
   5834   5847     1
   5835   5836     1
   5835   5851     1
   5835   5846     1
   5835   5847     1
   5836   5849     1
   5836   5850     1
   5837   5848     1
   5837   5840     1
   5837   5841     1
   5838   5848     1
   5838   5840     1
   5838   5841     1
   5840   5857     1
   5840   5849     1
   5840   5850     1
   5841   5857     1
   5841   5849     1
   5841   5850     1
   5843  11617     1
   5843   5855     1
   5843   5856     1
   5844  11617     1
   5844   5855     1
   5844   5856     1
   5846  11594     1
   5846   5852     1
   5846   5853     1
   5847  11594     1
   5847   5852     1
   5847   5853     1
   5851  11593     1
   5852  11590     1
   5853  11590     1
   5854  11616     1
   5855  11613     1
   5856  11613     1
   5858   5872     1
   5858   5873     1
   5858   5875     1
   5858   5876     1
   5858   5869     1
   5858   5870     1
   5859   5863     1
   5859   5864     1
   5859   5866     1
   5859   5867     1
   5859   5884     1
   5859   5885     1
   5860   5862     1
   5860   5865     1
   5860   5883     1
   5860   5872     1
   5860   5873     1
   5861   5862     1
   5861   5865     1
   5861   5883     1
   5861   5872     1
   5861   5873     1
   5862   5866     1
   5862   5867     1
   5862   5881     1
   5862   5882     1
   5863   5865     1
   5863   5880     1
   5863   5875     1
   5863   5876     1
   5864   5865     1
   5864   5880     1
   5864   5875     1
   5864   5876     1
   5865   5878     1
   5865   5879     1
   5866   5877     1
   5866   5869     1
   5866   5870     1
   5867   5877     1
   5867   5869     1
   5867   5870     1
   5869   5886     1
   5869   5878     1
   5869   5879     1
   5870   5886     1
   5870   5878     1
   5870   5879     1
   5872  11663     1
   5872   5884     1
   5872   5885     1
   5873  11663     1
   5873   5884     1
   5873   5885     1
   5875  11640     1
   5875   5881     1
   5875   5882     1
   5876  11640     1
   5876   5881     1
   5876   5882     1
   5880  11639     1
   5881  11636     1
   5882  11636     1
   5883  11662     1
   5884  11659     1
   5885  11659     1
   5887   5901     1
   5887   5902     1
   5887   5904     1
   5887   5905     1
   5887   5898     1
   5887   5899     1
   5888   5892     1
   5888   5893     1
   5888   5895     1
   5888   5896     1
   5888   5913     1
   5888   5914     1
   5889   5891     1
   5889   5894     1
   5889   5912     1
   5889   5901     1
   5889   5902     1
   5890   5891     1
   5890   5894     1
   5890   5912     1
   5890   5901     1
   5890   5902     1
   5891   5895     1
   5891   5896     1
   5891   5910     1
   5891   5911     1
   5892   5894     1
   5892   5909     1
   5892   5904     1
   5892   5905     1
   5893   5894     1
   5893   5909     1
   5893   5904     1
   5893   5905     1
   5894   5907     1
   5894   5908     1
   5895   5906     1
   5895   5898     1
   5895   5899     1
   5896   5906     1
   5896   5898     1
   5896   5899     1
   5898   5915     1
   5898   5907     1
   5898   5908     1
   5899   5915     1
   5899   5907     1
   5899   5908     1
   5901  11709     1
   5901   5913     1
   5901   5914     1
   5902  11709     1
   5902   5913     1
   5902   5914     1
   5904  11686     1
   5904   5910     1
   5904   5911     1
   5905  11686     1
   5905   5910     1
   5905   5911     1
   5909  11685     1
   5910  11682     1
   5911  11682     1
   5912  11708     1
   5913  11705     1
   5914  11705     1
   5916   5930     1
   5916   5931     1
   5916   5933     1
   5916   5934     1
   5916   5927     1
   5916   5928     1
   5917   5921     1
   5917   5922     1
   5917   5924     1
   5917   5925     1
   5917   5942     1
   5917   5943     1
   5918   5920     1
   5918   5923     1
   5918   5941     1
   5918   5930     1
   5918   5931     1
   5919   5920     1
   5919   5923     1
   5919   5941     1
   5919   5930     1
   5919   5931     1
   5920   5924     1
   5920   5925     1
   5920   5939     1
   5920   5940     1
   5921   5923     1
   5921   5938     1
   5921   5933     1
   5921   5934     1
   5922   5923     1
   5922   5938     1
   5922   5933     1
   5922   5934     1
   5923   5936     1
   5923   5937     1
   5924   5935     1
   5924   5927     1
   5924   5928     1
   5925   5935     1
   5925   5927     1
   5925   5928     1
   5927   5944     1
   5927   5936     1
   5927   5937     1
   5928   5944     1
   5928   5936     1
   5928   5937     1
   5930  11755     1
   5930   5942     1
   5930   5943     1
   5931  11755     1
   5931   5942     1
   5931   5943     1
   5933  11732     1
   5933   5939     1
   5933   5940     1
   5934  11732     1
   5934   5939     1
   5934   5940     1
   5938  11731     1
   5939  11728     1
   5940  11728     1
   5941  11754     1
   5942  11751     1
   5943  11751     1
   5945   5959     1
   5945   5960     1
   5945   5962     1
   5945   5963     1
   5945   5956     1
   5945   5957     1
   5946   5950     1
   5946   5951     1
   5946   5953     1
   5946   5954     1
   5946   5971     1
   5946   5972     1
   5947   5949     1
   5947   5952     1
   5947   5970     1
   5947   5959     1
   5947   5960     1
   5948   5949     1
   5948   5952     1
   5948   5970     1
   5948   5959     1
   5948   5960     1
   5949   5953     1
   5949   5954     1
   5949   5968     1
   5949   5969     1
   5950   5952     1
   5950   5967     1
   5950   5962     1
   5950   5963     1
   5951   5952     1
   5951   5967     1
   5951   5962     1
   5951   5963     1
   5952   5965     1
   5952   5966     1
   5953   5964     1
   5953   5956     1
   5953   5957     1
   5954   5964     1
   5954   5956     1
   5954   5957     1
   5956   5973     1
   5956   5965     1
   5956   5966     1
   5957   5973     1
   5957   5965     1
   5957   5966     1
   5959  11801     1
   5959   5971     1
   5959   5972     1
   5960  11801     1
   5960   5971     1
   5960   5972     1
   5962  11778     1
   5962   5968     1
   5962   5969     1
   5963  11778     1
   5963   5968     1
   5963   5969     1
   5967  11777     1
   5968  11774     1
   5969  11774     1
   5970  11800     1
   5971  11797     1
   5972  11797     1
   5974   5988     1
   5974   5989     1
   5974   5991     1
   5974   5992     1
   5974   5985     1
   5974   5986     1
   5975   5979     1
   5975   5980     1
   5975   5982     1
   5975   5983     1
   5975   6000     1
   5975   6001     1
   5976   5978     1
   5976   5981     1
   5976   5999     1
   5976   5988     1
   5976   5989     1
   5977   5978     1
   5977   5981     1
   5977   5999     1
   5977   5988     1
   5977   5989     1
   5978   5982     1
   5978   5983     1
   5978   5997     1
   5978   5998     1
   5979   5981     1
   5979   5996     1
   5979   5991     1
   5979   5992     1
   5980   5981     1
   5980   5996     1
   5980   5991     1
   5980   5992     1
   5981   5994     1
   5981   5995     1
   5982   5993     1
   5982   5985     1
   5982   5986     1
   5983   5993     1
   5983   5985     1
   5983   5986     1
   5985   6002     1
   5985   5994     1
   5985   5995     1
   5986   6002     1
   5986   5994     1
   5986   5995     1
   5988  11847     1
   5988   6000     1
   5988   6001     1
   5989  11847     1
   5989   6000     1
   5989   6001     1
   5991  11824     1
   5991   5997     1
   5991   5998     1
   5992  11824     1
   5992   5997     1
   5992   5998     1
   5996  11823     1
   5997  11820     1
   5998  11820     1
   5999  11846     1
   6000  11843     1
   6001  11843     1
   6003   6017     1
   6003   6018     1
   6003   6020     1
   6003   6021     1
   6003   6014     1
   6003   6015     1
   6004   6008     1
   6004   6009     1
   6004   6011     1
   6004   6012     1
   6004   6029     1
   6004   6030     1
   6005   6007     1
   6005   6010     1
   6005   6028     1
   6005   6017     1
   6005   6018     1
   6006   6007     1
   6006   6010     1
   6006   6028     1
   6006   6017     1
   6006   6018     1
   6007   6011     1
   6007   6012     1
   6007   6026     1
   6007   6027     1
   6008   6010     1
   6008   6025     1
   6008   6020     1
   6008   6021     1
   6009   6010     1
   6009   6025     1
   6009   6020     1
   6009   6021     1
   6010   6023     1
   6010   6024     1
   6011   6022     1
   6011   6014     1
   6011   6015     1
   6012   6022     1
   6012   6014     1
   6012   6015     1
   6014   6031     1
   6014   6023     1
   6014   6024     1
   6015   6031     1
   6015   6023     1
   6015   6024     1
   6017  11893     1
   6017   6029     1
   6017   6030     1
   6018  11893     1
   6018   6029     1
   6018   6030     1
   6020  11870     1
   6020   6026     1
   6020   6027     1
   6021  11870     1
   6021   6026     1
   6021   6027     1
   6025  11869     1
   6026  11866     1
   6027  11866     1
   6028  11892     1
   6029  11889     1
   6030  11889     1
   6032   6046     1
   6032   6047     1
   6032   6049     1
   6032   6050     1
   6032   6043     1
   6032   6044     1
   6033   6037     1
   6033   6038     1
   6033   6040     1
   6033   6041     1
   6033   6058     1
   6033   6059     1
   6034   6036     1
   6034   6039     1
   6034   6057     1
   6034   6046     1
   6034   6047     1
   6035   6036     1
   6035   6039     1
   6035   6057     1
   6035   6046     1
   6035   6047     1
   6036   6040     1
   6036   6041     1
   6036   6055     1
   6036   6056     1
   6037   6039     1
   6037   6054     1
   6037   6049     1
   6037   6050     1
   6038   6039     1
   6038   6054     1
   6038   6049     1
   6038   6050     1
   6039   6052     1
   6039   6053     1
   6040   6051     1
   6040   6043     1
   6040   6044     1
   6041   6051     1
   6041   6043     1
   6041   6044     1
   6043   6060     1
   6043   6052     1
   6043   6053     1
   6044   6060     1
   6044   6052     1
   6044   6053     1
   6046  11939     1
   6046   6058     1
   6046   6059     1
   6047  11939     1
   6047   6058     1
   6047   6059     1
   6049  11916     1
   6049   6055     1
   6049   6056     1
   6050  11916     1
   6050   6055     1
   6050   6056     1
   6054  11915     1
   6055  11912     1
   6056  11912     1
   6057  11938     1
   6058  11935     1
   6059  11935     1
   6061   6075     1
   6061   6076     1
   6061   6078     1
   6061   6079     1
   6061   6072     1
   6061   6073     1
   6062   6066     1
   6062   6067     1
   6062   6069     1
   6062   6070     1
   6062   6087     1
   6062   6088     1
   6063   6065     1
   6063   6068     1
   6063   6086     1
   6063   6075     1
   6063   6076     1
   6064   6065     1
   6064   6068     1
   6064   6086     1
   6064   6075     1
   6064   6076     1
   6065   6069     1
   6065   6070     1
   6065   6084     1
   6065   6085     1
   6066   6068     1
   6066   6083     1
   6066   6078     1
   6066   6079     1
   6067   6068     1
   6067   6083     1
   6067   6078     1
   6067   6079     1
   6068   6081     1
   6068   6082     1
   6069   6080     1
   6069   6072     1
   6069   6073     1
   6070   6080     1
   6070   6072     1
   6070   6073     1
   6072   6089     1
   6072   6081     1
   6072   6082     1
   6073   6089     1
   6073   6081     1
   6073   6082     1
   6075  11985     1
   6075   6087     1
   6075   6088     1
   6076  11985     1
   6076   6087     1
   6076   6088     1
   6078  11962     1
   6078   6084     1
   6078   6085     1
   6079  11962     1
   6079   6084     1
   6079   6085     1
   6083  11961     1
   6084  11958     1
   6085  11958     1
   6086  11984     1
   6087  11981     1
   6088  11981     1
   6090   6104     1
   6090   6105     1
   6090   6107     1
   6090   6108     1
   6090   6101     1
   6090   6102     1
   6091   6095     1
   6091   6096     1
   6091   6098     1
   6091   6099     1
   6091   6116     1
   6091   6117     1
   6092   6094     1
   6092   6097     1
   6092   6115     1
   6092   6104     1
   6092   6105     1
   6093   6094     1
   6093   6097     1
   6093   6115     1
   6093   6104     1
   6093   6105     1
   6094   6098     1
   6094   6099     1
   6094   6113     1
   6094   6114     1
   6095   6097     1
   6095   6112     1
   6095   6107     1
   6095   6108     1
   6096   6097     1
   6096   6112     1
   6096   6107     1
   6096   6108     1
   6097   6110     1
   6097   6111     1
   6098   6109     1
   6098   6101     1
   6098   6102     1
   6099   6109     1
   6099   6101     1
   6099   6102     1
   6101   6118     1
   6101   6110     1
   6101   6111     1
   6102   6118     1
   6102   6110     1
   6102   6111     1
   6104  12031     1
   6104   6116     1
   6104   6117     1
   6105  12031     1
   6105   6116     1
   6105   6117     1
   6107  12008     1
   6107   6113     1
   6107   6114     1
   6108  12008     1
   6108   6113     1
   6108   6114     1
   6112  12007     1
   6113  12004     1
   6114  12004     1
   6115  12030     1
   6116  12027     1
   6117  12027     1
   6119   6133     1
   6119   6134     1
   6119   6136     1
   6119   6137     1
   6119   6130     1
   6119   6131     1
   6120   6124     1
   6120   6125     1
   6120   6127     1
   6120   6128     1
   6120   6145     1
   6120   6146     1
   6121   6123     1
   6121   6126     1
   6121   6144     1
   6121   6133     1
   6121   6134     1
   6122   6123     1
   6122   6126     1
   6122   6144     1
   6122   6133     1
   6122   6134     1
   6123   6127     1
   6123   6128     1
   6123   6142     1
   6123   6143     1
   6124   6126     1
   6124   6141     1
   6124   6136     1
   6124   6137     1
   6125   6126     1
   6125   6141     1
   6125   6136     1
   6125   6137     1
   6126   6139     1
   6126   6140     1
   6127   6138     1
   6127   6130     1
   6127   6131     1
   6128   6138     1
   6128   6130     1
   6128   6131     1
   6130   6147     1
   6130   6139     1
   6130   6140     1
   6131   6147     1
   6131   6139     1
   6131   6140     1
   6133  12077     1
   6133   6145     1
   6133   6146     1
   6134  12077     1
   6134   6145     1
   6134   6146     1
   6136  12054     1
   6136   6142     1
   6136   6143     1
   6137  12054     1
   6137   6142     1
   6137   6143     1
   6141  12053     1
   6142  12050     1
   6143  12050     1
   6144  12076     1
   6145  12073     1
   6146  12073     1
   6148   6162     1
   6148   6163     1
   6148   6165     1
   6148   6166     1
   6148   6159     1
   6148   6160     1
   6149   6153     1
   6149   6154     1
   6149   6156     1
   6149   6157     1
   6149   6174     1
   6149   6175     1
   6150   6152     1
   6150   6155     1
   6150   6173     1
   6150   6162     1
   6150   6163     1
   6151   6152     1
   6151   6155     1
   6151   6173     1
   6151   6162     1
   6151   6163     1
   6152   6156     1
   6152   6157     1
   6152   6171     1
   6152   6172     1
   6153   6155     1
   6153   6170     1
   6153   6165     1
   6153   6166     1
   6154   6155     1
   6154   6170     1
   6154   6165     1
   6154   6166     1
   6155   6168     1
   6155   6169     1
   6156   6167     1
   6156   6159     1
   6156   6160     1
   6157   6167     1
   6157   6159     1
   6157   6160     1
   6159   6176     1
   6159   6168     1
   6159   6169     1
   6160   6176     1
   6160   6168     1
   6160   6169     1
   6162  12123     1
   6162   6174     1
   6162   6175     1
   6163  12123     1
   6163   6174     1
   6163   6175     1
   6165  12100     1
   6165   6171     1
   6165   6172     1
   6166  12100     1
   6166   6171     1
   6166   6172     1
   6170  12099     1
   6171  12096     1
   6172  12096     1
   6173  12122     1
   6174  12119     1
   6175  12119     1
   6177   6191     1
   6177   6192     1
   6177   6194     1
   6177   6195     1
   6177   6188     1
   6177   6189     1
   6178   6182     1
   6178   6183     1
   6178   6185     1
   6178   6186     1
   6178   6203     1
   6178   6204     1
   6179   6181     1
   6179   6184     1
   6179   6202     1
   6179   6191     1
   6179   6192     1
   6180   6181     1
   6180   6184     1
   6180   6202     1
   6180   6191     1
   6180   6192     1
   6181   6185     1
   6181   6186     1
   6181   6200     1
   6181   6201     1
   6182   6184     1
   6182   6199     1
   6182   6194     1
   6182   6195     1
   6183   6184     1
   6183   6199     1
   6183   6194     1
   6183   6195     1
   6184   6197     1
   6184   6198     1
   6185   6196     1
   6185   6188     1
   6185   6189     1
   6186   6196     1
   6186   6188     1
   6186   6189     1
   6188   6205     1
   6188   6197     1
   6188   6198     1
   6189   6205     1
   6189   6197     1
   6189   6198     1
   6191  12169     1
   6191   6203     1
   6191   6204     1
   6192  12169     1
   6192   6203     1
   6192   6204     1
   6194  12146     1
   6194   6200     1
   6194   6201     1
   6195  12146     1
   6195   6200     1
   6195   6201     1
   6199  12145     1
   6200  12142     1
   6201  12142     1
   6202  12168     1
   6203  12165     1
   6204  12165     1
   6206   6220     1
   6206   6221     1
   6206   6223     1
   6206   6224     1
   6206   6217     1
   6206   6218     1
   6207   6211     1
   6207   6212     1
   6207   6214     1
   6207   6215     1
   6207   6232     1
   6207   6233     1
   6208   6210     1
   6208   6213     1
   6208   6231     1
   6208   6220     1
   6208   6221     1
   6209   6210     1
   6209   6213     1
   6209   6231     1
   6209   6220     1
   6209   6221     1
   6210   6214     1
   6210   6215     1
   6210   6229     1
   6210   6230     1
   6211   6213     1
   6211   6228     1
   6211   6223     1
   6211   6224     1
   6212   6213     1
   6212   6228     1
   6212   6223     1
   6212   6224     1
   6213   6226     1
   6213   6227     1
   6214   6225     1
   6214   6217     1
   6214   6218     1
   6215   6225     1
   6215   6217     1
   6215   6218     1
   6217   6234     1
   6217   6226     1
   6217   6227     1
   6218   6234     1
   6218   6226     1
   6218   6227     1
   6220  12215     1
   6220   6232     1
   6220   6233     1
   6221  12215     1
   6221   6232     1
   6221   6233     1
   6223  12192     1
   6223   6229     1
   6223   6230     1
   6224  12192     1
   6224   6229     1
   6224   6230     1
   6228  12191     1
   6229  12188     1
   6230  12188     1
   6231  12214     1
   6232  12211     1
   6233  12211     1
   6235   6249     1
   6235   6250     1
   6235   6252     1
   6235   6253     1
   6235   6246     1
   6235   6247     1
   6236   6240     1
   6236   6241     1
   6236   6243     1
   6236   6244     1
   6236   6261     1
   6236   6262     1
   6237   6239     1
   6237   6242     1
   6237   6260     1
   6237   6249     1
   6237   6250     1
   6238   6239     1
   6238   6242     1
   6238   6260     1
   6238   6249     1
   6238   6250     1
   6239   6243     1
   6239   6244     1
   6239   6258     1
   6239   6259     1
   6240   6242     1
   6240   6257     1
   6240   6252     1
   6240   6253     1
   6241   6242     1
   6241   6257     1
   6241   6252     1
   6241   6253     1
   6242   6255     1
   6242   6256     1
   6243   6254     1
   6243   6246     1
   6243   6247     1
   6244   6254     1
   6244   6246     1
   6244   6247     1
   6246   6263     1
   6246   6255     1
   6246   6256     1
   6247   6263     1
   6247   6255     1
   6247   6256     1
   6249  12261     1
   6249   6261     1
   6249   6262     1
   6250  12261     1
   6250   6261     1
   6250   6262     1
   6252  12238     1
   6252   6258     1
   6252   6259     1
   6253  12238     1
   6253   6258     1
   6253   6259     1
   6257  12237     1
   6258  12234     1
   6259  12234     1
   6260  12260     1
   6261  12257     1
   6262  12257     1
   6264   6278     1
   6264   6279     1
   6264   6281     1
   6264   6282     1
   6264   6275     1
   6264   6276     1
   6265   6269     1
   6265   6270     1
   6265   6272     1
   6265   6273     1
   6265   6290     1
   6265   6291     1
   6266   6268     1
   6266   6271     1
   6266   6289     1
   6266   6278     1
   6266   6279     1
   6267   6268     1
   6267   6271     1
   6267   6289     1
   6267   6278     1
   6267   6279     1
   6268   6272     1
   6268   6273     1
   6268   6287     1
   6268   6288     1
   6269   6271     1
   6269   6286     1
   6269   6281     1
   6269   6282     1
   6270   6271     1
   6270   6286     1
   6270   6281     1
   6270   6282     1
   6271   6284     1
   6271   6285     1
   6272   6283     1
   6272   6275     1
   6272   6276     1
   6273   6283     1
   6273   6275     1
   6273   6276     1
   6275   6292     1
   6275   6284     1
   6275   6285     1
   6276   6292     1
   6276   6284     1
   6276   6285     1
   6278  12307     1
   6278   6290     1
   6278   6291     1
   6279  12307     1
   6279   6290     1
   6279   6291     1
   6281  12284     1
   6281   6287     1
   6281   6288     1
   6282  12284     1
   6282   6287     1
   6282   6288     1
   6286  12283     1
   6287  12280     1
   6288  12280     1
   6289  12306     1
   6290  12303     1
   6291  12303     1
   6293   6307     1
   6293   6308     1
   6293   6310     1
   6293   6311     1
   6293   6304     1
   6293   6305     1
   6294   6298     1
   6294   6299     1
   6294   6301     1
   6294   6302     1
   6294   6319     1
   6294   6320     1
   6295   6297     1
   6295   6300     1
   6295   6318     1
   6295   6307     1
   6295   6308     1
   6296   6297     1
   6296   6300     1
   6296   6318     1
   6296   6307     1
   6296   6308     1
   6297   6301     1
   6297   6302     1
   6297   6316     1
   6297   6317     1
   6298   6300     1
   6298   6315     1
   6298   6310     1
   6298   6311     1
   6299   6300     1
   6299   6315     1
   6299   6310     1
   6299   6311     1
   6300   6313     1
   6300   6314     1
   6301   6312     1
   6301   6304     1
   6301   6305     1
   6302   6312     1
   6302   6304     1
   6302   6305     1
   6304   6321     1
   6304   6313     1
   6304   6314     1
   6305   6321     1
   6305   6313     1
   6305   6314     1
   6307  12353     1
   6307   6319     1
   6307   6320     1
   6308  12353     1
   6308   6319     1
   6308   6320     1
   6310  12330     1
   6310   6316     1
   6310   6317     1
   6311  12330     1
   6311   6316     1
   6311   6317     1
   6315  12329     1
   6316  12326     1
   6317  12326     1
   6318  12352     1
   6319  12349     1
   6320  12349     1
   6322   6336     1
   6322   6337     1
   6322   6339     1
   6322   6340     1
   6322   6333     1
   6322   6334     1
   6323   6327     1
   6323   6328     1
   6323   6330     1
   6323   6331     1
   6323   6348     1
   6323   6349     1
   6324   6326     1
   6324   6329     1
   6324   6347     1
   6324   6336     1
   6324   6337     1
   6325   6326     1
   6325   6329     1
   6325   6347     1
   6325   6336     1
   6325   6337     1
   6326   6330     1
   6326   6331     1
   6326   6345     1
   6326   6346     1
   6327   6329     1
   6327   6344     1
   6327   6339     1
   6327   6340     1
   6328   6329     1
   6328   6344     1
   6328   6339     1
   6328   6340     1
   6329   6342     1
   6329   6343     1
   6330   6341     1
   6330   6333     1
   6330   6334     1
   6331   6341     1
   6331   6333     1
   6331   6334     1
   6333   6350     1
   6333   6342     1
   6333   6343     1
   6334   6350     1
   6334   6342     1
   6334   6343     1
   6336  12399     1
   6336   6348     1
   6336   6349     1
   6337  12399     1
   6337   6348     1
   6337   6349     1
   6339  12376     1
   6339   6345     1
   6339   6346     1
   6340  12376     1
   6340   6345     1
   6340   6346     1
   6344  12375     1
   6345  12372     1
   6346  12372     1
   6347  12398     1
   6348  12395     1
   6349  12395     1
   6351   6365     1
   6351   6366     1
   6351   6368     1
   6351   6369     1
   6351   6362     1
   6351   6363     1
   6352   6356     1
   6352   6357     1
   6352   6359     1
   6352   6360     1
   6352   6377     1
   6352   6378     1
   6353   6355     1
   6353   6358     1
   6353   6376     1
   6353   6365     1
   6353   6366     1
   6354   6355     1
   6354   6358     1
   6354   6376     1
   6354   6365     1
   6354   6366     1
   6355   6359     1
   6355   6360     1
   6355   6374     1
   6355   6375     1
   6356   6358     1
   6356   6373     1
   6356   6368     1
   6356   6369     1
   6357   6358     1
   6357   6373     1
   6357   6368     1
   6357   6369     1
   6358   6371     1
   6358   6372     1
   6359   6370     1
   6359   6362     1
   6359   6363     1
   6360   6370     1
   6360   6362     1
   6360   6363     1
   6362   6379     1
   6362   6371     1
   6362   6372     1
   6363   6379     1
   6363   6371     1
   6363   6372     1
   6365  12445     1
   6365   6377     1
   6365   6378     1
   6366  12445     1
   6366   6377     1
   6366   6378     1
   6368  12422     1
   6368   6374     1
   6368   6375     1
   6369  12422     1
   6369   6374     1
   6369   6375     1
   6373  12421     1
   6374  12418     1
   6375  12418     1
   6376  12444     1
   6377  12441     1
   6378  12441     1
   6380   6394     1
   6380   6395     1
   6380   6397     1
   6380   6398     1
   6380   6391     1
   6380   6392     1
   6381   6385     1
   6381   6386     1
   6381   6388     1
   6381   6389     1
   6381   6406     1
   6381   6407     1
   6382   6384     1
   6382   6387     1
   6382   6405     1
   6382   6394     1
   6382   6395     1
   6383   6384     1
   6383   6387     1
   6383   6405     1
   6383   6394     1
   6383   6395     1
   6384   6388     1
   6384   6389     1
   6384   6403     1
   6384   6404     1
   6385   6387     1
   6385   6402     1
   6385   6397     1
   6385   6398     1
   6386   6387     1
   6386   6402     1
   6386   6397     1
   6386   6398     1
   6387   6400     1
   6387   6401     1
   6388   6399     1
   6388   6391     1
   6388   6392     1
   6389   6399     1
   6389   6391     1
   6389   6392     1
   6391   6408     1
   6391   6400     1
   6391   6401     1
   6392   6408     1
   6392   6400     1
   6392   6401     1
   6394  12491     1
   6394   6406     1
   6394   6407     1
   6395  12491     1
   6395   6406     1
   6395   6407     1
   6397  12468     1
   6397   6403     1
   6397   6404     1
   6398  12468     1
   6398   6403     1
   6398   6404     1
   6402  12467     1
   6403  12464     1
   6404  12464     1
   6405  12490     1
   6406  12487     1
   6407  12487     1
   6409   6423     1
   6409   6424     1
   6409   6426     1
   6409   6427     1
   6409   6420     1
   6409   6421     1
   6410   6414     1
   6410   6415     1
   6410   6417     1
   6410   6418     1
   6410   6435     1
   6410   6436     1
   6411   6413     1
   6411   6416     1
   6411   6434     1
   6411   6423     1
   6411   6424     1
   6412   6413     1
   6412   6416     1
   6412   6434     1
   6412   6423     1
   6412   6424     1
   6413   6417     1
   6413   6418     1
   6413   6432     1
   6413   6433     1
   6414   6416     1
   6414   6431     1
   6414   6426     1
   6414   6427     1
   6415   6416     1
   6415   6431     1
   6415   6426     1
   6415   6427     1
   6416   6429     1
   6416   6430     1
   6417   6428     1
   6417   6420     1
   6417   6421     1
   6418   6428     1
   6418   6420     1
   6418   6421     1
   6420   6437     1
   6420   6429     1
   6420   6430     1
   6421   6437     1
   6421   6429     1
   6421   6430     1
   6423  12537     1
   6423   6435     1
   6423   6436     1
   6424  12537     1
   6424   6435     1
   6424   6436     1
   6426  12514     1
   6426   6432     1
   6426   6433     1
   6427  12514     1
   6427   6432     1
   6427   6433     1
   6431  12513     1
   6432  12510     1
   6433  12510     1
   6434  12536     1
   6435  12533     1
   6436  12533     1
   6438   6452     1
   6438   6453     1
   6438   6455     1
   6438   6456     1
   6438   6449     1
   6438   6450     1
   6439   6443     1
   6439   6444     1
   6439   6446     1
   6439   6447     1
   6439   6464     1
   6439   6465     1
   6440   6442     1
   6440   6445     1
   6440   6463     1
   6440   6452     1
   6440   6453     1
   6441   6442     1
   6441   6445     1
   6441   6463     1
   6441   6452     1
   6441   6453     1
   6442   6446     1
   6442   6447     1
   6442   6461     1
   6442   6462     1
   6443   6445     1
   6443   6460     1
   6443   6455     1
   6443   6456     1
   6444   6445     1
   6444   6460     1
   6444   6455     1
   6444   6456     1
   6445   6458     1
   6445   6459     1
   6446   6457     1
   6446   6449     1
   6446   6450     1
   6447   6457     1
   6447   6449     1
   6447   6450     1
   6449   6466     1
   6449   6458     1
   6449   6459     1
   6450   6466     1
   6450   6458     1
   6450   6459     1
   6452  12583     1
   6452   6464     1
   6452   6465     1
   6453  12583     1
   6453   6464     1
   6453   6465     1
   6455  12560     1
   6455   6461     1
   6455   6462     1
   6456  12560     1
   6456   6461     1
   6456   6462     1
   6460  12559     1
   6461  12556     1
   6462  12556     1
   6463  12582     1
   6464  12579     1
   6465  12579     1
   6467   6481     1
   6467   6482     1
   6467   6484     1
   6467   6485     1
   6467   6478     1
   6467   6479     1
   6468   6472     1
   6468   6473     1
   6468   6475     1
   6468   6476     1
   6468   6493     1
   6468   6494     1
   6469   6471     1
   6469   6474     1
   6469   6492     1
   6469   6481     1
   6469   6482     1
   6470   6471     1
   6470   6474     1
   6470   6492     1
   6470   6481     1
   6470   6482     1
   6471   6475     1
   6471   6476     1
   6471   6490     1
   6471   6491     1
   6472   6474     1
   6472   6489     1
   6472   6484     1
   6472   6485     1
   6473   6474     1
   6473   6489     1
   6473   6484     1
   6473   6485     1
   6474   6487     1
   6474   6488     1
   6475   6486     1
   6475   6478     1
   6475   6479     1
   6476   6486     1
   6476   6478     1
   6476   6479     1
   6478   6495     1
   6478   6487     1
   6478   6488     1
   6479   6495     1
   6479   6487     1
   6479   6488     1
   6481  12629     1
   6481   6493     1
   6481   6494     1
   6482  12629     1
   6482   6493     1
   6482   6494     1
   6484  12606     1
   6484   6490     1
   6484   6491     1
   6485  12606     1
   6485   6490     1
   6485   6491     1
   6489  12605     1
   6490  12602     1
   6491  12602     1
   6492  12628     1
   6493  12625     1
   6494  12625     1
   6496   6510     1
   6496   6511     1
   6496   6513     1
   6496   6514     1
   6496   6507     1
   6496   6508     1
   6497   6501     1
   6497   6502     1
   6497   6504     1
   6497   6505     1
   6497   6522     1
   6497   6523     1
   6498   6500     1
   6498   6503     1
   6498   6521     1
   6498   6510     1
   6498   6511     1
   6499   6500     1
   6499   6503     1
   6499   6521     1
   6499   6510     1
   6499   6511     1
   6500   6504     1
   6500   6505     1
   6500   6519     1
   6500   6520     1
   6501   6503     1
   6501   6518     1
   6501   6513     1
   6501   6514     1
   6502   6503     1
   6502   6518     1
   6502   6513     1
   6502   6514     1
   6503   6516     1
   6503   6517     1
   6504   6515     1
   6504   6507     1
   6504   6508     1
   6505   6515     1
   6505   6507     1
   6505   6508     1
   6507   6524     1
   6507   6516     1
   6507   6517     1
   6508   6524     1
   6508   6516     1
   6508   6517     1
   6510  12675     1
   6510   6522     1
   6510   6523     1
   6511  12675     1
   6511   6522     1
   6511   6523     1
   6513  12652     1
   6513   6519     1
   6513   6520     1
   6514  12652     1
   6514   6519     1
   6514   6520     1
   6518  12651     1
   6519  12648     1
   6520  12648     1
   6521  12674     1
   6522  12671     1
   6523  12671     1
   6525   6539     1
   6525   6540     1
   6525   6542     1
   6525   6543     1
   6525   6536     1
   6525   6537     1
   6526   6530     1
   6526   6531     1
   6526   6533     1
   6526   6534     1
   6526   6551     1
   6526   6552     1
   6527   6529     1
   6527   6532     1
   6527   6550     1
   6527   6539     1
   6527   6540     1
   6528   6529     1
   6528   6532     1
   6528   6550     1
   6528   6539     1
   6528   6540     1
   6529   6533     1
   6529   6534     1
   6529   6548     1
   6529   6549     1
   6530   6532     1
   6530   6547     1
   6530   6542     1
   6530   6543     1
   6531   6532     1
   6531   6547     1
   6531   6542     1
   6531   6543     1
   6532   6545     1
   6532   6546     1
   6533   6544     1
   6533   6536     1
   6533   6537     1
   6534   6544     1
   6534   6536     1
   6534   6537     1
   6536   6553     1
   6536   6545     1
   6536   6546     1
   6537   6553     1
   6537   6545     1
   6537   6546     1
   6539  12721     1
   6539   6551     1
   6539   6552     1
   6540  12721     1
   6540   6551     1
   6540   6552     1
   6542  12698     1
   6542   6548     1
   6542   6549     1
   6543  12698     1
   6543   6548     1
   6543   6549     1
   6547  12697     1
   6548  12694     1
   6549  12694     1
   6550  12720     1
   6551  12717     1
   6552  12717     1
   6554   6568     1
   6554   6569     1
   6554   6571     1
   6554   6572     1
   6554   6565     1
   6554   6566     1
   6555   6559     1
   6555   6560     1
   6555   6562     1
   6555   6563     1
   6555   6580     1
   6555   6581     1
   6556   6558     1
   6556   6561     1
   6556   6579     1
   6556   6568     1
   6556   6569     1
   6557   6558     1
   6557   6561     1
   6557   6579     1
   6557   6568     1
   6557   6569     1
   6558   6562     1
   6558   6563     1
   6558   6577     1
   6558   6578     1
   6559   6561     1
   6559   6576     1
   6559   6571     1
   6559   6572     1
   6560   6561     1
   6560   6576     1
   6560   6571     1
   6560   6572     1
   6561   6574     1
   6561   6575     1
   6562   6573     1
   6562   6565     1
   6562   6566     1
   6563   6573     1
   6563   6565     1
   6563   6566     1
   6565   6582     1
   6565   6574     1
   6565   6575     1
   6566   6582     1
   6566   6574     1
   6566   6575     1
   6568  12767     1
   6568   6580     1
   6568   6581     1
   6569  12767     1
   6569   6580     1
   6569   6581     1
   6571  12744     1
   6571   6577     1
   6571   6578     1
   6572  12744     1
   6572   6577     1
   6572   6578     1
   6576  12743     1
   6577  12740     1
   6578  12740     1
   6579  12766     1
   6580  12763     1
   6581  12763     1
   6583   6597     1
   6583   6598     1
   6583   6600     1
   6583   6601     1
   6583   6594     1
   6583   6595     1
   6584   6588     1
   6584   6589     1
   6584   6591     1
   6584   6592     1
   6584   6609     1
   6584   6610     1
   6585   6587     1
   6585   6590     1
   6585   6608     1
   6585   6597     1
   6585   6598     1
   6586   6587     1
   6586   6590     1
   6586   6608     1
   6586   6597     1
   6586   6598     1
   6587   6591     1
   6587   6592     1
   6587   6606     1
   6587   6607     1
   6588   6590     1
   6588   6605     1
   6588   6600     1
   6588   6601     1
   6589   6590     1
   6589   6605     1
   6589   6600     1
   6589   6601     1
   6590   6603     1
   6590   6604     1
   6591   6602     1
   6591   6594     1
   6591   6595     1
   6592   6602     1
   6592   6594     1
   6592   6595     1
   6594   6611     1
   6594   6603     1
   6594   6604     1
   6595   6611     1
   6595   6603     1
   6595   6604     1
   6597  12813     1
   6597   6609     1
   6597   6610     1
   6598  12813     1
   6598   6609     1
   6598   6610     1
   6600  12790     1
   6600   6606     1
   6600   6607     1
   6601  12790     1
   6601   6606     1
   6601   6607     1
   6605  12789     1
   6606  12786     1
   6607  12786     1
   6608  12812     1
   6609  12809     1
   6610  12809     1
   6612   6626     1
   6612   6627     1
   6612   6629     1
   6612   6630     1
   6612   6623     1
   6612   6624     1
   6613   6617     1
   6613   6618     1
   6613   6620     1
   6613   6621     1
   6613   6638     1
   6613   6639     1
   6614   6616     1
   6614   6619     1
   6614   6637     1
   6614   6626     1
   6614   6627     1
   6615   6616     1
   6615   6619     1
   6615   6637     1
   6615   6626     1
   6615   6627     1
   6616   6620     1
   6616   6621     1
   6616   6635     1
   6616   6636     1
   6617   6619     1
   6617   6634     1
   6617   6629     1
   6617   6630     1
   6618   6619     1
   6618   6634     1
   6618   6629     1
   6618   6630     1
   6619   6632     1
   6619   6633     1
   6620   6631     1
   6620   6623     1
   6620   6624     1
   6621   6631     1
   6621   6623     1
   6621   6624     1
   6623   6640     1
   6623   6632     1
   6623   6633     1
   6624   6640     1
   6624   6632     1
   6624   6633     1
   6626  12859     1
   6626   6638     1
   6626   6639     1
   6627  12859     1
   6627   6638     1
   6627   6639     1
   6629  12836     1
   6629   6635     1
   6629   6636     1
   6630  12836     1
   6630   6635     1
   6630   6636     1
   6634  12835     1
   6635  12832     1
   6636  12832     1
   6637  12858     1
   6638  12855     1
   6639  12855     1
   6641   6655     1
   6641   6656     1
   6641   6658     1
   6641   6659     1
   6641   6652     1
   6641   6653     1
   6642   6646     1
   6642   6647     1
   6642   6649     1
   6642   6650     1
   6642   6667     1
   6642   6668     1
   6643   6645     1
   6643   6648     1
   6643   6666     1
   6643   6655     1
   6643   6656     1
   6644   6645     1
   6644   6648     1
   6644   6666     1
   6644   6655     1
   6644   6656     1
   6645   6649     1
   6645   6650     1
   6645   6664     1
   6645   6665     1
   6646   6648     1
   6646   6663     1
   6646   6658     1
   6646   6659     1
   6647   6648     1
   6647   6663     1
   6647   6658     1
   6647   6659     1
   6648   6661     1
   6648   6662     1
   6649   6660     1
   6649   6652     1
   6649   6653     1
   6650   6660     1
   6650   6652     1
   6650   6653     1
   6652   6669     1
   6652   6661     1
   6652   6662     1
   6653   6669     1
   6653   6661     1
   6653   6662     1
   6655  12905     1
   6655   6667     1
   6655   6668     1
   6656  12905     1
   6656   6667     1
   6656   6668     1
   6658  12882     1
   6658   6664     1
   6658   6665     1
   6659  12882     1
   6659   6664     1
   6659   6665     1
   6663  12881     1
   6664  12878     1
   6665  12878     1
   6666  12904     1
   6667  12901     1
   6668  12901     1
   6670   6684     1
   6670   6685     1
   6670   6687     1
   6670   6688     1
   6670   6681     1
   6670   6682     1
   6671   6675     1
   6671   6676     1
   6671   6678     1
   6671   6679     1
   6671   6696     1
   6671   6697     1
   6672   6674     1
   6672   6677     1
   6672   6695     1
   6672   6684     1
   6672   6685     1
   6673   6674     1
   6673   6677     1
   6673   6695     1
   6673   6684     1
   6673   6685     1
   6674   6678     1
   6674   6679     1
   6674   6693     1
   6674   6694     1
   6675   6677     1
   6675   6692     1
   6675   6687     1
   6675   6688     1
   6676   6677     1
   6676   6692     1
   6676   6687     1
   6676   6688     1
   6677   6690     1
   6677   6691     1
   6678   6689     1
   6678   6681     1
   6678   6682     1
   6679   6689     1
   6679   6681     1
   6679   6682     1
   6681   6698     1
   6681   6690     1
   6681   6691     1
   6682   6698     1
   6682   6690     1
   6682   6691     1
   6684  12951     1
   6684   6696     1
   6684   6697     1
   6685  12951     1
   6685   6696     1
   6685   6697     1
   6687  12928     1
   6687   6693     1
   6687   6694     1
   6688  12928     1
   6688   6693     1
   6688   6694     1
   6692  12927     1
   6693  12924     1
   6694  12924     1
   6695  12950     1
   6696  12947     1
   6697  12947     1
   6699   6713     1
   6699   6714     1
   6699   6716     1
   6699   6717     1
   6699   6710     1
   6699   6711     1
   6700   6704     1
   6700   6705     1
   6700   6707     1
   6700   6708     1
   6700   6725     1
   6700   6726     1
   6701   6703     1
   6701   6706     1
   6701   6724     1
   6701   6713     1
   6701   6714     1
   6702   6703     1
   6702   6706     1
   6702   6724     1
   6702   6713     1
   6702   6714     1
   6703   6707     1
   6703   6708     1
   6703   6722     1
   6703   6723     1
   6704   6706     1
   6704   6721     1
   6704   6716     1
   6704   6717     1
   6705   6706     1
   6705   6721     1
   6705   6716     1
   6705   6717     1
   6706   6719     1
   6706   6720     1
   6707   6718     1
   6707   6710     1
   6707   6711     1
   6708   6718     1
   6708   6710     1
   6708   6711     1
   6710   6727     1
   6710   6719     1
   6710   6720     1
   6711   6727     1
   6711   6719     1
   6711   6720     1
   6713  12997     1
   6713   6725     1
   6713   6726     1
   6714  12997     1
   6714   6725     1
   6714   6726     1
   6716  12974     1
   6716   6722     1
   6716   6723     1
   6717  12974     1
   6717   6722     1
   6717   6723     1
   6721  12973     1
   6722  12970     1
   6723  12970     1
   6724  12996     1
   6725  12993     1
   6726  12993     1
   6728   6742     1
   6728   6743     1
   6728   6745     1
   6728   6746     1
   6728   6739     1
   6728   6740     1
   6729   6733     1
   6729   6734     1
   6729   6736     1
   6729   6737     1
   6729   6754     1
   6729   6755     1
   6730   6732     1
   6730   6735     1
   6730   6753     1
   6730   6742     1
   6730   6743     1
   6731   6732     1
   6731   6735     1
   6731   6753     1
   6731   6742     1
   6731   6743     1
   6732   6736     1
   6732   6737     1
   6732   6751     1
   6732   6752     1
   6733   6735     1
   6733   6750     1
   6733   6745     1
   6733   6746     1
   6734   6735     1
   6734   6750     1
   6734   6745     1
   6734   6746     1
   6735   6748     1
   6735   6749     1
   6736   6747     1
   6736   6739     1
   6736   6740     1
   6737   6747     1
   6737   6739     1
   6737   6740     1
   6739   6756     1
   6739   6748     1
   6739   6749     1
   6740   6756     1
   6740   6748     1
   6740   6749     1
   6742  13043     1
   6742   6754     1
   6742   6755     1
   6743  13043     1
   6743   6754     1
   6743   6755     1
   6745  13020     1
   6745   6751     1
   6745   6752     1
   6746  13020     1
   6746   6751     1
   6746   6752     1
   6750  13019     1
   6751  13016     1
   6752  13016     1
   6753  13042     1
   6754  13039     1
   6755  13039     1
   6757   6771     1
   6757   6772     1
   6757   6774     1
   6757   6775     1
   6757   6768     1
   6757   6769     1
   6758   6762     1
   6758   6763     1
   6758   6765     1
   6758   6766     1
   6758   6783     1
   6758   6784     1
   6759   6761     1
   6759   6764     1
   6759   6782     1
   6759   6771     1
   6759   6772     1
   6760   6761     1
   6760   6764     1
   6760   6782     1
   6760   6771     1
   6760   6772     1
   6761   6765     1
   6761   6766     1
   6761   6780     1
   6761   6781     1
   6762   6764     1
   6762   6779     1
   6762   6774     1
   6762   6775     1
   6763   6764     1
   6763   6779     1
   6763   6774     1
   6763   6775     1
   6764   6777     1
   6764   6778     1
   6765   6776     1
   6765   6768     1
   6765   6769     1
   6766   6776     1
   6766   6768     1
   6766   6769     1
   6768   6785     1
   6768   6777     1
   6768   6778     1
   6769   6785     1
   6769   6777     1
   6769   6778     1
   6771  13089     1
   6771   6783     1
   6771   6784     1
   6772  13089     1
   6772   6783     1
   6772   6784     1
   6774  13066     1
   6774   6780     1
   6774   6781     1
   6775  13066     1
   6775   6780     1
   6775   6781     1
   6779  13065     1
   6780  13062     1
   6781  13062     1
   6782  13088     1
   6783  13085     1
   6784  13085     1
   6786   6800     1
   6786   6801     1
   6786   6803     1
   6786   6804     1
   6786   6797     1
   6786   6798     1
   6787   6791     1
   6787   6792     1
   6787   6794     1
   6787   6795     1
   6787   6812     1
   6787   6813     1
   6788   6790     1
   6788   6793     1
   6788   6811     1
   6788   6800     1
   6788   6801     1
   6789   6790     1
   6789   6793     1
   6789   6811     1
   6789   6800     1
   6789   6801     1
   6790   6794     1
   6790   6795     1
   6790   6809     1
   6790   6810     1
   6791   6793     1
   6791   6808     1
   6791   6803     1
   6791   6804     1
   6792   6793     1
   6792   6808     1
   6792   6803     1
   6792   6804     1
   6793   6806     1
   6793   6807     1
   6794   6805     1
   6794   6797     1
   6794   6798     1
   6795   6805     1
   6795   6797     1
   6795   6798     1
   6797   6814     1
   6797   6806     1
   6797   6807     1
   6798   6814     1
   6798   6806     1
   6798   6807     1
   6800  13135     1
   6800   6812     1
   6800   6813     1
   6801  13135     1
   6801   6812     1
   6801   6813     1
   6803  13112     1
   6803   6809     1
   6803   6810     1
   6804  13112     1
   6804   6809     1
   6804   6810     1
   6808  13111     1
   6809  13108     1
   6810  13108     1
   6811  13134     1
   6812  13131     1
   6813  13131     1
   6815   6829     1
   6815   6830     1
   6815   6832     1
   6815   6833     1
   6815   6826     1
   6815   6827     1
   6816   6820     1
   6816   6821     1
   6816   6823     1
   6816   6824     1
   6816   6841     1
   6816   6842     1
   6817   6819     1
   6817   6822     1
   6817   6840     1
   6817   6829     1
   6817   6830     1
   6818   6819     1
   6818   6822     1
   6818   6840     1
   6818   6829     1
   6818   6830     1
   6819   6823     1
   6819   6824     1
   6819   6838     1
   6819   6839     1
   6820   6822     1
   6820   6837     1
   6820   6832     1
   6820   6833     1
   6821   6822     1
   6821   6837     1
   6821   6832     1
   6821   6833     1
   6822   6835     1
   6822   6836     1
   6823   6834     1
   6823   6826     1
   6823   6827     1
   6824   6834     1
   6824   6826     1
   6824   6827     1
   6826   6843     1
   6826   6835     1
   6826   6836     1
   6827   6843     1
   6827   6835     1
   6827   6836     1
   6829  13181     1
   6829   6841     1
   6829   6842     1
   6830  13181     1
   6830   6841     1
   6830   6842     1
   6832  13158     1
   6832   6838     1
   6832   6839     1
   6833  13158     1
   6833   6838     1
   6833   6839     1
   6837  13157     1
   6838  13154     1
   6839  13154     1
   6840  13180     1
   6841  13177     1
   6842  13177     1
   6844   6858     1
   6844   6859     1
   6844   6861     1
   6844   6862     1
   6844   6855     1
   6844   6856     1
   6845   6849     1
   6845   6850     1
   6845   6852     1
   6845   6853     1
   6845   6870     1
   6845   6871     1
   6846   6848     1
   6846   6851     1
   6846   6869     1
   6846   6858     1
   6846   6859     1
   6847   6848     1
   6847   6851     1
   6847   6869     1
   6847   6858     1
   6847   6859     1
   6848   6852     1
   6848   6853     1
   6848   6867     1
   6848   6868     1
   6849   6851     1
   6849   6866     1
   6849   6861     1
   6849   6862     1
   6850   6851     1
   6850   6866     1
   6850   6861     1
   6850   6862     1
   6851   6864     1
   6851   6865     1
   6852   6863     1
   6852   6855     1
   6852   6856     1
   6853   6863     1
   6853   6855     1
   6853   6856     1
   6855   6872     1
   6855   6864     1
   6855   6865     1
   6856   6872     1
   6856   6864     1
   6856   6865     1
   6858  13227     1
   6858   6870     1
   6858   6871     1
   6859  13227     1
   6859   6870     1
   6859   6871     1
   6861  13204     1
   6861   6867     1
   6861   6868     1
   6862  13204     1
   6862   6867     1
   6862   6868     1
   6866  13203     1
   6867  13200     1
   6868  13200     1
   6869  13226     1
   6870  13223     1
   6871  13223     1
   6873   6887     1
   6873   6888     1
   6873   6890     1
   6873   6891     1
   6873   6884     1
   6873   6885     1
   6874   6878     1
   6874   6879     1
   6874   6881     1
   6874   6882     1
   6874   6899     1
   6874   6900     1
   6875   6877     1
   6875   6880     1
   6875   6898     1
   6875   6887     1
   6875   6888     1
   6876   6877     1
   6876   6880     1
   6876   6898     1
   6876   6887     1
   6876   6888     1
   6877   6881     1
   6877   6882     1
   6877   6896     1
   6877   6897     1
   6878   6880     1
   6878   6895     1
   6878   6890     1
   6878   6891     1
   6879   6880     1
   6879   6895     1
   6879   6890     1
   6879   6891     1
   6880   6893     1
   6880   6894     1
   6881   6892     1
   6881   6884     1
   6881   6885     1
   6882   6892     1
   6882   6884     1
   6882   6885     1
   6884   6901     1
   6884   6893     1
   6884   6894     1
   6885   6901     1
   6885   6893     1
   6885   6894     1
   6887  13273     1
   6887   6899     1
   6887   6900     1
   6888  13273     1
   6888   6899     1
   6888   6900     1
   6890  13250     1
   6890   6896     1
   6890   6897     1
   6891  13250     1
   6891   6896     1
   6891   6897     1
   6895  13249     1
   6896  13246     1
   6897  13246     1
   6898  13272     1
   6899  13269     1
   6900  13269     1
   6902   6916     1
   6902   6917     1
   6902   6919     1
   6902   6920     1
   6902   6913     1
   6902   6914     1
   6903   6907     1
   6903   6908     1
   6903   6910     1
   6903   6911     1
   6903   6928     1
   6903   6929     1
   6904   6906     1
   6904   6909     1
   6904   6927     1
   6904   6916     1
   6904   6917     1
   6905   6906     1
   6905   6909     1
   6905   6927     1
   6905   6916     1
   6905   6917     1
   6906   6910     1
   6906   6911     1
   6906   6925     1
   6906   6926     1
   6907   6909     1
   6907   6924     1
   6907   6919     1
   6907   6920     1
   6908   6909     1
   6908   6924     1
   6908   6919     1
   6908   6920     1
   6909   6922     1
   6909   6923     1
   6910   6921     1
   6910   6913     1
   6910   6914     1
   6911   6921     1
   6911   6913     1
   6911   6914     1
   6913   6930     1
   6913   6922     1
   6913   6923     1
   6914   6930     1
   6914   6922     1
   6914   6923     1
   6916  13319     1
   6916   6928     1
   6916   6929     1
   6917  13319     1
   6917   6928     1
   6917   6929     1
   6919  13296     1
   6919   6925     1
   6919   6926     1
   6920  13296     1
   6920   6925     1
   6920   6926     1
   6924  13295     1
   6925  13292     1
   6926  13292     1
   6927  13318     1
   6928  13315     1
   6929  13315     1
   6931   6945     1
   6931   6946     1
   6931   6948     1
   6931   6949     1
   6931   6942     1
   6931   6943     1
   6932   6936     1
   6932   6937     1
   6932   6939     1
   6932   6940     1
   6932   6957     1
   6932   6958     1
   6933   6935     1
   6933   6938     1
   6933   6956     1
   6933   6945     1
   6933   6946     1
   6934   6935     1
   6934   6938     1
   6934   6956     1
   6934   6945     1
   6934   6946     1
   6935   6939     1
   6935   6940     1
   6935   6954     1
   6935   6955     1
   6936   6938     1
   6936   6953     1
   6936   6948     1
   6936   6949     1
   6937   6938     1
   6937   6953     1
   6937   6948     1
   6937   6949     1
   6938   6951     1
   6938   6952     1
   6939   6950     1
   6939   6942     1
   6939   6943     1
   6940   6950     1
   6940   6942     1
   6940   6943     1
   6942   6959     1
   6942   6951     1
   6942   6952     1
   6943   6959     1
   6943   6951     1
   6943   6952     1
   6945  13365     1
   6945   6957     1
   6945   6958     1
   6946  13365     1
   6946   6957     1
   6946   6958     1
   6948  13342     1
   6948   6954     1
   6948   6955     1
   6949  13342     1
   6949   6954     1
   6949   6955     1
   6953  13341     1
   6954  13338     1
   6955  13338     1
   6956  13364     1
   6957  13361     1
   6958  13361     1
   6960   6974     1
   6960   6975     1
   6960   6977     1
   6960   6978     1
   6960   6971     1
   6960   6972     1
   6961   6965     1
   6961   6966     1
   6961   6968     1
   6961   6969     1
   6961   6986     1
   6961   6987     1
   6962   6964     1
   6962   6967     1
   6962   6985     1
   6962   6974     1
   6962   6975     1
   6963   6964     1
   6963   6967     1
   6963   6985     1
   6963   6974     1
   6963   6975     1
   6964   6968     1
   6964   6969     1
   6964   6983     1
   6964   6984     1
   6965   6967     1
   6965   6982     1
   6965   6977     1
   6965   6978     1
   6966   6967     1
   6966   6982     1
   6966   6977     1
   6966   6978     1
   6967   6980     1
   6967   6981     1
   6968   6979     1
   6968   6971     1
   6968   6972     1
   6969   6979     1
   6969   6971     1
   6969   6972     1
   6971   6988     1
   6971   6980     1
   6971   6981     1
   6972   6988     1
   6972   6980     1
   6972   6981     1
   6974  13411     1
   6974   6986     1
   6974   6987     1
   6975  13411     1
   6975   6986     1
   6975   6987     1
   6977  13388     1
   6977   6983     1
   6977   6984     1
   6978  13388     1
   6978   6983     1
   6978   6984     1
   6982  13387     1
   6983  13384     1
   6984  13384     1
   6985  13410     1
   6986  13407     1
   6987  13407     1
   6989   7003     1
   6989   7004     1
   6989   7006     1
   6989   7007     1
   6989   7000     1
   6989   7001     1
   6990   6994     1
   6990   6995     1
   6990   6997     1
   6990   6998     1
   6990   7015     1
   6990   7016     1
   6991   6993     1
   6991   6996     1
   6991   7014     1
   6991   7003     1
   6991   7004     1
   6992   6993     1
   6992   6996     1
   6992   7014     1
   6992   7003     1
   6992   7004     1
   6993   6997     1
   6993   6998     1
   6993   7012     1
   6993   7013     1
   6994   6996     1
   6994   7011     1
   6994   7006     1
   6994   7007     1
   6995   6996     1
   6995   7011     1
   6995   7006     1
   6995   7007     1
   6996   7009     1
   6996   7010     1
   6997   7008     1
   6997   7000     1
   6997   7001     1
   6998   7008     1
   6998   7000     1
   6998   7001     1
   7000   7017     1
   7000   7009     1
   7000   7010     1
   7001   7017     1
   7001   7009     1
   7001   7010     1
   7003  13457     1
   7003   7015     1
   7003   7016     1
   7004  13457     1
   7004   7015     1
   7004   7016     1
   7006  13434     1
   7006   7012     1
   7006   7013     1
   7007  13434     1
   7007   7012     1
   7007   7013     1
   7011  13433     1
   7012  13430     1
   7013  13430     1
   7014  13456     1
   7015  13453     1
   7016  13453     1
   7018   7032     1
   7018   7033     1
   7018   7035     1
   7018   7036     1
   7018   7029     1
   7018   7030     1
   7019   7023     1
   7019   7024     1
   7019   7026     1
   7019   7027     1
   7019   7044     1
   7019   7045     1
   7020   7022     1
   7020   7025     1
   7020   7043     1
   7020   7032     1
   7020   7033     1
   7021   7022     1
   7021   7025     1
   7021   7043     1
   7021   7032     1
   7021   7033     1
   7022   7026     1
   7022   7027     1
   7022   7041     1
   7022   7042     1
   7023   7025     1
   7023   7040     1
   7023   7035     1
   7023   7036     1
   7024   7025     1
   7024   7040     1
   7024   7035     1
   7024   7036     1
   7025   7038     1
   7025   7039     1
   7026   7037     1
   7026   7029     1
   7026   7030     1
   7027   7037     1
   7027   7029     1
   7027   7030     1
   7029   7046     1
   7029   7038     1
   7029   7039     1
   7030   7046     1
   7030   7038     1
   7030   7039     1
   7032  13503     1
   7032   7044     1
   7032   7045     1
   7033  13503     1
   7033   7044     1
   7033   7045     1
   7035  13480     1
   7035   7041     1
   7035   7042     1
   7036  13480     1
   7036   7041     1
   7036   7042     1
   7040  13479     1
   7041  13476     1
   7042  13476     1
   7043  13502     1
   7044  13499     1
   7045  13499     1
   7047   7061     1
   7047   7062     1
   7047   7064     1
   7047   7065     1
   7047   7058     1
   7047   7059     1
   7048   7052     1
   7048   7053     1
   7048   7055     1
   7048   7056     1
   7048   7073     1
   7048   7074     1
   7049   7051     1
   7049   7054     1
   7049   7072     1
   7049   7061     1
   7049   7062     1
   7050   7051     1
   7050   7054     1
   7050   7072     1
   7050   7061     1
   7050   7062     1
   7051   7055     1
   7051   7056     1
   7051   7070     1
   7051   7071     1
   7052   7054     1
   7052   7069     1
   7052   7064     1
   7052   7065     1
   7053   7054     1
   7053   7069     1
   7053   7064     1
   7053   7065     1
   7054   7067     1
   7054   7068     1
   7055   7066     1
   7055   7058     1
   7055   7059     1
   7056   7066     1
   7056   7058     1
   7056   7059     1
   7058   7075     1
   7058   7067     1
   7058   7068     1
   7059   7075     1
   7059   7067     1
   7059   7068     1
   7061  13549     1
   7061   7073     1
   7061   7074     1
   7062  13549     1
   7062   7073     1
   7062   7074     1
   7064  13526     1
   7064   7070     1
   7064   7071     1
   7065  13526     1
   7065   7070     1
   7065   7071     1
   7069  13525     1
   7070  13522     1
   7071  13522     1
   7072  13548     1
   7073  13545     1
   7074  13545     1
   7076   7090     1
   7076   7091     1
   7076   7093     1
   7076   7094     1
   7076   7087     1
   7076   7088     1
   7077   7081     1
   7077   7082     1
   7077   7084     1
   7077   7085     1
   7077   7102     1
   7077   7103     1
   7078   7080     1
   7078   7083     1
   7078   7101     1
   7078   7090     1
   7078   7091     1
   7079   7080     1
   7079   7083     1
   7079   7101     1
   7079   7090     1
   7079   7091     1
   7080   7084     1
   7080   7085     1
   7080   7099     1
   7080   7100     1
   7081   7083     1
   7081   7098     1
   7081   7093     1
   7081   7094     1
   7082   7083     1
   7082   7098     1
   7082   7093     1
   7082   7094     1
   7083   7096     1
   7083   7097     1
   7084   7095     1
   7084   7087     1
   7084   7088     1
   7085   7095     1
   7085   7087     1
   7085   7088     1
   7087   7104     1
   7087   7096     1
   7087   7097     1
   7088   7104     1
   7088   7096     1
   7088   7097     1
   7090  13595     1
   7090   7102     1
   7090   7103     1
   7091  13595     1
   7091   7102     1
   7091   7103     1
   7093  13572     1
   7093   7099     1
   7093   7100     1
   7094  13572     1
   7094   7099     1
   7094   7100     1
   7098  13571     1
   7099  13568     1
   7100  13568     1
   7101  13594     1
   7102  13591     1
   7103  13591     1
   7105   7119     1
   7105   7120     1
   7105   7122     1
   7105   7123     1
   7105   7116     1
   7105   7117     1
   7106   7110     1
   7106   7111     1
   7106   7113     1
   7106   7114     1
   7106   7131     1
   7106   7132     1
   7107   7109     1
   7107   7112     1
   7107   7130     1
   7107   7119     1
   7107   7120     1
   7108   7109     1
   7108   7112     1
   7108   7130     1
   7108   7119     1
   7108   7120     1
   7109   7113     1
   7109   7114     1
   7109   7128     1
   7109   7129     1
   7110   7112     1
   7110   7127     1
   7110   7122     1
   7110   7123     1
   7111   7112     1
   7111   7127     1
   7111   7122     1
   7111   7123     1
   7112   7125     1
   7112   7126     1
   7113   7124     1
   7113   7116     1
   7113   7117     1
   7114   7124     1
   7114   7116     1
   7114   7117     1
   7116   7133     1
   7116   7125     1
   7116   7126     1
   7117   7133     1
   7117   7125     1
   7117   7126     1
   7119  13641     1
   7119   7131     1
   7119   7132     1
   7120  13641     1
   7120   7131     1
   7120   7132     1
   7122  13618     1
   7122   7128     1
   7122   7129     1
   7123  13618     1
   7123   7128     1
   7123   7129     1
   7127  13617     1
   7128  13614     1
   7129  13614     1
   7130  13640     1
   7131  13637     1
   7132  13637     1
   7134   7148     1
   7134   7149     1
   7134   7151     1
   7134   7152     1
   7134   7145     1
   7134   7146     1
   7135   7139     1
   7135   7140     1
   7135   7142     1
   7135   7143     1
   7135   7160     1
   7135   7161     1
   7136   7138     1
   7136   7141     1
   7136   7159     1
   7136   7148     1
   7136   7149     1
   7137   7138     1
   7137   7141     1
   7137   7159     1
   7137   7148     1
   7137   7149     1
   7138   7142     1
   7138   7143     1
   7138   7157     1
   7138   7158     1
   7139   7141     1
   7139   7156     1
   7139   7151     1
   7139   7152     1
   7140   7141     1
   7140   7156     1
   7140   7151     1
   7140   7152     1
   7141   7154     1
   7141   7155     1
   7142   7153     1
   7142   7145     1
   7142   7146     1
   7143   7153     1
   7143   7145     1
   7143   7146     1
   7145   7162     1
   7145   7154     1
   7145   7155     1
   7146   7162     1
   7146   7154     1
   7146   7155     1
   7148  13687     1
   7148   7160     1
   7148   7161     1
   7149  13687     1
   7149   7160     1
   7149   7161     1
   7151  13664     1
   7151   7157     1
   7151   7158     1
   7152  13664     1
   7152   7157     1
   7152   7158     1
   7156  13663     1
   7157  13660     1
   7158  13660     1
   7159  13686     1
   7160  13683     1
   7161  13683     1
   7163   7177     1
   7163   7178     1
   7163   7180     1
   7163   7181     1
   7163   7174     1
   7163   7175     1
   7164   7168     1
   7164   7169     1
   7164   7171     1
   7164   7172     1
   7164   7189     1
   7164   7190     1
   7165   7167     1
   7165   7170     1
   7165   7188     1
   7165   7177     1
   7165   7178     1
   7166   7167     1
   7166   7170     1
   7166   7188     1
   7166   7177     1
   7166   7178     1
   7167   7171     1
   7167   7172     1
   7167   7186     1
   7167   7187     1
   7168   7170     1
   7168   7185     1
   7168   7180     1
   7168   7181     1
   7169   7170     1
   7169   7185     1
   7169   7180     1
   7169   7181     1
   7170   7183     1
   7170   7184     1
   7171   7182     1
   7171   7174     1
   7171   7175     1
   7172   7182     1
   7172   7174     1
   7172   7175     1
   7174   7191     1
   7174   7183     1
   7174   7184     1
   7175   7191     1
   7175   7183     1
   7175   7184     1
   7177  13733     1
   7177   7189     1
   7177   7190     1
   7178  13733     1
   7178   7189     1
   7178   7190     1
   7180  13710     1
   7180   7186     1
   7180   7187     1
   7181  13710     1
   7181   7186     1
   7181   7187     1
   7185  13709     1
   7186  13706     1
   7187  13706     1
   7188  13732     1
   7189  13729     1
   7190  13729     1
   7192   7206     1
   7192   7207     1
   7192   7209     1
   7192   7210     1
   7192   7203     1
   7192   7204     1
   7193   7197     1
   7193   7198     1
   7193   7200     1
   7193   7201     1
   7193   7218     1
   7193   7219     1
   7194   7196     1
   7194   7199     1
   7194   7217     1
   7194   7206     1
   7194   7207     1
   7195   7196     1
   7195   7199     1
   7195   7217     1
   7195   7206     1
   7195   7207     1
   7196   7200     1
   7196   7201     1
   7196   7215     1
   7196   7216     1
   7197   7199     1
   7197   7214     1
   7197   7209     1
   7197   7210     1
   7198   7199     1
   7198   7214     1
   7198   7209     1
   7198   7210     1
   7199   7212     1
   7199   7213     1
   7200   7211     1
   7200   7203     1
   7200   7204     1
   7201   7211     1
   7201   7203     1
   7201   7204     1
   7203   7220     1
   7203   7212     1
   7203   7213     1
   7204   7220     1
   7204   7212     1
   7204   7213     1
   7206  13779     1
   7206   7218     1
   7206   7219     1
   7207  13779     1
   7207   7218     1
   7207   7219     1
   7209  13756     1
   7209   7215     1
   7209   7216     1
   7210  13756     1
   7210   7215     1
   7210   7216     1
   7214  13755     1
   7215  13752     1
   7216  13752     1
   7217  13778     1
   7218  13775     1
   7219  13775     1
   7221   7235     1
   7221   7236     1
   7221   7238     1
   7221   7239     1
   7221   7232     1
   7221   7233     1
   7222   7226     1
   7222   7227     1
   7222   7229     1
   7222   7230     1
   7222   7247     1
   7222   7248     1
   7223   7225     1
   7223   7228     1
   7223   7246     1
   7223   7235     1
   7223   7236     1
   7224   7225     1
   7224   7228     1
   7224   7246     1
   7224   7235     1
   7224   7236     1
   7225   7229     1
   7225   7230     1
   7225   7244     1
   7225   7245     1
   7226   7228     1
   7226   7243     1
   7226   7238     1
   7226   7239     1
   7227   7228     1
   7227   7243     1
   7227   7238     1
   7227   7239     1
   7228   7241     1
   7228   7242     1
   7229   7240     1
   7229   7232     1
   7229   7233     1
   7230   7240     1
   7230   7232     1
   7230   7233     1
   7232   7249     1
   7232   7241     1
   7232   7242     1
   7233   7249     1
   7233   7241     1
   7233   7242     1
   7235  13825     1
   7235   7247     1
   7235   7248     1
   7236  13825     1
   7236   7247     1
   7236   7248     1
   7238  13802     1
   7238   7244     1
   7238   7245     1
   7239  13802     1
   7239   7244     1
   7239   7245     1
   7243  13801     1
   7244  13798     1
   7245  13798     1
   7246  13824     1
   7247  13821     1
   7248  13821     1
   7250   7264     1
   7250   7265     1
   7250   7267     1
   7250   7268     1
   7250   7261     1
   7250   7262     1
   7251   7255     1
   7251   7256     1
   7251   7258     1
   7251   7259     1
   7251   7276     1
   7251   7277     1
   7252   7254     1
   7252   7257     1
   7252   7275     1
   7252   7264     1
   7252   7265     1
   7253   7254     1
   7253   7257     1
   7253   7275     1
   7253   7264     1
   7253   7265     1
   7254   7258     1
   7254   7259     1
   7254   7273     1
   7254   7274     1
   7255   7257     1
   7255   7272     1
   7255   7267     1
   7255   7268     1
   7256   7257     1
   7256   7272     1
   7256   7267     1
   7256   7268     1
   7257   7270     1
   7257   7271     1
   7258   7269     1
   7258   7261     1
   7258   7262     1
   7259   7269     1
   7259   7261     1
   7259   7262     1
   7261   7278     1
   7261   7270     1
   7261   7271     1
   7262   7278     1
   7262   7270     1
   7262   7271     1
   7264  13871     1
   7264   7276     1
   7264   7277     1
   7265  13871     1
   7265   7276     1
   7265   7277     1
   7267  13848     1
   7267   7273     1
   7267   7274     1
   7268  13848     1
   7268   7273     1
   7268   7274     1
   7272  13847     1
   7273  13844     1
   7274  13844     1
   7275  13870     1
   7276  13867     1
   7277  13867     1
   7279   7293     1
   7279   7294     1
   7279   7296     1
   7279   7297     1
   7279   7290     1
   7279   7291     1
   7280   7284     1
   7280   7285     1
   7280   7287     1
   7280   7288     1
   7280   7305     1
   7280   7306     1
   7281   7283     1
   7281   7286     1
   7281   7304     1
   7281   7293     1
   7281   7294     1
   7282   7283     1
   7282   7286     1
   7282   7304     1
   7282   7293     1
   7282   7294     1
   7283   7287     1
   7283   7288     1
   7283   7302     1
   7283   7303     1
   7284   7286     1
   7284   7301     1
   7284   7296     1
   7284   7297     1
   7285   7286     1
   7285   7301     1
   7285   7296     1
   7285   7297     1
   7286   7299     1
   7286   7300     1
   7287   7298     1
   7287   7290     1
   7287   7291     1
   7288   7298     1
   7288   7290     1
   7288   7291     1
   7290   7307     1
   7290   7299     1
   7290   7300     1
   7291   7307     1
   7291   7299     1
   7291   7300     1
   7293  13917     1
   7293   7305     1
   7293   7306     1
   7294  13917     1
   7294   7305     1
   7294   7306     1
   7296  13894     1
   7296   7302     1
   7296   7303     1
   7297  13894     1
   7297   7302     1
   7297   7303     1
   7301  13893     1
   7302  13890     1
   7303  13890     1
   7304  13916     1
   7305  13913     1
   7306  13913     1
   7308   7322     1
   7308   7323     1
   7308   7325     1
   7308   7326     1
   7308   7319     1
   7308   7320     1
   7309   7313     1
   7309   7314     1
   7309   7316     1
   7309   7317     1
   7309   7334     1
   7309   7335     1
   7310   7312     1
   7310   7315     1
   7310   7333     1
   7310   7322     1
   7310   7323     1
   7311   7312     1
   7311   7315     1
   7311   7333     1
   7311   7322     1
   7311   7323     1
   7312   7316     1
   7312   7317     1
   7312   7331     1
   7312   7332     1
   7313   7315     1
   7313   7330     1
   7313   7325     1
   7313   7326     1
   7314   7315     1
   7314   7330     1
   7314   7325     1
   7314   7326     1
   7315   7328     1
   7315   7329     1
   7316   7327     1
   7316   7319     1
   7316   7320     1
   7317   7327     1
   7317   7319     1
   7317   7320     1
   7319   7336     1
   7319   7328     1
   7319   7329     1
   7320   7336     1
   7320   7328     1
   7320   7329     1
   7322  13963     1
   7322   7334     1
   7322   7335     1
   7323  13963     1
   7323   7334     1
   7323   7335     1
   7325  13940     1
   7325   7331     1
   7325   7332     1
   7326  13940     1
   7326   7331     1
   7326   7332     1
   7330  13939     1
   7331  13936     1
   7332  13936     1
   7333  13962     1
   7334  13959     1
   7335  13959     1
   7337   7351     1
   7337   7352     1
   7337   7354     1
   7337   7355     1
   7337   7348     1
   7337   7349     1
   7338   7342     1
   7338   7343     1
   7338   7345     1
   7338   7346     1
   7338   7363     1
   7338   7364     1
   7339   7341     1
   7339   7344     1
   7339   7362     1
   7339   7351     1
   7339   7352     1
   7340   7341     1
   7340   7344     1
   7340   7362     1
   7340   7351     1
   7340   7352     1
   7341   7345     1
   7341   7346     1
   7341   7360     1
   7341   7361     1
   7342   7344     1
   7342   7359     1
   7342   7354     1
   7342   7355     1
   7343   7344     1
   7343   7359     1
   7343   7354     1
   7343   7355     1
   7344   7357     1
   7344   7358     1
   7345   7356     1
   7345   7348     1
   7345   7349     1
   7346   7356     1
   7346   7348     1
   7346   7349     1
   7348   7365     1
   7348   7357     1
   7348   7358     1
   7349   7365     1
   7349   7357     1
   7349   7358     1
   7351  14009     1
   7351   7363     1
   7351   7364     1
   7352  14009     1
   7352   7363     1
   7352   7364     1
   7354  13986     1
   7354   7360     1
   7354   7361     1
   7355  13986     1
   7355   7360     1
   7355   7361     1
   7359  13985     1
   7360  13982     1
   7361  13982     1
   7362  14008     1
   7363  14005     1
   7364  14005     1
   7366   7380     1
   7366   7381     1
   7366   7383     1
   7366   7384     1
   7366   7377     1
   7366   7378     1
   7367   7371     1
   7367   7372     1
   7367   7374     1
   7367   7375     1
   7367   7392     1
   7367   7393     1
   7368   7370     1
   7368   7373     1
   7368   7391     1
   7368   7380     1
   7368   7381     1
   7369   7370     1
   7369   7373     1
   7369   7391     1
   7369   7380     1
   7369   7381     1
   7370   7374     1
   7370   7375     1
   7370   7389     1
   7370   7390     1
   7371   7373     1
   7371   7388     1
   7371   7383     1
   7371   7384     1
   7372   7373     1
   7372   7388     1
   7372   7383     1
   7372   7384     1
   7373   7386     1
   7373   7387     1
   7374   7385     1
   7374   7377     1
   7374   7378     1
   7375   7385     1
   7375   7377     1
   7375   7378     1
   7377   7394     1
   7377   7386     1
   7377   7387     1
   7378   7394     1
   7378   7386     1
   7378   7387     1
   7380  14055     1
   7380   7392     1
   7380   7393     1
   7381  14055     1
   7381   7392     1
   7381   7393     1
   7383  14032     1
   7383   7389     1
   7383   7390     1
   7384  14032     1
   7384   7389     1
   7384   7390     1
   7388  14031     1
   7389  14028     1
   7390  14028     1
   7391  14054     1
   7392  14051     1
   7393  14051     1
   7395   7409     1
   7395   7410     1
   7395   7412     1
   7395   7413     1
   7395   7406     1
   7395   7407     1
   7396   7400     1
   7396   7401     1
   7396   7403     1
   7396   7404     1
   7396   7421     1
   7396   7422     1
   7397   7399     1
   7397   7402     1
   7397   7420     1
   7397   7409     1
   7397   7410     1
   7398   7399     1
   7398   7402     1
   7398   7420     1
   7398   7409     1
   7398   7410     1
   7399   7403     1
   7399   7404     1
   7399   7418     1
   7399   7419     1
   7400   7402     1
   7400   7417     1
   7400   7412     1
   7400   7413     1
   7401   7402     1
   7401   7417     1
   7401   7412     1
   7401   7413     1
   7402   7415     1
   7402   7416     1
   7403   7414     1
   7403   7406     1
   7403   7407     1
   7404   7414     1
   7404   7406     1
   7404   7407     1
   7406   7423     1
   7406   7415     1
   7406   7416     1
   7407   7423     1
   7407   7415     1
   7407   7416     1
   7409  14101     1
   7409   7421     1
   7409   7422     1
   7410  14101     1
   7410   7421     1
   7410   7422     1
   7412  14078     1
   7412   7418     1
   7412   7419     1
   7413  14078     1
   7413   7418     1
   7413   7419     1
   7417  14077     1
   7418  14074     1
   7419  14074     1
   7420  14100     1
   7421  14097     1
   7422  14097     1
   7424   7438     1
   7424   7439     1
   7424   7441     1
   7424   7442     1
   7424   7435     1
   7424   7436     1
   7425   7429     1
   7425   7430     1
   7425   7432     1
   7425   7433     1
   7425   7450     1
   7425   7451     1
   7426   7428     1
   7426   7431     1
   7426   7449     1
   7426   7438     1
   7426   7439     1
   7427   7428     1
   7427   7431     1
   7427   7449     1
   7427   7438     1
   7427   7439     1
   7428   7432     1
   7428   7433     1
   7428   7447     1
   7428   7448     1
   7429   7431     1
   7429   7446     1
   7429   7441     1
   7429   7442     1
   7430   7431     1
   7430   7446     1
   7430   7441     1
   7430   7442     1
   7431   7444     1
   7431   7445     1
   7432   7443     1
   7432   7435     1
   7432   7436     1
   7433   7443     1
   7433   7435     1
   7433   7436     1
   7435   7452     1
   7435   7444     1
   7435   7445     1
   7436   7452     1
   7436   7444     1
   7436   7445     1
   7438  14147     1
   7438   7450     1
   7438   7451     1
   7439  14147     1
   7439   7450     1
   7439   7451     1
   7441  14124     1
   7441   7447     1
   7441   7448     1
   7442  14124     1
   7442   7447     1
   7442   7448     1
   7446  14123     1
   7447  14120     1
   7448  14120     1
   7449  14146     1
   7450  14143     1
   7451  14143     1
   7453   7467     1
   7453   7468     1
   7453   7470     1
   7453   7471     1
   7453   7464     1
   7453   7465     1
   7454   7458     1
   7454   7459     1
   7454   7461     1
   7454   7462     1
   7454   7479     1
   7454   7480     1
   7455   7457     1
   7455   7460     1
   7455   7478     1
   7455   7467     1
   7455   7468     1
   7456   7457     1
   7456   7460     1
   7456   7478     1
   7456   7467     1
   7456   7468     1
   7457   7461     1
   7457   7462     1
   7457   7476     1
   7457   7477     1
   7458   7460     1
   7458   7475     1
   7458   7470     1
   7458   7471     1
   7459   7460     1
   7459   7475     1
   7459   7470     1
   7459   7471     1
   7460   7473     1
   7460   7474     1
   7461   7472     1
   7461   7464     1
   7461   7465     1
   7462   7472     1
   7462   7464     1
   7462   7465     1
   7464   7481     1
   7464   7473     1
   7464   7474     1
   7465   7481     1
   7465   7473     1
   7465   7474     1
   7467  14193     1
   7467   7479     1
   7467   7480     1
   7468  14193     1
   7468   7479     1
   7468   7480     1
   7470  14170     1
   7470   7476     1
   7470   7477     1
   7471  14170     1
   7471   7476     1
   7471   7477     1
   7475  14169     1
   7476  14166     1
   7477  14166     1
   7478  14192     1
   7479  14189     1
   7480  14189     1
   7482   7496     1
   7482   7497     1
   7482   7499     1
   7482   7500     1
   7482   7493     1
   7482   7494     1
   7483   7487     1
   7483   7488     1
   7483   7490     1
   7483   7491     1
   7483   7508     1
   7483   7509     1
   7484   7486     1
   7484   7489     1
   7484   7507     1
   7484   7496     1
   7484   7497     1
   7485   7486     1
   7485   7489     1
   7485   7507     1
   7485   7496     1
   7485   7497     1
   7486   7490     1
   7486   7491     1
   7486   7505     1
   7486   7506     1
   7487   7489     1
   7487   7504     1
   7487   7499     1
   7487   7500     1
   7488   7489     1
   7488   7504     1
   7488   7499     1
   7488   7500     1
   7489   7502     1
   7489   7503     1
   7490   7501     1
   7490   7493     1
   7490   7494     1
   7491   7501     1
   7491   7493     1
   7491   7494     1
   7493   7510     1
   7493   7502     1
   7493   7503     1
   7494   7510     1
   7494   7502     1
   7494   7503     1
   7496  14239     1
   7496   7508     1
   7496   7509     1
   7497  14239     1
   7497   7508     1
   7497   7509     1
   7499  14216     1
   7499   7505     1
   7499   7506     1
   7500  14216     1
   7500   7505     1
   7500   7506     1
   7504  14215     1
   7505  14212     1
   7506  14212     1
   7507  14238     1
   7508  14235     1
   7509  14235     1
   7511   7525     1
   7511   7526     1
   7511   7528     1
   7511   7529     1
   7511   7522     1
   7511   7523     1
   7512   7516     1
   7512   7517     1
   7512   7519     1
   7512   7520     1
   7512   7537     1
   7512   7538     1
   7513   7515     1
   7513   7518     1
   7513   7536     1
   7513   7525     1
   7513   7526     1
   7514   7515     1
   7514   7518     1
   7514   7536     1
   7514   7525     1
   7514   7526     1
   7515   7519     1
   7515   7520     1
   7515   7534     1
   7515   7535     1
   7516   7518     1
   7516   7533     1
   7516   7528     1
   7516   7529     1
   7517   7518     1
   7517   7533     1
   7517   7528     1
   7517   7529     1
   7518   7531     1
   7518   7532     1
   7519   7530     1
   7519   7522     1
   7519   7523     1
   7520   7530     1
   7520   7522     1
   7520   7523     1
   7522   7539     1
   7522   7531     1
   7522   7532     1
   7523   7539     1
   7523   7531     1
   7523   7532     1
   7525  14285     1
   7525   7537     1
   7525   7538     1
   7526  14285     1
   7526   7537     1
   7526   7538     1
   7528  14262     1
   7528   7534     1
   7528   7535     1
   7529  14262     1
   7529   7534     1
   7529   7535     1
   7533  14261     1
   7534  14258     1
   7535  14258     1
   7536  14284     1
   7537  14281     1
   7538  14281     1
   7540   7554     1
   7540   7555     1
   7540   7557     1
   7540   7558     1
   7540   7551     1
   7540   7552     1
   7541   7545     1
   7541   7546     1
   7541   7548     1
   7541   7549     1
   7541   7566     1
   7541   7567     1
   7542   7544     1
   7542   7547     1
   7542   7565     1
   7542   7554     1
   7542   7555     1
   7543   7544     1
   7543   7547     1
   7543   7565     1
   7543   7554     1
   7543   7555     1
   7544   7548     1
   7544   7549     1
   7544   7563     1
   7544   7564     1
   7545   7547     1
   7545   7562     1
   7545   7557     1
   7545   7558     1
   7546   7547     1
   7546   7562     1
   7546   7557     1
   7546   7558     1
   7547   7560     1
   7547   7561     1
   7548   7559     1
   7548   7551     1
   7548   7552     1
   7549   7559     1
   7549   7551     1
   7549   7552     1
   7551   7568     1
   7551   7560     1
   7551   7561     1
   7552   7568     1
   7552   7560     1
   7552   7561     1
   7554  14331     1
   7554   7566     1
   7554   7567     1
   7555  14331     1
   7555   7566     1
   7555   7567     1
   7557  14308     1
   7557   7563     1
   7557   7564     1
   7558  14308     1
   7558   7563     1
   7558   7564     1
   7562  14307     1
   7563  14304     1
   7564  14304     1
   7565  14330     1
   7566  14327     1
   7567  14327     1
   7569   7583     1
   7569   7584     1
   7569   7586     1
   7569   7587     1
   7569   7580     1
   7569   7581     1
   7570   7574     1
   7570   7575     1
   7570   7577     1
   7570   7578     1
   7570   7595     1
   7570   7596     1
   7571   7573     1
   7571   7576     1
   7571   7594     1
   7571   7583     1
   7571   7584     1
   7572   7573     1
   7572   7576     1
   7572   7594     1
   7572   7583     1
   7572   7584     1
   7573   7577     1
   7573   7578     1
   7573   7592     1
   7573   7593     1
   7574   7576     1
   7574   7591     1
   7574   7586     1
   7574   7587     1
   7575   7576     1
   7575   7591     1
   7575   7586     1
   7575   7587     1
   7576   7589     1
   7576   7590     1
   7577   7588     1
   7577   7580     1
   7577   7581     1
   7578   7588     1
   7578   7580     1
   7578   7581     1
   7580   7597     1
   7580   7589     1
   7580   7590     1
   7581   7597     1
   7581   7589     1
   7581   7590     1
   7583  14377     1
   7583   7595     1
   7583   7596     1
   7584  14377     1
   7584   7595     1
   7584   7596     1
   7586  14354     1
   7586   7592     1
   7586   7593     1
   7587  14354     1
   7587   7592     1
   7587   7593     1
   7591  14353     1
   7592  14350     1
   7593  14350     1
   7594  14376     1
   7595  14373     1
   7596  14373     1
   7598   7612     1
   7598   7613     1
   7598   7615     1
   7598   7616     1
   7598   7609     1
   7598   7610     1
   7599   7603     1
   7599   7604     1
   7599   7606     1
   7599   7607     1
   7599   7624     1
   7599   7625     1
   7600   7602     1
   7600   7605     1
   7600   7623     1
   7600   7612     1
   7600   7613     1
   7601   7602     1
   7601   7605     1
   7601   7623     1
   7601   7612     1
   7601   7613     1
   7602   7606     1
   7602   7607     1
   7602   7621     1
   7602   7622     1
   7603   7605     1
   7603   7620     1
   7603   7615     1
   7603   7616     1
   7604   7605     1
   7604   7620     1
   7604   7615     1
   7604   7616     1
   7605   7618     1
   7605   7619     1
   7606   7617     1
   7606   7609     1
   7606   7610     1
   7607   7617     1
   7607   7609     1
   7607   7610     1
   7609   7626     1
   7609   7618     1
   7609   7619     1
   7610   7626     1
   7610   7618     1
   7610   7619     1
   7612  14423     1
   7612   7624     1
   7612   7625     1
   7613  14423     1
   7613   7624     1
   7613   7625     1
   7615  14400     1
   7615   7621     1
   7615   7622     1
   7616  14400     1
   7616   7621     1
   7616   7622     1
   7620  14399     1
   7621  14396     1
   7622  14396     1
   7623  14422     1
   7624  14419     1
   7625  14419     1
   7627   7641     1
   7627   7642     1
   7627   7644     1
   7627   7645     1
   7627   7638     1
   7627   7639     1
   7628   7632     1
   7628   7633     1
   7628   7635     1
   7628   7636     1
   7628   7653     1
   7628   7654     1
   7629   7631     1
   7629   7634     1
   7629   7652     1
   7629   7641     1
   7629   7642     1
   7630   7631     1
   7630   7634     1
   7630   7652     1
   7630   7641     1
   7630   7642     1
   7631   7635     1
   7631   7636     1
   7631   7650     1
   7631   7651     1
   7632   7634     1
   7632   7649     1
   7632   7644     1
   7632   7645     1
   7633   7634     1
   7633   7649     1
   7633   7644     1
   7633   7645     1
   7634   7647     1
   7634   7648     1
   7635   7646     1
   7635   7638     1
   7635   7639     1
   7636   7646     1
   7636   7638     1
   7636   7639     1
   7638   7655     1
   7638   7647     1
   7638   7648     1
   7639   7655     1
   7639   7647     1
   7639   7648     1
   7641  14469     1
   7641   7653     1
   7641   7654     1
   7642  14469     1
   7642   7653     1
   7642   7654     1
   7644  14446     1
   7644   7650     1
   7644   7651     1
   7645  14446     1
   7645   7650     1
   7645   7651     1
   7649  14445     1
   7650  14442     1
   7651  14442     1
   7652  14468     1
   7653  14465     1
   7654  14465     1
   7656   7670     1
   7656   7671     1
   7656   7673     1
   7656   7674     1
   7656   7667     1
   7656   7668     1
   7657   7661     1
   7657   7662     1
   7657   7664     1
   7657   7665     1
   7657   7682     1
   7657   7683     1
   7658   7660     1
   7658   7663     1
   7658   7681     1
   7658   7670     1
   7658   7671     1
   7659   7660     1
   7659   7663     1
   7659   7681     1
   7659   7670     1
   7659   7671     1
   7660   7664     1
   7660   7665     1
   7660   7679     1
   7660   7680     1
   7661   7663     1
   7661   7678     1
   7661   7673     1
   7661   7674     1
   7662   7663     1
   7662   7678     1
   7662   7673     1
   7662   7674     1
   7663   7676     1
   7663   7677     1
   7664   7675     1
   7664   7667     1
   7664   7668     1
   7665   7675     1
   7665   7667     1
   7665   7668     1
   7667   7684     1
   7667   7676     1
   7667   7677     1
   7668   7684     1
   7668   7676     1
   7668   7677     1
   7670  14515     1
   7670   7682     1
   7670   7683     1
   7671  14515     1
   7671   7682     1
   7671   7683     1
   7673  14492     1
   7673   7679     1
   7673   7680     1
   7674  14492     1
   7674   7679     1
   7674   7680     1
   7678  14491     1
   7679  14488     1
   7680  14488     1
   7681  14514     1
   7682  14511     1
   7683  14511     1
   7685   7699     1
   7685   7700     1
   7685   7702     1
   7685   7703     1
   7685   7696     1
   7685   7697     1
   7686   7690     1
   7686   7691     1
   7686   7693     1
   7686   7694     1
   7686   7711     1
   7686   7712     1
   7687   7689     1
   7687   7692     1
   7687   7710     1
   7687   7699     1
   7687   7700     1
   7688   7689     1
   7688   7692     1
   7688   7710     1
   7688   7699     1
   7688   7700     1
   7689   7693     1
   7689   7694     1
   7689   7708     1
   7689   7709     1
   7690   7692     1
   7690   7707     1
   7690   7702     1
   7690   7703     1
   7691   7692     1
   7691   7707     1
   7691   7702     1
   7691   7703     1
   7692   7705     1
   7692   7706     1
   7693   7704     1
   7693   7696     1
   7693   7697     1
   7694   7704     1
   7694   7696     1
   7694   7697     1
   7696   7713     1
   7696   7705     1
   7696   7706     1
   7697   7713     1
   7697   7705     1
   7697   7706     1
   7699  14561     1
   7699   7711     1
   7699   7712     1
   7700  14561     1
   7700   7711     1
   7700   7712     1
   7702  14538     1
   7702   7708     1
   7702   7709     1
   7703  14538     1
   7703   7708     1
   7703   7709     1
   7707  14537     1
   7708  14534     1
   7709  14534     1
   7710  14560     1
   7711  14557     1
   7712  14557     1
   7714   7728     1
   7714   7729     1
   7714   7731     1
   7714   7732     1
   7714   7725     1
   7714   7726     1
   7715   7719     1
   7715   7720     1
   7715   7722     1
   7715   7723     1
   7715   7740     1
   7715   7741     1
   7716   7718     1
   7716   7721     1
   7716   7739     1
   7716   7728     1
   7716   7729     1
   7717   7718     1
   7717   7721     1
   7717   7739     1
   7717   7728     1
   7717   7729     1
   7718   7722     1
   7718   7723     1
   7718   7737     1
   7718   7738     1
   7719   7721     1
   7719   7736     1
   7719   7731     1
   7719   7732     1
   7720   7721     1
   7720   7736     1
   7720   7731     1
   7720   7732     1
   7721   7734     1
   7721   7735     1
   7722   7733     1
   7722   7725     1
   7722   7726     1
   7723   7733     1
   7723   7725     1
   7723   7726     1
   7725   7742     1
   7725   7734     1
   7725   7735     1
   7726   7742     1
   7726   7734     1
   7726   7735     1
   7728  14607     1
   7728   7740     1
   7728   7741     1
   7729  14607     1
   7729   7740     1
   7729   7741     1
   7731  14584     1
   7731   7737     1
   7731   7738     1
   7732  14584     1
   7732   7737     1
   7732   7738     1
   7736  14583     1
   7737  14580     1
   7738  14580     1
   7739  14606     1
   7740  14603     1
   7741  14603     1
   7743   7757     1
   7743   7758     1
   7743   7760     1
   7743   7761     1
   7743   7754     1
   7743   7755     1
   7744   7748     1
   7744   7749     1
   7744   7751     1
   7744   7752     1
   7744   7769     1
   7744   7770     1
   7745   7747     1
   7745   7750     1
   7745   7768     1
   7745   7757     1
   7745   7758     1
   7746   7747     1
   7746   7750     1
   7746   7768     1
   7746   7757     1
   7746   7758     1
   7747   7751     1
   7747   7752     1
   7747   7766     1
   7747   7767     1
   7748   7750     1
   7748   7765     1
   7748   7760     1
   7748   7761     1
   7749   7750     1
   7749   7765     1
   7749   7760     1
   7749   7761     1
   7750   7763     1
   7750   7764     1
   7751   7762     1
   7751   7754     1
   7751   7755     1
   7752   7762     1
   7752   7754     1
   7752   7755     1
   7754   7771     1
   7754   7763     1
   7754   7764     1
   7755   7771     1
   7755   7763     1
   7755   7764     1
   7757  14653     1
   7757   7769     1
   7757   7770     1
   7758  14653     1
   7758   7769     1
   7758   7770     1
   7760  14630     1
   7760   7766     1
   7760   7767     1
   7761  14630     1
   7761   7766     1
   7761   7767     1
   7765  14629     1
   7766  14626     1
   7767  14626     1
   7768  14652     1
   7769  14649     1
   7770  14649     1
   7772   7786     1
   7772   7787     1
   7772   7789     1
   7772   7790     1
   7772   7783     1
   7772   7784     1
   7773   7777     1
   7773   7778     1
   7773   7780     1
   7773   7781     1
   7773   7798     1
   7773   7799     1
   7774   7776     1
   7774   7779     1
   7774   7797     1
   7774   7786     1
   7774   7787     1
   7775   7776     1
   7775   7779     1
   7775   7797     1
   7775   7786     1
   7775   7787     1
   7776   7780     1
   7776   7781     1
   7776   7795     1
   7776   7796     1
   7777   7779     1
   7777   7794     1
   7777   7789     1
   7777   7790     1
   7778   7779     1
   7778   7794     1
   7778   7789     1
   7778   7790     1
   7779   7792     1
   7779   7793     1
   7780   7791     1
   7780   7783     1
   7780   7784     1
   7781   7791     1
   7781   7783     1
   7781   7784     1
   7783   7800     1
   7783   7792     1
   7783   7793     1
   7784   7800     1
   7784   7792     1
   7784   7793     1
   7786  14699     1
   7786   7798     1
   7786   7799     1
   7787  14699     1
   7787   7798     1
   7787   7799     1
   7789  14676     1
   7789   7795     1
   7789   7796     1
   7790  14676     1
   7790   7795     1
   7790   7796     1
   7794  14675     1
   7795  14672     1
   7796  14672     1
   7797  14698     1
   7798  14695     1
   7799  14695     1
   7801   7815     1
   7801   7816     1
   7801   7818     1
   7801   7819     1
   7801   7812     1
   7801   7813     1
   7802   7806     1
   7802   7807     1
   7802   7809     1
   7802   7810     1
   7802   7827     1
   7802   7828     1
   7803   7805     1
   7803   7808     1
   7803   7826     1
   7803   7815     1
   7803   7816     1
   7804   7805     1
   7804   7808     1
   7804   7826     1
   7804   7815     1
   7804   7816     1
   7805   7809     1
   7805   7810     1
   7805   7824     1
   7805   7825     1
   7806   7808     1
   7806   7823     1
   7806   7818     1
   7806   7819     1
   7807   7808     1
   7807   7823     1
   7807   7818     1
   7807   7819     1
   7808   7821     1
   7808   7822     1
   7809   7820     1
   7809   7812     1
   7809   7813     1
   7810   7820     1
   7810   7812     1
   7810   7813     1
   7812   7829     1
   7812   7821     1
   7812   7822     1
   7813   7829     1
   7813   7821     1
   7813   7822     1
   7815  14745     1
   7815   7827     1
   7815   7828     1
   7816  14745     1
   7816   7827     1
   7816   7828     1
   7818  14722     1
   7818   7824     1
   7818   7825     1
   7819  14722     1
   7819   7824     1
   7819   7825     1
   7823  14721     1
   7824  14718     1
   7825  14718     1
   7826  14744     1
   7827  14741     1
   7828  14741     1
   7830   7844     1
   7830   7845     1
   7830   7847     1
   7830   7848     1
   7830   7841     1
   7830   7842     1
   7831   7835     1
   7831   7836     1
   7831   7838     1
   7831   7839     1
   7831   7856     1
   7831   7857     1
   7832   7834     1
   7832   7837     1
   7832   7855     1
   7832   7844     1
   7832   7845     1
   7833   7834     1
   7833   7837     1
   7833   7855     1
   7833   7844     1
   7833   7845     1
   7834   7838     1
   7834   7839     1
   7834   7853     1
   7834   7854     1
   7835   7837     1
   7835   7852     1
   7835   7847     1
   7835   7848     1
   7836   7837     1
   7836   7852     1
   7836   7847     1
   7836   7848     1
   7837   7850     1
   7837   7851     1
   7838   7849     1
   7838   7841     1
   7838   7842     1
   7839   7849     1
   7839   7841     1
   7839   7842     1
   7841   7858     1
   7841   7850     1
   7841   7851     1
   7842   7858     1
   7842   7850     1
   7842   7851     1
   7844  14791     1
   7844   7856     1
   7844   7857     1
   7845  14791     1
   7845   7856     1
   7845   7857     1
   7847  14768     1
   7847   7853     1
   7847   7854     1
   7848  14768     1
   7848   7853     1
   7848   7854     1
   7852  14767     1
   7853  14764     1
   7854  14764     1
   7855  14790     1
   7856  14787     1
   7857  14787     1
   7859   7873     1
   7859   7874     1
   7859   7876     1
   7859   7877     1
   7859   7870     1
   7859   7871     1
   7860   7864     1
   7860   7865     1
   7860   7867     1
   7860   7868     1
   7860   7885     1
   7860   7886     1
   7861   7863     1
   7861   7866     1
   7861   7884     1
   7861   7873     1
   7861   7874     1
   7862   7863     1
   7862   7866     1
   7862   7884     1
   7862   7873     1
   7862   7874     1
   7863   7867     1
   7863   7868     1
   7863   7882     1
   7863   7883     1
   7864   7866     1
   7864   7881     1
   7864   7876     1
   7864   7877     1
   7865   7866     1
   7865   7881     1
   7865   7876     1
   7865   7877     1
   7866   7879     1
   7866   7880     1
   7867   7878     1
   7867   7870     1
   7867   7871     1
   7868   7878     1
   7868   7870     1
   7868   7871     1
   7870   7887     1
   7870   7879     1
   7870   7880     1
   7871   7887     1
   7871   7879     1
   7871   7880     1
   7873  14837     1
   7873   7885     1
   7873   7886     1
   7874  14837     1
   7874   7885     1
   7874   7886     1
   7876  14814     1
   7876   7882     1
   7876   7883     1
   7877  14814     1
   7877   7882     1
   7877   7883     1
   7881  14813     1
   7882  14810     1
   7883  14810     1
   7884  14836     1
   7885  14833     1
   7886  14833     1
   7888   7902     1
   7888   7903     1
   7888   7905     1
   7888   7906     1
   7888   7899     1
   7888   7900     1
   7889   7893     1
   7889   7894     1
   7889   7896     1
   7889   7897     1
   7889   7914     1
   7889   7915     1
   7890   7892     1
   7890   7895     1
   7890   7913     1
   7890   7902     1
   7890   7903     1
   7891   7892     1
   7891   7895     1
   7891   7913     1
   7891   7902     1
   7891   7903     1
   7892   7896     1
   7892   7897     1
   7892   7911     1
   7892   7912     1
   7893   7895     1
   7893   7910     1
   7893   7905     1
   7893   7906     1
   7894   7895     1
   7894   7910     1
   7894   7905     1
   7894   7906     1
   7895   7908     1
   7895   7909     1
   7896   7907     1
   7896   7899     1
   7896   7900     1
   7897   7907     1
   7897   7899     1
   7897   7900     1
   7899   7916     1
   7899   7908     1
   7899   7909     1
   7900   7916     1
   7900   7908     1
   7900   7909     1
   7902  14883     1
   7902   7914     1
   7902   7915     1
   7903  14883     1
   7903   7914     1
   7903   7915     1
   7905  14860     1
   7905   7911     1
   7905   7912     1
   7906  14860     1
   7906   7911     1
   7906   7912     1
   7910  14859     1
   7911  14856     1
   7912  14856     1
   7913  14882     1
   7914  14879     1
   7915  14879     1
   7917   7931     1
   7917   7932     1
   7917   7934     1
   7917   7935     1
   7917   7928     1
   7917   7929     1
   7918   7922     1
   7918   7923     1
   7918   7925     1
   7918   7926     1
   7918   7943     1
   7918   7944     1
   7919   7921     1
   7919   7924     1
   7919   7942     1
   7919   7931     1
   7919   7932     1
   7920   7921     1
   7920   7924     1
   7920   7942     1
   7920   7931     1
   7920   7932     1
   7921   7925     1
   7921   7926     1
   7921   7940     1
   7921   7941     1
   7922   7924     1
   7922   7939     1
   7922   7934     1
   7922   7935     1
   7923   7924     1
   7923   7939     1
   7923   7934     1
   7923   7935     1
   7924   7937     1
   7924   7938     1
   7925   7936     1
   7925   7928     1
   7925   7929     1
   7926   7936     1
   7926   7928     1
   7926   7929     1
   7928   7945     1
   7928   7937     1
   7928   7938     1
   7929   7945     1
   7929   7937     1
   7929   7938     1
   7931  14929     1
   7931   7943     1
   7931   7944     1
   7932  14929     1
   7932   7943     1
   7932   7944     1
   7934  14906     1
   7934   7940     1
   7934   7941     1
   7935  14906     1
   7935   7940     1
   7935   7941     1
   7939  14905     1
   7940  14902     1
   7941  14902     1
   7942  14928     1
   7943  14925     1
   7944  14925     1
   7946   7960     1
   7946   7961     1
   7946   7963     1
   7946   7964     1
   7946   7957     1
   7946   7958     1
   7947   7951     1
   7947   7952     1
   7947   7954     1
   7947   7955     1
   7947   7972     1
   7947   7973     1
   7948   7950     1
   7948   7953     1
   7948   7971     1
   7948   7960     1
   7948   7961     1
   7949   7950     1
   7949   7953     1
   7949   7971     1
   7949   7960     1
   7949   7961     1
   7950   7954     1
   7950   7955     1
   7950   7969     1
   7950   7970     1
   7951   7953     1
   7951   7968     1
   7951   7963     1
   7951   7964     1
   7952   7953     1
   7952   7968     1
   7952   7963     1
   7952   7964     1
   7953   7966     1
   7953   7967     1
   7954   7965     1
   7954   7957     1
   7954   7958     1
   7955   7965     1
   7955   7957     1
   7955   7958     1
   7957   7974     1
   7957   7966     1
   7957   7967     1
   7958   7974     1
   7958   7966     1
   7958   7967     1
   7960  14975     1
   7960   7972     1
   7960   7973     1
   7961  14975     1
   7961   7972     1
   7961   7973     1
   7963  14952     1
   7963   7969     1
   7963   7970     1
   7964  14952     1
   7964   7969     1
   7964   7970     1
   7968  14951     1
   7969  14948     1
   7970  14948     1
   7971  14974     1
   7972  14971     1
   7973  14971     1
   7975   7989     1
   7975   7990     1
   7975   7992     1
   7975   7993     1
   7975   7986     1
   7975   7987     1
   7976   7980     1
   7976   7981     1
   7976   7983     1
   7976   7984     1
   7976   8001     1
   7976   8002     1
   7977   7979     1
   7977   7982     1
   7977   8000     1
   7977   7989     1
   7977   7990     1
   7978   7979     1
   7978   7982     1
   7978   8000     1
   7978   7989     1
   7978   7990     1
   7979   7983     1
   7979   7984     1
   7979   7998     1
   7979   7999     1
   7980   7982     1
   7980   7997     1
   7980   7992     1
   7980   7993     1
   7981   7982     1
   7981   7997     1
   7981   7992     1
   7981   7993     1
   7982   7995     1
   7982   7996     1
   7983   7994     1
   7983   7986     1
   7983   7987     1
   7984   7994     1
   7984   7986     1
   7984   7987     1
   7986   8003     1
   7986   7995     1
   7986   7996     1
   7987   8003     1
   7987   7995     1
   7987   7996     1
   7989  15021     1
   7989   8001     1
   7989   8002     1
   7990  15021     1
   7990   8001     1
   7990   8002     1
   7992  14998     1
   7992   7998     1
   7992   7999     1
   7993  14998     1
   7993   7998     1
   7993   7999     1
   7997  14997     1
   7998  14994     1
   7999  14994     1
   8000  15020     1
   8001  15017     1
   8002  15017     1
   8004   8018     1
   8004   8019     1
   8004   8021     1
   8004   8022     1
   8004   8015     1
   8004   8016     1
   8005   8009     1
   8005   8010     1
   8005   8012     1
   8005   8013     1
   8005   8030     1
   8005   8031     1
   8006   8008     1
   8006   8011     1
   8006   8029     1
   8006   8018     1
   8006   8019     1
   8007   8008     1
   8007   8011     1
   8007   8029     1
   8007   8018     1
   8007   8019     1
   8008   8012     1
   8008   8013     1
   8008   8027     1
   8008   8028     1
   8009   8011     1
   8009   8026     1
   8009   8021     1
   8009   8022     1
   8010   8011     1
   8010   8026     1
   8010   8021     1
   8010   8022     1
   8011   8024     1
   8011   8025     1
   8012   8023     1
   8012   8015     1
   8012   8016     1
   8013   8023     1
   8013   8015     1
   8013   8016     1
   8015   8032     1
   8015   8024     1
   8015   8025     1
   8016   8032     1
   8016   8024     1
   8016   8025     1
   8018  15067     1
   8018   8030     1
   8018   8031     1
   8019  15067     1
   8019   8030     1
   8019   8031     1
   8021  15044     1
   8021   8027     1
   8021   8028     1
   8022  15044     1
   8022   8027     1
   8022   8028     1
   8026  15043     1
   8027  15040     1
   8028  15040     1
   8029  15066     1
   8030  15063     1
   8031  15063     1
   8033   8047     1
   8033   8048     1
   8033   8050     1
   8033   8051     1
   8033   8044     1
   8033   8045     1
   8034   8038     1
   8034   8039     1
   8034   8041     1
   8034   8042     1
   8034   8059     1
   8034   8060     1
   8035   8037     1
   8035   8040     1
   8035   8058     1
   8035   8047     1
   8035   8048     1
   8036   8037     1
   8036   8040     1
   8036   8058     1
   8036   8047     1
   8036   8048     1
   8037   8041     1
   8037   8042     1
   8037   8056     1
   8037   8057     1
   8038   8040     1
   8038   8055     1
   8038   8050     1
   8038   8051     1
   8039   8040     1
   8039   8055     1
   8039   8050     1
   8039   8051     1
   8040   8053     1
   8040   8054     1
   8041   8052     1
   8041   8044     1
   8041   8045     1
   8042   8052     1
   8042   8044     1
   8042   8045     1
   8044   8061     1
   8044   8053     1
   8044   8054     1
   8045   8061     1
   8045   8053     1
   8045   8054     1
   8047  15113     1
   8047   8059     1
   8047   8060     1
   8048  15113     1
   8048   8059     1
   8048   8060     1
   8050  15090     1
   8050   8056     1
   8050   8057     1
   8051  15090     1
   8051   8056     1
   8051   8057     1
   8055  15089     1
   8056  15086     1
   8057  15086     1
   8058  15112     1
   8059  15109     1
   8060  15109     1
   8062   8076     1
   8062   8077     1
   8062   8079     1
   8062   8080     1
   8062   8073     1
   8062   8074     1
   8063   8067     1
   8063   8068     1
   8063   8070     1
   8063   8071     1
   8063   8088     1
   8063   8089     1
   8064   8066     1
   8064   8069     1
   8064   8087     1
   8064   8076     1
   8064   8077     1
   8065   8066     1
   8065   8069     1
   8065   8087     1
   8065   8076     1
   8065   8077     1
   8066   8070     1
   8066   8071     1
   8066   8085     1
   8066   8086     1
   8067   8069     1
   8067   8084     1
   8067   8079     1
   8067   8080     1
   8068   8069     1
   8068   8084     1
   8068   8079     1
   8068   8080     1
   8069   8082     1
   8069   8083     1
   8070   8081     1
   8070   8073     1
   8070   8074     1
   8071   8081     1
   8071   8073     1
   8071   8074     1
   8073   8090     1
   8073   8082     1
   8073   8083     1
   8074   8090     1
   8074   8082     1
   8074   8083     1
   8076  15159     1
   8076   8088     1
   8076   8089     1
   8077  15159     1
   8077   8088     1
   8077   8089     1
   8079  15136     1
   8079   8085     1
   8079   8086     1
   8080  15136     1
   8080   8085     1
   8080   8086     1
   8084  15135     1
   8085  15132     1
   8086  15132     1
   8087  15158     1
   8088  15155     1
   8089  15155     1
   8091   8105     1
   8091   8106     1
   8091   8108     1
   8091   8109     1
   8091   8102     1
   8091   8103     1
   8092   8096     1
   8092   8097     1
   8092   8099     1
   8092   8100     1
   8092   8117     1
   8092   8118     1
   8093   8095     1
   8093   8098     1
   8093   8116     1
   8093   8105     1
   8093   8106     1
   8094   8095     1
   8094   8098     1
   8094   8116     1
   8094   8105     1
   8094   8106     1
   8095   8099     1
   8095   8100     1
   8095   8114     1
   8095   8115     1
   8096   8098     1
   8096   8113     1
   8096   8108     1
   8096   8109     1
   8097   8098     1
   8097   8113     1
   8097   8108     1
   8097   8109     1
   8098   8111     1
   8098   8112     1
   8099   8110     1
   8099   8102     1
   8099   8103     1
   8100   8110     1
   8100   8102     1
   8100   8103     1
   8102   8119     1
   8102   8111     1
   8102   8112     1
   8103   8119     1
   8103   8111     1
   8103   8112     1
   8105  15205     1
   8105   8117     1
   8105   8118     1
   8106  15205     1
   8106   8117     1
   8106   8118     1
   8108  15182     1
   8108   8114     1
   8108   8115     1
   8109  15182     1
   8109   8114     1
   8109   8115     1
   8113  15181     1
   8114  15178     1
   8115  15178     1
   8116  15204     1
   8117  15201     1
   8118  15201     1
   8120   8134     1
   8120   8135     1
   8120   8137     1
   8120   8138     1
   8120   8131     1
   8120   8132     1
   8121   8125     1
   8121   8126     1
   8121   8128     1
   8121   8129     1
   8121   8146     1
   8121   8147     1
   8122   8124     1
   8122   8127     1
   8122   8145     1
   8122   8134     1
   8122   8135     1
   8123   8124     1
   8123   8127     1
   8123   8145     1
   8123   8134     1
   8123   8135     1
   8124   8128     1
   8124   8129     1
   8124   8143     1
   8124   8144     1
   8125   8127     1
   8125   8142     1
   8125   8137     1
   8125   8138     1
   8126   8127     1
   8126   8142     1
   8126   8137     1
   8126   8138     1
   8127   8140     1
   8127   8141     1
   8128   8139     1
   8128   8131     1
   8128   8132     1
   8129   8139     1
   8129   8131     1
   8129   8132     1
   8131   8148     1
   8131   8140     1
   8131   8141     1
   8132   8148     1
   8132   8140     1
   8132   8141     1
   8134  15251     1
   8134   8146     1
   8134   8147     1
   8135  15251     1
   8135   8146     1
   8135   8147     1
   8137  15228     1
   8137   8143     1
   8137   8144     1
   8138  15228     1
   8138   8143     1
   8138   8144     1
   8142  15227     1
   8143  15224     1
   8144  15224     1
   8145  15250     1
   8146  15247     1
   8147  15247     1
   8149   8163     1
   8149   8164     1
   8149   8166     1
   8149   8167     1
   8149   8160     1
   8149   8161     1
   8150   8154     1
   8150   8155     1
   8150   8157     1
   8150   8158     1
   8150   8175     1
   8150   8176     1
   8151   8153     1
   8151   8156     1
   8151   8174     1
   8151   8163     1
   8151   8164     1
   8152   8153     1
   8152   8156     1
   8152   8174     1
   8152   8163     1
   8152   8164     1
   8153   8157     1
   8153   8158     1
   8153   8172     1
   8153   8173     1
   8154   8156     1
   8154   8171     1
   8154   8166     1
   8154   8167     1
   8155   8156     1
   8155   8171     1
   8155   8166     1
   8155   8167     1
   8156   8169     1
   8156   8170     1
   8157   8168     1
   8157   8160     1
   8157   8161     1
   8158   8168     1
   8158   8160     1
   8158   8161     1
   8160   8177     1
   8160   8169     1
   8160   8170     1
   8161   8177     1
   8161   8169     1
   8161   8170     1
   8163  15297     1
   8163   8175     1
   8163   8176     1
   8164  15297     1
   8164   8175     1
   8164   8176     1
   8166  15274     1
   8166   8172     1
   8166   8173     1
   8167  15274     1
   8167   8172     1
   8167   8173     1
   8171  15273     1
   8172  15270     1
   8173  15270     1
   8174  15296     1
   8175  15293     1
   8176  15293     1
   8178   8192     1
   8178   8193     1
   8178   8195     1
   8178   8196     1
   8178   8189     1
   8178   8190     1
   8179   8183     1
   8179   8184     1
   8179   8186     1
   8179   8187     1
   8179   8204     1
   8179   8205     1
   8180   8182     1
   8180   8185     1
   8180   8203     1
   8180   8192     1
   8180   8193     1
   8181   8182     1
   8181   8185     1
   8181   8203     1
   8181   8192     1
   8181   8193     1
   8182   8186     1
   8182   8187     1
   8182   8201     1
   8182   8202     1
   8183   8185     1
   8183   8200     1
   8183   8195     1
   8183   8196     1
   8184   8185     1
   8184   8200     1
   8184   8195     1
   8184   8196     1
   8185   8198     1
   8185   8199     1
   8186   8197     1
   8186   8189     1
   8186   8190     1
   8187   8197     1
   8187   8189     1
   8187   8190     1
   8189   8206     1
   8189   8198     1
   8189   8199     1
   8190   8206     1
   8190   8198     1
   8190   8199     1
   8192  15343     1
   8192   8204     1
   8192   8205     1
   8193  15343     1
   8193   8204     1
   8193   8205     1
   8195  15320     1
   8195   8201     1
   8195   8202     1
   8196  15320     1
   8196   8201     1
   8196   8202     1
   8200  15319     1
   8201  15316     1
   8202  15316     1
   8203  15342     1
   8204  15339     1
   8205  15339     1
   8207   8221     1
   8207   8222     1
   8207   8224     1
   8207   8225     1
   8207   8218     1
   8207   8219     1
   8208   8212     1
   8208   8213     1
   8208   8215     1
   8208   8216     1
   8208   8233     1
   8208   8234     1
   8209   8211     1
   8209   8214     1
   8209   8232     1
   8209   8221     1
   8209   8222     1
   8210   8211     1
   8210   8214     1
   8210   8232     1
   8210   8221     1
   8210   8222     1
   8211   8215     1
   8211   8216     1
   8211   8230     1
   8211   8231     1
   8212   8214     1
   8212   8229     1
   8212   8224     1
   8212   8225     1
   8213   8214     1
   8213   8229     1
   8213   8224     1
   8213   8225     1
   8214   8227     1
   8214   8228     1
   8215   8226     1
   8215   8218     1
   8215   8219     1
   8216   8226     1
   8216   8218     1
   8216   8219     1
   8218   8235     1
   8218   8227     1
   8218   8228     1
   8219   8235     1
   8219   8227     1
   8219   8228     1
   8221  15389     1
   8221   8233     1
   8221   8234     1
   8222  15389     1
   8222   8233     1
   8222   8234     1
   8224  15366     1
   8224   8230     1
   8224   8231     1
   8225  15366     1
   8225   8230     1
   8225   8231     1
   8229  15365     1
   8230  15362     1
   8231  15362     1
   8232  15388     1
   8233  15385     1
   8234  15385     1
   8236   8250     1
   8236   8251     1
   8236   8253     1
   8236   8254     1
   8236   8247     1
   8236   8248     1
   8237   8241     1
   8237   8242     1
   8237   8244     1
   8237   8245     1
   8237   8262     1
   8237   8263     1
   8238   8240     1
   8238   8243     1
   8238   8261     1
   8238   8250     1
   8238   8251     1
   8239   8240     1
   8239   8243     1
   8239   8261     1
   8239   8250     1
   8239   8251     1
   8240   8244     1
   8240   8245     1
   8240   8259     1
   8240   8260     1
   8241   8243     1
   8241   8258     1
   8241   8253     1
   8241   8254     1
   8242   8243     1
   8242   8258     1
   8242   8253     1
   8242   8254     1
   8243   8256     1
   8243   8257     1
   8244   8255     1
   8244   8247     1
   8244   8248     1
   8245   8255     1
   8245   8247     1
   8245   8248     1
   8247   8264     1
   8247   8256     1
   8247   8257     1
   8248   8264     1
   8248   8256     1
   8248   8257     1
   8250  15435     1
   8250   8262     1
   8250   8263     1
   8251  15435     1
   8251   8262     1
   8251   8263     1
   8253  15412     1
   8253   8259     1
   8253   8260     1
   8254  15412     1
   8254   8259     1
   8254   8260     1
   8258  15411     1
   8259  15408     1
   8260  15408     1
   8261  15434     1
   8262  15431     1
   8263  15431     1
   8265   8279     1
   8265   8280     1
   8265   8282     1
   8265   8283     1
   8265   8276     1
   8265   8277     1
   8266   8270     1
   8266   8271     1
   8266   8273     1
   8266   8274     1
   8266   8291     1
   8266   8292     1
   8267   8269     1
   8267   8272     1
   8267   8290     1
   8267   8279     1
   8267   8280     1
   8268   8269     1
   8268   8272     1
   8268   8290     1
   8268   8279     1
   8268   8280     1
   8269   8273     1
   8269   8274     1
   8269   8288     1
   8269   8289     1
   8270   8272     1
   8270   8287     1
   8270   8282     1
   8270   8283     1
   8271   8272     1
   8271   8287     1
   8271   8282     1
   8271   8283     1
   8272   8285     1
   8272   8286     1
   8273   8284     1
   8273   8276     1
   8273   8277     1
   8274   8284     1
   8274   8276     1
   8274   8277     1
   8276   8293     1
   8276   8285     1
   8276   8286     1
   8277   8293     1
   8277   8285     1
   8277   8286     1
   8279  15481     1
   8279   8291     1
   8279   8292     1
   8280  15481     1
   8280   8291     1
   8280   8292     1
   8282  15458     1
   8282   8288     1
   8282   8289     1
   8283  15458     1
   8283   8288     1
   8283   8289     1
   8287  15457     1
   8288  15454     1
   8289  15454     1
   8290  15480     1
   8291  15477     1
   8292  15477     1
   8294   8308     1
   8294   8309     1
   8294   8311     1
   8294   8312     1
   8294   8305     1
   8294   8306     1
   8295   8299     1
   8295   8300     1
   8295   8302     1
   8295   8303     1
   8295   8320     1
   8295   8321     1
   8296   8298     1
   8296   8301     1
   8296   8319     1
   8296   8308     1
   8296   8309     1
   8297   8298     1
   8297   8301     1
   8297   8319     1
   8297   8308     1
   8297   8309     1
   8298   8302     1
   8298   8303     1
   8298   8317     1
   8298   8318     1
   8299   8301     1
   8299   8316     1
   8299   8311     1
   8299   8312     1
   8300   8301     1
   8300   8316     1
   8300   8311     1
   8300   8312     1
   8301   8314     1
   8301   8315     1
   8302   8313     1
   8302   8305     1
   8302   8306     1
   8303   8313     1
   8303   8305     1
   8303   8306     1
   8305   8322     1
   8305   8314     1
   8305   8315     1
   8306   8322     1
   8306   8314     1
   8306   8315     1
   8308  15527     1
   8308   8320     1
   8308   8321     1
   8309  15527     1
   8309   8320     1
   8309   8321     1
   8311  15504     1
   8311   8317     1
   8311   8318     1
   8312  15504     1
   8312   8317     1
   8312   8318     1
   8316  15503     1
   8317  15500     1
   8318  15500     1
   8319  15526     1
   8320  15523     1
   8321  15523     1
   8323   8337     1
   8323   8338     1
   8323   8340     1
   8323   8341     1
   8323   8334     1
   8323   8335     1
   8324   8328     1
   8324   8329     1
   8324   8331     1
   8324   8332     1
   8324   8349     1
   8324   8350     1
   8325   8327     1
   8325   8330     1
   8325   8348     1
   8325   8337     1
   8325   8338     1
   8326   8327     1
   8326   8330     1
   8326   8348     1
   8326   8337     1
   8326   8338     1
   8327   8331     1
   8327   8332     1
   8327   8346     1
   8327   8347     1
   8328   8330     1
   8328   8345     1
   8328   8340     1
   8328   8341     1
   8329   8330     1
   8329   8345     1
   8329   8340     1
   8329   8341     1
   8330   8343     1
   8330   8344     1
   8331   8342     1
   8331   8334     1
   8331   8335     1
   8332   8342     1
   8332   8334     1
   8332   8335     1
   8334   8351     1
   8334   8343     1
   8334   8344     1
   8335   8351     1
   8335   8343     1
   8335   8344     1
   8337  15573     1
   8337   8349     1
   8337   8350     1
   8338  15573     1
   8338   8349     1
   8338   8350     1
   8340  15550     1
   8340   8346     1
   8340   8347     1
   8341  15550     1
   8341   8346     1
   8341   8347     1
   8345  15549     1
   8346  15546     1
   8347  15546     1
   8348  15572     1
   8349  15569     1
   8350  15569     1
   8352   8366     1
   8352   8367     1
   8352   8369     1
   8352   8370     1
   8352   8363     1
   8352   8364     1
   8353   8357     1
   8353   8358     1
   8353   8360     1
   8353   8361     1
   8353   8378     1
   8353   8379     1
   8354   8356     1
   8354   8359     1
   8354   8377     1
   8354   8366     1
   8354   8367     1
   8355   8356     1
   8355   8359     1
   8355   8377     1
   8355   8366     1
   8355   8367     1
   8356   8360     1
   8356   8361     1
   8356   8375     1
   8356   8376     1
   8357   8359     1
   8357   8374     1
   8357   8369     1
   8357   8370     1
   8358   8359     1
   8358   8374     1
   8358   8369     1
   8358   8370     1
   8359   8372     1
   8359   8373     1
   8360   8371     1
   8360   8363     1
   8360   8364     1
   8361   8371     1
   8361   8363     1
   8361   8364     1
   8363   8380     1
   8363   8372     1
   8363   8373     1
   8364   8380     1
   8364   8372     1
   8364   8373     1
   8366  15619     1
   8366   8378     1
   8366   8379     1
   8367  15619     1
   8367   8378     1
   8367   8379     1
   8369  15596     1
   8369   8375     1
   8369   8376     1
   8370  15596     1
   8370   8375     1
   8370   8376     1
   8374  15595     1
   8375  15592     1
   8376  15592     1
   8377  15618     1
   8378  15615     1
   8379  15615     1
   8381   8395     1
   8381   8396     1
   8381   8398     1
   8381   8399     1
   8381   8392     1
   8381   8393     1
   8382   8386     1
   8382   8387     1
   8382   8389     1
   8382   8390     1
   8382   8407     1
   8382   8408     1
   8383   8385     1
   8383   8388     1
   8383   8406     1
   8383   8395     1
   8383   8396     1
   8384   8385     1
   8384   8388     1
   8384   8406     1
   8384   8395     1
   8384   8396     1
   8385   8389     1
   8385   8390     1
   8385   8404     1
   8385   8405     1
   8386   8388     1
   8386   8403     1
   8386   8398     1
   8386   8399     1
   8387   8388     1
   8387   8403     1
   8387   8398     1
   8387   8399     1
   8388   8401     1
   8388   8402     1
   8389   8400     1
   8389   8392     1
   8389   8393     1
   8390   8400     1
   8390   8392     1
   8390   8393     1
   8392   8409     1
   8392   8401     1
   8392   8402     1
   8393   8409     1
   8393   8401     1
   8393   8402     1
   8395  15665     1
   8395   8407     1
   8395   8408     1
   8396  15665     1
   8396   8407     1
   8396   8408     1
   8398  15642     1
   8398   8404     1
   8398   8405     1
   8399  15642     1
   8399   8404     1
   8399   8405     1
   8403  15641     1
   8404  15638     1
   8405  15638     1
   8406  15664     1
   8407  15661     1
   8408  15661     1
   8410   8424     1
   8410   8425     1
   8410   8427     1
   8410   8428     1
   8410   8421     1
   8410   8422     1
   8411   8415     1
   8411   8416     1
   8411   8418     1
   8411   8419     1
   8411   8436     1
   8411   8437     1
   8412   8414     1
   8412   8417     1
   8412   8435     1
   8412   8424     1
   8412   8425     1
   8413   8414     1
   8413   8417     1
   8413   8435     1
   8413   8424     1
   8413   8425     1
   8414   8418     1
   8414   8419     1
   8414   8433     1
   8414   8434     1
   8415   8417     1
   8415   8432     1
   8415   8427     1
   8415   8428     1
   8416   8417     1
   8416   8432     1
   8416   8427     1
   8416   8428     1
   8417   8430     1
   8417   8431     1
   8418   8429     1
   8418   8421     1
   8418   8422     1
   8419   8429     1
   8419   8421     1
   8419   8422     1
   8421   8438     1
   8421   8430     1
   8421   8431     1
   8422   8438     1
   8422   8430     1
   8422   8431     1
   8424  15711     1
   8424   8436     1
   8424   8437     1
   8425  15711     1
   8425   8436     1
   8425   8437     1
   8427  15688     1
   8427   8433     1
   8427   8434     1
   8428  15688     1
   8428   8433     1
   8428   8434     1
   8432  15687     1
   8433  15684     1
   8434  15684     1
   8435  15710     1
   8436  15707     1
   8437  15707     1
   8439   8453     1
   8439   8454     1
   8439   8456     1
   8439   8457     1
   8439   8450     1
   8439   8451     1
   8440   8444     1
   8440   8445     1
   8440   8447     1
   8440   8448     1
   8440   8465     1
   8440   8466     1
   8441   8443     1
   8441   8446     1
   8441   8464     1
   8441   8453     1
   8441   8454     1
   8442   8443     1
   8442   8446     1
   8442   8464     1
   8442   8453     1
   8442   8454     1
   8443   8447     1
   8443   8448     1
   8443   8462     1
   8443   8463     1
   8444   8446     1
   8444   8461     1
   8444   8456     1
   8444   8457     1
   8445   8446     1
   8445   8461     1
   8445   8456     1
   8445   8457     1
   8446   8459     1
   8446   8460     1
   8447   8458     1
   8447   8450     1
   8447   8451     1
   8448   8458     1
   8448   8450     1
   8448   8451     1
   8450   8467     1
   8450   8459     1
   8450   8460     1
   8451   8467     1
   8451   8459     1
   8451   8460     1
   8453  15757     1
   8453   8465     1
   8453   8466     1
   8454  15757     1
   8454   8465     1
   8454   8466     1
   8456  15734     1
   8456   8462     1
   8456   8463     1
   8457  15734     1
   8457   8462     1
   8457   8463     1
   8461  15733     1
   8462  15730     1
   8463  15730     1
   8464  15756     1
   8465  15753     1
   8466  15753     1
   8468   8482     1
   8468   8483     1
   8468   8485     1
   8468   8486     1
   8468   8479     1
   8468   8480     1
   8469   8473     1
   8469   8474     1
   8469   8476     1
   8469   8477     1
   8469   8494     1
   8469   8495     1
   8470   8472     1
   8470   8475     1
   8470   8493     1
   8470   8482     1
   8470   8483     1
   8471   8472     1
   8471   8475     1
   8471   8493     1
   8471   8482     1
   8471   8483     1
   8472   8476     1
   8472   8477     1
   8472   8491     1
   8472   8492     1
   8473   8475     1
   8473   8490     1
   8473   8485     1
   8473   8486     1
   8474   8475     1
   8474   8490     1
   8474   8485     1
   8474   8486     1
   8475   8488     1
   8475   8489     1
   8476   8487     1
   8476   8479     1
   8476   8480     1
   8477   8487     1
   8477   8479     1
   8477   8480     1
   8479   8496     1
   8479   8488     1
   8479   8489     1
   8480   8496     1
   8480   8488     1
   8480   8489     1
   8482  15803     1
   8482   8494     1
   8482   8495     1
   8483  15803     1
   8483   8494     1
   8483   8495     1
   8485  15780     1
   8485   8491     1
   8485   8492     1
   8486  15780     1
   8486   8491     1
   8486   8492     1
   8490  15779     1
   8491  15776     1
   8492  15776     1
   8493  15802     1
   8494  15799     1
   8495  15799     1
   8497   8511     1
   8497   8512     1
   8497   8514     1
   8497   8515     1
   8497   8508     1
   8497   8509     1
   8498   8502     1
   8498   8503     1
   8498   8505     1
   8498   8506     1
   8498   8523     1
   8498   8524     1
   8499   8501     1
   8499   8504     1
   8499   8522     1
   8499   8511     1
   8499   8512     1
   8500   8501     1
   8500   8504     1
   8500   8522     1
   8500   8511     1
   8500   8512     1
   8501   8505     1
   8501   8506     1
   8501   8520     1
   8501   8521     1
   8502   8504     1
   8502   8519     1
   8502   8514     1
   8502   8515     1
   8503   8504     1
   8503   8519     1
   8503   8514     1
   8503   8515     1
   8504   8517     1
   8504   8518     1
   8505   8516     1
   8505   8508     1
   8505   8509     1
   8506   8516     1
   8506   8508     1
   8506   8509     1
   8508   8525     1
   8508   8517     1
   8508   8518     1
   8509   8525     1
   8509   8517     1
   8509   8518     1
   8511  15849     1
   8511   8523     1
   8511   8524     1
   8512  15849     1
   8512   8523     1
   8512   8524     1
   8514  15826     1
   8514   8520     1
   8514   8521     1
   8515  15826     1
   8515   8520     1
   8515   8521     1
   8519  15825     1
   8520  15822     1
   8521  15822     1
   8522  15848     1
   8523  15845     1
   8524  15845     1
   8526   8540     1
   8526   8541     1
   8526   8543     1
   8526   8544     1
   8526   8537     1
   8526   8538     1
   8527   8531     1
   8527   8532     1
   8527   8534     1
   8527   8535     1
   8527   8552     1
   8527   8553     1
   8528   8530     1
   8528   8533     1
   8528   8551     1
   8528   8540     1
   8528   8541     1
   8529   8530     1
   8529   8533     1
   8529   8551     1
   8529   8540     1
   8529   8541     1
   8530   8534     1
   8530   8535     1
   8530   8549     1
   8530   8550     1
   8531   8533     1
   8531   8548     1
   8531   8543     1
   8531   8544     1
   8532   8533     1
   8532   8548     1
   8532   8543     1
   8532   8544     1
   8533   8546     1
   8533   8547     1
   8534   8545     1
   8534   8537     1
   8534   8538     1
   8535   8545     1
   8535   8537     1
   8535   8538     1
   8537   8554     1
   8537   8546     1
   8537   8547     1
   8538   8554     1
   8538   8546     1
   8538   8547     1
   8540  15895     1
   8540   8552     1
   8540   8553     1
   8541  15895     1
   8541   8552     1
   8541   8553     1
   8543  15872     1
   8543   8549     1
   8543   8550     1
   8544  15872     1
   8544   8549     1
   8544   8550     1
   8548  15871     1
   8549  15868     1
   8550  15868     1
   8551  15894     1
   8552  15891     1
   8553  15891     1
   8555   8569     1
   8555   8570     1
   8555   8572     1
   8555   8573     1
   8555   8566     1
   8555   8567     1
   8556   8560     1
   8556   8561     1
   8556   8563     1
   8556   8564     1
   8556   8581     1
   8556   8582     1
   8557   8559     1
   8557   8562     1
   8557   8580     1
   8557   8569     1
   8557   8570     1
   8558   8559     1
   8558   8562     1
   8558   8580     1
   8558   8569     1
   8558   8570     1
   8559   8563     1
   8559   8564     1
   8559   8578     1
   8559   8579     1
   8560   8562     1
   8560   8577     1
   8560   8572     1
   8560   8573     1
   8561   8562     1
   8561   8577     1
   8561   8572     1
   8561   8573     1
   8562   8575     1
   8562   8576     1
   8563   8574     1
   8563   8566     1
   8563   8567     1
   8564   8574     1
   8564   8566     1
   8564   8567     1
   8566   8583     1
   8566   8575     1
   8566   8576     1
   8567   8583     1
   8567   8575     1
   8567   8576     1
   8569  15941     1
   8569   8581     1
   8569   8582     1
   8570  15941     1
   8570   8581     1
   8570   8582     1
   8572  15918     1
   8572   8578     1
   8572   8579     1
   8573  15918     1
   8573   8578     1
   8573   8579     1
   8577  15917     1
   8578  15914     1
   8579  15914     1
   8580  15940     1
   8581  15937     1
   8582  15937     1
   8584   8598     1
   8584   8599     1
   8584   8601     1
   8584   8602     1
   8584   8595     1
   8584   8596     1
   8585   8589     1
   8585   8590     1
   8585   8592     1
   8585   8593     1
   8585   8610     1
   8585   8611     1
   8586   8588     1
   8586   8591     1
   8586   8609     1
   8586   8598     1
   8586   8599     1
   8587   8588     1
   8587   8591     1
   8587   8609     1
   8587   8598     1
   8587   8599     1
   8588   8592     1
   8588   8593     1
   8588   8607     1
   8588   8608     1
   8589   8591     1
   8589   8606     1
   8589   8601     1
   8589   8602     1
   8590   8591     1
   8590   8606     1
   8590   8601     1
   8590   8602     1
   8591   8604     1
   8591   8605     1
   8592   8603     1
   8592   8595     1
   8592   8596     1
   8593   8603     1
   8593   8595     1
   8593   8596     1
   8595   8612     1
   8595   8604     1
   8595   8605     1
   8596   8612     1
   8596   8604     1
   8596   8605     1
   8598  15987     1
   8598   8610     1
   8598   8611     1
   8599  15987     1
   8599   8610     1
   8599   8611     1
   8601  15964     1
   8601   8607     1
   8601   8608     1
   8602  15964     1
   8602   8607     1
   8602   8608     1
   8606  15963     1
   8607  15960     1
   8608  15960     1
   8609  15986     1
   8610  15983     1
   8611  15983     1
   8613   8627     1
   8613   8628     1
   8613   8630     1
   8613   8631     1
   8613   8624     1
   8613   8625     1
   8614   8618     1
   8614   8619     1
   8614   8621     1
   8614   8622     1
   8614   8639     1
   8614   8640     1
   8615   8617     1
   8615   8620     1
   8615   8638     1
   8615   8627     1
   8615   8628     1
   8616   8617     1
   8616   8620     1
   8616   8638     1
   8616   8627     1
   8616   8628     1
   8617   8621     1
   8617   8622     1
   8617   8636     1
   8617   8637     1
   8618   8620     1
   8618   8635     1
   8618   8630     1
   8618   8631     1
   8619   8620     1
   8619   8635     1
   8619   8630     1
   8619   8631     1
   8620   8633     1
   8620   8634     1
   8621   8632     1
   8621   8624     1
   8621   8625     1
   8622   8632     1
   8622   8624     1
   8622   8625     1
   8624   8641     1
   8624   8633     1
   8624   8634     1
   8625   8641     1
   8625   8633     1
   8625   8634     1
   8627  16033     1
   8627   8639     1
   8627   8640     1
   8628  16033     1
   8628   8639     1
   8628   8640     1
   8630  16010     1
   8630   8636     1
   8630   8637     1
   8631  16010     1
   8631   8636     1
   8631   8637     1
   8635  16009     1
   8636  16006     1
   8637  16006     1
   8638  16032     1
   8639  16029     1
   8640  16029     1
   8642   8656     1
   8642   8657     1
   8642   8659     1
   8642   8660     1
   8642   8653     1
   8642   8654     1
   8643   8647     1
   8643   8648     1
   8643   8650     1
   8643   8651     1
   8643   8668     1
   8643   8669     1
   8644   8646     1
   8644   8649     1
   8644   8667     1
   8644   8656     1
   8644   8657     1
   8645   8646     1
   8645   8649     1
   8645   8667     1
   8645   8656     1
   8645   8657     1
   8646   8650     1
   8646   8651     1
   8646   8665     1
   8646   8666     1
   8647   8649     1
   8647   8664     1
   8647   8659     1
   8647   8660     1
   8648   8649     1
   8648   8664     1
   8648   8659     1
   8648   8660     1
   8649   8662     1
   8649   8663     1
   8650   8661     1
   8650   8653     1
   8650   8654     1
   8651   8661     1
   8651   8653     1
   8651   8654     1
   8653   8670     1
   8653   8662     1
   8653   8663     1
   8654   8670     1
   8654   8662     1
   8654   8663     1
   8656  16079     1
   8656   8668     1
   8656   8669     1
   8657  16079     1
   8657   8668     1
   8657   8669     1
   8659  16056     1
   8659   8665     1
   8659   8666     1
   8660  16056     1
   8660   8665     1
   8660   8666     1
   8664  16055     1
   8665  16052     1
   8666  16052     1
   8667  16078     1
   8668  16075     1
   8669  16075     1
   8671   8685     1
   8671   8686     1
   8671   8688     1
   8671   8689     1
   8671   8682     1
   8671   8683     1
   8672   8676     1
   8672   8677     1
   8672   8679     1
   8672   8680     1
   8672   8697     1
   8672   8698     1
   8673   8675     1
   8673   8678     1
   8673   8696     1
   8673   8685     1
   8673   8686     1
   8674   8675     1
   8674   8678     1
   8674   8696     1
   8674   8685     1
   8674   8686     1
   8675   8679     1
   8675   8680     1
   8675   8694     1
   8675   8695     1
   8676   8678     1
   8676   8693     1
   8676   8688     1
   8676   8689     1
   8677   8678     1
   8677   8693     1
   8677   8688     1
   8677   8689     1
   8678   8691     1
   8678   8692     1
   8679   8690     1
   8679   8682     1
   8679   8683     1
   8680   8690     1
   8680   8682     1
   8680   8683     1
   8682   8699     1
   8682   8691     1
   8682   8692     1
   8683   8699     1
   8683   8691     1
   8683   8692     1
   8685  16125     1
   8685   8697     1
   8685   8698     1
   8686  16125     1
   8686   8697     1
   8686   8698     1
   8688  16102     1
   8688   8694     1
   8688   8695     1
   8689  16102     1
   8689   8694     1
   8689   8695     1
   8693  16101     1
   8694  16098     1
   8695  16098     1
   8696  16124     1
   8697  16121     1
   8698  16121     1
   8700   8714     1
   8700   8715     1
   8700   8717     1
   8700   8718     1
   8700   8711     1
   8700   8712     1
   8701   8705     1
   8701   8706     1
   8701   8708     1
   8701   8709     1
   8701   8726     1
   8701   8727     1
   8702   8704     1
   8702   8707     1
   8702   8725     1
   8702   8714     1
   8702   8715     1
   8703   8704     1
   8703   8707     1
   8703   8725     1
   8703   8714     1
   8703   8715     1
   8704   8708     1
   8704   8709     1
   8704   8723     1
   8704   8724     1
   8705   8707     1
   8705   8722     1
   8705   8717     1
   8705   8718     1
   8706   8707     1
   8706   8722     1
   8706   8717     1
   8706   8718     1
   8707   8720     1
   8707   8721     1
   8708   8719     1
   8708   8711     1
   8708   8712     1
   8709   8719     1
   8709   8711     1
   8709   8712     1
   8711   8728     1
   8711   8720     1
   8711   8721     1
   8712   8728     1
   8712   8720     1
   8712   8721     1
   8714  16171     1
   8714   8726     1
   8714   8727     1
   8715  16171     1
   8715   8726     1
   8715   8727     1
   8717  16148     1
   8717   8723     1
   8717   8724     1
   8718  16148     1
   8718   8723     1
   8718   8724     1
   8722  16147     1
   8723  16144     1
   8724  16144     1
   8725  16170     1
   8726  16167     1
   8727  16167     1
   8729   8743     1
   8729   8744     1
   8729   8746     1
   8729   8747     1
   8729   8740     1
   8729   8741     1
   8730   8734     1
   8730   8735     1
   8730   8737     1
   8730   8738     1
   8730   8755     1
   8730   8756     1
   8731   8733     1
   8731   8736     1
   8731   8754     1
   8731   8743     1
   8731   8744     1
   8732   8733     1
   8732   8736     1
   8732   8754     1
   8732   8743     1
   8732   8744     1
   8733   8737     1
   8733   8738     1
   8733   8752     1
   8733   8753     1
   8734   8736     1
   8734   8751     1
   8734   8746     1
   8734   8747     1
   8735   8736     1
   8735   8751     1
   8735   8746     1
   8735   8747     1
   8736   8749     1
   8736   8750     1
   8737   8748     1
   8737   8740     1
   8737   8741     1
   8738   8748     1
   8738   8740     1
   8738   8741     1
   8740   8757     1
   8740   8749     1
   8740   8750     1
   8741   8757     1
   8741   8749     1
   8741   8750     1
   8743  16217     1
   8743   8755     1
   8743   8756     1
   8744  16217     1
   8744   8755     1
   8744   8756     1
   8746  16194     1
   8746   8752     1
   8746   8753     1
   8747  16194     1
   8747   8752     1
   8747   8753     1
   8751  16193     1
   8752  16190     1
   8753  16190     1
   8754  16216     1
   8755  16213     1
   8756  16213     1
   8758   8772     1
   8758   8773     1
   8758   8775     1
   8758   8776     1
   8758   8769     1
   8758   8770     1
   8759   8763     1
   8759   8764     1
   8759   8766     1
   8759   8767     1
   8759   8784     1
   8759   8785     1
   8760   8762     1
   8760   8765     1
   8760   8783     1
   8760   8772     1
   8760   8773     1
   8761   8762     1
   8761   8765     1
   8761   8783     1
   8761   8772     1
   8761   8773     1
   8762   8766     1
   8762   8767     1
   8762   8781     1
   8762   8782     1
   8763   8765     1
   8763   8780     1
   8763   8775     1
   8763   8776     1
   8764   8765     1
   8764   8780     1
   8764   8775     1
   8764   8776     1
   8765   8778     1
   8765   8779     1
   8766   8777     1
   8766   8769     1
   8766   8770     1
   8767   8777     1
   8767   8769     1
   8767   8770     1
   8769   8786     1
   8769   8778     1
   8769   8779     1
   8770   8786     1
   8770   8778     1
   8770   8779     1
   8772  16263     1
   8772   8784     1
   8772   8785     1
   8773  16263     1
   8773   8784     1
   8773   8785     1
   8775  16240     1
   8775   8781     1
   8775   8782     1
   8776  16240     1
   8776   8781     1
   8776   8782     1
   8780  16239     1
   8781  16236     1
   8782  16236     1
   8783  16262     1
   8784  16259     1
   8785  16259     1
   8787   8801     1
   8787   8802     1
   8787   8804     1
   8787   8805     1
   8787   8798     1
   8787   8799     1
   8788   8792     1
   8788   8793     1
   8788   8795     1
   8788   8796     1
   8788   8813     1
   8788   8814     1
   8789   8791     1
   8789   8794     1
   8789   8812     1
   8789   8801     1
   8789   8802     1
   8790   8791     1
   8790   8794     1
   8790   8812     1
   8790   8801     1
   8790   8802     1
   8791   8795     1
   8791   8796     1
   8791   8810     1
   8791   8811     1
   8792   8794     1
   8792   8809     1
   8792   8804     1
   8792   8805     1
   8793   8794     1
   8793   8809     1
   8793   8804     1
   8793   8805     1
   8794   8807     1
   8794   8808     1
   8795   8806     1
   8795   8798     1
   8795   8799     1
   8796   8806     1
   8796   8798     1
   8796   8799     1
   8798   8815     1
   8798   8807     1
   8798   8808     1
   8799   8815     1
   8799   8807     1
   8799   8808     1
   8801  16309     1
   8801   8813     1
   8801   8814     1
   8802  16309     1
   8802   8813     1
   8802   8814     1
   8804  16286     1
   8804   8810     1
   8804   8811     1
   8805  16286     1
   8805   8810     1
   8805   8811     1
   8809  16285     1
   8810  16282     1
   8811  16282     1
   8812  16308     1
   8813  16305     1
   8814  16305     1
   8816   8830     1
   8816   8831     1
   8816   8833     1
   8816   8834     1
   8816   8827     1
   8816   8828     1
   8817   8821     1
   8817   8822     1
   8817   8824     1
   8817   8825     1
   8817   8842     1
   8817   8843     1
   8818   8820     1
   8818   8823     1
   8818   8841     1
   8818   8830     1
   8818   8831     1
   8819   8820     1
   8819   8823     1
   8819   8841     1
   8819   8830     1
   8819   8831     1
   8820   8824     1
   8820   8825     1
   8820   8839     1
   8820   8840     1
   8821   8823     1
   8821   8838     1
   8821   8833     1
   8821   8834     1
   8822   8823     1
   8822   8838     1
   8822   8833     1
   8822   8834     1
   8823   8836     1
   8823   8837     1
   8824   8835     1
   8824   8827     1
   8824   8828     1
   8825   8835     1
   8825   8827     1
   8825   8828     1
   8827   8844     1
   8827   8836     1
   8827   8837     1
   8828   8844     1
   8828   8836     1
   8828   8837     1
   8830  16355     1
   8830   8842     1
   8830   8843     1
   8831  16355     1
   8831   8842     1
   8831   8843     1
   8833  16332     1
   8833   8839     1
   8833   8840     1
   8834  16332     1
   8834   8839     1
   8834   8840     1
   8838  16331     1
   8839  16328     1
   8840  16328     1
   8841  16354     1
   8842  16351     1
   8843  16351     1
   8845   8859     1
   8845   8860     1
   8845   8862     1
   8845   8863     1
   8845   8856     1
   8845   8857     1
   8846   8850     1
   8846   8851     1
   8846   8853     1
   8846   8854     1
   8846   8871     1
   8846   8872     1
   8847   8849     1
   8847   8852     1
   8847   8870     1
   8847   8859     1
   8847   8860     1
   8848   8849     1
   8848   8852     1
   8848   8870     1
   8848   8859     1
   8848   8860     1
   8849   8853     1
   8849   8854     1
   8849   8868     1
   8849   8869     1
   8850   8852     1
   8850   8867     1
   8850   8862     1
   8850   8863     1
   8851   8852     1
   8851   8867     1
   8851   8862     1
   8851   8863     1
   8852   8865     1
   8852   8866     1
   8853   8864     1
   8853   8856     1
   8853   8857     1
   8854   8864     1
   8854   8856     1
   8854   8857     1
   8856   8873     1
   8856   8865     1
   8856   8866     1
   8857   8873     1
   8857   8865     1
   8857   8866     1
   8859  16401     1
   8859   8871     1
   8859   8872     1
   8860  16401     1
   8860   8871     1
   8860   8872     1
   8862  16378     1
   8862   8868     1
   8862   8869     1
   8863  16378     1
   8863   8868     1
   8863   8869     1
   8867  16377     1
   8868  16374     1
   8869  16374     1
   8870  16400     1
   8871  16397     1
   8872  16397     1
   8874   8888     1
   8874   8889     1
   8874   8891     1
   8874   8892     1
   8874   8885     1
   8874   8886     1
   8875   8879     1
   8875   8880     1
   8875   8882     1
   8875   8883     1
   8875   8900     1
   8875   8901     1
   8876   8878     1
   8876   8881     1
   8876   8899     1
   8876   8888     1
   8876   8889     1
   8877   8878     1
   8877   8881     1
   8877   8899     1
   8877   8888     1
   8877   8889     1
   8878   8882     1
   8878   8883     1
   8878   8897     1
   8878   8898     1
   8879   8881     1
   8879   8896     1
   8879   8891     1
   8879   8892     1
   8880   8881     1
   8880   8896     1
   8880   8891     1
   8880   8892     1
   8881   8894     1
   8881   8895     1
   8882   8893     1
   8882   8885     1
   8882   8886     1
   8883   8893     1
   8883   8885     1
   8883   8886     1
   8885   8902     1
   8885   8894     1
   8885   8895     1
   8886   8902     1
   8886   8894     1
   8886   8895     1
   8888  16447     1
   8888   8900     1
   8888   8901     1
   8889  16447     1
   8889   8900     1
   8889   8901     1
   8891  16424     1
   8891   8897     1
   8891   8898     1
   8892  16424     1
   8892   8897     1
   8892   8898     1
   8896  16423     1
   8897  16420     1
   8898  16420     1
   8899  16446     1
   8900  16443     1
   8901  16443     1
   8903   8917     1
   8903   8918     1
   8903   8920     1
   8903   8921     1
   8903   8914     1
   8903   8915     1
   8904   8908     1
   8904   8909     1
   8904   8911     1
   8904   8912     1
   8904   8929     1
   8904   8930     1
   8905   8907     1
   8905   8910     1
   8905   8928     1
   8905   8917     1
   8905   8918     1
   8906   8907     1
   8906   8910     1
   8906   8928     1
   8906   8917     1
   8906   8918     1
   8907   8911     1
   8907   8912     1
   8907   8926     1
   8907   8927     1
   8908   8910     1
   8908   8925     1
   8908   8920     1
   8908   8921     1
   8909   8910     1
   8909   8925     1
   8909   8920     1
   8909   8921     1
   8910   8923     1
   8910   8924     1
   8911   8922     1
   8911   8914     1
   8911   8915     1
   8912   8922     1
   8912   8914     1
   8912   8915     1
   8914   8931     1
   8914   8923     1
   8914   8924     1
   8915   8931     1
   8915   8923     1
   8915   8924     1
   8917  16493     1
   8917   8929     1
   8917   8930     1
   8918  16493     1
   8918   8929     1
   8918   8930     1
   8920  16470     1
   8920   8926     1
   8920   8927     1
   8921  16470     1
   8921   8926     1
   8921   8927     1
   8925  16469     1
   8926  16466     1
   8927  16466     1
   8928  16492     1
   8929  16489     1
   8930  16489     1
   8932   8946     1
   8932   8947     1
   8932   8949     1
   8932   8950     1
   8932   8943     1
   8932   8944     1
   8933   8937     1
   8933   8938     1
   8933   8940     1
   8933   8941     1
   8933   8958     1
   8933   8959     1
   8934   8936     1
   8934   8939     1
   8934   8957     1
   8934   8946     1
   8934   8947     1
   8935   8936     1
   8935   8939     1
   8935   8957     1
   8935   8946     1
   8935   8947     1
   8936   8940     1
   8936   8941     1
   8936   8955     1
   8936   8956     1
   8937   8939     1
   8937   8954     1
   8937   8949     1
   8937   8950     1
   8938   8939     1
   8938   8954     1
   8938   8949     1
   8938   8950     1
   8939   8952     1
   8939   8953     1
   8940   8951     1
   8940   8943     1
   8940   8944     1
   8941   8951     1
   8941   8943     1
   8941   8944     1
   8943   8960     1
   8943   8952     1
   8943   8953     1
   8944   8960     1
   8944   8952     1
   8944   8953     1
   8946  16539     1
   8946   8958     1
   8946   8959     1
   8947  16539     1
   8947   8958     1
   8947   8959     1
   8949  16516     1
   8949   8955     1
   8949   8956     1
   8950  16516     1
   8950   8955     1
   8950   8956     1
   8954  16515     1
   8955  16512     1
   8956  16512     1
   8957  16538     1
   8958  16535     1
   8959  16535     1
   8961   8975     1
   8961   8976     1
   8961   8978     1
   8961   8979     1
   8961   8972     1
   8961   8973     1
   8962   8966     1
   8962   8967     1
   8962   8969     1
   8962   8970     1
   8962   8987     1
   8962   8988     1
   8963   8965     1
   8963   8968     1
   8963   8986     1
   8963   8975     1
   8963   8976     1
   8964   8965     1
   8964   8968     1
   8964   8986     1
   8964   8975     1
   8964   8976     1
   8965   8969     1
   8965   8970     1
   8965   8984     1
   8965   8985     1
   8966   8968     1
   8966   8983     1
   8966   8978     1
   8966   8979     1
   8967   8968     1
   8967   8983     1
   8967   8978     1
   8967   8979     1
   8968   8981     1
   8968   8982     1
   8969   8980     1
   8969   8972     1
   8969   8973     1
   8970   8980     1
   8970   8972     1
   8970   8973     1
   8972   8989     1
   8972   8981     1
   8972   8982     1
   8973   8989     1
   8973   8981     1
   8973   8982     1
   8975  16585     1
   8975   8987     1
   8975   8988     1
   8976  16585     1
   8976   8987     1
   8976   8988     1
   8978  16562     1
   8978   8984     1
   8978   8985     1
   8979  16562     1
   8979   8984     1
   8979   8985     1
   8983  16561     1
   8984  16558     1
   8985  16558     1
   8986  16584     1
   8987  16581     1
   8988  16581     1
   8990   9004     1
   8990   9005     1
   8990   9007     1
   8990   9008     1
   8990   9001     1
   8990   9002     1
   8991   8995     1
   8991   8996     1
   8991   8998     1
   8991   8999     1
   8991   9016     1
   8991   9017     1
   8992   8994     1
   8992   8997     1
   8992   9015     1
   8992   9004     1
   8992   9005     1
   8993   8994     1
   8993   8997     1
   8993   9015     1
   8993   9004     1
   8993   9005     1
   8994   8998     1
   8994   8999     1
   8994   9013     1
   8994   9014     1
   8995   8997     1
   8995   9012     1
   8995   9007     1
   8995   9008     1
   8996   8997     1
   8996   9012     1
   8996   9007     1
   8996   9008     1
   8997   9010     1
   8997   9011     1
   8998   9009     1
   8998   9001     1
   8998   9002     1
   8999   9009     1
   8999   9001     1
   8999   9002     1
   9001   9018     1
   9001   9010     1
   9001   9011     1
   9002   9018     1
   9002   9010     1
   9002   9011     1
   9004  16631     1
   9004   9016     1
   9004   9017     1
   9005  16631     1
   9005   9016     1
   9005   9017     1
   9007  16608     1
   9007   9013     1
   9007   9014     1
   9008  16608     1
   9008   9013     1
   9008   9014     1
   9012  16607     1
   9013  16604     1
   9014  16604     1
   9015  16630     1
   9016  16627     1
   9017  16627     1
   9019   9033     1
   9019   9034     1
   9019   9036     1
   9019   9037     1
   9019   9030     1
   9019   9031     1
   9020   9024     1
   9020   9025     1
   9020   9027     1
   9020   9028     1
   9020   9045     1
   9020   9046     1
   9021   9023     1
   9021   9026     1
   9021   9044     1
   9021   9033     1
   9021   9034     1
   9022   9023     1
   9022   9026     1
   9022   9044     1
   9022   9033     1
   9022   9034     1
   9023   9027     1
   9023   9028     1
   9023   9042     1
   9023   9043     1
   9024   9026     1
   9024   9041     1
   9024   9036     1
   9024   9037     1
   9025   9026     1
   9025   9041     1
   9025   9036     1
   9025   9037     1
   9026   9039     1
   9026   9040     1
   9027   9038     1
   9027   9030     1
   9027   9031     1
   9028   9038     1
   9028   9030     1
   9028   9031     1
   9030   9047     1
   9030   9039     1
   9030   9040     1
   9031   9047     1
   9031   9039     1
   9031   9040     1
   9033  16677     1
   9033   9045     1
   9033   9046     1
   9034  16677     1
   9034   9045     1
   9034   9046     1
   9036  16654     1
   9036   9042     1
   9036   9043     1
   9037  16654     1
   9037   9042     1
   9037   9043     1
   9041  16653     1
   9042  16650     1
   9043  16650     1
   9044  16676     1
   9045  16673     1
   9046  16673     1
   9048   9062     1
   9048   9063     1
   9048   9065     1
   9048   9066     1
   9048   9059     1
   9048   9060     1
   9049   9053     1
   9049   9054     1
   9049   9056     1
   9049   9057     1
   9049   9074     1
   9049   9075     1
   9050   9052     1
   9050   9055     1
   9050   9073     1
   9050   9062     1
   9050   9063     1
   9051   9052     1
   9051   9055     1
   9051   9073     1
   9051   9062     1
   9051   9063     1
   9052   9056     1
   9052   9057     1
   9052   9071     1
   9052   9072     1
   9053   9055     1
   9053   9070     1
   9053   9065     1
   9053   9066     1
   9054   9055     1
   9054   9070     1
   9054   9065     1
   9054   9066     1
   9055   9068     1
   9055   9069     1
   9056   9067     1
   9056   9059     1
   9056   9060     1
   9057   9067     1
   9057   9059     1
   9057   9060     1
   9059   9076     1
   9059   9068     1
   9059   9069     1
   9060   9076     1
   9060   9068     1
   9060   9069     1
   9062  16723     1
   9062   9074     1
   9062   9075     1
   9063  16723     1
   9063   9074     1
   9063   9075     1
   9065  16700     1
   9065   9071     1
   9065   9072     1
   9066  16700     1
   9066   9071     1
   9066   9072     1
   9070  16699     1
   9071  16696     1
   9072  16696     1
   9073  16722     1
   9074  16719     1
   9075  16719     1
   9077   9091     1
   9077   9092     1
   9077   9094     1
   9077   9095     1
   9077   9088     1
   9077   9089     1
   9078   9082     1
   9078   9083     1
   9078   9085     1
   9078   9086     1
   9078   9103     1
   9078   9104     1
   9079   9081     1
   9079   9084     1
   9079   9102     1
   9079   9091     1
   9079   9092     1
   9080   9081     1
   9080   9084     1
   9080   9102     1
   9080   9091     1
   9080   9092     1
   9081   9085     1
   9081   9086     1
   9081   9100     1
   9081   9101     1
   9082   9084     1
   9082   9099     1
   9082   9094     1
   9082   9095     1
   9083   9084     1
   9083   9099     1
   9083   9094     1
   9083   9095     1
   9084   9097     1
   9084   9098     1
   9085   9096     1
   9085   9088     1
   9085   9089     1
   9086   9096     1
   9086   9088     1
   9086   9089     1
   9088   9105     1
   9088   9097     1
   9088   9098     1
   9089   9105     1
   9089   9097     1
   9089   9098     1
   9091  16769     1
   9091   9103     1
   9091   9104     1
   9092  16769     1
   9092   9103     1
   9092   9104     1
   9094  16746     1
   9094   9100     1
   9094   9101     1
   9095  16746     1
   9095   9100     1
   9095   9101     1
   9099  16745     1
   9100  16742     1
   9101  16742     1
   9102  16768     1
   9103  16765     1
   9104  16765     1
   9106   9120     1
   9106   9121     1
   9106   9123     1
   9106   9124     1
   9106   9117     1
   9106   9118     1
   9107   9111     1
   9107   9112     1
   9107   9114     1
   9107   9115     1
   9107   9132     1
   9107   9133     1
   9108   9110     1
   9108   9113     1
   9108   9131     1
   9108   9120     1
   9108   9121     1
   9109   9110     1
   9109   9113     1
   9109   9131     1
   9109   9120     1
   9109   9121     1
   9110   9114     1
   9110   9115     1
   9110   9129     1
   9110   9130     1
   9111   9113     1
   9111   9128     1
   9111   9123     1
   9111   9124     1
   9112   9113     1
   9112   9128     1
   9112   9123     1
   9112   9124     1
   9113   9126     1
   9113   9127     1
   9114   9125     1
   9114   9117     1
   9114   9118     1
   9115   9125     1
   9115   9117     1
   9115   9118     1
   9117   9134     1
   9117   9126     1
   9117   9127     1
   9118   9134     1
   9118   9126     1
   9118   9127     1
   9120  16815     1
   9120   9132     1
   9120   9133     1
   9121  16815     1
   9121   9132     1
   9121   9133     1
   9123  16792     1
   9123   9129     1
   9123   9130     1
   9124  16792     1
   9124   9129     1
   9124   9130     1
   9128  16791     1
   9129  16788     1
   9130  16788     1
   9131  16814     1
   9132  16811     1
   9133  16811     1
   9135   9149     1
   9135   9150     1
   9135   9152     1
   9135   9153     1
   9135   9146     1
   9135   9147     1
   9136   9140     1
   9136   9141     1
   9136   9143     1
   9136   9144     1
   9136   9161     1
   9136   9162     1
   9137   9139     1
   9137   9142     1
   9137   9160     1
   9137   9149     1
   9137   9150     1
   9138   9139     1
   9138   9142     1
   9138   9160     1
   9138   9149     1
   9138   9150     1
   9139   9143     1
   9139   9144     1
   9139   9158     1
   9139   9159     1
   9140   9142     1
   9140   9157     1
   9140   9152     1
   9140   9153     1
   9141   9142     1
   9141   9157     1
   9141   9152     1
   9141   9153     1
   9142   9155     1
   9142   9156     1
   9143   9154     1
   9143   9146     1
   9143   9147     1
   9144   9154     1
   9144   9146     1
   9144   9147     1
   9146   9163     1
   9146   9155     1
   9146   9156     1
   9147   9163     1
   9147   9155     1
   9147   9156     1
   9149  16861     1
   9149   9161     1
   9149   9162     1
   9150  16861     1
   9150   9161     1
   9150   9162     1
   9152  16838     1
   9152   9158     1
   9152   9159     1
   9153  16838     1
   9153   9158     1
   9153   9159     1
   9157  16837     1
   9158  16834     1
   9159  16834     1
   9160  16860     1
   9161  16857     1
   9162  16857     1
   9164   9178     1
   9164   9179     1
   9164   9181     1
   9164   9182     1
   9164   9175     1
   9164   9176     1
   9165   9169     1
   9165   9170     1
   9165   9172     1
   9165   9173     1
   9165   9190     1
   9165   9191     1
   9166   9168     1
   9166   9171     1
   9166   9189     1
   9166   9178     1
   9166   9179     1
   9167   9168     1
   9167   9171     1
   9167   9189     1
   9167   9178     1
   9167   9179     1
   9168   9172     1
   9168   9173     1
   9168   9187     1
   9168   9188     1
   9169   9171     1
   9169   9186     1
   9169   9181     1
   9169   9182     1
   9170   9171     1
   9170   9186     1
   9170   9181     1
   9170   9182     1
   9171   9184     1
   9171   9185     1
   9172   9183     1
   9172   9175     1
   9172   9176     1
   9173   9183     1
   9173   9175     1
   9173   9176     1
   9175   9192     1
   9175   9184     1
   9175   9185     1
   9176   9192     1
   9176   9184     1
   9176   9185     1
   9178  16907     1
   9178   9190     1
   9178   9191     1
   9179  16907     1
   9179   9190     1
   9179   9191     1
   9181  16884     1
   9181   9187     1
   9181   9188     1
   9182  16884     1
   9182   9187     1
   9182   9188     1
   9186  16883     1
   9187  16880     1
   9188  16880     1
   9189  16906     1
   9190  16903     1
   9191  16903     1
   9193   9207     1
   9193   9208     1
   9193   9210     1
   9193   9211     1
   9193   9204     1
   9193   9205     1
   9194   9198     1
   9194   9199     1
   9194   9201     1
   9194   9202     1
   9194   9219     1
   9194   9220     1
   9195   9197     1
   9195   9200     1
   9195   9218     1
   9195   9207     1
   9195   9208     1
   9196   9197     1
   9196   9200     1
   9196   9218     1
   9196   9207     1
   9196   9208     1
   9197   9201     1
   9197   9202     1
   9197   9216     1
   9197   9217     1
   9198   9200     1
   9198   9215     1
   9198   9210     1
   9198   9211     1
   9199   9200     1
   9199   9215     1
   9199   9210     1
   9199   9211     1
   9200   9213     1
   9200   9214     1
   9201   9212     1
   9201   9204     1
   9201   9205     1
   9202   9212     1
   9202   9204     1
   9202   9205     1
   9204   9221     1
   9204   9213     1
   9204   9214     1
   9205   9221     1
   9205   9213     1
   9205   9214     1
   9207  16953     1
   9207   9219     1
   9207   9220     1
   9208  16953     1
   9208   9219     1
   9208   9220     1
   9210  16930     1
   9210   9216     1
   9210   9217     1
   9211  16930     1
   9211   9216     1
   9211   9217     1
   9215  16929     1
   9216  16926     1
   9217  16926     1
   9218  16952     1
   9219  16949     1
   9220  16949     1
   9222   9236     1
   9222   9237     1
   9222   9239     1
   9222   9240     1
   9222   9233     1
   9222   9234     1
   9223   9227     1
   9223   9228     1
   9223   9230     1
   9223   9231     1
   9223   9248     1
   9223   9249     1
   9224   9226     1
   9224   9229     1
   9224   9247     1
   9224   9236     1
   9224   9237     1
   9225   9226     1
   9225   9229     1
   9225   9247     1
   9225   9236     1
   9225   9237     1
   9226   9230     1
   9226   9231     1
   9226   9245     1
   9226   9246     1
   9227   9229     1
   9227   9244     1
   9227   9239     1
   9227   9240     1
   9228   9229     1
   9228   9244     1
   9228   9239     1
   9228   9240     1
   9229   9242     1
   9229   9243     1
   9230   9241     1
   9230   9233     1
   9230   9234     1
   9231   9241     1
   9231   9233     1
   9231   9234     1
   9233   9250     1
   9233   9242     1
   9233   9243     1
   9234   9250     1
   9234   9242     1
   9234   9243     1
   9236  16999     1
   9236   9248     1
   9236   9249     1
   9237  16999     1
   9237   9248     1
   9237   9249     1
   9239  16976     1
   9239   9245     1
   9239   9246     1
   9240  16976     1
   9240   9245     1
   9240   9246     1
   9244  16975     1
   9245  16972     1
   9246  16972     1
   9247  16998     1
   9248  16995     1
   9249  16995     1
   9251   9265     1
   9251   9266     1
   9251   9268     1
   9251   9269     1
   9251   9262     1
   9251   9263     1
   9252   9256     1
   9252   9257     1
   9252   9259     1
   9252   9260     1
   9252   9277     1
   9252   9278     1
   9253   9255     1
   9253   9258     1
   9253   9276     1
   9253   9265     1
   9253   9266     1
   9254   9255     1
   9254   9258     1
   9254   9276     1
   9254   9265     1
   9254   9266     1
   9255   9259     1
   9255   9260     1
   9255   9274     1
   9255   9275     1
   9256   9258     1
   9256   9273     1
   9256   9268     1
   9256   9269     1
   9257   9258     1
   9257   9273     1
   9257   9268     1
   9257   9269     1
   9258   9271     1
   9258   9272     1
   9259   9270     1
   9259   9262     1
   9259   9263     1
   9260   9270     1
   9260   9262     1
   9260   9263     1
   9262   9279     1
   9262   9271     1
   9262   9272     1
   9263   9279     1
   9263   9271     1
   9263   9272     1
   9265  17045     1
   9265   9277     1
   9265   9278     1
   9266  17045     1
   9266   9277     1
   9266   9278     1
   9268  17022     1
   9268   9274     1
   9268   9275     1
   9269  17022     1
   9269   9274     1
   9269   9275     1
   9273  17021     1
   9274  17018     1
   9275  17018     1
   9276  17044     1
   9277  17041     1
   9278  17041     1
   9280   9294     1
   9280   9295     1
   9280   9297     1
   9280   9298     1
   9280   9291     1
   9280   9292     1
   9281   9285     1
   9281   9286     1
   9281   9288     1
   9281   9289     1
   9281   9306     1
   9281   9307     1
   9282   9284     1
   9282   9287     1
   9282   9305     1
   9282   9294     1
   9282   9295     1
   9283   9284     1
   9283   9287     1
   9283   9305     1
   9283   9294     1
   9283   9295     1
   9284   9288     1
   9284   9289     1
   9284   9303     1
   9284   9304     1
   9285   9287     1
   9285   9302     1
   9285   9297     1
   9285   9298     1
   9286   9287     1
   9286   9302     1
   9286   9297     1
   9286   9298     1
   9287   9300     1
   9287   9301     1
   9288   9299     1
   9288   9291     1
   9288   9292     1
   9289   9299     1
   9289   9291     1
   9289   9292     1
   9291   9308     1
   9291   9300     1
   9291   9301     1
   9292   9308     1
   9292   9300     1
   9292   9301     1
   9294  17091     1
   9294   9306     1
   9294   9307     1
   9295  17091     1
   9295   9306     1
   9295   9307     1
   9297  17068     1
   9297   9303     1
   9297   9304     1
   9298  17068     1
   9298   9303     1
   9298   9304     1
   9302  17067     1
   9303  17064     1
   9304  17064     1
   9305  17090     1
   9306  17087     1
   9307  17087     1
   9309   9323     1
   9309   9324     1
   9309   9326     1
   9309   9327     1
   9309   9320     1
   9309   9321     1
   9310   9314     1
   9310   9315     1
   9310   9317     1
   9310   9318     1
   9310   9335     1
   9310   9336     1
   9311   9313     1
   9311   9316     1
   9311   9334     1
   9311   9323     1
   9311   9324     1
   9312   9313     1
   9312   9316     1
   9312   9334     1
   9312   9323     1
   9312   9324     1
   9313   9317     1
   9313   9318     1
   9313   9332     1
   9313   9333     1
   9314   9316     1
   9314   9331     1
   9314   9326     1
   9314   9327     1
   9315   9316     1
   9315   9331     1
   9315   9326     1
   9315   9327     1
   9316   9329     1
   9316   9330     1
   9317   9328     1
   9317   9320     1
   9317   9321     1
   9318   9328     1
   9318   9320     1
   9318   9321     1
   9320   9337     1
   9320   9329     1
   9320   9330     1
   9321   9337     1
   9321   9329     1
   9321   9330     1
   9323  17137     1
   9323   9335     1
   9323   9336     1
   9324  17137     1
   9324   9335     1
   9324   9336     1
   9326  17114     1
   9326   9332     1
   9326   9333     1
   9327  17114     1
   9327   9332     1
   9327   9333     1
   9331  17113     1
   9332  17110     1
   9333  17110     1
   9334  17136     1
   9335  17133     1
   9336  17133     1
   9338   9352     1
   9338   9353     1
   9338   9355     1
   9338   9356     1
   9338   9349     1
   9338   9350     1
   9339   9343     1
   9339   9344     1
   9339   9346     1
   9339   9347     1
   9339   9364     1
   9339   9365     1
   9340   9342     1
   9340   9345     1
   9340   9363     1
   9340   9352     1
   9340   9353     1
   9341   9342     1
   9341   9345     1
   9341   9363     1
   9341   9352     1
   9341   9353     1
   9342   9346     1
   9342   9347     1
   9342   9361     1
   9342   9362     1
   9343   9345     1
   9343   9360     1
   9343   9355     1
   9343   9356     1
   9344   9345     1
   9344   9360     1
   9344   9355     1
   9344   9356     1
   9345   9358     1
   9345   9359     1
   9346   9357     1
   9346   9349     1
   9346   9350     1
   9347   9357     1
   9347   9349     1
   9347   9350     1
   9349   9366     1
   9349   9358     1
   9349   9359     1
   9350   9366     1
   9350   9358     1
   9350   9359     1
   9352  17183     1
   9352   9364     1
   9352   9365     1
   9353  17183     1
   9353   9364     1
   9353   9365     1
   9355  17160     1
   9355   9361     1
   9355   9362     1
   9356  17160     1
   9356   9361     1
   9356   9362     1
   9360  17159     1
   9361  17156     1
   9362  17156     1
   9363  17182     1
   9364  17179     1
   9365  17179     1
   9367   9381     1
   9367   9382     1
   9367   9384     1
   9367   9385     1
   9367   9378     1
   9367   9379     1
   9368   9372     1
   9368   9373     1
   9368   9375     1
   9368   9376     1
   9368   9393     1
   9368   9394     1
   9369   9371     1
   9369   9374     1
   9369   9392     1
   9369   9381     1
   9369   9382     1
   9370   9371     1
   9370   9374     1
   9370   9392     1
   9370   9381     1
   9370   9382     1
   9371   9375     1
   9371   9376     1
   9371   9390     1
   9371   9391     1
   9372   9374     1
   9372   9389     1
   9372   9384     1
   9372   9385     1
   9373   9374     1
   9373   9389     1
   9373   9384     1
   9373   9385     1
   9374   9387     1
   9374   9388     1
   9375   9386     1
   9375   9378     1
   9375   9379     1
   9376   9386     1
   9376   9378     1
   9376   9379     1
   9378   9395     1
   9378   9387     1
   9378   9388     1
   9379   9395     1
   9379   9387     1
   9379   9388     1
   9381  17229     1
   9381   9393     1
   9381   9394     1
   9382  17229     1
   9382   9393     1
   9382   9394     1
   9384  17206     1
   9384   9390     1
   9384   9391     1
   9385  17206     1
   9385   9390     1
   9385   9391     1
   9389  17205     1
   9390  17202     1
   9391  17202     1
   9392  17228     1
   9393  17225     1
   9394  17225     1
   9396   9410     1
   9396   9411     1
   9396   9413     1
   9396   9414     1
   9396   9407     1
   9396   9408     1
   9397   9401     1
   9397   9402     1
   9397   9404     1
   9397   9405     1
   9397   9422     1
   9397   9423     1
   9398   9400     1
   9398   9403     1
   9398   9421     1
   9398   9410     1
   9398   9411     1
   9399   9400     1
   9399   9403     1
   9399   9421     1
   9399   9410     1
   9399   9411     1
   9400   9404     1
   9400   9405     1
   9400   9419     1
   9400   9420     1
   9401   9403     1
   9401   9418     1
   9401   9413     1
   9401   9414     1
   9402   9403     1
   9402   9418     1
   9402   9413     1
   9402   9414     1
   9403   9416     1
   9403   9417     1
   9404   9415     1
   9404   9407     1
   9404   9408     1
   9405   9415     1
   9405   9407     1
   9405   9408     1
   9407   9424     1
   9407   9416     1
   9407   9417     1
   9408   9424     1
   9408   9416     1
   9408   9417     1
   9410  17275     1
   9410   9422     1
   9410   9423     1
   9411  17275     1
   9411   9422     1
   9411   9423     1
   9413  17252     1
   9413   9419     1
   9413   9420     1
   9414  17252     1
   9414   9419     1
   9414   9420     1
   9418  17251     1
   9419  17248     1
   9420  17248     1
   9421  17274     1
   9422  17271     1
   9423  17271     1
   9425   9439     1
   9425   9440     1
   9425   9442     1
   9425   9443     1
   9425   9436     1
   9425   9437     1
   9426   9430     1
   9426   9431     1
   9426   9433     1
   9426   9434     1
   9426   9451     1
   9426   9452     1
   9427   9429     1
   9427   9432     1
   9427   9450     1
   9427   9439     1
   9427   9440     1
   9428   9429     1
   9428   9432     1
   9428   9450     1
   9428   9439     1
   9428   9440     1
   9429   9433     1
   9429   9434     1
   9429   9448     1
   9429   9449     1
   9430   9432     1
   9430   9447     1
   9430   9442     1
   9430   9443     1
   9431   9432     1
   9431   9447     1
   9431   9442     1
   9431   9443     1
   9432   9445     1
   9432   9446     1
   9433   9444     1
   9433   9436     1
   9433   9437     1
   9434   9444     1
   9434   9436     1
   9434   9437     1
   9436   9453     1
   9436   9445     1
   9436   9446     1
   9437   9453     1
   9437   9445     1
   9437   9446     1
   9439  17321     1
   9439   9451     1
   9439   9452     1
   9440  17321     1
   9440   9451     1
   9440   9452     1
   9442  17298     1
   9442   9448     1
   9442   9449     1
   9443  17298     1
   9443   9448     1
   9443   9449     1
   9447  17297     1
   9448  17294     1
   9449  17294     1
   9450  17320     1
   9451  17317     1
   9452  17317     1
   9454   9468     1
   9454   9469     1
   9454   9471     1
   9454   9472     1
   9454   9465     1
   9454   9466     1
   9455   9459     1
   9455   9460     1
   9455   9462     1
   9455   9463     1
   9455   9480     1
   9455   9481     1
   9456   9458     1
   9456   9461     1
   9456   9479     1
   9456   9468     1
   9456   9469     1
   9457   9458     1
   9457   9461     1
   9457   9479     1
   9457   9468     1
   9457   9469     1
   9458   9462     1
   9458   9463     1
   9458   9477     1
   9458   9478     1
   9459   9461     1
   9459   9476     1
   9459   9471     1
   9459   9472     1
   9460   9461     1
   9460   9476     1
   9460   9471     1
   9460   9472     1
   9461   9474     1
   9461   9475     1
   9462   9473     1
   9462   9465     1
   9462   9466     1
   9463   9473     1
   9463   9465     1
   9463   9466     1
   9465   9482     1
   9465   9474     1
   9465   9475     1
   9466   9482     1
   9466   9474     1
   9466   9475     1
   9468  17367     1
   9468   9480     1
   9468   9481     1
   9469  17367     1
   9469   9480     1
   9469   9481     1
   9471  17344     1
   9471   9477     1
   9471   9478     1
   9472  17344     1
   9472   9477     1
   9472   9478     1
   9476  17343     1
   9477  17340     1
   9478  17340     1
   9479  17366     1
   9480  17363     1
   9481  17363     1
   9483   9497     1
   9483   9498     1
   9483   9500     1
   9483   9501     1
   9483   9494     1
   9483   9495     1
   9484   9488     1
   9484   9489     1
   9484   9491     1
   9484   9492     1
   9484   9509     1
   9484   9510     1
   9485   9487     1
   9485   9490     1
   9485   9508     1
   9485   9497     1
   9485   9498     1
   9486   9487     1
   9486   9490     1
   9486   9508     1
   9486   9497     1
   9486   9498     1
   9487   9491     1
   9487   9492     1
   9487   9506     1
   9487   9507     1
   9488   9490     1
   9488   9505     1
   9488   9500     1
   9488   9501     1
   9489   9490     1
   9489   9505     1
   9489   9500     1
   9489   9501     1
   9490   9503     1
   9490   9504     1
   9491   9502     1
   9491   9494     1
   9491   9495     1
   9492   9502     1
   9492   9494     1
   9492   9495     1
   9494   9511     1
   9494   9503     1
   9494   9504     1
   9495   9511     1
   9495   9503     1
   9495   9504     1
   9497  17413     1
   9497   9509     1
   9497   9510     1
   9498  17413     1
   9498   9509     1
   9498   9510     1
   9500  17390     1
   9500   9506     1
   9500   9507     1
   9501  17390     1
   9501   9506     1
   9501   9507     1
   9505  17389     1
   9506  17386     1
   9507  17386     1
   9508  17412     1
   9509  17409     1
   9510  17409     1
   9512   9526     1
   9512   9527     1
   9512   9529     1
   9512   9530     1
   9512   9523     1
   9512   9524     1
   9513   9517     1
   9513   9518     1
   9513   9520     1
   9513   9521     1
   9513   9538     1
   9513   9539     1
   9514   9516     1
   9514   9519     1
   9514   9537     1
   9514   9526     1
   9514   9527     1
   9515   9516     1
   9515   9519     1
   9515   9537     1
   9515   9526     1
   9515   9527     1
   9516   9520     1
   9516   9521     1
   9516   9535     1
   9516   9536     1
   9517   9519     1
   9517   9534     1
   9517   9529     1
   9517   9530     1
   9518   9519     1
   9518   9534     1
   9518   9529     1
   9518   9530     1
   9519   9532     1
   9519   9533     1
   9520   9531     1
   9520   9523     1
   9520   9524     1
   9521   9531     1
   9521   9523     1
   9521   9524     1
   9523   9540     1
   9523   9532     1
   9523   9533     1
   9524   9540     1
   9524   9532     1
   9524   9533     1
   9526  17459     1
   9526   9538     1
   9526   9539     1
   9527  17459     1
   9527   9538     1
   9527   9539     1
   9529  17436     1
   9529   9535     1
   9529   9536     1
   9530  17436     1
   9530   9535     1
   9530   9536     1
   9534  17435     1
   9535  17432     1
   9536  17432     1
   9537  17458     1
   9538  17455     1
   9539  17455     1
   9541   9555     1
   9541   9556     1
   9541   9558     1
   9541   9559     1
   9541   9552     1
   9541   9553     1
   9542   9546     1
   9542   9547     1
   9542   9549     1
   9542   9550     1
   9542   9567     1
   9542   9568     1
   9543   9545     1
   9543   9548     1
   9543   9566     1
   9543   9555     1
   9543   9556     1
   9544   9545     1
   9544   9548     1
   9544   9566     1
   9544   9555     1
   9544   9556     1
   9545   9549     1
   9545   9550     1
   9545   9564     1
   9545   9565     1
   9546   9548     1
   9546   9563     1
   9546   9558     1
   9546   9559     1
   9547   9548     1
   9547   9563     1
   9547   9558     1
   9547   9559     1
   9548   9561     1
   9548   9562     1
   9549   9560     1
   9549   9552     1
   9549   9553     1
   9550   9560     1
   9550   9552     1
   9550   9553     1
   9552   9569     1
   9552   9561     1
   9552   9562     1
   9553   9569     1
   9553   9561     1
   9553   9562     1
   9555  17505     1
   9555   9567     1
   9555   9568     1
   9556  17505     1
   9556   9567     1
   9556   9568     1
   9558  17482     1
   9558   9564     1
   9558   9565     1
   9559  17482     1
   9559   9564     1
   9559   9565     1
   9563  17481     1
   9564  17478     1
   9565  17478     1
   9566  17504     1
   9567  17501     1
   9568  17501     1
   9570   9584     1
   9570   9585     1
   9570   9587     1
   9570   9588     1
   9570   9581     1
   9570   9582     1
   9571   9575     1
   9571   9576     1
   9571   9578     1
   9571   9579     1
   9571   9596     1
   9571   9597     1
   9572   9574     1
   9572   9577     1
   9572   9595     1
   9572   9584     1
   9572   9585     1
   9573   9574     1
   9573   9577     1
   9573   9595     1
   9573   9584     1
   9573   9585     1
   9574   9578     1
   9574   9579     1
   9574   9593     1
   9574   9594     1
   9575   9577     1
   9575   9592     1
   9575   9587     1
   9575   9588     1
   9576   9577     1
   9576   9592     1
   9576   9587     1
   9576   9588     1
   9577   9590     1
   9577   9591     1
   9578   9589     1
   9578   9581     1
   9578   9582     1
   9579   9589     1
   9579   9581     1
   9579   9582     1
   9581   9598     1
   9581   9590     1
   9581   9591     1
   9582   9598     1
   9582   9590     1
   9582   9591     1
   9584  17551     1
   9584   9596     1
   9584   9597     1
   9585  17551     1
   9585   9596     1
   9585   9597     1
   9587  17528     1
   9587   9593     1
   9587   9594     1
   9588  17528     1
   9588   9593     1
   9588   9594     1
   9592  17527     1
   9593  17524     1
   9594  17524     1
   9595  17550     1
   9596  17547     1
   9597  17547     1
   9599   9613     1
   9599   9614     1
   9599   9616     1
   9599   9617     1
   9599   9610     1
   9599   9611     1
   9600   9604     1
   9600   9605     1
   9600   9607     1
   9600   9608     1
   9600   9625     1
   9600   9626     1
   9601   9603     1
   9601   9606     1
   9601   9624     1
   9601   9613     1
   9601   9614     1
   9602   9603     1
   9602   9606     1
   9602   9624     1
   9602   9613     1
   9602   9614     1
   9603   9607     1
   9603   9608     1
   9603   9622     1
   9603   9623     1
   9604   9606     1
   9604   9621     1
   9604   9616     1
   9604   9617     1
   9605   9606     1
   9605   9621     1
   9605   9616     1
   9605   9617     1
   9606   9619     1
   9606   9620     1
   9607   9618     1
   9607   9610     1
   9607   9611     1
   9608   9618     1
   9608   9610     1
   9608   9611     1
   9610   9627     1
   9610   9619     1
   9610   9620     1
   9611   9627     1
   9611   9619     1
   9611   9620     1
   9613  17597     1
   9613   9625     1
   9613   9626     1
   9614  17597     1
   9614   9625     1
   9614   9626     1
   9616  17574     1
   9616   9622     1
   9616   9623     1
   9617  17574     1
   9617   9622     1
   9617   9623     1
   9621  17573     1
   9622  17570     1
   9623  17570     1
   9624  17596     1
   9625  17593     1
   9626  17593     1
   9628   9642     1
   9628   9643     1
   9628   9645     1
   9628   9646     1
   9628   9639     1
   9628   9640     1
   9629   9633     1
   9629   9634     1
   9629   9636     1
   9629   9637     1
   9629   9654     1
   9629   9655     1
   9630   9632     1
   9630   9635     1
   9630   9653     1
   9630   9642     1
   9630   9643     1
   9631   9632     1
   9631   9635     1
   9631   9653     1
   9631   9642     1
   9631   9643     1
   9632   9636     1
   9632   9637     1
   9632   9651     1
   9632   9652     1
   9633   9635     1
   9633   9650     1
   9633   9645     1
   9633   9646     1
   9634   9635     1
   9634   9650     1
   9634   9645     1
   9634   9646     1
   9635   9648     1
   9635   9649     1
   9636   9647     1
   9636   9639     1
   9636   9640     1
   9637   9647     1
   9637   9639     1
   9637   9640     1
   9639   9656     1
   9639   9648     1
   9639   9649     1
   9640   9656     1
   9640   9648     1
   9640   9649     1
   9642  17643     1
   9642   9654     1
   9642   9655     1
   9643  17643     1
   9643   9654     1
   9643   9655     1
   9645  17620     1
   9645   9651     1
   9645   9652     1
   9646  17620     1
   9646   9651     1
   9646   9652     1
   9650  17619     1
   9651  17616     1
   9652  17616     1
   9653  17642     1
   9654  17639     1
   9655  17639     1
   9657   9671     1
   9657   9672     1
   9657   9674     1
   9657   9675     1
   9657   9668     1
   9657   9669     1
   9658   9662     1
   9658   9663     1
   9658   9665     1
   9658   9666     1
   9658   9683     1
   9658   9684     1
   9659   9661     1
   9659   9664     1
   9659   9682     1
   9659   9671     1
   9659   9672     1
   9660   9661     1
   9660   9664     1
   9660   9682     1
   9660   9671     1
   9660   9672     1
   9661   9665     1
   9661   9666     1
   9661   9680     1
   9661   9681     1
   9662   9664     1
   9662   9679     1
   9662   9674     1
   9662   9675     1
   9663   9664     1
   9663   9679     1
   9663   9674     1
   9663   9675     1
   9664   9677     1
   9664   9678     1
   9665   9676     1
   9665   9668     1
   9665   9669     1
   9666   9676     1
   9666   9668     1
   9666   9669     1
   9668   9685     1
   9668   9677     1
   9668   9678     1
   9669   9685     1
   9669   9677     1
   9669   9678     1
   9671  17689     1
   9671   9683     1
   9671   9684     1
   9672  17689     1
   9672   9683     1
   9672   9684     1
   9674  17666     1
   9674   9680     1
   9674   9681     1
   9675  17666     1
   9675   9680     1
   9675   9681     1
   9679  17665     1
   9680  17662     1
   9681  17662     1
   9682  17688     1
   9683  17685     1
   9684  17685     1
   9686   9700     1
   9686   9701     1
   9686   9703     1
   9686   9704     1
   9686   9697     1
   9686   9698     1
   9687   9691     1
   9687   9692     1
   9687   9694     1
   9687   9695     1
   9687   9712     1
   9687   9713     1
   9688   9690     1
   9688   9693     1
   9688   9711     1
   9688   9700     1
   9688   9701     1
   9689   9690     1
   9689   9693     1
   9689   9711     1
   9689   9700     1
   9689   9701     1
   9690   9694     1
   9690   9695     1
   9690   9709     1
   9690   9710     1
   9691   9693     1
   9691   9708     1
   9691   9703     1
   9691   9704     1
   9692   9693     1
   9692   9708     1
   9692   9703     1
   9692   9704     1
   9693   9706     1
   9693   9707     1
   9694   9705     1
   9694   9697     1
   9694   9698     1
   9695   9705     1
   9695   9697     1
   9695   9698     1
   9697   9714     1
   9697   9706     1
   9697   9707     1
   9698   9714     1
   9698   9706     1
   9698   9707     1
   9700  17735     1
   9700   9712     1
   9700   9713     1
   9701  17735     1
   9701   9712     1
   9701   9713     1
   9703  17712     1
   9703   9709     1
   9703   9710     1
   9704  17712     1
   9704   9709     1
   9704   9710     1
   9708  17711     1
   9709  17708     1
   9710  17708     1
   9711  17734     1
   9712  17731     1
   9713  17731     1
   9715   9729     1
   9715   9730     1
   9715   9732     1
   9715   9733     1
   9715   9726     1
   9715   9727     1
   9716   9720     1
   9716   9721     1
   9716   9723     1
   9716   9724     1
   9716   9741     1
   9716   9742     1
   9717   9719     1
   9717   9722     1
   9717   9740     1
   9717   9729     1
   9717   9730     1
   9718   9719     1
   9718   9722     1
   9718   9740     1
   9718   9729     1
   9718   9730     1
   9719   9723     1
   9719   9724     1
   9719   9738     1
   9719   9739     1
   9720   9722     1
   9720   9737     1
   9720   9732     1
   9720   9733     1
   9721   9722     1
   9721   9737     1
   9721   9732     1
   9721   9733     1
   9722   9735     1
   9722   9736     1
   9723   9734     1
   9723   9726     1
   9723   9727     1
   9724   9734     1
   9724   9726     1
   9724   9727     1
   9726   9743     1
   9726   9735     1
   9726   9736     1
   9727   9743     1
   9727   9735     1
   9727   9736     1
   9729  17781     1
   9729   9741     1
   9729   9742     1
   9730  17781     1
   9730   9741     1
   9730   9742     1
   9732  17758     1
   9732   9738     1
   9732   9739     1
   9733  17758     1
   9733   9738     1
   9733   9739     1
   9737  17757     1
   9738  17754     1
   9739  17754     1
   9740  17780     1
   9741  17777     1
   9742  17777     1
   9744   9758     1
   9744   9759     1
   9744   9761     1
   9744   9762     1
   9744   9755     1
   9744   9756     1
   9745   9749     1
   9745   9750     1
   9745   9752     1
   9745   9753     1
   9745   9770     1
   9745   9771     1
   9746   9748     1
   9746   9751     1
   9746   9769     1
   9746   9758     1
   9746   9759     1
   9747   9748     1
   9747   9751     1
   9747   9769     1
   9747   9758     1
   9747   9759     1
   9748   9752     1
   9748   9753     1
   9748   9767     1
   9748   9768     1
   9749   9751     1
   9749   9766     1
   9749   9761     1
   9749   9762     1
   9750   9751     1
   9750   9766     1
   9750   9761     1
   9750   9762     1
   9751   9764     1
   9751   9765     1
   9752   9763     1
   9752   9755     1
   9752   9756     1
   9753   9763     1
   9753   9755     1
   9753   9756     1
   9755   9772     1
   9755   9764     1
   9755   9765     1
   9756   9772     1
   9756   9764     1
   9756   9765     1
   9758  17827     1
   9758   9770     1
   9758   9771     1
   9759  17827     1
   9759   9770     1
   9759   9771     1
   9761  17804     1
   9761   9767     1
   9761   9768     1
   9762  17804     1
   9762   9767     1
   9762   9768     1
   9766  17803     1
   9767  17800     1
   9768  17800     1
   9769  17826     1
   9770  17823     1
   9771  17823     1
   9773   9787     1
   9773   9788     1
   9773   9790     1
   9773   9791     1
   9773   9784     1
   9773   9785     1
   9774   9778     1
   9774   9779     1
   9774   9781     1
   9774   9782     1
   9774   9799     1
   9774   9800     1
   9775   9777     1
   9775   9780     1
   9775   9798     1
   9775   9787     1
   9775   9788     1
   9776   9777     1
   9776   9780     1
   9776   9798     1
   9776   9787     1
   9776   9788     1
   9777   9781     1
   9777   9782     1
   9777   9796     1
   9777   9797     1
   9778   9780     1
   9778   9795     1
   9778   9790     1
   9778   9791     1
   9779   9780     1
   9779   9795     1
   9779   9790     1
   9779   9791     1
   9780   9793     1
   9780   9794     1
   9781   9792     1
   9781   9784     1
   9781   9785     1
   9782   9792     1
   9782   9784     1
   9782   9785     1
   9784   9801     1
   9784   9793     1
   9784   9794     1
   9785   9801     1
   9785   9793     1
   9785   9794     1
   9787  17873     1
   9787   9799     1
   9787   9800     1
   9788  17873     1
   9788   9799     1
   9788   9800     1
   9790  17850     1
   9790   9796     1
   9790   9797     1
   9791  17850     1
   9791   9796     1
   9791   9797     1
   9795  17849     1
   9796  17846     1
   9797  17846     1
   9798  17872     1
   9799  17869     1
   9800  17869     1
   9802   9816     1
   9802   9817     1
   9802   9819     1
   9802   9820     1
   9802   9813     1
   9802   9814     1
   9803   9807     1
   9803   9808     1
   9803   9810     1
   9803   9811     1
   9803   9828     1
   9803   9829     1
   9804   9806     1
   9804   9809     1
   9804   9827     1
   9804   9816     1
   9804   9817     1
   9805   9806     1
   9805   9809     1
   9805   9827     1
   9805   9816     1
   9805   9817     1
   9806   9810     1
   9806   9811     1
   9806   9825     1
   9806   9826     1
   9807   9809     1
   9807   9824     1
   9807   9819     1
   9807   9820     1
   9808   9809     1
   9808   9824     1
   9808   9819     1
   9808   9820     1
   9809   9822     1
   9809   9823     1
   9810   9821     1
   9810   9813     1
   9810   9814     1
   9811   9821     1
   9811   9813     1
   9811   9814     1
   9813   9830     1
   9813   9822     1
   9813   9823     1
   9814   9830     1
   9814   9822     1
   9814   9823     1
   9816  17919     1
   9816   9828     1
   9816   9829     1
   9817  17919     1
   9817   9828     1
   9817   9829     1
   9819  17896     1
   9819   9825     1
   9819   9826     1
   9820  17896     1
   9820   9825     1
   9820   9826     1
   9824  17895     1
   9825  17892     1
   9826  17892     1
   9827  17918     1
   9828  17915     1
   9829  17915     1
   9831   9845     1
   9831   9846     1
   9831   9848     1
   9831   9849     1
   9831   9842     1
   9831   9843     1
   9832   9836     1
   9832   9837     1
   9832   9839     1
   9832   9840     1
   9832   9857     1
   9832   9858     1
   9833   9835     1
   9833   9838     1
   9833   9856     1
   9833   9845     1
   9833   9846     1
   9834   9835     1
   9834   9838     1
   9834   9856     1
   9834   9845     1
   9834   9846     1
   9835   9839     1
   9835   9840     1
   9835   9854     1
   9835   9855     1
   9836   9838     1
   9836   9853     1
   9836   9848     1
   9836   9849     1
   9837   9838     1
   9837   9853     1
   9837   9848     1
   9837   9849     1
   9838   9851     1
   9838   9852     1
   9839   9850     1
   9839   9842     1
   9839   9843     1
   9840   9850     1
   9840   9842     1
   9840   9843     1
   9842   9859     1
   9842   9851     1
   9842   9852     1
   9843   9859     1
   9843   9851     1
   9843   9852     1
   9845  17965     1
   9845   9857     1
   9845   9858     1
   9846  17965     1
   9846   9857     1
   9846   9858     1
   9848  17942     1
   9848   9854     1
   9848   9855     1
   9849  17942     1
   9849   9854     1
   9849   9855     1
   9853  17941     1
   9854  17938     1
   9855  17938     1
   9856  17964     1
   9857  17961     1
   9858  17961     1
   9860   9874     1
   9860   9875     1
   9860   9877     1
   9860   9878     1
   9860   9871     1
   9860   9872     1
   9861   9865     1
   9861   9866     1
   9861   9868     1
   9861   9869     1
   9861   9886     1
   9861   9887     1
   9862   9864     1
   9862   9867     1
   9862   9885     1
   9862   9874     1
   9862   9875     1
   9863   9864     1
   9863   9867     1
   9863   9885     1
   9863   9874     1
   9863   9875     1
   9864   9868     1
   9864   9869     1
   9864   9883     1
   9864   9884     1
   9865   9867     1
   9865   9882     1
   9865   9877     1
   9865   9878     1
   9866   9867     1
   9866   9882     1
   9866   9877     1
   9866   9878     1
   9867   9880     1
   9867   9881     1
   9868   9879     1
   9868   9871     1
   9868   9872     1
   9869   9879     1
   9869   9871     1
   9869   9872     1
   9871   9888     1
   9871   9880     1
   9871   9881     1
   9872   9888     1
   9872   9880     1
   9872   9881     1
   9874  18011     1
   9874   9886     1
   9874   9887     1
   9875  18011     1
   9875   9886     1
   9875   9887     1
   9877  17988     1
   9877   9883     1
   9877   9884     1
   9878  17988     1
   9878   9883     1
   9878   9884     1
   9882  17987     1
   9883  17984     1
   9884  17984     1
   9885  18010     1
   9886  18007     1
   9887  18007     1
   9889   9903     1
   9889   9904     1
   9889   9906     1
   9889   9907     1
   9889   9900     1
   9889   9901     1
   9890   9894     1
   9890   9895     1
   9890   9897     1
   9890   9898     1
   9890   9915     1
   9890   9916     1
   9891   9893     1
   9891   9896     1
   9891   9914     1
   9891   9903     1
   9891   9904     1
   9892   9893     1
   9892   9896     1
   9892   9914     1
   9892   9903     1
   9892   9904     1
   9893   9897     1
   9893   9898     1
   9893   9912     1
   9893   9913     1
   9894   9896     1
   9894   9911     1
   9894   9906     1
   9894   9907     1
   9895   9896     1
   9895   9911     1
   9895   9906     1
   9895   9907     1
   9896   9909     1
   9896   9910     1
   9897   9908     1
   9897   9900     1
   9897   9901     1
   9898   9908     1
   9898   9900     1
   9898   9901     1
   9900   9917     1
   9900   9909     1
   9900   9910     1
   9901   9917     1
   9901   9909     1
   9901   9910     1
   9903  18057     1
   9903   9915     1
   9903   9916     1
   9904  18057     1
   9904   9915     1
   9904   9916     1
   9906  18034     1
   9906   9912     1
   9906   9913     1
   9907  18034     1
   9907   9912     1
   9907   9913     1
   9911  18033     1
   9912  18030     1
   9913  18030     1
   9914  18056     1
   9915  18053     1
   9916  18053     1
   9918   9932     1
   9918   9933     1
   9918   9935     1
   9918   9936     1
   9918   9929     1
   9918   9930     1
   9919   9923     1
   9919   9924     1
   9919   9926     1
   9919   9927     1
   9919   9944     1
   9919   9945     1
   9920   9922     1
   9920   9925     1
   9920   9943     1
   9920   9932     1
   9920   9933     1
   9921   9922     1
   9921   9925     1
   9921   9943     1
   9921   9932     1
   9921   9933     1
   9922   9926     1
   9922   9927     1
   9922   9941     1
   9922   9942     1
   9923   9925     1
   9923   9940     1
   9923   9935     1
   9923   9936     1
   9924   9925     1
   9924   9940     1
   9924   9935     1
   9924   9936     1
   9925   9938     1
   9925   9939     1
   9926   9937     1
   9926   9929     1
   9926   9930     1
   9927   9937     1
   9927   9929     1
   9927   9930     1
   9929   9946     1
   9929   9938     1
   9929   9939     1
   9930   9946     1
   9930   9938     1
   9930   9939     1
   9932  18103     1
   9932   9944     1
   9932   9945     1
   9933  18103     1
   9933   9944     1
   9933   9945     1
   9935  18080     1
   9935   9941     1
   9935   9942     1
   9936  18080     1
   9936   9941     1
   9936   9942     1
   9940  18079     1
   9941  18076     1
   9942  18076     1
   9943  18102     1
   9944  18099     1
   9945  18099     1
   9947   9961     1
   9947   9962     1
   9947   9964     1
   9947   9965     1
   9947   9958     1
   9947   9959     1
   9948   9952     1
   9948   9953     1
   9948   9955     1
   9948   9956     1
   9948   9973     1
   9948   9974     1
   9949   9951     1
   9949   9954     1
   9949   9972     1
   9949   9961     1
   9949   9962     1
   9950   9951     1
   9950   9954     1
   9950   9972     1
   9950   9961     1
   9950   9962     1
   9951   9955     1
   9951   9956     1
   9951   9970     1
   9951   9971     1
   9952   9954     1
   9952   9969     1
   9952   9964     1
   9952   9965     1
   9953   9954     1
   9953   9969     1
   9953   9964     1
   9953   9965     1
   9954   9967     1
   9954   9968     1
   9955   9966     1
   9955   9958     1
   9955   9959     1
   9956   9966     1
   9956   9958     1
   9956   9959     1
   9958   9975     1
   9958   9967     1
   9958   9968     1
   9959   9975     1
   9959   9967     1
   9959   9968     1
   9961  18149     1
   9961   9973     1
   9961   9974     1
   9962  18149     1
   9962   9973     1
   9962   9974     1
   9964  18126     1
   9964   9970     1
   9964   9971     1
   9965  18126     1
   9965   9970     1
   9965   9971     1
   9969  18125     1
   9970  18122     1
   9971  18122     1
   9972  18148     1
   9973  18145     1
   9974  18145     1
   9976   9990     1
   9976   9991     1
   9976   9993     1
   9976   9994     1
   9976   9987     1
   9976   9988     1
   9977   9981     1
   9977   9982     1
   9977   9984     1
   9977   9985     1
   9977  10002     1
   9977  10003     1
   9978   9980     1
   9978   9983     1
   9978  10001     1
   9978   9990     1
   9978   9991     1
   9979   9980     1
   9979   9983     1
   9979  10001     1
   9979   9990     1
   9979   9991     1
   9980   9984     1
   9980   9985     1
   9980   9999     1
   9980  10000     1
   9981   9983     1
   9981   9998     1
   9981   9993     1
   9981   9994     1
   9982   9983     1
   9982   9998     1
   9982   9993     1
   9982   9994     1
   9983   9996     1
   9983   9997     1
   9984   9995     1
   9984   9987     1
   9984   9988     1
   9985   9995     1
   9985   9987     1
   9985   9988     1
   9987  10004     1
   9987   9996     1
   9987   9997     1
   9988  10004     1
   9988   9996     1
   9988   9997     1
   9990  18195     1
   9990  10002     1
   9990  10003     1
   9991  18195     1
   9991  10002     1
   9991  10003     1
   9993  18172     1
   9993   9999     1
   9993  10000     1
   9994  18172     1
   9994   9999     1
   9994  10000     1
   9998  18171     1
   9999  18168     1
  10000  18168     1
  10001  18194     1
  10002  18191     1
  10003  18191     1
  10005  10019     1
  10005  10020     1
  10005  10022     1
  10005  10023     1
  10005  10016     1
  10005  10017     1
  10006  10010     1
  10006  10011     1
  10006  10013     1
  10006  10014     1
  10006  10031     1
  10006  10032     1
  10007  10009     1
  10007  10012     1
  10007  10030     1
  10007  10019     1
  10007  10020     1
  10008  10009     1
  10008  10012     1
  10008  10030     1
  10008  10019     1
  10008  10020     1
  10009  10013     1
  10009  10014     1
  10009  10028     1
  10009  10029     1
  10010  10012     1
  10010  10027     1
  10010  10022     1
  10010  10023     1
  10011  10012     1
  10011  10027     1
  10011  10022     1
  10011  10023     1
  10012  10025     1
  10012  10026     1
  10013  10024     1
  10013  10016     1
  10013  10017     1
  10014  10024     1
  10014  10016     1
  10014  10017     1
  10016  10033     1
  10016  10025     1
  10016  10026     1
  10017  10033     1
  10017  10025     1
  10017  10026     1
  10019  18241     1
  10019  10031     1
  10019  10032     1
  10020  18241     1
  10020  10031     1
  10020  10032     1
  10022  18218     1
  10022  10028     1
  10022  10029     1
  10023  18218     1
  10023  10028     1
  10023  10029     1
  10027  18217     1
  10028  18214     1
  10029  18214     1
  10030  18240     1
  10031  18237     1
  10032  18237     1
  10034  10048     1
  10034  10049     1
  10034  10051     1
  10034  10052     1
  10034  10045     1
  10034  10046     1
  10035  10039     1
  10035  10040     1
  10035  10042     1
  10035  10043     1
  10035  10060     1
  10035  10061     1
  10036  10038     1
  10036  10041     1
  10036  10059     1
  10036  10048     1
  10036  10049     1
  10037  10038     1
  10037  10041     1
  10037  10059     1
  10037  10048     1
  10037  10049     1
  10038  10042     1
  10038  10043     1
  10038  10057     1
  10038  10058     1
  10039  10041     1
  10039  10056     1
  10039  10051     1
  10039  10052     1
  10040  10041     1
  10040  10056     1
  10040  10051     1
  10040  10052     1
  10041  10054     1
  10041  10055     1
  10042  10053     1
  10042  10045     1
  10042  10046     1
  10043  10053     1
  10043  10045     1
  10043  10046     1
  10045  10062     1
  10045  10054     1
  10045  10055     1
  10046  10062     1
  10046  10054     1
  10046  10055     1
  10048  18287     1
  10048  10060     1
  10048  10061     1
  10049  18287     1
  10049  10060     1
  10049  10061     1
  10051  18264     1
  10051  10057     1
  10051  10058     1
  10052  18264     1
  10052  10057     1
  10052  10058     1
  10056  18263     1
  10057  18260     1
  10058  18260     1
  10059  18286     1
  10060  18283     1
  10061  18283     1
  10063  10077     1
  10063  10078     1
  10063  10080     1
  10063  10081     1
  10063  10074     1
  10063  10075     1
  10064  10068     1
  10064  10069     1
  10064  10071     1
  10064  10072     1
  10064  10089     1
  10064  10090     1
  10065  10067     1
  10065  10070     1
  10065  10088     1
  10065  10077     1
  10065  10078     1
  10066  10067     1
  10066  10070     1
  10066  10088     1
  10066  10077     1
  10066  10078     1
  10067  10071     1
  10067  10072     1
  10067  10086     1
  10067  10087     1
  10068  10070     1
  10068  10085     1
  10068  10080     1
  10068  10081     1
  10069  10070     1
  10069  10085     1
  10069  10080     1
  10069  10081     1
  10070  10083     1
  10070  10084     1
  10071  10082     1
  10071  10074     1
  10071  10075     1
  10072  10082     1
  10072  10074     1
  10072  10075     1
  10074  10091     1
  10074  10083     1
  10074  10084     1
  10075  10091     1
  10075  10083     1
  10075  10084     1
  10077  18333     1
  10077  10089     1
  10077  10090     1
  10078  18333     1
  10078  10089     1
  10078  10090     1
  10080  18310     1
  10080  10086     1
  10080  10087     1
  10081  18310     1
  10081  10086     1
  10081  10087     1
  10085  18309     1
  10086  18306     1
  10087  18306     1
  10088  18332     1
  10089  18329     1
  10090  18329     1
  10092  10106     1
  10092  10107     1
  10092  10109     1
  10092  10110     1
  10092  10103     1
  10092  10104     1
  10093  10097     1
  10093  10098     1
  10093  10100     1
  10093  10101     1
  10093  10118     1
  10093  10119     1
  10094  10096     1
  10094  10099     1
  10094  10117     1
  10094  10106     1
  10094  10107     1
  10095  10096     1
  10095  10099     1
  10095  10117     1
  10095  10106     1
  10095  10107     1
  10096  10100     1
  10096  10101     1
  10096  10115     1
  10096  10116     1
  10097  10099     1
  10097  10114     1
  10097  10109     1
  10097  10110     1
  10098  10099     1
  10098  10114     1
  10098  10109     1
  10098  10110     1
  10099  10112     1
  10099  10113     1
  10100  10111     1
  10100  10103     1
  10100  10104     1
  10101  10111     1
  10101  10103     1
  10101  10104     1
  10103  10120     1
  10103  10112     1
  10103  10113     1
  10104  10120     1
  10104  10112     1
  10104  10113     1
  10106  18379     1
  10106  10118     1
  10106  10119     1
  10107  18379     1
  10107  10118     1
  10107  10119     1
  10109  18356     1
  10109  10115     1
  10109  10116     1
  10110  18356     1
  10110  10115     1
  10110  10116     1
  10114  18355     1
  10115  18352     1
  10116  18352     1
  10117  18378     1
  10118  18375     1
  10119  18375     1
  10121  10135     1
  10121  10136     1
  10121  10138     1
  10121  10139     1
  10121  10132     1
  10121  10133     1
  10122  10126     1
  10122  10127     1
  10122  10129     1
  10122  10130     1
  10122  10147     1
  10122  10148     1
  10123  10125     1
  10123  10128     1
  10123  10146     1
  10123  10135     1
  10123  10136     1
  10124  10125     1
  10124  10128     1
  10124  10146     1
  10124  10135     1
  10124  10136     1
  10125  10129     1
  10125  10130     1
  10125  10144     1
  10125  10145     1
  10126  10128     1
  10126  10143     1
  10126  10138     1
  10126  10139     1
  10127  10128     1
  10127  10143     1
  10127  10138     1
  10127  10139     1
  10128  10141     1
  10128  10142     1
  10129  10140     1
  10129  10132     1
  10129  10133     1
  10130  10140     1
  10130  10132     1
  10130  10133     1
  10132  10149     1
  10132  10141     1
  10132  10142     1
  10133  10149     1
  10133  10141     1
  10133  10142     1
  10135  18425     1
  10135  10147     1
  10135  10148     1
  10136  18425     1
  10136  10147     1
  10136  10148     1
  10138  18402     1
  10138  10144     1
  10138  10145     1
  10139  18402     1
  10139  10144     1
  10139  10145     1
  10143  18401     1
  10144  18398     1
  10145  18398     1
  10146  18424     1
  10147  18421     1
  10148  18421     1
  10150  10164     1
  10150  10165     1
  10150  10167     1
  10150  10168     1
  10150  10161     1
  10150  10162     1
  10151  10155     1
  10151  10156     1
  10151  10158     1
  10151  10159     1
  10151  10176     1
  10151  10177     1
  10152  10154     1
  10152  10157     1
  10152  10175     1
  10152  10164     1
  10152  10165     1
  10153  10154     1
  10153  10157     1
  10153  10175     1
  10153  10164     1
  10153  10165     1
  10154  10158     1
  10154  10159     1
  10154  10173     1
  10154  10174     1
  10155  10157     1
  10155  10172     1
  10155  10167     1
  10155  10168     1
  10156  10157     1
  10156  10172     1
  10156  10167     1
  10156  10168     1
  10157  10170     1
  10157  10171     1
  10158  10169     1
  10158  10161     1
  10158  10162     1
  10159  10169     1
  10159  10161     1
  10159  10162     1
  10161  10178     1
  10161  10170     1
  10161  10171     1
  10162  10178     1
  10162  10170     1
  10162  10171     1
  10164  18471     1
  10164  10176     1
  10164  10177     1
  10165  18471     1
  10165  10176     1
  10165  10177     1
  10167  18448     1
  10167  10173     1
  10167  10174     1
  10168  18448     1
  10168  10173     1
  10168  10174     1
  10172  18447     1
  10173  18444     1
  10174  18444     1
  10175  18470     1
  10176  18467     1
  10177  18467     1
  10179  10193     1
  10179  10194     1
  10179  10196     1
  10179  10197     1
  10179  10190     1
  10179  10191     1
  10180  10184     1
  10180  10185     1
  10180  10187     1
  10180  10188     1
  10180  10205     1
  10180  10206     1
  10181  10183     1
  10181  10186     1
  10181  10204     1
  10181  10193     1
  10181  10194     1
  10182  10183     1
  10182  10186     1
  10182  10204     1
  10182  10193     1
  10182  10194     1
  10183  10187     1
  10183  10188     1
  10183  10202     1
  10183  10203     1
  10184  10186     1
  10184  10201     1
  10184  10196     1
  10184  10197     1
  10185  10186     1
  10185  10201     1
  10185  10196     1
  10185  10197     1
  10186  10199     1
  10186  10200     1
  10187  10198     1
  10187  10190     1
  10187  10191     1
  10188  10198     1
  10188  10190     1
  10188  10191     1
  10190  10207     1
  10190  10199     1
  10190  10200     1
  10191  10207     1
  10191  10199     1
  10191  10200     1
  10193  18517     1
  10193  10205     1
  10193  10206     1
  10194  18517     1
  10194  10205     1
  10194  10206     1
  10196  18494     1
  10196  10202     1
  10196  10203     1
  10197  18494     1
  10197  10202     1
  10197  10203     1
  10201  18493     1
  10202  18490     1
  10203  18490     1
  10204  18516     1
  10205  18513     1
  10206  18513     1
  10208  10222     1
  10208  10223     1
  10208  10225     1
  10208  10226     1
  10208  10219     1
  10208  10220     1
  10209  10213     1
  10209  10214     1
  10209  10216     1
  10209  10217     1
  10209  10234     1
  10209  10235     1
  10210  10212     1
  10210  10215     1
  10210  10233     1
  10210  10222     1
  10210  10223     1
  10211  10212     1
  10211  10215     1
  10211  10233     1
  10211  10222     1
  10211  10223     1
  10212  10216     1
  10212  10217     1
  10212  10231     1
  10212  10232     1
  10213  10215     1
  10213  10230     1
  10213  10225     1
  10213  10226     1
  10214  10215     1
  10214  10230     1
  10214  10225     1
  10214  10226     1
  10215  10228     1
  10215  10229     1
  10216  10227     1
  10216  10219     1
  10216  10220     1
  10217  10227     1
  10217  10219     1
  10217  10220     1
  10219  10236     1
  10219  10228     1
  10219  10229     1
  10220  10236     1
  10220  10228     1
  10220  10229     1
  10222  18563     1
  10222  10234     1
  10222  10235     1
  10223  18563     1
  10223  10234     1
  10223  10235     1
  10225  18540     1
  10225  10231     1
  10225  10232     1
  10226  18540     1
  10226  10231     1
  10226  10232     1
  10230  18539     1
  10231  18536     1
  10232  18536     1
  10233  18562     1
  10234  18559     1
  10235  18559     1
  10237  10251     1
  10237  10252     1
  10237  10254     1
  10237  10255     1
  10237  10248     1
  10237  10249     1
  10238  10242     1
  10238  10243     1
  10238  10245     1
  10238  10246     1
  10238  10263     1
  10238  10264     1
  10239  10241     1
  10239  10244     1
  10239  10262     1
  10239  10251     1
  10239  10252     1
  10240  10241     1
  10240  10244     1
  10240  10262     1
  10240  10251     1
  10240  10252     1
  10241  10245     1
  10241  10246     1
  10241  10260     1
  10241  10261     1
  10242  10244     1
  10242  10259     1
  10242  10254     1
  10242  10255     1
  10243  10244     1
  10243  10259     1
  10243  10254     1
  10243  10255     1
  10244  10257     1
  10244  10258     1
  10245  10256     1
  10245  10248     1
  10245  10249     1
  10246  10256     1
  10246  10248     1
  10246  10249     1
  10248  10265     1
  10248  10257     1
  10248  10258     1
  10249  10265     1
  10249  10257     1
  10249  10258     1
  10251  18609     1
  10251  10263     1
  10251  10264     1
  10252  18609     1
  10252  10263     1
  10252  10264     1
  10254  18586     1
  10254  10260     1
  10254  10261     1
  10255  18586     1
  10255  10260     1
  10255  10261     1
  10259  18585     1
  10260  18582     1
  10261  18582     1
  10262  18608     1
  10263  18605     1
  10264  18605     1
  10266  10280     1
  10266  10281     1
  10266  10283     1
  10266  10284     1
  10266  10277     1
  10266  10278     1
  10267  10271     1
  10267  10272     1
  10267  10274     1
  10267  10275     1
  10267  10292     1
  10267  10293     1
  10268  10270     1
  10268  10273     1
  10268  10291     1
  10268  10280     1
  10268  10281     1
  10269  10270     1
  10269  10273     1
  10269  10291     1
  10269  10280     1
  10269  10281     1
  10270  10274     1
  10270  10275     1
  10270  10289     1
  10270  10290     1
  10271  10273     1
  10271  10288     1
  10271  10283     1
  10271  10284     1
  10272  10273     1
  10272  10288     1
  10272  10283     1
  10272  10284     1
  10273  10286     1
  10273  10287     1
  10274  10285     1
  10274  10277     1
  10274  10278     1
  10275  10285     1
  10275  10277     1
  10275  10278     1
  10277  10294     1
  10277  10286     1
  10277  10287     1
  10278  10294     1
  10278  10286     1
  10278  10287     1
  10280  18655     1
  10280  10292     1
  10280  10293     1
  10281  18655     1
  10281  10292     1
  10281  10293     1
  10283  18632     1
  10283  10289     1
  10283  10290     1
  10284  18632     1
  10284  10289     1
  10284  10290     1
  10288  18631     1
  10289  18628     1
  10290  18628     1
  10291  18654     1
  10292  18651     1
  10293  18651     1
  10295  10309     1
  10295  10310     1
  10295  10312     1
  10295  10313     1
  10295  10306     1
  10295  10307     1
  10296  10300     1
  10296  10301     1
  10296  10303     1
  10296  10304     1
  10296  10321     1
  10296  10322     1
  10297  10299     1
  10297  10302     1
  10297  10320     1
  10297  10309     1
  10297  10310     1
  10298  10299     1
  10298  10302     1
  10298  10320     1
  10298  10309     1
  10298  10310     1
  10299  10303     1
  10299  10304     1
  10299  10318     1
  10299  10319     1
  10300  10302     1
  10300  10317     1
  10300  10312     1
  10300  10313     1
  10301  10302     1
  10301  10317     1
  10301  10312     1
  10301  10313     1
  10302  10315     1
  10302  10316     1
  10303  10314     1
  10303  10306     1
  10303  10307     1
  10304  10314     1
  10304  10306     1
  10304  10307     1
  10306  10323     1
  10306  10315     1
  10306  10316     1
  10307  10323     1
  10307  10315     1
  10307  10316     1
  10309  18701     1
  10309  10321     1
  10309  10322     1
  10310  18701     1
  10310  10321     1
  10310  10322     1
  10312  18678     1
  10312  10318     1
  10312  10319     1
  10313  18678     1
  10313  10318     1
  10313  10319     1
  10317  18677     1
  10318  18674     1
  10319  18674     1
  10320  18700     1
  10321  18697     1
  10322  18697     1
  10324  10338     1
  10324  10339     1
  10324  10341     1
  10324  10342     1
  10324  10335     1
  10324  10336     1
  10325  10329     1
  10325  10330     1
  10325  10332     1
  10325  10333     1
  10325  10350     1
  10325  10351     1
  10326  10328     1
  10326  10331     1
  10326  10349     1
  10326  10338     1
  10326  10339     1
  10327  10328     1
  10327  10331     1
  10327  10349     1
  10327  10338     1
  10327  10339     1
  10328  10332     1
  10328  10333     1
  10328  10347     1
  10328  10348     1
  10329  10331     1
  10329  10346     1
  10329  10341     1
  10329  10342     1
  10330  10331     1
  10330  10346     1
  10330  10341     1
  10330  10342     1
  10331  10344     1
  10331  10345     1
  10332  10343     1
  10332  10335     1
  10332  10336     1
  10333  10343     1
  10333  10335     1
  10333  10336     1
  10335  10352     1
  10335  10344     1
  10335  10345     1
  10336  10352     1
  10336  10344     1
  10336  10345     1
  10338  18747     1
  10338  10350     1
  10338  10351     1
  10339  18747     1
  10339  10350     1
  10339  10351     1
  10341  18724     1
  10341  10347     1
  10341  10348     1
  10342  18724     1
  10342  10347     1
  10342  10348     1
  10346  18723     1
  10347  18720     1
  10348  18720     1
  10349  18746     1
  10350  18743     1
  10351  18743     1
  10353  10367     1
  10353  10368     1
  10353  10370     1
  10353  10371     1
  10353  10364     1
  10353  10365     1
  10354  10358     1
  10354  10359     1
  10354  10361     1
  10354  10362     1
  10354  10379     1
  10354  10380     1
  10355  10357     1
  10355  10360     1
  10355  10378     1
  10355  10367     1
  10355  10368     1
  10356  10357     1
  10356  10360     1
  10356  10378     1
  10356  10367     1
  10356  10368     1
  10357  10361     1
  10357  10362     1
  10357  10376     1
  10357  10377     1
  10358  10360     1
  10358  10375     1
  10358  10370     1
  10358  10371     1
  10359  10360     1
  10359  10375     1
  10359  10370     1
  10359  10371     1
  10360  10373     1
  10360  10374     1
  10361  10372     1
  10361  10364     1
  10361  10365     1
  10362  10372     1
  10362  10364     1
  10362  10365     1
  10364  10381     1
  10364  10373     1
  10364  10374     1
  10365  10381     1
  10365  10373     1
  10365  10374     1
  10367  18793     1
  10367  10379     1
  10367  10380     1
  10368  18793     1
  10368  10379     1
  10368  10380     1
  10370  18770     1
  10370  10376     1
  10370  10377     1
  10371  18770     1
  10371  10376     1
  10371  10377     1
  10375  18769     1
  10376  18766     1
  10377  18766     1
  10378  18792     1
  10379  18789     1
  10380  18789     1
  10382  10396     1
  10382  10397     1
  10382  10399     1
  10382  10400     1
  10382  10393     1
  10382  10394     1
  10383  10387     1
  10383  10388     1
  10383  10390     1
  10383  10391     1
  10383  10408     1
  10383  10409     1
  10384  10386     1
  10384  10389     1
  10384  10407     1
  10384  10396     1
  10384  10397     1
  10385  10386     1
  10385  10389     1
  10385  10407     1
  10385  10396     1
  10385  10397     1
  10386  10390     1
  10386  10391     1
  10386  10405     1
  10386  10406     1
  10387  10389     1
  10387  10404     1
  10387  10399     1
  10387  10400     1
  10388  10389     1
  10388  10404     1
  10388  10399     1
  10388  10400     1
  10389  10402     1
  10389  10403     1
  10390  10401     1
  10390  10393     1
  10390  10394     1
  10391  10401     1
  10391  10393     1
  10391  10394     1
  10393  10410     1
  10393  10402     1
  10393  10403     1
  10394  10410     1
  10394  10402     1
  10394  10403     1
  10396  18839     1
  10396  10408     1
  10396  10409     1
  10397  18839     1
  10397  10408     1
  10397  10409     1
  10399  18816     1
  10399  10405     1
  10399  10406     1
  10400  18816     1
  10400  10405     1
  10400  10406     1
  10404  18815     1
  10405  18812     1
  10406  18812     1
  10407  18838     1
  10408  18835     1
  10409  18835     1
  10411  10425     1
  10411  10426     1
  10411  10428     1
  10411  10429     1
  10411  10422     1
  10411  10423     1
  10412  10416     1
  10412  10417     1
  10412  10419     1
  10412  10420     1
  10412  10437     1
  10412  10438     1
  10413  10415     1
  10413  10418     1
  10413  10436     1
  10413  10425     1
  10413  10426     1
  10414  10415     1
  10414  10418     1
  10414  10436     1
  10414  10425     1
  10414  10426     1
  10415  10419     1
  10415  10420     1
  10415  10434     1
  10415  10435     1
  10416  10418     1
  10416  10433     1
  10416  10428     1
  10416  10429     1
  10417  10418     1
  10417  10433     1
  10417  10428     1
  10417  10429     1
  10418  10431     1
  10418  10432     1
  10419  10430     1
  10419  10422     1
  10419  10423     1
  10420  10430     1
  10420  10422     1
  10420  10423     1
  10422  10439     1
  10422  10431     1
  10422  10432     1
  10423  10439     1
  10423  10431     1
  10423  10432     1
  10425  18885     1
  10425  10437     1
  10425  10438     1
  10426  18885     1
  10426  10437     1
  10426  10438     1
  10428  18862     1
  10428  10434     1
  10428  10435     1
  10429  18862     1
  10429  10434     1
  10429  10435     1
  10433  18861     1
  10434  18858     1
  10435  18858     1
  10436  18884     1
  10437  18881     1
  10438  18881     1
  10440  10454     1
  10440  10455     1
  10440  10457     1
  10440  10458     1
  10440  10451     1
  10440  10452     1
  10441  10445     1
  10441  10446     1
  10441  10448     1
  10441  10449     1
  10441  10466     1
  10441  10467     1
  10442  10444     1
  10442  10447     1
  10442  10465     1
  10442  10454     1
  10442  10455     1
  10443  10444     1
  10443  10447     1
  10443  10465     1
  10443  10454     1
  10443  10455     1
  10444  10448     1
  10444  10449     1
  10444  10463     1
  10444  10464     1
  10445  10447     1
  10445  10462     1
  10445  10457     1
  10445  10458     1
  10446  10447     1
  10446  10462     1
  10446  10457     1
  10446  10458     1
  10447  10460     1
  10447  10461     1
  10448  10459     1
  10448  10451     1
  10448  10452     1
  10449  10459     1
  10449  10451     1
  10449  10452     1
  10451  10468     1
  10451  10460     1
  10451  10461     1
  10452  10468     1
  10452  10460     1
  10452  10461     1
  10454  18931     1
  10454  10466     1
  10454  10467     1
  10455  18931     1
  10455  10466     1
  10455  10467     1
  10457  18908     1
  10457  10463     1
  10457  10464     1
  10458  18908     1
  10458  10463     1
  10458  10464     1
  10462  18907     1
  10463  18904     1
  10464  18904     1
  10465  18930     1
  10466  18927     1
  10467  18927     1
  10469  10483     1
  10469  10484     1
  10469  10486     1
  10469  10487     1
  10469  10480     1
  10469  10481     1
  10470  10474     1
  10470  10475     1
  10470  10477     1
  10470  10478     1
  10470  10495     1
  10470  10496     1
  10471  10473     1
  10471  10476     1
  10471  10494     1
  10471  10483     1
  10471  10484     1
  10472  10473     1
  10472  10476     1
  10472  10494     1
  10472  10483     1
  10472  10484     1
  10473  10477     1
  10473  10478     1
  10473  10492     1
  10473  10493     1
  10474  10476     1
  10474  10491     1
  10474  10486     1
  10474  10487     1
  10475  10476     1
  10475  10491     1
  10475  10486     1
  10475  10487     1
  10476  10489     1
  10476  10490     1
  10477  10488     1
  10477  10480     1
  10477  10481     1
  10478  10488     1
  10478  10480     1
  10478  10481     1
  10480  10497     1
  10480  10489     1
  10480  10490     1
  10481  10497     1
  10481  10489     1
  10481  10490     1
  10483  18977     1
  10483  10495     1
  10483  10496     1
  10484  18977     1
  10484  10495     1
  10484  10496     1
  10486  18954     1
  10486  10492     1
  10486  10493     1
  10487  18954     1
  10487  10492     1
  10487  10493     1
  10491  18953     1
  10492  18950     1
  10493  18950     1
  10494  18976     1
  10495  18973     1
  10496  18973     1
  10498  10512     1
  10498  10513     1
  10498  10515     1
  10498  10516     1
  10498  10509     1
  10498  10510     1
  10499  10503     1
  10499  10504     1
  10499  10506     1
  10499  10507     1
  10499  10524     1
  10499  10525     1
  10500  10502     1
  10500  10505     1
  10500  10523     1
  10500  10512     1
  10500  10513     1
  10501  10502     1
  10501  10505     1
  10501  10523     1
  10501  10512     1
  10501  10513     1
  10502  10506     1
  10502  10507     1
  10502  10521     1
  10502  10522     1
  10503  10505     1
  10503  10520     1
  10503  10515     1
  10503  10516     1
  10504  10505     1
  10504  10520     1
  10504  10515     1
  10504  10516     1
  10505  10518     1
  10505  10519     1
  10506  10517     1
  10506  10509     1
  10506  10510     1
  10507  10517     1
  10507  10509     1
  10507  10510     1
  10509  10526     1
  10509  10518     1
  10509  10519     1
  10510  10526     1
  10510  10518     1
  10510  10519     1
  10512  19023     1
  10512  10524     1
  10512  10525     1
  10513  19023     1
  10513  10524     1
  10513  10525     1
  10515  19000     1
  10515  10521     1
  10515  10522     1
  10516  19000     1
  10516  10521     1
  10516  10522     1
  10520  18999     1
  10521  18996     1
  10522  18996     1
  10523  19022     1
  10524  19019     1
  10525  19019     1
  10527  10541     1
  10527  10542     1
  10527  10544     1
  10527  10545     1
  10527  10538     1
  10527  10539     1
  10528  10532     1
  10528  10533     1
  10528  10535     1
  10528  10536     1
  10528  10553     1
  10528  10554     1
  10529  10531     1
  10529  10534     1
  10529  10552     1
  10529  10541     1
  10529  10542     1
  10530  10531     1
  10530  10534     1
  10530  10552     1
  10530  10541     1
  10530  10542     1
  10531  10535     1
  10531  10536     1
  10531  10550     1
  10531  10551     1
  10532  10534     1
  10532  10549     1
  10532  10544     1
  10532  10545     1
  10533  10534     1
  10533  10549     1
  10533  10544     1
  10533  10545     1
  10534  10547     1
  10534  10548     1
  10535  10546     1
  10535  10538     1
  10535  10539     1
  10536  10546     1
  10536  10538     1
  10536  10539     1
  10538  10555     1
  10538  10547     1
  10538  10548     1
  10539  10555     1
  10539  10547     1
  10539  10548     1
  10541  19069     1
  10541  10553     1
  10541  10554     1
  10542  19069     1
  10542  10553     1
  10542  10554     1
  10544  19046     1
  10544  10550     1
  10544  10551     1
  10545  19046     1
  10545  10550     1
  10545  10551     1
  10549  19045     1
  10550  19042     1
  10551  19042     1
  10552  19068     1
  10553  19065     1
  10554  19065     1
  10556  10570     1
  10556  10571     1
  10556  10573     1
  10556  10574     1
  10556  10567     1
  10556  10568     1
  10557  10561     1
  10557  10562     1
  10557  10564     1
  10557  10565     1
  10557  10582     1
  10557  10583     1
  10558  10560     1
  10558  10563     1
  10558  10581     1
  10558  10570     1
  10558  10571     1
  10559  10560     1
  10559  10563     1
  10559  10581     1
  10559  10570     1
  10559  10571     1
  10560  10564     1
  10560  10565     1
  10560  10579     1
  10560  10580     1
  10561  10563     1
  10561  10578     1
  10561  10573     1
  10561  10574     1
  10562  10563     1
  10562  10578     1
  10562  10573     1
  10562  10574     1
  10563  10576     1
  10563  10577     1
  10564  10575     1
  10564  10567     1
  10564  10568     1
  10565  10575     1
  10565  10567     1
  10565  10568     1
  10567  10584     1
  10567  10576     1
  10567  10577     1
  10568  10584     1
  10568  10576     1
  10568  10577     1
  10570  19115     1
  10570  10582     1
  10570  10583     1
  10571  19115     1
  10571  10582     1
  10571  10583     1
  10573  19092     1
  10573  10579     1
  10573  10580     1
  10574  19092     1
  10574  10579     1
  10574  10580     1
  10578  19091     1
  10579  19088     1
  10580  19088     1
  10581  19114     1
  10582  19111     1
  10583  19111     1
  10585  10599     1
  10585  10600     1
  10585  10602     1
  10585  10603     1
  10585  10596     1
  10585  10597     1
  10586  10590     1
  10586  10591     1
  10586  10593     1
  10586  10594     1
  10586  10611     1
  10586  10612     1
  10587  10589     1
  10587  10592     1
  10587  10610     1
  10587  10599     1
  10587  10600     1
  10588  10589     1
  10588  10592     1
  10588  10610     1
  10588  10599     1
  10588  10600     1
  10589  10593     1
  10589  10594     1
  10589  10608     1
  10589  10609     1
  10590  10592     1
  10590  10607     1
  10590  10602     1
  10590  10603     1
  10591  10592     1
  10591  10607     1
  10591  10602     1
  10591  10603     1
  10592  10605     1
  10592  10606     1
  10593  10604     1
  10593  10596     1
  10593  10597     1
  10594  10604     1
  10594  10596     1
  10594  10597     1
  10596  10613     1
  10596  10605     1
  10596  10606     1
  10597  10613     1
  10597  10605     1
  10597  10606     1
  10599  19161     1
  10599  10611     1
  10599  10612     1
  10600  19161     1
  10600  10611     1
  10600  10612     1
  10602  19138     1
  10602  10608     1
  10602  10609     1
  10603  19138     1
  10603  10608     1
  10603  10609     1
  10607  19137     1
  10608  19134     1
  10609  19134     1
  10610  19160     1
  10611  19157     1
  10612  19157     1
  10614  10628     1
  10614  10629     1
  10614  10631     1
  10614  10632     1
  10614  10625     1
  10614  10626     1
  10615  10619     1
  10615  10620     1
  10615  10622     1
  10615  10623     1
  10615  10640     1
  10615  10641     1
  10616  10618     1
  10616  10621     1
  10616  10639     1
  10616  10628     1
  10616  10629     1
  10617  10618     1
  10617  10621     1
  10617  10639     1
  10617  10628     1
  10617  10629     1
  10618  10622     1
  10618  10623     1
  10618  10637     1
  10618  10638     1
  10619  10621     1
  10619  10636     1
  10619  10631     1
  10619  10632     1
  10620  10621     1
  10620  10636     1
  10620  10631     1
  10620  10632     1
  10621  10634     1
  10621  10635     1
  10622  10633     1
  10622  10625     1
  10622  10626     1
  10623  10633     1
  10623  10625     1
  10623  10626     1
  10625  10642     1
  10625  10634     1
  10625  10635     1
  10626  10642     1
  10626  10634     1
  10626  10635     1
  10628  19207     1
  10628  10640     1
  10628  10641     1
  10629  19207     1
  10629  10640     1
  10629  10641     1
  10631  19184     1
  10631  10637     1
  10631  10638     1
  10632  19184     1
  10632  10637     1
  10632  10638     1
  10636  19183     1
  10637  19180     1
  10638  19180     1
  10639  19206     1
  10640  19203     1
  10641  19203     1
  10643  10657     1
  10643  10658     1
  10643  10660     1
  10643  10661     1
  10643  10654     1
  10643  10655     1
  10644  10648     1
  10644  10649     1
  10644  10651     1
  10644  10652     1
  10644  10669     1
  10644  10670     1
  10645  10647     1
  10645  10650     1
  10645  10668     1
  10645  10657     1
  10645  10658     1
  10646  10647     1
  10646  10650     1
  10646  10668     1
  10646  10657     1
  10646  10658     1
  10647  10651     1
  10647  10652     1
  10647  10666     1
  10647  10667     1
  10648  10650     1
  10648  10665     1
  10648  10660     1
  10648  10661     1
  10649  10650     1
  10649  10665     1
  10649  10660     1
  10649  10661     1
  10650  10663     1
  10650  10664     1
  10651  10662     1
  10651  10654     1
  10651  10655     1
  10652  10662     1
  10652  10654     1
  10652  10655     1
  10654  10671     1
  10654  10663     1
  10654  10664     1
  10655  10671     1
  10655  10663     1
  10655  10664     1
  10657  19253     1
  10657  10669     1
  10657  10670     1
  10658  19253     1
  10658  10669     1
  10658  10670     1
  10660  19230     1
  10660  10666     1
  10660  10667     1
  10661  19230     1
  10661  10666     1
  10661  10667     1
  10665  19229     1
  10666  19226     1
  10667  19226     1
  10668  19252     1
  10669  19249     1
  10670  19249     1
  10672  10686     1
  10672  10687     1
  10672  10689     1
  10672  10690     1
  10672  10683     1
  10672  10684     1
  10673  10677     1
  10673  10678     1
  10673  10680     1
  10673  10681     1
  10673  10698     1
  10673  10699     1
  10674  10676     1
  10674  10679     1
  10674  10697     1
  10674  10686     1
  10674  10687     1
  10675  10676     1
  10675  10679     1
  10675  10697     1
  10675  10686     1
  10675  10687     1
  10676  10680     1
  10676  10681     1
  10676  10695     1
  10676  10696     1
  10677  10679     1
  10677  10694     1
  10677  10689     1
  10677  10690     1
  10678  10679     1
  10678  10694     1
  10678  10689     1
  10678  10690     1
  10679  10692     1
  10679  10693     1
  10680  10691     1
  10680  10683     1
  10680  10684     1
  10681  10691     1
  10681  10683     1
  10681  10684     1
  10683  10700     1
  10683  10692     1
  10683  10693     1
  10684  10700     1
  10684  10692     1
  10684  10693     1
  10686  19299     1
  10686  10698     1
  10686  10699     1
  10687  19299     1
  10687  10698     1
  10687  10699     1
  10689  19276     1
  10689  10695     1
  10689  10696     1
  10690  19276     1
  10690  10695     1
  10690  10696     1
  10694  19275     1
  10695  19272     1
  10696  19272     1
  10697  19298     1
  10698  19295     1
  10699  19295     1
  10701  10715     1
  10701  10716     1
  10701  10718     1
  10701  10719     1
  10701  10712     1
  10701  10713     1
  10702  10706     1
  10702  10707     1
  10702  10709     1
  10702  10710     1
  10702  10727     1
  10702  10728     1
  10703  10705     1
  10703  10708     1
  10703  10726     1
  10703  10715     1
  10703  10716     1
  10704  10705     1
  10704  10708     1
  10704  10726     1
  10704  10715     1
  10704  10716     1
  10705  10709     1
  10705  10710     1
  10705  10724     1
  10705  10725     1
  10706  10708     1
  10706  10723     1
  10706  10718     1
  10706  10719     1
  10707  10708     1
  10707  10723     1
  10707  10718     1
  10707  10719     1
  10708  10721     1
  10708  10722     1
  10709  10720     1
  10709  10712     1
  10709  10713     1
  10710  10720     1
  10710  10712     1
  10710  10713     1
  10712  10729     1
  10712  10721     1
  10712  10722     1
  10713  10729     1
  10713  10721     1
  10713  10722     1
  10715  19345     1
  10715  10727     1
  10715  10728     1
  10716  19345     1
  10716  10727     1
  10716  10728     1
  10718  19322     1
  10718  10724     1
  10718  10725     1
  10719  19322     1
  10719  10724     1
  10719  10725     1
  10723  19321     1
  10724  19318     1
  10725  19318     1
  10726  19344     1
  10727  19341     1
  10728  19341     1
  10730  10744     1
  10730  10745     1
  10730  10747     1
  10730  10748     1
  10730  10741     1
  10730  10742     1
  10731  10735     1
  10731  10736     1
  10731  10738     1
  10731  10739     1
  10731  10756     1
  10731  10757     1
  10732  10734     1
  10732  10737     1
  10732  10755     1
  10732  10744     1
  10732  10745     1
  10733  10734     1
  10733  10737     1
  10733  10755     1
  10733  10744     1
  10733  10745     1
  10734  10738     1
  10734  10739     1
  10734  10753     1
  10734  10754     1
  10735  10737     1
  10735  10752     1
  10735  10747     1
  10735  10748     1
  10736  10737     1
  10736  10752     1
  10736  10747     1
  10736  10748     1
  10737  10750     1
  10737  10751     1
  10738  10749     1
  10738  10741     1
  10738  10742     1
  10739  10749     1
  10739  10741     1
  10739  10742     1
  10741  10758     1
  10741  10750     1
  10741  10751     1
  10742  10758     1
  10742  10750     1
  10742  10751     1
  10744  19391     1
  10744  10756     1
  10744  10757     1
  10745  19391     1
  10745  10756     1
  10745  10757     1
  10747  19368     1
  10747  10753     1
  10747  10754     1
  10748  19368     1
  10748  10753     1
  10748  10754     1
  10752  19367     1
  10753  19364     1
  10754  19364     1
  10755  19390     1
  10756  19387     1
  10757  19387     1
  10759  10773     1
  10759  10774     1
  10759  10776     1
  10759  10777     1
  10759  10770     1
  10759  10771     1
  10760  10764     1
  10760  10765     1
  10760  10767     1
  10760  10768     1
  10760  10785     1
  10760  10786     1
  10761  10763     1
  10761  10766     1
  10761  10784     1
  10761  10773     1
  10761  10774     1
  10762  10763     1
  10762  10766     1
  10762  10784     1
  10762  10773     1
  10762  10774     1
  10763  10767     1
  10763  10768     1
  10763  10782     1
  10763  10783     1
  10764  10766     1
  10764  10781     1
  10764  10776     1
  10764  10777     1
  10765  10766     1
  10765  10781     1
  10765  10776     1
  10765  10777     1
  10766  10779     1
  10766  10780     1
  10767  10778     1
  10767  10770     1
  10767  10771     1
  10768  10778     1
  10768  10770     1
  10768  10771     1
  10770  10787     1
  10770  10779     1
  10770  10780     1
  10771  10787     1
  10771  10779     1
  10771  10780     1
  10773  19437     1
  10773  10785     1
  10773  10786     1
  10774  19437     1
  10774  10785     1
  10774  10786     1
  10776  19414     1
  10776  10782     1
  10776  10783     1
  10777  19414     1
  10777  10782     1
  10777  10783     1
  10781  19413     1
  10782  19410     1
  10783  19410     1
  10784  19436     1
  10785  19433     1
  10786  19433     1
  10788  10802     1
  10788  10803     1
  10788  10805     1
  10788  10806     1
  10788  10799     1
  10788  10800     1
  10789  10793     1
  10789  10794     1
  10789  10796     1
  10789  10797     1
  10789  10814     1
  10789  10815     1
  10790  10792     1
  10790  10795     1
  10790  10813     1
  10790  10802     1
  10790  10803     1
  10791  10792     1
  10791  10795     1
  10791  10813     1
  10791  10802     1
  10791  10803     1
  10792  10796     1
  10792  10797     1
  10792  10811     1
  10792  10812     1
  10793  10795     1
  10793  10810     1
  10793  10805     1
  10793  10806     1
  10794  10795     1
  10794  10810     1
  10794  10805     1
  10794  10806     1
  10795  10808     1
  10795  10809     1
  10796  10807     1
  10796  10799     1
  10796  10800     1
  10797  10807     1
  10797  10799     1
  10797  10800     1
  10799  10816     1
  10799  10808     1
  10799  10809     1
  10800  10816     1
  10800  10808     1
  10800  10809     1
  10802  19483     1
  10802  10814     1
  10802  10815     1
  10803  19483     1
  10803  10814     1
  10803  10815     1
  10805  19460     1
  10805  10811     1
  10805  10812     1
  10806  19460     1
  10806  10811     1
  10806  10812     1
  10810  19459     1
  10811  19456     1
  10812  19456     1
  10813  19482     1
  10814  19479     1
  10815  19479     1
  10817  10831     1
  10817  10832     1
  10817  10834     1
  10817  10835     1
  10817  10828     1
  10817  10829     1
  10818  10822     1
  10818  10823     1
  10818  10825     1
  10818  10826     1
  10818  10843     1
  10818  10844     1
  10819  10821     1
  10819  10824     1
  10819  10842     1
  10819  10831     1
  10819  10832     1
  10820  10821     1
  10820  10824     1
  10820  10842     1
  10820  10831     1
  10820  10832     1
  10821  10825     1
  10821  10826     1
  10821  10840     1
  10821  10841     1
  10822  10824     1
  10822  10839     1
  10822  10834     1
  10822  10835     1
  10823  10824     1
  10823  10839     1
  10823  10834     1
  10823  10835     1
  10824  10837     1
  10824  10838     1
  10825  10836     1
  10825  10828     1
  10825  10829     1
  10826  10836     1
  10826  10828     1
  10826  10829     1
  10828  10845     1
  10828  10837     1
  10828  10838     1
  10829  10845     1
  10829  10837     1
  10829  10838     1
  10831  19529     1
  10831  10843     1
  10831  10844     1
  10832  19529     1
  10832  10843     1
  10832  10844     1
  10834  19506     1
  10834  10840     1
  10834  10841     1
  10835  19506     1
  10835  10840     1
  10835  10841     1
  10839  19505     1
  10840  19502     1
  10841  19502     1
  10842  19528     1
  10843  19525     1
  10844  19525     1
  10846  10860     1
  10846  10861     1
  10846  10863     1
  10846  10864     1
  10846  10857     1
  10846  10858     1
  10847  10851     1
  10847  10852     1
  10847  10854     1
  10847  10855     1
  10847  10872     1
  10847  10873     1
  10848  10850     1
  10848  10853     1
  10848  10871     1
  10848  10860     1
  10848  10861     1
  10849  10850     1
  10849  10853     1
  10849  10871     1
  10849  10860     1
  10849  10861     1
  10850  10854     1
  10850  10855     1
  10850  10869     1
  10850  10870     1
  10851  10853     1
  10851  10868     1
  10851  10863     1
  10851  10864     1
  10852  10853     1
  10852  10868     1
  10852  10863     1
  10852  10864     1
  10853  10866     1
  10853  10867     1
  10854  10865     1
  10854  10857     1
  10854  10858     1
  10855  10865     1
  10855  10857     1
  10855  10858     1
  10857  10874     1
  10857  10866     1
  10857  10867     1
  10858  10874     1
  10858  10866     1
  10858  10867     1
  10860  19575     1
  10860  10872     1
  10860  10873     1
  10861  19575     1
  10861  10872     1
  10861  10873     1
  10863  19552     1
  10863  10869     1
  10863  10870     1
  10864  19552     1
  10864  10869     1
  10864  10870     1
  10868  19551     1
  10869  19548     1
  10870  19548     1
  10871  19574     1
  10872  19571     1
  10873  19571     1
  10875  10889     1
  10875  10890     1
  10875  10892     1
  10875  10893     1
  10875  10886     1
  10875  10887     1
  10876  10880     1
  10876  10881     1
  10876  10883     1
  10876  10884     1
  10876  10901     1
  10876  10902     1
  10877  10879     1
  10877  10882     1
  10877  10900     1
  10877  10889     1
  10877  10890     1
  10878  10879     1
  10878  10882     1
  10878  10900     1
  10878  10889     1
  10878  10890     1
  10879  10883     1
  10879  10884     1
  10879  10898     1
  10879  10899     1
  10880  10882     1
  10880  10897     1
  10880  10892     1
  10880  10893     1
  10881  10882     1
  10881  10897     1
  10881  10892     1
  10881  10893     1
  10882  10895     1
  10882  10896     1
  10883  10894     1
  10883  10886     1
  10883  10887     1
  10884  10894     1
  10884  10886     1
  10884  10887     1
  10886  10903     1
  10886  10895     1
  10886  10896     1
  10887  10903     1
  10887  10895     1
  10887  10896     1
  10889  19621     1
  10889  10901     1
  10889  10902     1
  10890  19621     1
  10890  10901     1
  10890  10902     1
  10892  19598     1
  10892  10898     1
  10892  10899     1
  10893  19598     1
  10893  10898     1
  10893  10899     1
  10897  19597     1
  10898  19594     1
  10899  19594     1
  10900  19620     1
  10901  19617     1
  10902  19617     1
  10904  10918     1
  10904  10919     1
  10904  10921     1
  10904  10922     1
  10904  10915     1
  10904  10916     1
  10905  10909     1
  10905  10910     1
  10905  10912     1
  10905  10913     1
  10905  10930     1
  10905  10931     1
  10906  10908     1
  10906  10911     1
  10906  10929     1
  10906  10918     1
  10906  10919     1
  10907  10908     1
  10907  10911     1
  10907  10929     1
  10907  10918     1
  10907  10919     1
  10908  10912     1
  10908  10913     1
  10908  10927     1
  10908  10928     1
  10909  10911     1
  10909  10926     1
  10909  10921     1
  10909  10922     1
  10910  10911     1
  10910  10926     1
  10910  10921     1
  10910  10922     1
  10911  10924     1
  10911  10925     1
  10912  10923     1
  10912  10915     1
  10912  10916     1
  10913  10923     1
  10913  10915     1
  10913  10916     1
  10915  10932     1
  10915  10924     1
  10915  10925     1
  10916  10932     1
  10916  10924     1
  10916  10925     1
  10918  19667     1
  10918  10930     1
  10918  10931     1
  10919  19667     1
  10919  10930     1
  10919  10931     1
  10921  19644     1
  10921  10927     1
  10921  10928     1
  10922  19644     1
  10922  10927     1
  10922  10928     1
  10926  19643     1
  10927  19640     1
  10928  19640     1
  10929  19666     1
  10930  19663     1
  10931  19663     1
  10933  10947     1
  10933  10948     1
  10933  10950     1
  10933  10951     1
  10933  10944     1
  10933  10945     1
  10934  10938     1
  10934  10939     1
  10934  10941     1
  10934  10942     1
  10934  10959     1
  10934  10960     1
  10935  10937     1
  10935  10940     1
  10935  10958     1
  10935  10947     1
  10935  10948     1
  10936  10937     1
  10936  10940     1
  10936  10958     1
  10936  10947     1
  10936  10948     1
  10937  10941     1
  10937  10942     1
  10937  10956     1
  10937  10957     1
  10938  10940     1
  10938  10955     1
  10938  10950     1
  10938  10951     1
  10939  10940     1
  10939  10955     1
  10939  10950     1
  10939  10951     1
  10940  10953     1
  10940  10954     1
  10941  10952     1
  10941  10944     1
  10941  10945     1
  10942  10952     1
  10942  10944     1
  10942  10945     1
  10944  10961     1
  10944  10953     1
  10944  10954     1
  10945  10961     1
  10945  10953     1
  10945  10954     1
  10947  19713     1
  10947  10959     1
  10947  10960     1
  10948  19713     1
  10948  10959     1
  10948  10960     1
  10950  19690     1
  10950  10956     1
  10950  10957     1
  10951  19690     1
  10951  10956     1
  10951  10957     1
  10955  19689     1
  10956  19686     1
  10957  19686     1
  10958  19712     1
  10959  19709     1
  10960  19709     1
  10962  10976     1
  10962  10977     1
  10962  10979     1
  10962  10980     1
  10962  10973     1
  10962  10974     1
  10963  10967     1
  10963  10968     1
  10963  10970     1
  10963  10971     1
  10963  10988     1
  10963  10989     1
  10964  10966     1
  10964  10969     1
  10964  10987     1
  10964  10976     1
  10964  10977     1
  10965  10966     1
  10965  10969     1
  10965  10987     1
  10965  10976     1
  10965  10977     1
  10966  10970     1
  10966  10971     1
  10966  10985     1
  10966  10986     1
  10967  10969     1
  10967  10984     1
  10967  10979     1
  10967  10980     1
  10968  10969     1
  10968  10984     1
  10968  10979     1
  10968  10980     1
  10969  10982     1
  10969  10983     1
  10970  10981     1
  10970  10973     1
  10970  10974     1
  10971  10981     1
  10971  10973     1
  10971  10974     1
  10973  10990     1
  10973  10982     1
  10973  10983     1
  10974  10990     1
  10974  10982     1
  10974  10983     1
  10976  19759     1
  10976  10988     1
  10976  10989     1
  10977  19759     1
  10977  10988     1
  10977  10989     1
  10979  19736     1
  10979  10985     1
  10979  10986     1
  10980  19736     1
  10980  10985     1
  10980  10986     1
  10984  19735     1
  10985  19732     1
  10986  19732     1
  10987  19758     1
  10988  19755     1
  10989  19755     1
  10991  11005     1
  10991  11006     1
  10991  11008     1
  10991  11009     1
  10991  11002     1
  10991  11003     1
  10992  10996     1
  10992  10997     1
  10992  10999     1
  10992  11000     1
  10992  11017     1
  10992  11018     1
  10993  10995     1
  10993  10998     1
  10993  11016     1
  10993  11005     1
  10993  11006     1
  10994  10995     1
  10994  10998     1
  10994  11016     1
  10994  11005     1
  10994  11006     1
  10995  10999     1
  10995  11000     1
  10995  11014     1
  10995  11015     1
  10996  10998     1
  10996  11013     1
  10996  11008     1
  10996  11009     1
  10997  10998     1
  10997  11013     1
  10997  11008     1
  10997  11009     1
  10998  11011     1
  10998  11012     1
  10999  11010     1
  10999  11002     1
  10999  11003     1
  11000  11010     1
  11000  11002     1
  11000  11003     1
  11002  11019     1
  11002  11011     1
  11002  11012     1
  11003  11019     1
  11003  11011     1
  11003  11012     1
  11005  19805     1
  11005  11017     1
  11005  11018     1
  11006  19805     1
  11006  11017     1
  11006  11018     1
  11008  19782     1
  11008  11014     1
  11008  11015     1
  11009  19782     1
  11009  11014     1
  11009  11015     1
  11013  19781     1
  11014  19778     1
  11015  19778     1
  11016  19804     1
  11017  19801     1
  11018  19801     1
  11020  11034     1
  11020  11035     1
  11020  11037     1
  11020  11038     1
  11020  11031     1
  11020  11032     1
  11021  11025     1
  11021  11026     1
  11021  11028     1
  11021  11029     1
  11021  11046     1
  11021  11047     1
  11022  11024     1
  11022  11027     1
  11022  11045     1
  11022  11034     1
  11022  11035     1
  11023  11024     1
  11023  11027     1
  11023  11045     1
  11023  11034     1
  11023  11035     1
  11024  11028     1
  11024  11029     1
  11024  11043     1
  11024  11044     1
  11025  11027     1
  11025  11042     1
  11025  11037     1
  11025  11038     1
  11026  11027     1
  11026  11042     1
  11026  11037     1
  11026  11038     1
  11027  11040     1
  11027  11041     1
  11028  11039     1
  11028  11031     1
  11028  11032     1
  11029  11039     1
  11029  11031     1
  11029  11032     1
  11031  11048     1
  11031  11040     1
  11031  11041     1
  11032  11048     1
  11032  11040     1
  11032  11041     1
  11034  19851     1
  11034  11046     1
  11034  11047     1
  11035  19851     1
  11035  11046     1
  11035  11047     1
  11037  19828     1
  11037  11043     1
  11037  11044     1
  11038  19828     1
  11038  11043     1
  11038  11044     1
  11042  19827     1
  11043  19824     1
  11044  19824     1
  11045  19850     1
  11046  19847     1
  11047  19847     1
  11049  11063     1
  11049  11064     1
  11049  11066     1
  11049  11067     1
  11049  11060     1
  11049  11061     1
  11050  11054     1
  11050  11055     1
  11050  11057     1
  11050  11058     1
  11050  11075     1
  11050  11076     1
  11051  11053     1
  11051  11056     1
  11051  11074     1
  11051  11063     1
  11051  11064     1
  11052  11053     1
  11052  11056     1
  11052  11074     1
  11052  11063     1
  11052  11064     1
  11053  11057     1
  11053  11058     1
  11053  11072     1
  11053  11073     1
  11054  11056     1
  11054  11071     1
  11054  11066     1
  11054  11067     1
  11055  11056     1
  11055  11071     1
  11055  11066     1
  11055  11067     1
  11056  11069     1
  11056  11070     1
  11057  11068     1
  11057  11060     1
  11057  11061     1
  11058  11068     1
  11058  11060     1
  11058  11061     1
  11060  11077     1
  11060  11069     1
  11060  11070     1
  11061  11077     1
  11061  11069     1
  11061  11070     1
  11063  19897     1
  11063  11075     1
  11063  11076     1
  11064  19897     1
  11064  11075     1
  11064  11076     1
  11066  19874     1
  11066  11072     1
  11066  11073     1
  11067  19874     1
  11067  11072     1
  11067  11073     1
  11071  19873     1
  11072  19870     1
  11073  19870     1
  11074  19896     1
  11075  19893     1
  11076  19893     1
  11078  11086     1
  11078  11094     1
  11078  11099     1
  11078  11087     1
  11079  11096     1
  11079  11097     1
  11079  11085     1
  11079  11093     1
  11080  11082     1
  11080  11091     1
  11080  11081     1
  11080  11098     1
  11080  11096     1
  11080  11097     1
  11080  11084     1
  11081  11092     1
  11081  11100     1
  11081  11083     1
  11081  11090     1
  11081  11086     1
  11081  11094     1
  11082  11094     1
  11082  11087     1
  11082  11095     1
  11083  11093     1
  11084  11086     1
  11084  11095     1
  11085  11090     1
  11085  11086     1
  11085  11088     1
  11085  11100     1
  11085  11087     1
  11085  11095     1
  11086  11091     1
  11086  11089     1
  11086  11093     1
  11087  11089     1
  11096  11100     1
  11096  11099     1
  11097  11100     1
  11097  11099     1
  11101  11109     1
  11101  11117     1
  11101  11122     1
  11101  11110     1
  11102  11108     1
  11102  11116     1
  11102  11119     1
  11102  11120     1
  11103  11105     1
  11103  11114     1
  11103  11104     1
  11103  11121     1
  11103  11119     1
  11103  11120     1
  11103  11107     1
  11104  11106     1
  11104  11113     1
  11104  11109     1
  11104  11117     1
  11104  11115     1
  11104  11123     1
  11105  11110     1
  11105  11118     1
  11105  11117     1
  11106  11116     1
  11107  11118     1
  11107  11109     1
  11108  11111     1
  11108  11123     1
  11108  11110     1
  11108  11118     1
  11108  11113     1
  11108  11109     1
  11109  11112     1
  11109  11116     1
  11109  11114     1
  11110  11112     1
  11119  11122     1
  11119  11123     1
  11120  11122     1
  11120  11123     1
  11124  11132     1
  11124  11140     1
  11124  11145     1
  11124  11133     1
  11125  11142     1
  11125  11143     1
  11125  11131     1
  11125  11139     1
  11126  11128     1
  11126  11137     1
  11126  11127     1
  11126  11144     1
  11126  11142     1
  11126  11143     1
  11126  11130     1
  11127  11138     1
  11127  11146     1
  11127  11129     1
  11127  11136     1
  11127  11132     1
  11127  11140     1
  11128  11140     1
  11128  11133     1
  11128  11141     1
  11129  11139     1
  11130  11132     1
  11130  11141     1
  11131  11136     1
  11131  11132     1
  11131  11134     1
  11131  11146     1
  11131  11133     1
  11131  11141     1
  11132  11137     1
  11132  11135     1
  11132  11139     1
  11133  11135     1
  11142  11146     1
  11142  11145     1
  11143  11146     1
  11143  11145     1
  11147  11155     1
  11147  11163     1
  11147  11168     1
  11147  11156     1
  11148  11154     1
  11148  11162     1
  11148  11165     1
  11148  11166     1
  11149  11151     1
  11149  11160     1
  11149  11150     1
  11149  11167     1
  11149  11165     1
  11149  11166     1
  11149  11153     1
  11150  11152     1
  11150  11159     1
  11150  11155     1
  11150  11163     1
  11150  11161     1
  11150  11169     1
  11151  11156     1
  11151  11164     1
  11151  11163     1
  11152  11162     1
  11153  11164     1
  11153  11155     1
  11154  11157     1
  11154  11169     1
  11154  11156     1
  11154  11164     1
  11154  11159     1
  11154  11155     1
  11155  11158     1
  11155  11162     1
  11155  11160     1
  11156  11158     1
  11165  11168     1
  11165  11169     1
  11166  11168     1
  11166  11169     1
  11170  11178     1
  11170  11186     1
  11170  11191     1
  11170  11179     1
  11171  11188     1
  11171  11189     1
  11171  11177     1
  11171  11185     1
  11172  11174     1
  11172  11183     1
  11172  11173     1
  11172  11190     1
  11172  11188     1
  11172  11189     1
  11172  11176     1
  11173  11184     1
  11173  11192     1
  11173  11175     1
  11173  11182     1
  11173  11178     1
  11173  11186     1
  11174  11186     1
  11174  11179     1
  11174  11187     1
  11175  11185     1
  11176  11178     1
  11176  11187     1
  11177  11182     1
  11177  11178     1
  11177  11180     1
  11177  11192     1
  11177  11179     1
  11177  11187     1
  11178  11183     1
  11178  11181     1
  11178  11185     1
  11179  11181     1
  11188  11192     1
  11188  11191     1
  11189  11192     1
  11189  11191     1
  11193  11201     1
  11193  11209     1
  11193  11214     1
  11193  11202     1
  11194  11200     1
  11194  11208     1
  11194  11211     1
  11194  11212     1
  11195  11197     1
  11195  11206     1
  11195  11196     1
  11195  11213     1
  11195  11211     1
  11195  11212     1
  11195  11199     1
  11196  11198     1
  11196  11205     1
  11196  11201     1
  11196  11209     1
  11196  11207     1
  11196  11215     1
  11197  11202     1
  11197  11210     1
  11197  11209     1
  11198  11208     1
  11199  11210     1
  11199  11201     1
  11200  11203     1
  11200  11215     1
  11200  11202     1
  11200  11210     1
  11200  11205     1
  11200  11201     1
  11201  11204     1
  11201  11208     1
  11201  11206     1
  11202  11204     1
  11211  11214     1
  11211  11215     1
  11212  11214     1
  11212  11215     1
  11216  11224     1
  11216  11232     1
  11216  11237     1
  11216  11225     1
  11217  11234     1
  11217  11235     1
  11217  11223     1
  11217  11231     1
  11218  11220     1
  11218  11229     1
  11218  11219     1
  11218  11236     1
  11218  11234     1
  11218  11235     1
  11218  11222     1
  11219  11230     1
  11219  11238     1
  11219  11221     1
  11219  11228     1
  11219  11224     1
  11219  11232     1
  11220  11232     1
  11220  11225     1
  11220  11233     1
  11221  11231     1
  11222  11224     1
  11222  11233     1
  11223  11228     1
  11223  11224     1
  11223  11226     1
  11223  11238     1
  11223  11225     1
  11223  11233     1
  11224  11229     1
  11224  11227     1
  11224  11231     1
  11225  11227     1
  11234  11238     1
  11234  11237     1
  11235  11238     1
  11235  11237     1
  11239  11247     1
  11239  11255     1
  11239  11260     1
  11239  11248     1
  11240  11246     1
  11240  11254     1
  11240  11257     1
  11240  11258     1
  11241  11243     1
  11241  11252     1
  11241  11242     1
  11241  11259     1
  11241  11257     1
  11241  11258     1
  11241  11245     1
  11242  11244     1
  11242  11251     1
  11242  11247     1
  11242  11255     1
  11242  11253     1
  11242  11261     1
  11243  11248     1
  11243  11256     1
  11243  11255     1
  11244  11254     1
  11245  11256     1
  11245  11247     1
  11246  11249     1
  11246  11261     1
  11246  11248     1
  11246  11256     1
  11246  11251     1
  11246  11247     1
  11247  11250     1
  11247  11254     1
  11247  11252     1
  11248  11250     1
  11257  11260     1
  11257  11261     1
  11258  11260     1
  11258  11261     1
  11262  11270     1
  11262  11278     1
  11262  11283     1
  11262  11271     1
  11263  11280     1
  11263  11281     1
  11263  11269     1
  11263  11277     1
  11264  11266     1
  11264  11275     1
  11264  11265     1
  11264  11282     1
  11264  11280     1
  11264  11281     1
  11264  11268     1
  11265  11276     1
  11265  11284     1
  11265  11267     1
  11265  11274     1
  11265  11270     1
  11265  11278     1
  11266  11278     1
  11266  11271     1
  11266  11279     1
  11267  11277     1
  11268  11270     1
  11268  11279     1
  11269  11274     1
  11269  11270     1
  11269  11272     1
  11269  11284     1
  11269  11271     1
  11269  11279     1
  11270  11275     1
  11270  11273     1
  11270  11277     1
  11271  11273     1
  11280  11284     1
  11280  11283     1
  11281  11284     1
  11281  11283     1
  11285  11293     1
  11285  11301     1
  11285  11306     1
  11285  11294     1
  11286  11292     1
  11286  11300     1
  11286  11303     1
  11286  11304     1
  11287  11289     1
  11287  11298     1
  11287  11288     1
  11287  11305     1
  11287  11303     1
  11287  11304     1
  11287  11291     1
  11288  11290     1
  11288  11297     1
  11288  11293     1
  11288  11301     1
  11288  11299     1
  11288  11307     1
  11289  11294     1
  11289  11302     1
  11289  11301     1
  11290  11300     1
  11291  11302     1
  11291  11293     1
  11292  11295     1
  11292  11307     1
  11292  11294     1
  11292  11302     1
  11292  11297     1
  11292  11293     1
  11293  11296     1
  11293  11300     1
  11293  11298     1
  11294  11296     1
  11303  11306     1
  11303  11307     1
  11304  11306     1
  11304  11307     1
  11308  11316     1
  11308  11324     1
  11308  11329     1
  11308  11317     1
  11309  11326     1
  11309  11327     1
  11309  11315     1
  11309  11323     1
  11310  11312     1
  11310  11321     1
  11310  11311     1
  11310  11328     1
  11310  11326     1
  11310  11327     1
  11310  11314     1
  11311  11322     1
  11311  11330     1
  11311  11313     1
  11311  11320     1
  11311  11316     1
  11311  11324     1
  11312  11324     1
  11312  11317     1
  11312  11325     1
  11313  11323     1
  11314  11316     1
  11314  11325     1
  11315  11320     1
  11315  11316     1
  11315  11318     1
  11315  11330     1
  11315  11317     1
  11315  11325     1
  11316  11321     1
  11316  11319     1
  11316  11323     1
  11317  11319     1
  11326  11330     1
  11326  11329     1
  11327  11330     1
  11327  11329     1
  11331  11339     1
  11331  11347     1
  11331  11352     1
  11331  11340     1
  11332  11338     1
  11332  11346     1
  11332  11349     1
  11332  11350     1
  11333  11335     1
  11333  11344     1
  11333  11334     1
  11333  11351     1
  11333  11349     1
  11333  11350     1
  11333  11337     1
  11334  11336     1
  11334  11343     1
  11334  11339     1
  11334  11347     1
  11334  11345     1
  11334  11353     1
  11335  11340     1
  11335  11348     1
  11335  11347     1
  11336  11346     1
  11337  11348     1
  11337  11339     1
  11338  11341     1
  11338  11353     1
  11338  11340     1
  11338  11348     1
  11338  11343     1
  11338  11339     1
  11339  11342     1
  11339  11346     1
  11339  11344     1
  11340  11342     1
  11349  11352     1
  11349  11353     1
  11350  11352     1
  11350  11353     1
  11354  11362     1
  11354  11370     1
  11354  11375     1
  11354  11363     1
  11355  11372     1
  11355  11373     1
  11355  11361     1
  11355  11369     1
  11356  11358     1
  11356  11367     1
  11356  11357     1
  11356  11374     1
  11356  11372     1
  11356  11373     1
  11356  11360     1
  11357  11368     1
  11357  11376     1
  11357  11359     1
  11357  11366     1
  11357  11362     1
  11357  11370     1
  11358  11370     1
  11358  11363     1
  11358  11371     1
  11359  11369     1
  11360  11362     1
  11360  11371     1
  11361  11366     1
  11361  11362     1
  11361  11364     1
  11361  11376     1
  11361  11363     1
  11361  11371     1
  11362  11367     1
  11362  11365     1
  11362  11369     1
  11363  11365     1
  11372  11376     1
  11372  11375     1
  11373  11376     1
  11373  11375     1
  11377  11385     1
  11377  11393     1
  11377  11398     1
  11377  11386     1
  11378  11384     1
  11378  11392     1
  11378  11395     1
  11378  11396     1
  11379  11381     1
  11379  11390     1
  11379  11380     1
  11379  11397     1
  11379  11395     1
  11379  11396     1
  11379  11383     1
  11380  11382     1
  11380  11389     1
  11380  11385     1
  11380  11393     1
  11380  11391     1
  11380  11399     1
  11381  11386     1
  11381  11394     1
  11381  11393     1
  11382  11392     1
  11383  11394     1
  11383  11385     1
  11384  11387     1
  11384  11399     1
  11384  11386     1
  11384  11394     1
  11384  11389     1
  11384  11385     1
  11385  11388     1
  11385  11392     1
  11385  11390     1
  11386  11388     1
  11395  11398     1
  11395  11399     1
  11396  11398     1
  11396  11399     1
  11400  11408     1
  11400  11416     1
  11400  11421     1
  11400  11409     1
  11401  11418     1
  11401  11419     1
  11401  11407     1
  11401  11415     1
  11402  11404     1
  11402  11413     1
  11402  11403     1
  11402  11420     1
  11402  11418     1
  11402  11419     1
  11402  11406     1
  11403  11414     1
  11403  11422     1
  11403  11405     1
  11403  11412     1
  11403  11408     1
  11403  11416     1
  11404  11416     1
  11404  11409     1
  11404  11417     1
  11405  11415     1
  11406  11408     1
  11406  11417     1
  11407  11412     1
  11407  11408     1
  11407  11410     1
  11407  11422     1
  11407  11409     1
  11407  11417     1
  11408  11413     1
  11408  11411     1
  11408  11415     1
  11409  11411     1
  11418  11422     1
  11418  11421     1
  11419  11422     1
  11419  11421     1
  11423  11431     1
  11423  11439     1
  11423  11444     1
  11423  11432     1
  11424  11430     1
  11424  11438     1
  11424  11441     1
  11424  11442     1
  11425  11427     1
  11425  11436     1
  11425  11426     1
  11425  11443     1
  11425  11441     1
  11425  11442     1
  11425  11429     1
  11426  11428     1
  11426  11435     1
  11426  11431     1
  11426  11439     1
  11426  11437     1
  11426  11445     1
  11427  11432     1
  11427  11440     1
  11427  11439     1
  11428  11438     1
  11429  11440     1
  11429  11431     1
  11430  11433     1
  11430  11445     1
  11430  11432     1
  11430  11440     1
  11430  11435     1
  11430  11431     1
  11431  11434     1
  11431  11438     1
  11431  11436     1
  11432  11434     1
  11441  11444     1
  11441  11445     1
  11442  11444     1
  11442  11445     1
  11446  11454     1
  11446  11462     1
  11446  11467     1
  11446  11455     1
  11447  11464     1
  11447  11465     1
  11447  11453     1
  11447  11461     1
  11448  11450     1
  11448  11459     1
  11448  11449     1
  11448  11466     1
  11448  11464     1
  11448  11465     1
  11448  11452     1
  11449  11460     1
  11449  11468     1
  11449  11451     1
  11449  11458     1
  11449  11454     1
  11449  11462     1
  11450  11462     1
  11450  11455     1
  11450  11463     1
  11451  11461     1
  11452  11454     1
  11452  11463     1
  11453  11458     1
  11453  11454     1
  11453  11456     1
  11453  11468     1
  11453  11455     1
  11453  11463     1
  11454  11459     1
  11454  11457     1
  11454  11461     1
  11455  11457     1
  11464  11468     1
  11464  11467     1
  11465  11468     1
  11465  11467     1
  11469  11477     1
  11469  11485     1
  11469  11490     1
  11469  11478     1
  11470  11476     1
  11470  11484     1
  11470  11487     1
  11470  11488     1
  11471  11473     1
  11471  11482     1
  11471  11472     1
  11471  11489     1
  11471  11487     1
  11471  11488     1
  11471  11475     1
  11472  11474     1
  11472  11481     1
  11472  11477     1
  11472  11485     1
  11472  11483     1
  11472  11491     1
  11473  11478     1
  11473  11486     1
  11473  11485     1
  11474  11484     1
  11475  11486     1
  11475  11477     1
  11476  11479     1
  11476  11491     1
  11476  11478     1
  11476  11486     1
  11476  11481     1
  11476  11477     1
  11477  11480     1
  11477  11484     1
  11477  11482     1
  11478  11480     1
  11487  11490     1
  11487  11491     1
  11488  11490     1
  11488  11491     1
  11492  11500     1
  11492  11508     1
  11492  11513     1
  11492  11501     1
  11493  11510     1
  11493  11511     1
  11493  11499     1
  11493  11507     1
  11494  11496     1
  11494  11505     1
  11494  11495     1
  11494  11512     1
  11494  11510     1
  11494  11511     1
  11494  11498     1
  11495  11506     1
  11495  11514     1
  11495  11497     1
  11495  11504     1
  11495  11500     1
  11495  11508     1
  11496  11508     1
  11496  11501     1
  11496  11509     1
  11497  11507     1
  11498  11500     1
  11498  11509     1
  11499  11504     1
  11499  11500     1
  11499  11502     1
  11499  11514     1
  11499  11501     1
  11499  11509     1
  11500  11505     1
  11500  11503     1
  11500  11507     1
  11501  11503     1
  11510  11514     1
  11510  11513     1
  11511  11514     1
  11511  11513     1
  11515  11523     1
  11515  11531     1
  11515  11536     1
  11515  11524     1
  11516  11522     1
  11516  11530     1
  11516  11533     1
  11516  11534     1
  11517  11519     1
  11517  11528     1
  11517  11518     1
  11517  11535     1
  11517  11533     1
  11517  11534     1
  11517  11521     1
  11518  11520     1
  11518  11527     1
  11518  11523     1
  11518  11531     1
  11518  11529     1
  11518  11537     1
  11519  11524     1
  11519  11532     1
  11519  11531     1
  11520  11530     1
  11521  11532     1
  11521  11523     1
  11522  11525     1
  11522  11537     1
  11522  11524     1
  11522  11532     1
  11522  11527     1
  11522  11523     1
  11523  11526     1
  11523  11530     1
  11523  11528     1
  11524  11526     1
  11533  11536     1
  11533  11537     1
  11534  11536     1
  11534  11537     1
  11538  11546     1
  11538  11554     1
  11538  11559     1
  11538  11547     1
  11539  11556     1
  11539  11557     1
  11539  11545     1
  11539  11553     1
  11540  11542     1
  11540  11551     1
  11540  11541     1
  11540  11558     1
  11540  11556     1
  11540  11557     1
  11540  11544     1
  11541  11552     1
  11541  11560     1
  11541  11543     1
  11541  11550     1
  11541  11546     1
  11541  11554     1
  11542  11554     1
  11542  11547     1
  11542  11555     1
  11543  11553     1
  11544  11546     1
  11544  11555     1
  11545  11550     1
  11545  11546     1
  11545  11548     1
  11545  11560     1
  11545  11547     1
  11545  11555     1
  11546  11551     1
  11546  11549     1
  11546  11553     1
  11547  11549     1
  11556  11560     1
  11556  11559     1
  11557  11560     1
  11557  11559     1
  11561  11569     1
  11561  11577     1
  11561  11582     1
  11561  11570     1
  11562  11568     1
  11562  11576     1
  11562  11579     1
  11562  11580     1
  11563  11565     1
  11563  11574     1
  11563  11564     1
  11563  11581     1
  11563  11579     1
  11563  11580     1
  11563  11567     1
  11564  11566     1
  11564  11573     1
  11564  11569     1
  11564  11577     1
  11564  11575     1
  11564  11583     1
  11565  11570     1
  11565  11578     1
  11565  11577     1
  11566  11576     1
  11567  11578     1
  11567  11569     1
  11568  11571     1
  11568  11583     1
  11568  11570     1
  11568  11578     1
  11568  11573     1
  11568  11569     1
  11569  11572     1
  11569  11576     1
  11569  11574     1
  11570  11572     1
  11579  11582     1
  11579  11583     1
  11580  11582     1
  11580  11583     1
  11584  11592     1
  11584  11600     1
  11584  11605     1
  11584  11593     1
  11585  11602     1
  11585  11603     1
  11585  11591     1
  11585  11599     1
  11586  11588     1
  11586  11597     1
  11586  11587     1
  11586  11604     1
  11586  11602     1
  11586  11603     1
  11586  11590     1
  11587  11598     1
  11587  11606     1
  11587  11589     1
  11587  11596     1
  11587  11592     1
  11587  11600     1
  11588  11600     1
  11588  11593     1
  11588  11601     1
  11589  11599     1
  11590  11592     1
  11590  11601     1
  11591  11596     1
  11591  11592     1
  11591  11594     1
  11591  11606     1
  11591  11593     1
  11591  11601     1
  11592  11597     1
  11592  11595     1
  11592  11599     1
  11593  11595     1
  11602  11606     1
  11602  11605     1
  11603  11606     1
  11603  11605     1
  11607  11615     1
  11607  11623     1
  11607  11628     1
  11607  11616     1
  11608  11614     1
  11608  11622     1
  11608  11625     1
  11608  11626     1
  11609  11611     1
  11609  11620     1
  11609  11610     1
  11609  11627     1
  11609  11625     1
  11609  11626     1
  11609  11613     1
  11610  11612     1
  11610  11619     1
  11610  11615     1
  11610  11623     1
  11610  11621     1
  11610  11629     1
  11611  11616     1
  11611  11624     1
  11611  11623     1
  11612  11622     1
  11613  11624     1
  11613  11615     1
  11614  11617     1
  11614  11629     1
  11614  11616     1
  11614  11624     1
  11614  11619     1
  11614  11615     1
  11615  11618     1
  11615  11622     1
  11615  11620     1
  11616  11618     1
  11625  11628     1
  11625  11629     1
  11626  11628     1
  11626  11629     1
  11630  11638     1
  11630  11646     1
  11630  11651     1
  11630  11639     1
  11631  11648     1
  11631  11649     1
  11631  11637     1
  11631  11645     1
  11632  11634     1
  11632  11643     1
  11632  11633     1
  11632  11650     1
  11632  11648     1
  11632  11649     1
  11632  11636     1
  11633  11644     1
  11633  11652     1
  11633  11635     1
  11633  11642     1
  11633  11638     1
  11633  11646     1
  11634  11646     1
  11634  11639     1
  11634  11647     1
  11635  11645     1
  11636  11638     1
  11636  11647     1
  11637  11642     1
  11637  11638     1
  11637  11640     1
  11637  11652     1
  11637  11639     1
  11637  11647     1
  11638  11643     1
  11638  11641     1
  11638  11645     1
  11639  11641     1
  11648  11652     1
  11648  11651     1
  11649  11652     1
  11649  11651     1
  11653  11661     1
  11653  11669     1
  11653  11674     1
  11653  11662     1
  11654  11660     1
  11654  11668     1
  11654  11671     1
  11654  11672     1
  11655  11657     1
  11655  11666     1
  11655  11656     1
  11655  11673     1
  11655  11671     1
  11655  11672     1
  11655  11659     1
  11656  11658     1
  11656  11665     1
  11656  11661     1
  11656  11669     1
  11656  11667     1
  11656  11675     1
  11657  11662     1
  11657  11670     1
  11657  11669     1
  11658  11668     1
  11659  11670     1
  11659  11661     1
  11660  11663     1
  11660  11675     1
  11660  11662     1
  11660  11670     1
  11660  11665     1
  11660  11661     1
  11661  11664     1
  11661  11668     1
  11661  11666     1
  11662  11664     1
  11671  11674     1
  11671  11675     1
  11672  11674     1
  11672  11675     1
  11676  11684     1
  11676  11692     1
  11676  11697     1
  11676  11685     1
  11677  11694     1
  11677  11695     1
  11677  11683     1
  11677  11691     1
  11678  11680     1
  11678  11689     1
  11678  11679     1
  11678  11696     1
  11678  11694     1
  11678  11695     1
  11678  11682     1
  11679  11690     1
  11679  11698     1
  11679  11681     1
  11679  11688     1
  11679  11684     1
  11679  11692     1
  11680  11692     1
  11680  11685     1
  11680  11693     1
  11681  11691     1
  11682  11684     1
  11682  11693     1
  11683  11688     1
  11683  11684     1
  11683  11686     1
  11683  11698     1
  11683  11685     1
  11683  11693     1
  11684  11689     1
  11684  11687     1
  11684  11691     1
  11685  11687     1
  11694  11698     1
  11694  11697     1
  11695  11698     1
  11695  11697     1
  11699  11707     1
  11699  11715     1
  11699  11720     1
  11699  11708     1
  11700  11706     1
  11700  11714     1
  11700  11717     1
  11700  11718     1
  11701  11703     1
  11701  11712     1
  11701  11702     1
  11701  11719     1
  11701  11717     1
  11701  11718     1
  11701  11705     1
  11702  11704     1
  11702  11711     1
  11702  11707     1
  11702  11715     1
  11702  11713     1
  11702  11721     1
  11703  11708     1
  11703  11716     1
  11703  11715     1
  11704  11714     1
  11705  11716     1
  11705  11707     1
  11706  11709     1
  11706  11721     1
  11706  11708     1
  11706  11716     1
  11706  11711     1
  11706  11707     1
  11707  11710     1
  11707  11714     1
  11707  11712     1
  11708  11710     1
  11717  11720     1
  11717  11721     1
  11718  11720     1
  11718  11721     1
  11722  11730     1
  11722  11738     1
  11722  11743     1
  11722  11731     1
  11723  11740     1
  11723  11741     1
  11723  11729     1
  11723  11737     1
  11724  11726     1
  11724  11735     1
  11724  11725     1
  11724  11742     1
  11724  11740     1
  11724  11741     1
  11724  11728     1
  11725  11736     1
  11725  11744     1
  11725  11727     1
  11725  11734     1
  11725  11730     1
  11725  11738     1
  11726  11738     1
  11726  11731     1
  11726  11739     1
  11727  11737     1
  11728  11730     1
  11728  11739     1
  11729  11734     1
  11729  11730     1
  11729  11732     1
  11729  11744     1
  11729  11731     1
  11729  11739     1
  11730  11735     1
  11730  11733     1
  11730  11737     1
  11731  11733     1
  11740  11744     1
  11740  11743     1
  11741  11744     1
  11741  11743     1
  11745  11753     1
  11745  11761     1
  11745  11766     1
  11745  11754     1
  11746  11752     1
  11746  11760     1
  11746  11763     1
  11746  11764     1
  11747  11749     1
  11747  11758     1
  11747  11748     1
  11747  11765     1
  11747  11763     1
  11747  11764     1
  11747  11751     1
  11748  11750     1
  11748  11757     1
  11748  11753     1
  11748  11761     1
  11748  11759     1
  11748  11767     1
  11749  11754     1
  11749  11762     1
  11749  11761     1
  11750  11760     1
  11751  11762     1
  11751  11753     1
  11752  11755     1
  11752  11767     1
  11752  11754     1
  11752  11762     1
  11752  11757     1
  11752  11753     1
  11753  11756     1
  11753  11760     1
  11753  11758     1
  11754  11756     1
  11763  11766     1
  11763  11767     1
  11764  11766     1
  11764  11767     1
  11768  11776     1
  11768  11784     1
  11768  11789     1
  11768  11777     1
  11769  11786     1
  11769  11787     1
  11769  11775     1
  11769  11783     1
  11770  11772     1
  11770  11781     1
  11770  11771     1
  11770  11788     1
  11770  11786     1
  11770  11787     1
  11770  11774     1
  11771  11782     1
  11771  11790     1
  11771  11773     1
  11771  11780     1
  11771  11776     1
  11771  11784     1
  11772  11784     1
  11772  11777     1
  11772  11785     1
  11773  11783     1
  11774  11776     1
  11774  11785     1
  11775  11780     1
  11775  11776     1
  11775  11778     1
  11775  11790     1
  11775  11777     1
  11775  11785     1
  11776  11781     1
  11776  11779     1
  11776  11783     1
  11777  11779     1
  11786  11790     1
  11786  11789     1
  11787  11790     1
  11787  11789     1
  11791  11799     1
  11791  11807     1
  11791  11812     1
  11791  11800     1
  11792  11798     1
  11792  11806     1
  11792  11809     1
  11792  11810     1
  11793  11795     1
  11793  11804     1
  11793  11794     1
  11793  11811     1
  11793  11809     1
  11793  11810     1
  11793  11797     1
  11794  11796     1
  11794  11803     1
  11794  11799     1
  11794  11807     1
  11794  11805     1
  11794  11813     1
  11795  11800     1
  11795  11808     1
  11795  11807     1
  11796  11806     1
  11797  11808     1
  11797  11799     1
  11798  11801     1
  11798  11813     1
  11798  11800     1
  11798  11808     1
  11798  11803     1
  11798  11799     1
  11799  11802     1
  11799  11806     1
  11799  11804     1
  11800  11802     1
  11809  11812     1
  11809  11813     1
  11810  11812     1
  11810  11813     1
  11814  11822     1
  11814  11830     1
  11814  11835     1
  11814  11823     1
  11815  11832     1
  11815  11833     1
  11815  11821     1
  11815  11829     1
  11816  11818     1
  11816  11827     1
  11816  11817     1
  11816  11834     1
  11816  11832     1
  11816  11833     1
  11816  11820     1
  11817  11828     1
  11817  11836     1
  11817  11819     1
  11817  11826     1
  11817  11822     1
  11817  11830     1
  11818  11830     1
  11818  11823     1
  11818  11831     1
  11819  11829     1
  11820  11822     1
  11820  11831     1
  11821  11826     1
  11821  11822     1
  11821  11824     1
  11821  11836     1
  11821  11823     1
  11821  11831     1
  11822  11827     1
  11822  11825     1
  11822  11829     1
  11823  11825     1
  11832  11836     1
  11832  11835     1
  11833  11836     1
  11833  11835     1
  11837  11845     1
  11837  11853     1
  11837  11858     1
  11837  11846     1
  11838  11844     1
  11838  11852     1
  11838  11855     1
  11838  11856     1
  11839  11841     1
  11839  11850     1
  11839  11840     1
  11839  11857     1
  11839  11855     1
  11839  11856     1
  11839  11843     1
  11840  11842     1
  11840  11849     1
  11840  11845     1
  11840  11853     1
  11840  11851     1
  11840  11859     1
  11841  11846     1
  11841  11854     1
  11841  11853     1
  11842  11852     1
  11843  11854     1
  11843  11845     1
  11844  11847     1
  11844  11859     1
  11844  11846     1
  11844  11854     1
  11844  11849     1
  11844  11845     1
  11845  11848     1
  11845  11852     1
  11845  11850     1
  11846  11848     1
  11855  11858     1
  11855  11859     1
  11856  11858     1
  11856  11859     1
  11860  11868     1
  11860  11876     1
  11860  11881     1
  11860  11869     1
  11861  11878     1
  11861  11879     1
  11861  11867     1
  11861  11875     1
  11862  11864     1
  11862  11873     1
  11862  11863     1
  11862  11880     1
  11862  11878     1
  11862  11879     1
  11862  11866     1
  11863  11874     1
  11863  11882     1
  11863  11865     1
  11863  11872     1
  11863  11868     1
  11863  11876     1
  11864  11876     1
  11864  11869     1
  11864  11877     1
  11865  11875     1
  11866  11868     1
  11866  11877     1
  11867  11872     1
  11867  11868     1
  11867  11870     1
  11867  11882     1
  11867  11869     1
  11867  11877     1
  11868  11873     1
  11868  11871     1
  11868  11875     1
  11869  11871     1
  11878  11882     1
  11878  11881     1
  11879  11882     1
  11879  11881     1
  11883  11891     1
  11883  11899     1
  11883  11904     1
  11883  11892     1
  11884  11890     1
  11884  11898     1
  11884  11901     1
  11884  11902     1
  11885  11887     1
  11885  11896     1
  11885  11886     1
  11885  11903     1
  11885  11901     1
  11885  11902     1
  11885  11889     1
  11886  11888     1
  11886  11895     1
  11886  11891     1
  11886  11899     1
  11886  11897     1
  11886  11905     1
  11887  11892     1
  11887  11900     1
  11887  11899     1
  11888  11898     1
  11889  11900     1
  11889  11891     1
  11890  11893     1
  11890  11905     1
  11890  11892     1
  11890  11900     1
  11890  11895     1
  11890  11891     1
  11891  11894     1
  11891  11898     1
  11891  11896     1
  11892  11894     1
  11901  11904     1
  11901  11905     1
  11902  11904     1
  11902  11905     1
  11906  11914     1
  11906  11922     1
  11906  11927     1
  11906  11915     1
  11907  11924     1
  11907  11925     1
  11907  11913     1
  11907  11921     1
  11908  11910     1
  11908  11919     1
  11908  11909     1
  11908  11926     1
  11908  11924     1
  11908  11925     1
  11908  11912     1
  11909  11920     1
  11909  11928     1
  11909  11911     1
  11909  11918     1
  11909  11914     1
  11909  11922     1
  11910  11922     1
  11910  11915     1
  11910  11923     1
  11911  11921     1
  11912  11914     1
  11912  11923     1
  11913  11918     1
  11913  11914     1
  11913  11916     1
  11913  11928     1
  11913  11915     1
  11913  11923     1
  11914  11919     1
  11914  11917     1
  11914  11921     1
  11915  11917     1
  11924  11928     1
  11924  11927     1
  11925  11928     1
  11925  11927     1
  11929  11937     1
  11929  11945     1
  11929  11950     1
  11929  11938     1
  11930  11936     1
  11930  11944     1
  11930  11947     1
  11930  11948     1
  11931  11933     1
  11931  11942     1
  11931  11932     1
  11931  11949     1
  11931  11947     1
  11931  11948     1
  11931  11935     1
  11932  11934     1
  11932  11941     1
  11932  11937     1
  11932  11945     1
  11932  11943     1
  11932  11951     1
  11933  11938     1
  11933  11946     1
  11933  11945     1
  11934  11944     1
  11935  11946     1
  11935  11937     1
  11936  11939     1
  11936  11951     1
  11936  11938     1
  11936  11946     1
  11936  11941     1
  11936  11937     1
  11937  11940     1
  11937  11944     1
  11937  11942     1
  11938  11940     1
  11947  11950     1
  11947  11951     1
  11948  11950     1
  11948  11951     1
  11952  11960     1
  11952  11968     1
  11952  11973     1
  11952  11961     1
  11953  11970     1
  11953  11971     1
  11953  11959     1
  11953  11967     1
  11954  11956     1
  11954  11965     1
  11954  11955     1
  11954  11972     1
  11954  11970     1
  11954  11971     1
  11954  11958     1
  11955  11966     1
  11955  11974     1
  11955  11957     1
  11955  11964     1
  11955  11960     1
  11955  11968     1
  11956  11968     1
  11956  11961     1
  11956  11969     1
  11957  11967     1
  11958  11960     1
  11958  11969     1
  11959  11964     1
  11959  11960     1
  11959  11962     1
  11959  11974     1
  11959  11961     1
  11959  11969     1
  11960  11965     1
  11960  11963     1
  11960  11967     1
  11961  11963     1
  11970  11974     1
  11970  11973     1
  11971  11974     1
  11971  11973     1
  11975  11983     1
  11975  11991     1
  11975  11996     1
  11975  11984     1
  11976  11982     1
  11976  11990     1
  11976  11993     1
  11976  11994     1
  11977  11979     1
  11977  11988     1
  11977  11978     1
  11977  11995     1
  11977  11993     1
  11977  11994     1
  11977  11981     1
  11978  11980     1
  11978  11987     1
  11978  11983     1
  11978  11991     1
  11978  11989     1
  11978  11997     1
  11979  11984     1
  11979  11992     1
  11979  11991     1
  11980  11990     1
  11981  11992     1
  11981  11983     1
  11982  11985     1
  11982  11997     1
  11982  11984     1
  11982  11992     1
  11982  11987     1
  11982  11983     1
  11983  11986     1
  11983  11990     1
  11983  11988     1
  11984  11986     1
  11993  11996     1
  11993  11997     1
  11994  11996     1
  11994  11997     1
  11998  12006     1
  11998  12014     1
  11998  12019     1
  11998  12007     1
  11999  12016     1
  11999  12017     1
  11999  12005     1
  11999  12013     1
  12000  12002     1
  12000  12011     1
  12000  12001     1
  12000  12018     1
  12000  12016     1
  12000  12017     1
  12000  12004     1
  12001  12012     1
  12001  12020     1
  12001  12003     1
  12001  12010     1
  12001  12006     1
  12001  12014     1
  12002  12014     1
  12002  12007     1
  12002  12015     1
  12003  12013     1
  12004  12006     1
  12004  12015     1
  12005  12010     1
  12005  12006     1
  12005  12008     1
  12005  12020     1
  12005  12007     1
  12005  12015     1
  12006  12011     1
  12006  12009     1
  12006  12013     1
  12007  12009     1
  12016  12020     1
  12016  12019     1
  12017  12020     1
  12017  12019     1
  12021  12029     1
  12021  12037     1
  12021  12042     1
  12021  12030     1
  12022  12028     1
  12022  12036     1
  12022  12039     1
  12022  12040     1
  12023  12025     1
  12023  12034     1
  12023  12024     1
  12023  12041     1
  12023  12039     1
  12023  12040     1
  12023  12027     1
  12024  12026     1
  12024  12033     1
  12024  12029     1
  12024  12037     1
  12024  12035     1
  12024  12043     1
  12025  12030     1
  12025  12038     1
  12025  12037     1
  12026  12036     1
  12027  12038     1
  12027  12029     1
  12028  12031     1
  12028  12043     1
  12028  12030     1
  12028  12038     1
  12028  12033     1
  12028  12029     1
  12029  12032     1
  12029  12036     1
  12029  12034     1
  12030  12032     1
  12039  12042     1
  12039  12043     1
  12040  12042     1
  12040  12043     1
  12044  12052     1
  12044  12060     1
  12044  12065     1
  12044  12053     1
  12045  12062     1
  12045  12063     1
  12045  12051     1
  12045  12059     1
  12046  12048     1
  12046  12057     1
  12046  12047     1
  12046  12064     1
  12046  12062     1
  12046  12063     1
  12046  12050     1
  12047  12058     1
  12047  12066     1
  12047  12049     1
  12047  12056     1
  12047  12052     1
  12047  12060     1
  12048  12060     1
  12048  12053     1
  12048  12061     1
  12049  12059     1
  12050  12052     1
  12050  12061     1
  12051  12056     1
  12051  12052     1
  12051  12054     1
  12051  12066     1
  12051  12053     1
  12051  12061     1
  12052  12057     1
  12052  12055     1
  12052  12059     1
  12053  12055     1
  12062  12066     1
  12062  12065     1
  12063  12066     1
  12063  12065     1
  12067  12075     1
  12067  12083     1
  12067  12088     1
  12067  12076     1
  12068  12074     1
  12068  12082     1
  12068  12085     1
  12068  12086     1
  12069  12071     1
  12069  12080     1
  12069  12070     1
  12069  12087     1
  12069  12085     1
  12069  12086     1
  12069  12073     1
  12070  12072     1
  12070  12079     1
  12070  12075     1
  12070  12083     1
  12070  12081     1
  12070  12089     1
  12071  12076     1
  12071  12084     1
  12071  12083     1
  12072  12082     1
  12073  12084     1
  12073  12075     1
  12074  12077     1
  12074  12089     1
  12074  12076     1
  12074  12084     1
  12074  12079     1
  12074  12075     1
  12075  12078     1
  12075  12082     1
  12075  12080     1
  12076  12078     1
  12085  12088     1
  12085  12089     1
  12086  12088     1
  12086  12089     1
  12090  12098     1
  12090  12106     1
  12090  12111     1
  12090  12099     1
  12091  12108     1
  12091  12109     1
  12091  12097     1
  12091  12105     1
  12092  12094     1
  12092  12103     1
  12092  12093     1
  12092  12110     1
  12092  12108     1
  12092  12109     1
  12092  12096     1
  12093  12104     1
  12093  12112     1
  12093  12095     1
  12093  12102     1
  12093  12098     1
  12093  12106     1
  12094  12106     1
  12094  12099     1
  12094  12107     1
  12095  12105     1
  12096  12098     1
  12096  12107     1
  12097  12102     1
  12097  12098     1
  12097  12100     1
  12097  12112     1
  12097  12099     1
  12097  12107     1
  12098  12103     1
  12098  12101     1
  12098  12105     1
  12099  12101     1
  12108  12112     1
  12108  12111     1
  12109  12112     1
  12109  12111     1
  12113  12121     1
  12113  12129     1
  12113  12134     1
  12113  12122     1
  12114  12120     1
  12114  12128     1
  12114  12131     1
  12114  12132     1
  12115  12117     1
  12115  12126     1
  12115  12116     1
  12115  12133     1
  12115  12131     1
  12115  12132     1
  12115  12119     1
  12116  12118     1
  12116  12125     1
  12116  12121     1
  12116  12129     1
  12116  12127     1
  12116  12135     1
  12117  12122     1
  12117  12130     1
  12117  12129     1
  12118  12128     1
  12119  12130     1
  12119  12121     1
  12120  12123     1
  12120  12135     1
  12120  12122     1
  12120  12130     1
  12120  12125     1
  12120  12121     1
  12121  12124     1
  12121  12128     1
  12121  12126     1
  12122  12124     1
  12131  12134     1
  12131  12135     1
  12132  12134     1
  12132  12135     1
  12136  12144     1
  12136  12152     1
  12136  12157     1
  12136  12145     1
  12137  12154     1
  12137  12155     1
  12137  12143     1
  12137  12151     1
  12138  12140     1
  12138  12149     1
  12138  12139     1
  12138  12156     1
  12138  12154     1
  12138  12155     1
  12138  12142     1
  12139  12150     1
  12139  12158     1
  12139  12141     1
  12139  12148     1
  12139  12144     1
  12139  12152     1
  12140  12152     1
  12140  12145     1
  12140  12153     1
  12141  12151     1
  12142  12144     1
  12142  12153     1
  12143  12148     1
  12143  12144     1
  12143  12146     1
  12143  12158     1
  12143  12145     1
  12143  12153     1
  12144  12149     1
  12144  12147     1
  12144  12151     1
  12145  12147     1
  12154  12158     1
  12154  12157     1
  12155  12158     1
  12155  12157     1
  12159  12167     1
  12159  12175     1
  12159  12180     1
  12159  12168     1
  12160  12166     1
  12160  12174     1
  12160  12177     1
  12160  12178     1
  12161  12163     1
  12161  12172     1
  12161  12162     1
  12161  12179     1
  12161  12177     1
  12161  12178     1
  12161  12165     1
  12162  12164     1
  12162  12171     1
  12162  12167     1
  12162  12175     1
  12162  12173     1
  12162  12181     1
  12163  12168     1
  12163  12176     1
  12163  12175     1
  12164  12174     1
  12165  12176     1
  12165  12167     1
  12166  12169     1
  12166  12181     1
  12166  12168     1
  12166  12176     1
  12166  12171     1
  12166  12167     1
  12167  12170     1
  12167  12174     1
  12167  12172     1
  12168  12170     1
  12177  12180     1
  12177  12181     1
  12178  12180     1
  12178  12181     1
  12182  12190     1
  12182  12198     1
  12182  12203     1
  12182  12191     1
  12183  12200     1
  12183  12201     1
  12183  12189     1
  12183  12197     1
  12184  12186     1
  12184  12195     1
  12184  12185     1
  12184  12202     1
  12184  12200     1
  12184  12201     1
  12184  12188     1
  12185  12196     1
  12185  12204     1
  12185  12187     1
  12185  12194     1
  12185  12190     1
  12185  12198     1
  12186  12198     1
  12186  12191     1
  12186  12199     1
  12187  12197     1
  12188  12190     1
  12188  12199     1
  12189  12194     1
  12189  12190     1
  12189  12192     1
  12189  12204     1
  12189  12191     1
  12189  12199     1
  12190  12195     1
  12190  12193     1
  12190  12197     1
  12191  12193     1
  12200  12204     1
  12200  12203     1
  12201  12204     1
  12201  12203     1
  12205  12213     1
  12205  12221     1
  12205  12226     1
  12205  12214     1
  12206  12212     1
  12206  12220     1
  12206  12223     1
  12206  12224     1
  12207  12209     1
  12207  12218     1
  12207  12208     1
  12207  12225     1
  12207  12223     1
  12207  12224     1
  12207  12211     1
  12208  12210     1
  12208  12217     1
  12208  12213     1
  12208  12221     1
  12208  12219     1
  12208  12227     1
  12209  12214     1
  12209  12222     1
  12209  12221     1
  12210  12220     1
  12211  12222     1
  12211  12213     1
  12212  12215     1
  12212  12227     1
  12212  12214     1
  12212  12222     1
  12212  12217     1
  12212  12213     1
  12213  12216     1
  12213  12220     1
  12213  12218     1
  12214  12216     1
  12223  12226     1
  12223  12227     1
  12224  12226     1
  12224  12227     1
  12228  12236     1
  12228  12244     1
  12228  12249     1
  12228  12237     1
  12229  12246     1
  12229  12247     1
  12229  12235     1
  12229  12243     1
  12230  12232     1
  12230  12241     1
  12230  12231     1
  12230  12248     1
  12230  12246     1
  12230  12247     1
  12230  12234     1
  12231  12242     1
  12231  12250     1
  12231  12233     1
  12231  12240     1
  12231  12236     1
  12231  12244     1
  12232  12244     1
  12232  12237     1
  12232  12245     1
  12233  12243     1
  12234  12236     1
  12234  12245     1
  12235  12240     1
  12235  12236     1
  12235  12238     1
  12235  12250     1
  12235  12237     1
  12235  12245     1
  12236  12241     1
  12236  12239     1
  12236  12243     1
  12237  12239     1
  12246  12250     1
  12246  12249     1
  12247  12250     1
  12247  12249     1
  12251  12259     1
  12251  12267     1
  12251  12272     1
  12251  12260     1
  12252  12258     1
  12252  12266     1
  12252  12269     1
  12252  12270     1
  12253  12255     1
  12253  12264     1
  12253  12254     1
  12253  12271     1
  12253  12269     1
  12253  12270     1
  12253  12257     1
  12254  12256     1
  12254  12263     1
  12254  12259     1
  12254  12267     1
  12254  12265     1
  12254  12273     1
  12255  12260     1
  12255  12268     1
  12255  12267     1
  12256  12266     1
  12257  12268     1
  12257  12259     1
  12258  12261     1
  12258  12273     1
  12258  12260     1
  12258  12268     1
  12258  12263     1
  12258  12259     1
  12259  12262     1
  12259  12266     1
  12259  12264     1
  12260  12262     1
  12269  12272     1
  12269  12273     1
  12270  12272     1
  12270  12273     1
  12274  12282     1
  12274  12290     1
  12274  12295     1
  12274  12283     1
  12275  12292     1
  12275  12293     1
  12275  12281     1
  12275  12289     1
  12276  12278     1
  12276  12287     1
  12276  12277     1
  12276  12294     1
  12276  12292     1
  12276  12293     1
  12276  12280     1
  12277  12288     1
  12277  12296     1
  12277  12279     1
  12277  12286     1
  12277  12282     1
  12277  12290     1
  12278  12290     1
  12278  12283     1
  12278  12291     1
  12279  12289     1
  12280  12282     1
  12280  12291     1
  12281  12286     1
  12281  12282     1
  12281  12284     1
  12281  12296     1
  12281  12283     1
  12281  12291     1
  12282  12287     1
  12282  12285     1
  12282  12289     1
  12283  12285     1
  12292  12296     1
  12292  12295     1
  12293  12296     1
  12293  12295     1
  12297  12305     1
  12297  12313     1
  12297  12318     1
  12297  12306     1
  12298  12304     1
  12298  12312     1
  12298  12315     1
  12298  12316     1
  12299  12301     1
  12299  12310     1
  12299  12300     1
  12299  12317     1
  12299  12315     1
  12299  12316     1
  12299  12303     1
  12300  12302     1
  12300  12309     1
  12300  12305     1
  12300  12313     1
  12300  12311     1
  12300  12319     1
  12301  12306     1
  12301  12314     1
  12301  12313     1
  12302  12312     1
  12303  12314     1
  12303  12305     1
  12304  12307     1
  12304  12319     1
  12304  12306     1
  12304  12314     1
  12304  12309     1
  12304  12305     1
  12305  12308     1
  12305  12312     1
  12305  12310     1
  12306  12308     1
  12315  12318     1
  12315  12319     1
  12316  12318     1
  12316  12319     1
  12320  12328     1
  12320  12336     1
  12320  12341     1
  12320  12329     1
  12321  12338     1
  12321  12339     1
  12321  12327     1
  12321  12335     1
  12322  12324     1
  12322  12333     1
  12322  12323     1
  12322  12340     1
  12322  12338     1
  12322  12339     1
  12322  12326     1
  12323  12334     1
  12323  12342     1
  12323  12325     1
  12323  12332     1
  12323  12328     1
  12323  12336     1
  12324  12336     1
  12324  12329     1
  12324  12337     1
  12325  12335     1
  12326  12328     1
  12326  12337     1
  12327  12332     1
  12327  12328     1
  12327  12330     1
  12327  12342     1
  12327  12329     1
  12327  12337     1
  12328  12333     1
  12328  12331     1
  12328  12335     1
  12329  12331     1
  12338  12342     1
  12338  12341     1
  12339  12342     1
  12339  12341     1
  12343  12351     1
  12343  12359     1
  12343  12364     1
  12343  12352     1
  12344  12350     1
  12344  12358     1
  12344  12361     1
  12344  12362     1
  12345  12347     1
  12345  12356     1
  12345  12346     1
  12345  12363     1
  12345  12361     1
  12345  12362     1
  12345  12349     1
  12346  12348     1
  12346  12355     1
  12346  12351     1
  12346  12359     1
  12346  12357     1
  12346  12365     1
  12347  12352     1
  12347  12360     1
  12347  12359     1
  12348  12358     1
  12349  12360     1
  12349  12351     1
  12350  12353     1
  12350  12365     1
  12350  12352     1
  12350  12360     1
  12350  12355     1
  12350  12351     1
  12351  12354     1
  12351  12358     1
  12351  12356     1
  12352  12354     1
  12361  12364     1
  12361  12365     1
  12362  12364     1
  12362  12365     1
  12366  12374     1
  12366  12382     1
  12366  12387     1
  12366  12375     1
  12367  12384     1
  12367  12385     1
  12367  12373     1
  12367  12381     1
  12368  12370     1
  12368  12379     1
  12368  12369     1
  12368  12386     1
  12368  12384     1
  12368  12385     1
  12368  12372     1
  12369  12380     1
  12369  12388     1
  12369  12371     1
  12369  12378     1
  12369  12374     1
  12369  12382     1
  12370  12382     1
  12370  12375     1
  12370  12383     1
  12371  12381     1
  12372  12374     1
  12372  12383     1
  12373  12378     1
  12373  12374     1
  12373  12376     1
  12373  12388     1
  12373  12375     1
  12373  12383     1
  12374  12379     1
  12374  12377     1
  12374  12381     1
  12375  12377     1
  12384  12388     1
  12384  12387     1
  12385  12388     1
  12385  12387     1
  12389  12397     1
  12389  12405     1
  12389  12410     1
  12389  12398     1
  12390  12396     1
  12390  12404     1
  12390  12407     1
  12390  12408     1
  12391  12393     1
  12391  12402     1
  12391  12392     1
  12391  12409     1
  12391  12407     1
  12391  12408     1
  12391  12395     1
  12392  12394     1
  12392  12401     1
  12392  12397     1
  12392  12405     1
  12392  12403     1
  12392  12411     1
  12393  12398     1
  12393  12406     1
  12393  12405     1
  12394  12404     1
  12395  12406     1
  12395  12397     1
  12396  12399     1
  12396  12411     1
  12396  12398     1
  12396  12406     1
  12396  12401     1
  12396  12397     1
  12397  12400     1
  12397  12404     1
  12397  12402     1
  12398  12400     1
  12407  12410     1
  12407  12411     1
  12408  12410     1
  12408  12411     1
  12412  12420     1
  12412  12428     1
  12412  12433     1
  12412  12421     1
  12413  12430     1
  12413  12431     1
  12413  12419     1
  12413  12427     1
  12414  12416     1
  12414  12425     1
  12414  12415     1
  12414  12432     1
  12414  12430     1
  12414  12431     1
  12414  12418     1
  12415  12426     1
  12415  12434     1
  12415  12417     1
  12415  12424     1
  12415  12420     1
  12415  12428     1
  12416  12428     1
  12416  12421     1
  12416  12429     1
  12417  12427     1
  12418  12420     1
  12418  12429     1
  12419  12424     1
  12419  12420     1
  12419  12422     1
  12419  12434     1
  12419  12421     1
  12419  12429     1
  12420  12425     1
  12420  12423     1
  12420  12427     1
  12421  12423     1
  12430  12434     1
  12430  12433     1
  12431  12434     1
  12431  12433     1
  12435  12443     1
  12435  12451     1
  12435  12456     1
  12435  12444     1
  12436  12442     1
  12436  12450     1
  12436  12453     1
  12436  12454     1
  12437  12439     1
  12437  12448     1
  12437  12438     1
  12437  12455     1
  12437  12453     1
  12437  12454     1
  12437  12441     1
  12438  12440     1
  12438  12447     1
  12438  12443     1
  12438  12451     1
  12438  12449     1
  12438  12457     1
  12439  12444     1
  12439  12452     1
  12439  12451     1
  12440  12450     1
  12441  12452     1
  12441  12443     1
  12442  12445     1
  12442  12457     1
  12442  12444     1
  12442  12452     1
  12442  12447     1
  12442  12443     1
  12443  12446     1
  12443  12450     1
  12443  12448     1
  12444  12446     1
  12453  12456     1
  12453  12457     1
  12454  12456     1
  12454  12457     1
  12458  12466     1
  12458  12474     1
  12458  12479     1
  12458  12467     1
  12459  12476     1
  12459  12477     1
  12459  12465     1
  12459  12473     1
  12460  12462     1
  12460  12471     1
  12460  12461     1
  12460  12478     1
  12460  12476     1
  12460  12477     1
  12460  12464     1
  12461  12472     1
  12461  12480     1
  12461  12463     1
  12461  12470     1
  12461  12466     1
  12461  12474     1
  12462  12474     1
  12462  12467     1
  12462  12475     1
  12463  12473     1
  12464  12466     1
  12464  12475     1
  12465  12470     1
  12465  12466     1
  12465  12468     1
  12465  12480     1
  12465  12467     1
  12465  12475     1
  12466  12471     1
  12466  12469     1
  12466  12473     1
  12467  12469     1
  12476  12480     1
  12476  12479     1
  12477  12480     1
  12477  12479     1
  12481  12489     1
  12481  12497     1
  12481  12502     1
  12481  12490     1
  12482  12488     1
  12482  12496     1
  12482  12499     1
  12482  12500     1
  12483  12485     1
  12483  12494     1
  12483  12484     1
  12483  12501     1
  12483  12499     1
  12483  12500     1
  12483  12487     1
  12484  12486     1
  12484  12493     1
  12484  12489     1
  12484  12497     1
  12484  12495     1
  12484  12503     1
  12485  12490     1
  12485  12498     1
  12485  12497     1
  12486  12496     1
  12487  12498     1
  12487  12489     1
  12488  12491     1
  12488  12503     1
  12488  12490     1
  12488  12498     1
  12488  12493     1
  12488  12489     1
  12489  12492     1
  12489  12496     1
  12489  12494     1
  12490  12492     1
  12499  12502     1
  12499  12503     1
  12500  12502     1
  12500  12503     1
  12504  12512     1
  12504  12520     1
  12504  12525     1
  12504  12513     1
  12505  12522     1
  12505  12523     1
  12505  12511     1
  12505  12519     1
  12506  12508     1
  12506  12517     1
  12506  12507     1
  12506  12524     1
  12506  12522     1
  12506  12523     1
  12506  12510     1
  12507  12518     1
  12507  12526     1
  12507  12509     1
  12507  12516     1
  12507  12512     1
  12507  12520     1
  12508  12520     1
  12508  12513     1
  12508  12521     1
  12509  12519     1
  12510  12512     1
  12510  12521     1
  12511  12516     1
  12511  12512     1
  12511  12514     1
  12511  12526     1
  12511  12513     1
  12511  12521     1
  12512  12517     1
  12512  12515     1
  12512  12519     1
  12513  12515     1
  12522  12526     1
  12522  12525     1
  12523  12526     1
  12523  12525     1
  12527  12535     1
  12527  12543     1
  12527  12548     1
  12527  12536     1
  12528  12534     1
  12528  12542     1
  12528  12545     1
  12528  12546     1
  12529  12531     1
  12529  12540     1
  12529  12530     1
  12529  12547     1
  12529  12545     1
  12529  12546     1
  12529  12533     1
  12530  12532     1
  12530  12539     1
  12530  12535     1
  12530  12543     1
  12530  12541     1
  12530  12549     1
  12531  12536     1
  12531  12544     1
  12531  12543     1
  12532  12542     1
  12533  12544     1
  12533  12535     1
  12534  12537     1
  12534  12549     1
  12534  12536     1
  12534  12544     1
  12534  12539     1
  12534  12535     1
  12535  12538     1
  12535  12542     1
  12535  12540     1
  12536  12538     1
  12545  12548     1
  12545  12549     1
  12546  12548     1
  12546  12549     1
  12550  12558     1
  12550  12566     1
  12550  12571     1
  12550  12559     1
  12551  12568     1
  12551  12569     1
  12551  12557     1
  12551  12565     1
  12552  12554     1
  12552  12563     1
  12552  12553     1
  12552  12570     1
  12552  12568     1
  12552  12569     1
  12552  12556     1
  12553  12564     1
  12553  12572     1
  12553  12555     1
  12553  12562     1
  12553  12558     1
  12553  12566     1
  12554  12566     1
  12554  12559     1
  12554  12567     1
  12555  12565     1
  12556  12558     1
  12556  12567     1
  12557  12562     1
  12557  12558     1
  12557  12560     1
  12557  12572     1
  12557  12559     1
  12557  12567     1
  12558  12563     1
  12558  12561     1
  12558  12565     1
  12559  12561     1
  12568  12572     1
  12568  12571     1
  12569  12572     1
  12569  12571     1
  12573  12581     1
  12573  12589     1
  12573  12594     1
  12573  12582     1
  12574  12580     1
  12574  12588     1
  12574  12591     1
  12574  12592     1
  12575  12577     1
  12575  12586     1
  12575  12576     1
  12575  12593     1
  12575  12591     1
  12575  12592     1
  12575  12579     1
  12576  12578     1
  12576  12585     1
  12576  12581     1
  12576  12589     1
  12576  12587     1
  12576  12595     1
  12577  12582     1
  12577  12590     1
  12577  12589     1
  12578  12588     1
  12579  12590     1
  12579  12581     1
  12580  12583     1
  12580  12595     1
  12580  12582     1
  12580  12590     1
  12580  12585     1
  12580  12581     1
  12581  12584     1
  12581  12588     1
  12581  12586     1
  12582  12584     1
  12591  12594     1
  12591  12595     1
  12592  12594     1
  12592  12595     1
  12596  12604     1
  12596  12612     1
  12596  12617     1
  12596  12605     1
  12597  12614     1
  12597  12615     1
  12597  12603     1
  12597  12611     1
  12598  12600     1
  12598  12609     1
  12598  12599     1
  12598  12616     1
  12598  12614     1
  12598  12615     1
  12598  12602     1
  12599  12610     1
  12599  12618     1
  12599  12601     1
  12599  12608     1
  12599  12604     1
  12599  12612     1
  12600  12612     1
  12600  12605     1
  12600  12613     1
  12601  12611     1
  12602  12604     1
  12602  12613     1
  12603  12608     1
  12603  12604     1
  12603  12606     1
  12603  12618     1
  12603  12605     1
  12603  12613     1
  12604  12609     1
  12604  12607     1
  12604  12611     1
  12605  12607     1
  12614  12618     1
  12614  12617     1
  12615  12618     1
  12615  12617     1
  12619  12627     1
  12619  12635     1
  12619  12640     1
  12619  12628     1
  12620  12626     1
  12620  12634     1
  12620  12637     1
  12620  12638     1
  12621  12623     1
  12621  12632     1
  12621  12622     1
  12621  12639     1
  12621  12637     1
  12621  12638     1
  12621  12625     1
  12622  12624     1
  12622  12631     1
  12622  12627     1
  12622  12635     1
  12622  12633     1
  12622  12641     1
  12623  12628     1
  12623  12636     1
  12623  12635     1
  12624  12634     1
  12625  12636     1
  12625  12627     1
  12626  12629     1
  12626  12641     1
  12626  12628     1
  12626  12636     1
  12626  12631     1
  12626  12627     1
  12627  12630     1
  12627  12634     1
  12627  12632     1
  12628  12630     1
  12637  12640     1
  12637  12641     1
  12638  12640     1
  12638  12641     1
  12642  12650     1
  12642  12658     1
  12642  12663     1
  12642  12651     1
  12643  12660     1
  12643  12661     1
  12643  12649     1
  12643  12657     1
  12644  12646     1
  12644  12655     1
  12644  12645     1
  12644  12662     1
  12644  12660     1
  12644  12661     1
  12644  12648     1
  12645  12656     1
  12645  12664     1
  12645  12647     1
  12645  12654     1
  12645  12650     1
  12645  12658     1
  12646  12658     1
  12646  12651     1
  12646  12659     1
  12647  12657     1
  12648  12650     1
  12648  12659     1
  12649  12654     1
  12649  12650     1
  12649  12652     1
  12649  12664     1
  12649  12651     1
  12649  12659     1
  12650  12655     1
  12650  12653     1
  12650  12657     1
  12651  12653     1
  12660  12664     1
  12660  12663     1
  12661  12664     1
  12661  12663     1
  12665  12673     1
  12665  12681     1
  12665  12686     1
  12665  12674     1
  12666  12672     1
  12666  12680     1
  12666  12683     1
  12666  12684     1
  12667  12669     1
  12667  12678     1
  12667  12668     1
  12667  12685     1
  12667  12683     1
  12667  12684     1
  12667  12671     1
  12668  12670     1
  12668  12677     1
  12668  12673     1
  12668  12681     1
  12668  12679     1
  12668  12687     1
  12669  12674     1
  12669  12682     1
  12669  12681     1
  12670  12680     1
  12671  12682     1
  12671  12673     1
  12672  12675     1
  12672  12687     1
  12672  12674     1
  12672  12682     1
  12672  12677     1
  12672  12673     1
  12673  12676     1
  12673  12680     1
  12673  12678     1
  12674  12676     1
  12683  12686     1
  12683  12687     1
  12684  12686     1
  12684  12687     1
  12688  12696     1
  12688  12704     1
  12688  12709     1
  12688  12697     1
  12689  12706     1
  12689  12707     1
  12689  12695     1
  12689  12703     1
  12690  12692     1
  12690  12701     1
  12690  12691     1
  12690  12708     1
  12690  12706     1
  12690  12707     1
  12690  12694     1
  12691  12702     1
  12691  12710     1
  12691  12693     1
  12691  12700     1
  12691  12696     1
  12691  12704     1
  12692  12704     1
  12692  12697     1
  12692  12705     1
  12693  12703     1
  12694  12696     1
  12694  12705     1
  12695  12700     1
  12695  12696     1
  12695  12698     1
  12695  12710     1
  12695  12697     1
  12695  12705     1
  12696  12701     1
  12696  12699     1
  12696  12703     1
  12697  12699     1
  12706  12710     1
  12706  12709     1
  12707  12710     1
  12707  12709     1
  12711  12719     1
  12711  12727     1
  12711  12732     1
  12711  12720     1
  12712  12718     1
  12712  12726     1
  12712  12729     1
  12712  12730     1
  12713  12715     1
  12713  12724     1
  12713  12714     1
  12713  12731     1
  12713  12729     1
  12713  12730     1
  12713  12717     1
  12714  12716     1
  12714  12723     1
  12714  12719     1
  12714  12727     1
  12714  12725     1
  12714  12733     1
  12715  12720     1
  12715  12728     1
  12715  12727     1
  12716  12726     1
  12717  12728     1
  12717  12719     1
  12718  12721     1
  12718  12733     1
  12718  12720     1
  12718  12728     1
  12718  12723     1
  12718  12719     1
  12719  12722     1
  12719  12726     1
  12719  12724     1
  12720  12722     1
  12729  12732     1
  12729  12733     1
  12730  12732     1
  12730  12733     1
  12734  12742     1
  12734  12750     1
  12734  12755     1
  12734  12743     1
  12735  12752     1
  12735  12753     1
  12735  12741     1
  12735  12749     1
  12736  12738     1
  12736  12747     1
  12736  12737     1
  12736  12754     1
  12736  12752     1
  12736  12753     1
  12736  12740     1
  12737  12748     1
  12737  12756     1
  12737  12739     1
  12737  12746     1
  12737  12742     1
  12737  12750     1
  12738  12750     1
  12738  12743     1
  12738  12751     1
  12739  12749     1
  12740  12742     1
  12740  12751     1
  12741  12746     1
  12741  12742     1
  12741  12744     1
  12741  12756     1
  12741  12743     1
  12741  12751     1
  12742  12747     1
  12742  12745     1
  12742  12749     1
  12743  12745     1
  12752  12756     1
  12752  12755     1
  12753  12756     1
  12753  12755     1
  12757  12765     1
  12757  12773     1
  12757  12778     1
  12757  12766     1
  12758  12764     1
  12758  12772     1
  12758  12775     1
  12758  12776     1
  12759  12761     1
  12759  12770     1
  12759  12760     1
  12759  12777     1
  12759  12775     1
  12759  12776     1
  12759  12763     1
  12760  12762     1
  12760  12769     1
  12760  12765     1
  12760  12773     1
  12760  12771     1
  12760  12779     1
  12761  12766     1
  12761  12774     1
  12761  12773     1
  12762  12772     1
  12763  12774     1
  12763  12765     1
  12764  12767     1
  12764  12779     1
  12764  12766     1
  12764  12774     1
  12764  12769     1
  12764  12765     1
  12765  12768     1
  12765  12772     1
  12765  12770     1
  12766  12768     1
  12775  12778     1
  12775  12779     1
  12776  12778     1
  12776  12779     1
  12780  12788     1
  12780  12796     1
  12780  12801     1
  12780  12789     1
  12781  12798     1
  12781  12799     1
  12781  12787     1
  12781  12795     1
  12782  12784     1
  12782  12793     1
  12782  12783     1
  12782  12800     1
  12782  12798     1
  12782  12799     1
  12782  12786     1
  12783  12794     1
  12783  12802     1
  12783  12785     1
  12783  12792     1
  12783  12788     1
  12783  12796     1
  12784  12796     1
  12784  12789     1
  12784  12797     1
  12785  12795     1
  12786  12788     1
  12786  12797     1
  12787  12792     1
  12787  12788     1
  12787  12790     1
  12787  12802     1
  12787  12789     1
  12787  12797     1
  12788  12793     1
  12788  12791     1
  12788  12795     1
  12789  12791     1
  12798  12802     1
  12798  12801     1
  12799  12802     1
  12799  12801     1
  12803  12811     1
  12803  12819     1
  12803  12824     1
  12803  12812     1
  12804  12810     1
  12804  12818     1
  12804  12821     1
  12804  12822     1
  12805  12807     1
  12805  12816     1
  12805  12806     1
  12805  12823     1
  12805  12821     1
  12805  12822     1
  12805  12809     1
  12806  12808     1
  12806  12815     1
  12806  12811     1
  12806  12819     1
  12806  12817     1
  12806  12825     1
  12807  12812     1
  12807  12820     1
  12807  12819     1
  12808  12818     1
  12809  12820     1
  12809  12811     1
  12810  12813     1
  12810  12825     1
  12810  12812     1
  12810  12820     1
  12810  12815     1
  12810  12811     1
  12811  12814     1
  12811  12818     1
  12811  12816     1
  12812  12814     1
  12821  12824     1
  12821  12825     1
  12822  12824     1
  12822  12825     1
  12826  12834     1
  12826  12842     1
  12826  12847     1
  12826  12835     1
  12827  12844     1
  12827  12845     1
  12827  12833     1
  12827  12841     1
  12828  12830     1
  12828  12839     1
  12828  12829     1
  12828  12846     1
  12828  12844     1
  12828  12845     1
  12828  12832     1
  12829  12840     1
  12829  12848     1
  12829  12831     1
  12829  12838     1
  12829  12834     1
  12829  12842     1
  12830  12842     1
  12830  12835     1
  12830  12843     1
  12831  12841     1
  12832  12834     1
  12832  12843     1
  12833  12838     1
  12833  12834     1
  12833  12836     1
  12833  12848     1
  12833  12835     1
  12833  12843     1
  12834  12839     1
  12834  12837     1
  12834  12841     1
  12835  12837     1
  12844  12848     1
  12844  12847     1
  12845  12848     1
  12845  12847     1
  12849  12857     1
  12849  12865     1
  12849  12870     1
  12849  12858     1
  12850  12856     1
  12850  12864     1
  12850  12867     1
  12850  12868     1
  12851  12853     1
  12851  12862     1
  12851  12852     1
  12851  12869     1
  12851  12867     1
  12851  12868     1
  12851  12855     1
  12852  12854     1
  12852  12861     1
  12852  12857     1
  12852  12865     1
  12852  12863     1
  12852  12871     1
  12853  12858     1
  12853  12866     1
  12853  12865     1
  12854  12864     1
  12855  12866     1
  12855  12857     1
  12856  12859     1
  12856  12871     1
  12856  12858     1
  12856  12866     1
  12856  12861     1
  12856  12857     1
  12857  12860     1
  12857  12864     1
  12857  12862     1
  12858  12860     1
  12867  12870     1
  12867  12871     1
  12868  12870     1
  12868  12871     1
  12872  12880     1
  12872  12888     1
  12872  12893     1
  12872  12881     1
  12873  12890     1
  12873  12891     1
  12873  12879     1
  12873  12887     1
  12874  12876     1
  12874  12885     1
  12874  12875     1
  12874  12892     1
  12874  12890     1
  12874  12891     1
  12874  12878     1
  12875  12886     1
  12875  12894     1
  12875  12877     1
  12875  12884     1
  12875  12880     1
  12875  12888     1
  12876  12888     1
  12876  12881     1
  12876  12889     1
  12877  12887     1
  12878  12880     1
  12878  12889     1
  12879  12884     1
  12879  12880     1
  12879  12882     1
  12879  12894     1
  12879  12881     1
  12879  12889     1
  12880  12885     1
  12880  12883     1
  12880  12887     1
  12881  12883     1
  12890  12894     1
  12890  12893     1
  12891  12894     1
  12891  12893     1
  12895  12903     1
  12895  12911     1
  12895  12916     1
  12895  12904     1
  12896  12902     1
  12896  12910     1
  12896  12913     1
  12896  12914     1
  12897  12899     1
  12897  12908     1
  12897  12898     1
  12897  12915     1
  12897  12913     1
  12897  12914     1
  12897  12901     1
  12898  12900     1
  12898  12907     1
  12898  12903     1
  12898  12911     1
  12898  12909     1
  12898  12917     1
  12899  12904     1
  12899  12912     1
  12899  12911     1
  12900  12910     1
  12901  12912     1
  12901  12903     1
  12902  12905     1
  12902  12917     1
  12902  12904     1
  12902  12912     1
  12902  12907     1
  12902  12903     1
  12903  12906     1
  12903  12910     1
  12903  12908     1
  12904  12906     1
  12913  12916     1
  12913  12917     1
  12914  12916     1
  12914  12917     1
  12918  12926     1
  12918  12934     1
  12918  12939     1
  12918  12927     1
  12919  12936     1
  12919  12937     1
  12919  12925     1
  12919  12933     1
  12920  12922     1
  12920  12931     1
  12920  12921     1
  12920  12938     1
  12920  12936     1
  12920  12937     1
  12920  12924     1
  12921  12932     1
  12921  12940     1
  12921  12923     1
  12921  12930     1
  12921  12926     1
  12921  12934     1
  12922  12934     1
  12922  12927     1
  12922  12935     1
  12923  12933     1
  12924  12926     1
  12924  12935     1
  12925  12930     1
  12925  12926     1
  12925  12928     1
  12925  12940     1
  12925  12927     1
  12925  12935     1
  12926  12931     1
  12926  12929     1
  12926  12933     1
  12927  12929     1
  12936  12940     1
  12936  12939     1
  12937  12940     1
  12937  12939     1
  12941  12949     1
  12941  12957     1
  12941  12962     1
  12941  12950     1
  12942  12948     1
  12942  12956     1
  12942  12959     1
  12942  12960     1
  12943  12945     1
  12943  12954     1
  12943  12944     1
  12943  12961     1
  12943  12959     1
  12943  12960     1
  12943  12947     1
  12944  12946     1
  12944  12953     1
  12944  12949     1
  12944  12957     1
  12944  12955     1
  12944  12963     1
  12945  12950     1
  12945  12958     1
  12945  12957     1
  12946  12956     1
  12947  12958     1
  12947  12949     1
  12948  12951     1
  12948  12963     1
  12948  12950     1
  12948  12958     1
  12948  12953     1
  12948  12949     1
  12949  12952     1
  12949  12956     1
  12949  12954     1
  12950  12952     1
  12959  12962     1
  12959  12963     1
  12960  12962     1
  12960  12963     1
  12964  12972     1
  12964  12980     1
  12964  12985     1
  12964  12973     1
  12965  12982     1
  12965  12983     1
  12965  12971     1
  12965  12979     1
  12966  12968     1
  12966  12977     1
  12966  12967     1
  12966  12984     1
  12966  12982     1
  12966  12983     1
  12966  12970     1
  12967  12978     1
  12967  12986     1
  12967  12969     1
  12967  12976     1
  12967  12972     1
  12967  12980     1
  12968  12980     1
  12968  12973     1
  12968  12981     1
  12969  12979     1
  12970  12972     1
  12970  12981     1
  12971  12976     1
  12971  12972     1
  12971  12974     1
  12971  12986     1
  12971  12973     1
  12971  12981     1
  12972  12977     1
  12972  12975     1
  12972  12979     1
  12973  12975     1
  12982  12986     1
  12982  12985     1
  12983  12986     1
  12983  12985     1
  12987  12995     1
  12987  13003     1
  12987  13008     1
  12987  12996     1
  12988  12994     1
  12988  13002     1
  12988  13005     1
  12988  13006     1
  12989  12991     1
  12989  13000     1
  12989  12990     1
  12989  13007     1
  12989  13005     1
  12989  13006     1
  12989  12993     1
  12990  12992     1
  12990  12999     1
  12990  12995     1
  12990  13003     1
  12990  13001     1
  12990  13009     1
  12991  12996     1
  12991  13004     1
  12991  13003     1
  12992  13002     1
  12993  13004     1
  12993  12995     1
  12994  12997     1
  12994  13009     1
  12994  12996     1
  12994  13004     1
  12994  12999     1
  12994  12995     1
  12995  12998     1
  12995  13002     1
  12995  13000     1
  12996  12998     1
  13005  13008     1
  13005  13009     1
  13006  13008     1
  13006  13009     1
  13010  13018     1
  13010  13026     1
  13010  13031     1
  13010  13019     1
  13011  13028     1
  13011  13029     1
  13011  13017     1
  13011  13025     1
  13012  13014     1
  13012  13023     1
  13012  13013     1
  13012  13030     1
  13012  13028     1
  13012  13029     1
  13012  13016     1
  13013  13024     1
  13013  13032     1
  13013  13015     1
  13013  13022     1
  13013  13018     1
  13013  13026     1
  13014  13026     1
  13014  13019     1
  13014  13027     1
  13015  13025     1
  13016  13018     1
  13016  13027     1
  13017  13022     1
  13017  13018     1
  13017  13020     1
  13017  13032     1
  13017  13019     1
  13017  13027     1
  13018  13023     1
  13018  13021     1
  13018  13025     1
  13019  13021     1
  13028  13032     1
  13028  13031     1
  13029  13032     1
  13029  13031     1
  13033  13041     1
  13033  13049     1
  13033  13054     1
  13033  13042     1
  13034  13040     1
  13034  13048     1
  13034  13051     1
  13034  13052     1
  13035  13037     1
  13035  13046     1
  13035  13036     1
  13035  13053     1
  13035  13051     1
  13035  13052     1
  13035  13039     1
  13036  13038     1
  13036  13045     1
  13036  13041     1
  13036  13049     1
  13036  13047     1
  13036  13055     1
  13037  13042     1
  13037  13050     1
  13037  13049     1
  13038  13048     1
  13039  13050     1
  13039  13041     1
  13040  13043     1
  13040  13055     1
  13040  13042     1
  13040  13050     1
  13040  13045     1
  13040  13041     1
  13041  13044     1
  13041  13048     1
  13041  13046     1
  13042  13044     1
  13051  13054     1
  13051  13055     1
  13052  13054     1
  13052  13055     1
  13056  13064     1
  13056  13072     1
  13056  13077     1
  13056  13065     1
  13057  13074     1
  13057  13075     1
  13057  13063     1
  13057  13071     1
  13058  13060     1
  13058  13069     1
  13058  13059     1
  13058  13076     1
  13058  13074     1
  13058  13075     1
  13058  13062     1
  13059  13070     1
  13059  13078     1
  13059  13061     1
  13059  13068     1
  13059  13064     1
  13059  13072     1
  13060  13072     1
  13060  13065     1
  13060  13073     1
  13061  13071     1
  13062  13064     1
  13062  13073     1
  13063  13068     1
  13063  13064     1
  13063  13066     1
  13063  13078     1
  13063  13065     1
  13063  13073     1
  13064  13069     1
  13064  13067     1
  13064  13071     1
  13065  13067     1
  13074  13078     1
  13074  13077     1
  13075  13078     1
  13075  13077     1
  13079  13087     1
  13079  13095     1
  13079  13100     1
  13079  13088     1
  13080  13086     1
  13080  13094     1
  13080  13097     1
  13080  13098     1
  13081  13083     1
  13081  13092     1
  13081  13082     1
  13081  13099     1
  13081  13097     1
  13081  13098     1
  13081  13085     1
  13082  13084     1
  13082  13091     1
  13082  13087     1
  13082  13095     1
  13082  13093     1
  13082  13101     1
  13083  13088     1
  13083  13096     1
  13083  13095     1
  13084  13094     1
  13085  13096     1
  13085  13087     1
  13086  13089     1
  13086  13101     1
  13086  13088     1
  13086  13096     1
  13086  13091     1
  13086  13087     1
  13087  13090     1
  13087  13094     1
  13087  13092     1
  13088  13090     1
  13097  13100     1
  13097  13101     1
  13098  13100     1
  13098  13101     1
  13102  13110     1
  13102  13118     1
  13102  13123     1
  13102  13111     1
  13103  13120     1
  13103  13121     1
  13103  13109     1
  13103  13117     1
  13104  13106     1
  13104  13115     1
  13104  13105     1
  13104  13122     1
  13104  13120     1
  13104  13121     1
  13104  13108     1
  13105  13116     1
  13105  13124     1
  13105  13107     1
  13105  13114     1
  13105  13110     1
  13105  13118     1
  13106  13118     1
  13106  13111     1
  13106  13119     1
  13107  13117     1
  13108  13110     1
  13108  13119     1
  13109  13114     1
  13109  13110     1
  13109  13112     1
  13109  13124     1
  13109  13111     1
  13109  13119     1
  13110  13115     1
  13110  13113     1
  13110  13117     1
  13111  13113     1
  13120  13124     1
  13120  13123     1
  13121  13124     1
  13121  13123     1
  13125  13133     1
  13125  13141     1
  13125  13146     1
  13125  13134     1
  13126  13132     1
  13126  13140     1
  13126  13143     1
  13126  13144     1
  13127  13129     1
  13127  13138     1
  13127  13128     1
  13127  13145     1
  13127  13143     1
  13127  13144     1
  13127  13131     1
  13128  13130     1
  13128  13137     1
  13128  13133     1
  13128  13141     1
  13128  13139     1
  13128  13147     1
  13129  13134     1
  13129  13142     1
  13129  13141     1
  13130  13140     1
  13131  13142     1
  13131  13133     1
  13132  13135     1
  13132  13147     1
  13132  13134     1
  13132  13142     1
  13132  13137     1
  13132  13133     1
  13133  13136     1
  13133  13140     1
  13133  13138     1
  13134  13136     1
  13143  13146     1
  13143  13147     1
  13144  13146     1
  13144  13147     1
  13148  13156     1
  13148  13164     1
  13148  13169     1
  13148  13157     1
  13149  13166     1
  13149  13167     1
  13149  13155     1
  13149  13163     1
  13150  13152     1
  13150  13161     1
  13150  13151     1
  13150  13168     1
  13150  13166     1
  13150  13167     1
  13150  13154     1
  13151  13162     1
  13151  13170     1
  13151  13153     1
  13151  13160     1
  13151  13156     1
  13151  13164     1
  13152  13164     1
  13152  13157     1
  13152  13165     1
  13153  13163     1
  13154  13156     1
  13154  13165     1
  13155  13160     1
  13155  13156     1
  13155  13158     1
  13155  13170     1
  13155  13157     1
  13155  13165     1
  13156  13161     1
  13156  13159     1
  13156  13163     1
  13157  13159     1
  13166  13170     1
  13166  13169     1
  13167  13170     1
  13167  13169     1
  13171  13179     1
  13171  13187     1
  13171  13192     1
  13171  13180     1
  13172  13178     1
  13172  13186     1
  13172  13189     1
  13172  13190     1
  13173  13175     1
  13173  13184     1
  13173  13174     1
  13173  13191     1
  13173  13189     1
  13173  13190     1
  13173  13177     1
  13174  13176     1
  13174  13183     1
  13174  13179     1
  13174  13187     1
  13174  13185     1
  13174  13193     1
  13175  13180     1
  13175  13188     1
  13175  13187     1
  13176  13186     1
  13177  13188     1
  13177  13179     1
  13178  13181     1
  13178  13193     1
  13178  13180     1
  13178  13188     1
  13178  13183     1
  13178  13179     1
  13179  13182     1
  13179  13186     1
  13179  13184     1
  13180  13182     1
  13189  13192     1
  13189  13193     1
  13190  13192     1
  13190  13193     1
  13194  13202     1
  13194  13210     1
  13194  13215     1
  13194  13203     1
  13195  13212     1
  13195  13213     1
  13195  13201     1
  13195  13209     1
  13196  13198     1
  13196  13207     1
  13196  13197     1
  13196  13214     1
  13196  13212     1
  13196  13213     1
  13196  13200     1
  13197  13208     1
  13197  13216     1
  13197  13199     1
  13197  13206     1
  13197  13202     1
  13197  13210     1
  13198  13210     1
  13198  13203     1
  13198  13211     1
  13199  13209     1
  13200  13202     1
  13200  13211     1
  13201  13206     1
  13201  13202     1
  13201  13204     1
  13201  13216     1
  13201  13203     1
  13201  13211     1
  13202  13207     1
  13202  13205     1
  13202  13209     1
  13203  13205     1
  13212  13216     1
  13212  13215     1
  13213  13216     1
  13213  13215     1
  13217  13225     1
  13217  13233     1
  13217  13238     1
  13217  13226     1
  13218  13224     1
  13218  13232     1
  13218  13235     1
  13218  13236     1
  13219  13221     1
  13219  13230     1
  13219  13220     1
  13219  13237     1
  13219  13235     1
  13219  13236     1
  13219  13223     1
  13220  13222     1
  13220  13229     1
  13220  13225     1
  13220  13233     1
  13220  13231     1
  13220  13239     1
  13221  13226     1
  13221  13234     1
  13221  13233     1
  13222  13232     1
  13223  13234     1
  13223  13225     1
  13224  13227     1
  13224  13239     1
  13224  13226     1
  13224  13234     1
  13224  13229     1
  13224  13225     1
  13225  13228     1
  13225  13232     1
  13225  13230     1
  13226  13228     1
  13235  13238     1
  13235  13239     1
  13236  13238     1
  13236  13239     1
  13240  13248     1
  13240  13256     1
  13240  13261     1
  13240  13249     1
  13241  13258     1
  13241  13259     1
  13241  13247     1
  13241  13255     1
  13242  13244     1
  13242  13253     1
  13242  13243     1
  13242  13260     1
  13242  13258     1
  13242  13259     1
  13242  13246     1
  13243  13254     1
  13243  13262     1
  13243  13245     1
  13243  13252     1
  13243  13248     1
  13243  13256     1
  13244  13256     1
  13244  13249     1
  13244  13257     1
  13245  13255     1
  13246  13248     1
  13246  13257     1
  13247  13252     1
  13247  13248     1
  13247  13250     1
  13247  13262     1
  13247  13249     1
  13247  13257     1
  13248  13253     1
  13248  13251     1
  13248  13255     1
  13249  13251     1
  13258  13262     1
  13258  13261     1
  13259  13262     1
  13259  13261     1
  13263  13271     1
  13263  13279     1
  13263  13284     1
  13263  13272     1
  13264  13270     1
  13264  13278     1
  13264  13281     1
  13264  13282     1
  13265  13267     1
  13265  13276     1
  13265  13266     1
  13265  13283     1
  13265  13281     1
  13265  13282     1
  13265  13269     1
  13266  13268     1
  13266  13275     1
  13266  13271     1
  13266  13279     1
  13266  13277     1
  13266  13285     1
  13267  13272     1
  13267  13280     1
  13267  13279     1
  13268  13278     1
  13269  13280     1
  13269  13271     1
  13270  13273     1
  13270  13285     1
  13270  13272     1
  13270  13280     1
  13270  13275     1
  13270  13271     1
  13271  13274     1
  13271  13278     1
  13271  13276     1
  13272  13274     1
  13281  13284     1
  13281  13285     1
  13282  13284     1
  13282  13285     1
  13286  13294     1
  13286  13302     1
  13286  13307     1
  13286  13295     1
  13287  13304     1
  13287  13305     1
  13287  13293     1
  13287  13301     1
  13288  13290     1
  13288  13299     1
  13288  13289     1
  13288  13306     1
  13288  13304     1
  13288  13305     1
  13288  13292     1
  13289  13300     1
  13289  13308     1
  13289  13291     1
  13289  13298     1
  13289  13294     1
  13289  13302     1
  13290  13302     1
  13290  13295     1
  13290  13303     1
  13291  13301     1
  13292  13294     1
  13292  13303     1
  13293  13298     1
  13293  13294     1
  13293  13296     1
  13293  13308     1
  13293  13295     1
  13293  13303     1
  13294  13299     1
  13294  13297     1
  13294  13301     1
  13295  13297     1
  13304  13308     1
  13304  13307     1
  13305  13308     1
  13305  13307     1
  13309  13317     1
  13309  13325     1
  13309  13330     1
  13309  13318     1
  13310  13316     1
  13310  13324     1
  13310  13327     1
  13310  13328     1
  13311  13313     1
  13311  13322     1
  13311  13312     1
  13311  13329     1
  13311  13327     1
  13311  13328     1
  13311  13315     1
  13312  13314     1
  13312  13321     1
  13312  13317     1
  13312  13325     1
  13312  13323     1
  13312  13331     1
  13313  13318     1
  13313  13326     1
  13313  13325     1
  13314  13324     1
  13315  13326     1
  13315  13317     1
  13316  13319     1
  13316  13331     1
  13316  13318     1
  13316  13326     1
  13316  13321     1
  13316  13317     1
  13317  13320     1
  13317  13324     1
  13317  13322     1
  13318  13320     1
  13327  13330     1
  13327  13331     1
  13328  13330     1
  13328  13331     1
  13332  13340     1
  13332  13348     1
  13332  13353     1
  13332  13341     1
  13333  13350     1
  13333  13351     1
  13333  13339     1
  13333  13347     1
  13334  13336     1
  13334  13345     1
  13334  13335     1
  13334  13352     1
  13334  13350     1
  13334  13351     1
  13334  13338     1
  13335  13346     1
  13335  13354     1
  13335  13337     1
  13335  13344     1
  13335  13340     1
  13335  13348     1
  13336  13348     1
  13336  13341     1
  13336  13349     1
  13337  13347     1
  13338  13340     1
  13338  13349     1
  13339  13344     1
  13339  13340     1
  13339  13342     1
  13339  13354     1
  13339  13341     1
  13339  13349     1
  13340  13345     1
  13340  13343     1
  13340  13347     1
  13341  13343     1
  13350  13354     1
  13350  13353     1
  13351  13354     1
  13351  13353     1
  13355  13363     1
  13355  13371     1
  13355  13376     1
  13355  13364     1
  13356  13362     1
  13356  13370     1
  13356  13373     1
  13356  13374     1
  13357  13359     1
  13357  13368     1
  13357  13358     1
  13357  13375     1
  13357  13373     1
  13357  13374     1
  13357  13361     1
  13358  13360     1
  13358  13367     1
  13358  13363     1
  13358  13371     1
  13358  13369     1
  13358  13377     1
  13359  13364     1
  13359  13372     1
  13359  13371     1
  13360  13370     1
  13361  13372     1
  13361  13363     1
  13362  13365     1
  13362  13377     1
  13362  13364     1
  13362  13372     1
  13362  13367     1
  13362  13363     1
  13363  13366     1
  13363  13370     1
  13363  13368     1
  13364  13366     1
  13373  13376     1
  13373  13377     1
  13374  13376     1
  13374  13377     1
  13378  13386     1
  13378  13394     1
  13378  13399     1
  13378  13387     1
  13379  13396     1
  13379  13397     1
  13379  13385     1
  13379  13393     1
  13380  13382     1
  13380  13391     1
  13380  13381     1
  13380  13398     1
  13380  13396     1
  13380  13397     1
  13380  13384     1
  13381  13392     1
  13381  13400     1
  13381  13383     1
  13381  13390     1
  13381  13386     1
  13381  13394     1
  13382  13394     1
  13382  13387     1
  13382  13395     1
  13383  13393     1
  13384  13386     1
  13384  13395     1
  13385  13390     1
  13385  13386     1
  13385  13388     1
  13385  13400     1
  13385  13387     1
  13385  13395     1
  13386  13391     1
  13386  13389     1
  13386  13393     1
  13387  13389     1
  13396  13400     1
  13396  13399     1
  13397  13400     1
  13397  13399     1
  13401  13409     1
  13401  13417     1
  13401  13422     1
  13401  13410     1
  13402  13408     1
  13402  13416     1
  13402  13419     1
  13402  13420     1
  13403  13405     1
  13403  13414     1
  13403  13404     1
  13403  13421     1
  13403  13419     1
  13403  13420     1
  13403  13407     1
  13404  13406     1
  13404  13413     1
  13404  13409     1
  13404  13417     1
  13404  13415     1
  13404  13423     1
  13405  13410     1
  13405  13418     1
  13405  13417     1
  13406  13416     1
  13407  13418     1
  13407  13409     1
  13408  13411     1
  13408  13423     1
  13408  13410     1
  13408  13418     1
  13408  13413     1
  13408  13409     1
  13409  13412     1
  13409  13416     1
  13409  13414     1
  13410  13412     1
  13419  13422     1
  13419  13423     1
  13420  13422     1
  13420  13423     1
  13424  13432     1
  13424  13440     1
  13424  13445     1
  13424  13433     1
  13425  13442     1
  13425  13443     1
  13425  13431     1
  13425  13439     1
  13426  13428     1
  13426  13437     1
  13426  13427     1
  13426  13444     1
  13426  13442     1
  13426  13443     1
  13426  13430     1
  13427  13438     1
  13427  13446     1
  13427  13429     1
  13427  13436     1
  13427  13432     1
  13427  13440     1
  13428  13440     1
  13428  13433     1
  13428  13441     1
  13429  13439     1
  13430  13432     1
  13430  13441     1
  13431  13436     1
  13431  13432     1
  13431  13434     1
  13431  13446     1
  13431  13433     1
  13431  13441     1
  13432  13437     1
  13432  13435     1
  13432  13439     1
  13433  13435     1
  13442  13446     1
  13442  13445     1
  13443  13446     1
  13443  13445     1
  13447  13455     1
  13447  13463     1
  13447  13468     1
  13447  13456     1
  13448  13454     1
  13448  13462     1
  13448  13465     1
  13448  13466     1
  13449  13451     1
  13449  13460     1
  13449  13450     1
  13449  13467     1
  13449  13465     1
  13449  13466     1
  13449  13453     1
  13450  13452     1
  13450  13459     1
  13450  13455     1
  13450  13463     1
  13450  13461     1
  13450  13469     1
  13451  13456     1
  13451  13464     1
  13451  13463     1
  13452  13462     1
  13453  13464     1
  13453  13455     1
  13454  13457     1
  13454  13469     1
  13454  13456     1
  13454  13464     1
  13454  13459     1
  13454  13455     1
  13455  13458     1
  13455  13462     1
  13455  13460     1
  13456  13458     1
  13465  13468     1
  13465  13469     1
  13466  13468     1
  13466  13469     1
  13470  13478     1
  13470  13486     1
  13470  13491     1
  13470  13479     1
  13471  13488     1
  13471  13489     1
  13471  13477     1
  13471  13485     1
  13472  13474     1
  13472  13483     1
  13472  13473     1
  13472  13490     1
  13472  13488     1
  13472  13489     1
  13472  13476     1
  13473  13484     1
  13473  13492     1
  13473  13475     1
  13473  13482     1
  13473  13478     1
  13473  13486     1
  13474  13486     1
  13474  13479     1
  13474  13487     1
  13475  13485     1
  13476  13478     1
  13476  13487     1
  13477  13482     1
  13477  13478     1
  13477  13480     1
  13477  13492     1
  13477  13479     1
  13477  13487     1
  13478  13483     1
  13478  13481     1
  13478  13485     1
  13479  13481     1
  13488  13492     1
  13488  13491     1
  13489  13492     1
  13489  13491     1
  13493  13501     1
  13493  13509     1
  13493  13514     1
  13493  13502     1
  13494  13500     1
  13494  13508     1
  13494  13511     1
  13494  13512     1
  13495  13497     1
  13495  13506     1
  13495  13496     1
  13495  13513     1
  13495  13511     1
  13495  13512     1
  13495  13499     1
  13496  13498     1
  13496  13505     1
  13496  13501     1
  13496  13509     1
  13496  13507     1
  13496  13515     1
  13497  13502     1
  13497  13510     1
  13497  13509     1
  13498  13508     1
  13499  13510     1
  13499  13501     1
  13500  13503     1
  13500  13515     1
  13500  13502     1
  13500  13510     1
  13500  13505     1
  13500  13501     1
  13501  13504     1
  13501  13508     1
  13501  13506     1
  13502  13504     1
  13511  13514     1
  13511  13515     1
  13512  13514     1
  13512  13515     1
  13516  13524     1
  13516  13532     1
  13516  13537     1
  13516  13525     1
  13517  13534     1
  13517  13535     1
  13517  13523     1
  13517  13531     1
  13518  13520     1
  13518  13529     1
  13518  13519     1
  13518  13536     1
  13518  13534     1
  13518  13535     1
  13518  13522     1
  13519  13530     1
  13519  13538     1
  13519  13521     1
  13519  13528     1
  13519  13524     1
  13519  13532     1
  13520  13532     1
  13520  13525     1
  13520  13533     1
  13521  13531     1
  13522  13524     1
  13522  13533     1
  13523  13528     1
  13523  13524     1
  13523  13526     1
  13523  13538     1
  13523  13525     1
  13523  13533     1
  13524  13529     1
  13524  13527     1
  13524  13531     1
  13525  13527     1
  13534  13538     1
  13534  13537     1
  13535  13538     1
  13535  13537     1
  13539  13547     1
  13539  13555     1
  13539  13560     1
  13539  13548     1
  13540  13546     1
  13540  13554     1
  13540  13557     1
  13540  13558     1
  13541  13543     1
  13541  13552     1
  13541  13542     1
  13541  13559     1
  13541  13557     1
  13541  13558     1
  13541  13545     1
  13542  13544     1
  13542  13551     1
  13542  13547     1
  13542  13555     1
  13542  13553     1
  13542  13561     1
  13543  13548     1
  13543  13556     1
  13543  13555     1
  13544  13554     1
  13545  13556     1
  13545  13547     1
  13546  13549     1
  13546  13561     1
  13546  13548     1
  13546  13556     1
  13546  13551     1
  13546  13547     1
  13547  13550     1
  13547  13554     1
  13547  13552     1
  13548  13550     1
  13557  13560     1
  13557  13561     1
  13558  13560     1
  13558  13561     1
  13562  13570     1
  13562  13578     1
  13562  13583     1
  13562  13571     1
  13563  13580     1
  13563  13581     1
  13563  13569     1
  13563  13577     1
  13564  13566     1
  13564  13575     1
  13564  13565     1
  13564  13582     1
  13564  13580     1
  13564  13581     1
  13564  13568     1
  13565  13576     1
  13565  13584     1
  13565  13567     1
  13565  13574     1
  13565  13570     1
  13565  13578     1
  13566  13578     1
  13566  13571     1
  13566  13579     1
  13567  13577     1
  13568  13570     1
  13568  13579     1
  13569  13574     1
  13569  13570     1
  13569  13572     1
  13569  13584     1
  13569  13571     1
  13569  13579     1
  13570  13575     1
  13570  13573     1
  13570  13577     1
  13571  13573     1
  13580  13584     1
  13580  13583     1
  13581  13584     1
  13581  13583     1
  13585  13593     1
  13585  13601     1
  13585  13606     1
  13585  13594     1
  13586  13592     1
  13586  13600     1
  13586  13603     1
  13586  13604     1
  13587  13589     1
  13587  13598     1
  13587  13588     1
  13587  13605     1
  13587  13603     1
  13587  13604     1
  13587  13591     1
  13588  13590     1
  13588  13597     1
  13588  13593     1
  13588  13601     1
  13588  13599     1
  13588  13607     1
  13589  13594     1
  13589  13602     1
  13589  13601     1
  13590  13600     1
  13591  13602     1
  13591  13593     1
  13592  13595     1
  13592  13607     1
  13592  13594     1
  13592  13602     1
  13592  13597     1
  13592  13593     1
  13593  13596     1
  13593  13600     1
  13593  13598     1
  13594  13596     1
  13603  13606     1
  13603  13607     1
  13604  13606     1
  13604  13607     1
  13608  13616     1
  13608  13624     1
  13608  13629     1
  13608  13617     1
  13609  13626     1
  13609  13627     1
  13609  13615     1
  13609  13623     1
  13610  13612     1
  13610  13621     1
  13610  13611     1
  13610  13628     1
  13610  13626     1
  13610  13627     1
  13610  13614     1
  13611  13622     1
  13611  13630     1
  13611  13613     1
  13611  13620     1
  13611  13616     1
  13611  13624     1
  13612  13624     1
  13612  13617     1
  13612  13625     1
  13613  13623     1
  13614  13616     1
  13614  13625     1
  13615  13620     1
  13615  13616     1
  13615  13618     1
  13615  13630     1
  13615  13617     1
  13615  13625     1
  13616  13621     1
  13616  13619     1
  13616  13623     1
  13617  13619     1
  13626  13630     1
  13626  13629     1
  13627  13630     1
  13627  13629     1
  13631  13639     1
  13631  13647     1
  13631  13652     1
  13631  13640     1
  13632  13638     1
  13632  13646     1
  13632  13649     1
  13632  13650     1
  13633  13635     1
  13633  13644     1
  13633  13634     1
  13633  13651     1
  13633  13649     1
  13633  13650     1
  13633  13637     1
  13634  13636     1
  13634  13643     1
  13634  13639     1
  13634  13647     1
  13634  13645     1
  13634  13653     1
  13635  13640     1
  13635  13648     1
  13635  13647     1
  13636  13646     1
  13637  13648     1
  13637  13639     1
  13638  13641     1
  13638  13653     1
  13638  13640     1
  13638  13648     1
  13638  13643     1
  13638  13639     1
  13639  13642     1
  13639  13646     1
  13639  13644     1
  13640  13642     1
  13649  13652     1
  13649  13653     1
  13650  13652     1
  13650  13653     1
  13654  13662     1
  13654  13670     1
  13654  13675     1
  13654  13663     1
  13655  13672     1
  13655  13673     1
  13655  13661     1
  13655  13669     1
  13656  13658     1
  13656  13667     1
  13656  13657     1
  13656  13674     1
  13656  13672     1
  13656  13673     1
  13656  13660     1
  13657  13668     1
  13657  13676     1
  13657  13659     1
  13657  13666     1
  13657  13662     1
  13657  13670     1
  13658  13670     1
  13658  13663     1
  13658  13671     1
  13659  13669     1
  13660  13662     1
  13660  13671     1
  13661  13666     1
  13661  13662     1
  13661  13664     1
  13661  13676     1
  13661  13663     1
  13661  13671     1
  13662  13667     1
  13662  13665     1
  13662  13669     1
  13663  13665     1
  13672  13676     1
  13672  13675     1
  13673  13676     1
  13673  13675     1
  13677  13685     1
  13677  13693     1
  13677  13698     1
  13677  13686     1
  13678  13684     1
  13678  13692     1
  13678  13695     1
  13678  13696     1
  13679  13681     1
  13679  13690     1
  13679  13680     1
  13679  13697     1
  13679  13695     1
  13679  13696     1
  13679  13683     1
  13680  13682     1
  13680  13689     1
  13680  13685     1
  13680  13693     1
  13680  13691     1
  13680  13699     1
  13681  13686     1
  13681  13694     1
  13681  13693     1
  13682  13692     1
  13683  13694     1
  13683  13685     1
  13684  13687     1
  13684  13699     1
  13684  13686     1
  13684  13694     1
  13684  13689     1
  13684  13685     1
  13685  13688     1
  13685  13692     1
  13685  13690     1
  13686  13688     1
  13695  13698     1
  13695  13699     1
  13696  13698     1
  13696  13699     1
  13700  13708     1
  13700  13716     1
  13700  13721     1
  13700  13709     1
  13701  13718     1
  13701  13719     1
  13701  13707     1
  13701  13715     1
  13702  13704     1
  13702  13713     1
  13702  13703     1
  13702  13720     1
  13702  13718     1
  13702  13719     1
  13702  13706     1
  13703  13714     1
  13703  13722     1
  13703  13705     1
  13703  13712     1
  13703  13708     1
  13703  13716     1
  13704  13716     1
  13704  13709     1
  13704  13717     1
  13705  13715     1
  13706  13708     1
  13706  13717     1
  13707  13712     1
  13707  13708     1
  13707  13710     1
  13707  13722     1
  13707  13709     1
  13707  13717     1
  13708  13713     1
  13708  13711     1
  13708  13715     1
  13709  13711     1
  13718  13722     1
  13718  13721     1
  13719  13722     1
  13719  13721     1
  13723  13731     1
  13723  13739     1
  13723  13744     1
  13723  13732     1
  13724  13730     1
  13724  13738     1
  13724  13741     1
  13724  13742     1
  13725  13727     1
  13725  13736     1
  13725  13726     1
  13725  13743     1
  13725  13741     1
  13725  13742     1
  13725  13729     1
  13726  13728     1
  13726  13735     1
  13726  13731     1
  13726  13739     1
  13726  13737     1
  13726  13745     1
  13727  13732     1
  13727  13740     1
  13727  13739     1
  13728  13738     1
  13729  13740     1
  13729  13731     1
  13730  13733     1
  13730  13745     1
  13730  13732     1
  13730  13740     1
  13730  13735     1
  13730  13731     1
  13731  13734     1
  13731  13738     1
  13731  13736     1
  13732  13734     1
  13741  13744     1
  13741  13745     1
  13742  13744     1
  13742  13745     1
  13746  13754     1
  13746  13762     1
  13746  13767     1
  13746  13755     1
  13747  13764     1
  13747  13765     1
  13747  13753     1
  13747  13761     1
  13748  13750     1
  13748  13759     1
  13748  13749     1
  13748  13766     1
  13748  13764     1
  13748  13765     1
  13748  13752     1
  13749  13760     1
  13749  13768     1
  13749  13751     1
  13749  13758     1
  13749  13754     1
  13749  13762     1
  13750  13762     1
  13750  13755     1
  13750  13763     1
  13751  13761     1
  13752  13754     1
  13752  13763     1
  13753  13758     1
  13753  13754     1
  13753  13756     1
  13753  13768     1
  13753  13755     1
  13753  13763     1
  13754  13759     1
  13754  13757     1
  13754  13761     1
  13755  13757     1
  13764  13768     1
  13764  13767     1
  13765  13768     1
  13765  13767     1
  13769  13777     1
  13769  13785     1
  13769  13790     1
  13769  13778     1
  13770  13776     1
  13770  13784     1
  13770  13787     1
  13770  13788     1
  13771  13773     1
  13771  13782     1
  13771  13772     1
  13771  13789     1
  13771  13787     1
  13771  13788     1
  13771  13775     1
  13772  13774     1
  13772  13781     1
  13772  13777     1
  13772  13785     1
  13772  13783     1
  13772  13791     1
  13773  13778     1
  13773  13786     1
  13773  13785     1
  13774  13784     1
  13775  13786     1
  13775  13777     1
  13776  13779     1
  13776  13791     1
  13776  13778     1
  13776  13786     1
  13776  13781     1
  13776  13777     1
  13777  13780     1
  13777  13784     1
  13777  13782     1
  13778  13780     1
  13787  13790     1
  13787  13791     1
  13788  13790     1
  13788  13791     1
  13792  13800     1
  13792  13808     1
  13792  13813     1
  13792  13801     1
  13793  13810     1
  13793  13811     1
  13793  13799     1
  13793  13807     1
  13794  13796     1
  13794  13805     1
  13794  13795     1
  13794  13812     1
  13794  13810     1
  13794  13811     1
  13794  13798     1
  13795  13806     1
  13795  13814     1
  13795  13797     1
  13795  13804     1
  13795  13800     1
  13795  13808     1
  13796  13808     1
  13796  13801     1
  13796  13809     1
  13797  13807     1
  13798  13800     1
  13798  13809     1
  13799  13804     1
  13799  13800     1
  13799  13802     1
  13799  13814     1
  13799  13801     1
  13799  13809     1
  13800  13805     1
  13800  13803     1
  13800  13807     1
  13801  13803     1
  13810  13814     1
  13810  13813     1
  13811  13814     1
  13811  13813     1
  13815  13823     1
  13815  13831     1
  13815  13836     1
  13815  13824     1
  13816  13822     1
  13816  13830     1
  13816  13833     1
  13816  13834     1
  13817  13819     1
  13817  13828     1
  13817  13818     1
  13817  13835     1
  13817  13833     1
  13817  13834     1
  13817  13821     1
  13818  13820     1
  13818  13827     1
  13818  13823     1
  13818  13831     1
  13818  13829     1
  13818  13837     1
  13819  13824     1
  13819  13832     1
  13819  13831     1
  13820  13830     1
  13821  13832     1
  13821  13823     1
  13822  13825     1
  13822  13837     1
  13822  13824     1
  13822  13832     1
  13822  13827     1
  13822  13823     1
  13823  13826     1
  13823  13830     1
  13823  13828     1
  13824  13826     1
  13833  13836     1
  13833  13837     1
  13834  13836     1
  13834  13837     1
  13838  13846     1
  13838  13854     1
  13838  13859     1
  13838  13847     1
  13839  13856     1
  13839  13857     1
  13839  13845     1
  13839  13853     1
  13840  13842     1
  13840  13851     1
  13840  13841     1
  13840  13858     1
  13840  13856     1
  13840  13857     1
  13840  13844     1
  13841  13852     1
  13841  13860     1
  13841  13843     1
  13841  13850     1
  13841  13846     1
  13841  13854     1
  13842  13854     1
  13842  13847     1
  13842  13855     1
  13843  13853     1
  13844  13846     1
  13844  13855     1
  13845  13850     1
  13845  13846     1
  13845  13848     1
  13845  13860     1
  13845  13847     1
  13845  13855     1
  13846  13851     1
  13846  13849     1
  13846  13853     1
  13847  13849     1
  13856  13860     1
  13856  13859     1
  13857  13860     1
  13857  13859     1
  13861  13869     1
  13861  13877     1
  13861  13882     1
  13861  13870     1
  13862  13868     1
  13862  13876     1
  13862  13879     1
  13862  13880     1
  13863  13865     1
  13863  13874     1
  13863  13864     1
  13863  13881     1
  13863  13879     1
  13863  13880     1
  13863  13867     1
  13864  13866     1
  13864  13873     1
  13864  13869     1
  13864  13877     1
  13864  13875     1
  13864  13883     1
  13865  13870     1
  13865  13878     1
  13865  13877     1
  13866  13876     1
  13867  13878     1
  13867  13869     1
  13868  13871     1
  13868  13883     1
  13868  13870     1
  13868  13878     1
  13868  13873     1
  13868  13869     1
  13869  13872     1
  13869  13876     1
  13869  13874     1
  13870  13872     1
  13879  13882     1
  13879  13883     1
  13880  13882     1
  13880  13883     1
  13884  13892     1
  13884  13900     1
  13884  13905     1
  13884  13893     1
  13885  13902     1
  13885  13903     1
  13885  13891     1
  13885  13899     1
  13886  13888     1
  13886  13897     1
  13886  13887     1
  13886  13904     1
  13886  13902     1
  13886  13903     1
  13886  13890     1
  13887  13898     1
  13887  13906     1
  13887  13889     1
  13887  13896     1
  13887  13892     1
  13887  13900     1
  13888  13900     1
  13888  13893     1
  13888  13901     1
  13889  13899     1
  13890  13892     1
  13890  13901     1
  13891  13896     1
  13891  13892     1
  13891  13894     1
  13891  13906     1
  13891  13893     1
  13891  13901     1
  13892  13897     1
  13892  13895     1
  13892  13899     1
  13893  13895     1
  13902  13906     1
  13902  13905     1
  13903  13906     1
  13903  13905     1
  13907  13915     1
  13907  13923     1
  13907  13928     1
  13907  13916     1
  13908  13914     1
  13908  13922     1
  13908  13925     1
  13908  13926     1
  13909  13911     1
  13909  13920     1
  13909  13910     1
  13909  13927     1
  13909  13925     1
  13909  13926     1
  13909  13913     1
  13910  13912     1
  13910  13919     1
  13910  13915     1
  13910  13923     1
  13910  13921     1
  13910  13929     1
  13911  13916     1
  13911  13924     1
  13911  13923     1
  13912  13922     1
  13913  13924     1
  13913  13915     1
  13914  13917     1
  13914  13929     1
  13914  13916     1
  13914  13924     1
  13914  13919     1
  13914  13915     1
  13915  13918     1
  13915  13922     1
  13915  13920     1
  13916  13918     1
  13925  13928     1
  13925  13929     1
  13926  13928     1
  13926  13929     1
  13930  13938     1
  13930  13946     1
  13930  13951     1
  13930  13939     1
  13931  13948     1
  13931  13949     1
  13931  13937     1
  13931  13945     1
  13932  13934     1
  13932  13943     1
  13932  13933     1
  13932  13950     1
  13932  13948     1
  13932  13949     1
  13932  13936     1
  13933  13944     1
  13933  13952     1
  13933  13935     1
  13933  13942     1
  13933  13938     1
  13933  13946     1
  13934  13946     1
  13934  13939     1
  13934  13947     1
  13935  13945     1
  13936  13938     1
  13936  13947     1
  13937  13942     1
  13937  13938     1
  13937  13940     1
  13937  13952     1
  13937  13939     1
  13937  13947     1
  13938  13943     1
  13938  13941     1
  13938  13945     1
  13939  13941     1
  13948  13952     1
  13948  13951     1
  13949  13952     1
  13949  13951     1
  13953  13961     1
  13953  13969     1
  13953  13974     1
  13953  13962     1
  13954  13960     1
  13954  13968     1
  13954  13971     1
  13954  13972     1
  13955  13957     1
  13955  13966     1
  13955  13956     1
  13955  13973     1
  13955  13971     1
  13955  13972     1
  13955  13959     1
  13956  13958     1
  13956  13965     1
  13956  13961     1
  13956  13969     1
  13956  13967     1
  13956  13975     1
  13957  13962     1
  13957  13970     1
  13957  13969     1
  13958  13968     1
  13959  13970     1
  13959  13961     1
  13960  13963     1
  13960  13975     1
  13960  13962     1
  13960  13970     1
  13960  13965     1
  13960  13961     1
  13961  13964     1
  13961  13968     1
  13961  13966     1
  13962  13964     1
  13971  13974     1
  13971  13975     1
  13972  13974     1
  13972  13975     1
  13976  13984     1
  13976  13992     1
  13976  13997     1
  13976  13985     1
  13977  13994     1
  13977  13995     1
  13977  13983     1
  13977  13991     1
  13978  13980     1
  13978  13989     1
  13978  13979     1
  13978  13996     1
  13978  13994     1
  13978  13995     1
  13978  13982     1
  13979  13990     1
  13979  13998     1
  13979  13981     1
  13979  13988     1
  13979  13984     1
  13979  13992     1
  13980  13992     1
  13980  13985     1
  13980  13993     1
  13981  13991     1
  13982  13984     1
  13982  13993     1
  13983  13988     1
  13983  13984     1
  13983  13986     1
  13983  13998     1
  13983  13985     1
  13983  13993     1
  13984  13989     1
  13984  13987     1
  13984  13991     1
  13985  13987     1
  13994  13998     1
  13994  13997     1
  13995  13998     1
  13995  13997     1
  13999  14007     1
  13999  14015     1
  13999  14020     1
  13999  14008     1
  14000  14006     1
  14000  14014     1
  14000  14017     1
  14000  14018     1
  14001  14003     1
  14001  14012     1
  14001  14002     1
  14001  14019     1
  14001  14017     1
  14001  14018     1
  14001  14005     1
  14002  14004     1
  14002  14011     1
  14002  14007     1
  14002  14015     1
  14002  14013     1
  14002  14021     1
  14003  14008     1
  14003  14016     1
  14003  14015     1
  14004  14014     1
  14005  14016     1
  14005  14007     1
  14006  14009     1
  14006  14021     1
  14006  14008     1
  14006  14016     1
  14006  14011     1
  14006  14007     1
  14007  14010     1
  14007  14014     1
  14007  14012     1
  14008  14010     1
  14017  14020     1
  14017  14021     1
  14018  14020     1
  14018  14021     1
  14022  14030     1
  14022  14038     1
  14022  14043     1
  14022  14031     1
  14023  14040     1
  14023  14041     1
  14023  14029     1
  14023  14037     1
  14024  14026     1
  14024  14035     1
  14024  14025     1
  14024  14042     1
  14024  14040     1
  14024  14041     1
  14024  14028     1
  14025  14036     1
  14025  14044     1
  14025  14027     1
  14025  14034     1
  14025  14030     1
  14025  14038     1
  14026  14038     1
  14026  14031     1
  14026  14039     1
  14027  14037     1
  14028  14030     1
  14028  14039     1
  14029  14034     1
  14029  14030     1
  14029  14032     1
  14029  14044     1
  14029  14031     1
  14029  14039     1
  14030  14035     1
  14030  14033     1
  14030  14037     1
  14031  14033     1
  14040  14044     1
  14040  14043     1
  14041  14044     1
  14041  14043     1
  14045  14053     1
  14045  14061     1
  14045  14066     1
  14045  14054     1
  14046  14052     1
  14046  14060     1
  14046  14063     1
  14046  14064     1
  14047  14049     1
  14047  14058     1
  14047  14048     1
  14047  14065     1
  14047  14063     1
  14047  14064     1
  14047  14051     1
  14048  14050     1
  14048  14057     1
  14048  14053     1
  14048  14061     1
  14048  14059     1
  14048  14067     1
  14049  14054     1
  14049  14062     1
  14049  14061     1
  14050  14060     1
  14051  14062     1
  14051  14053     1
  14052  14055     1
  14052  14067     1
  14052  14054     1
  14052  14062     1
  14052  14057     1
  14052  14053     1
  14053  14056     1
  14053  14060     1
  14053  14058     1
  14054  14056     1
  14063  14066     1
  14063  14067     1
  14064  14066     1
  14064  14067     1
  14068  14076     1
  14068  14084     1
  14068  14089     1
  14068  14077     1
  14069  14086     1
  14069  14087     1
  14069  14075     1
  14069  14083     1
  14070  14072     1
  14070  14081     1
  14070  14071     1
  14070  14088     1
  14070  14086     1
  14070  14087     1
  14070  14074     1
  14071  14082     1
  14071  14090     1
  14071  14073     1
  14071  14080     1
  14071  14076     1
  14071  14084     1
  14072  14084     1
  14072  14077     1
  14072  14085     1
  14073  14083     1
  14074  14076     1
  14074  14085     1
  14075  14080     1
  14075  14076     1
  14075  14078     1
  14075  14090     1
  14075  14077     1
  14075  14085     1
  14076  14081     1
  14076  14079     1
  14076  14083     1
  14077  14079     1
  14086  14090     1
  14086  14089     1
  14087  14090     1
  14087  14089     1
  14091  14099     1
  14091  14107     1
  14091  14112     1
  14091  14100     1
  14092  14098     1
  14092  14106     1
  14092  14109     1
  14092  14110     1
  14093  14095     1
  14093  14104     1
  14093  14094     1
  14093  14111     1
  14093  14109     1
  14093  14110     1
  14093  14097     1
  14094  14096     1
  14094  14103     1
  14094  14099     1
  14094  14107     1
  14094  14105     1
  14094  14113     1
  14095  14100     1
  14095  14108     1
  14095  14107     1
  14096  14106     1
  14097  14108     1
  14097  14099     1
  14098  14101     1
  14098  14113     1
  14098  14100     1
  14098  14108     1
  14098  14103     1
  14098  14099     1
  14099  14102     1
  14099  14106     1
  14099  14104     1
  14100  14102     1
  14109  14112     1
  14109  14113     1
  14110  14112     1
  14110  14113     1
  14114  14122     1
  14114  14130     1
  14114  14135     1
  14114  14123     1
  14115  14132     1
  14115  14133     1
  14115  14121     1
  14115  14129     1
  14116  14118     1
  14116  14127     1
  14116  14117     1
  14116  14134     1
  14116  14132     1
  14116  14133     1
  14116  14120     1
  14117  14128     1
  14117  14136     1
  14117  14119     1
  14117  14126     1
  14117  14122     1
  14117  14130     1
  14118  14130     1
  14118  14123     1
  14118  14131     1
  14119  14129     1
  14120  14122     1
  14120  14131     1
  14121  14126     1
  14121  14122     1
  14121  14124     1
  14121  14136     1
  14121  14123     1
  14121  14131     1
  14122  14127     1
  14122  14125     1
  14122  14129     1
  14123  14125     1
  14132  14136     1
  14132  14135     1
  14133  14136     1
  14133  14135     1
  14137  14145     1
  14137  14153     1
  14137  14158     1
  14137  14146     1
  14138  14144     1
  14138  14152     1
  14138  14155     1
  14138  14156     1
  14139  14141     1
  14139  14150     1
  14139  14140     1
  14139  14157     1
  14139  14155     1
  14139  14156     1
  14139  14143     1
  14140  14142     1
  14140  14149     1
  14140  14145     1
  14140  14153     1
  14140  14151     1
  14140  14159     1
  14141  14146     1
  14141  14154     1
  14141  14153     1
  14142  14152     1
  14143  14154     1
  14143  14145     1
  14144  14147     1
  14144  14159     1
  14144  14146     1
  14144  14154     1
  14144  14149     1
  14144  14145     1
  14145  14148     1
  14145  14152     1
  14145  14150     1
  14146  14148     1
  14155  14158     1
  14155  14159     1
  14156  14158     1
  14156  14159     1
  14160  14168     1
  14160  14176     1
  14160  14181     1
  14160  14169     1
  14161  14178     1
  14161  14179     1
  14161  14167     1
  14161  14175     1
  14162  14164     1
  14162  14173     1
  14162  14163     1
  14162  14180     1
  14162  14178     1
  14162  14179     1
  14162  14166     1
  14163  14174     1
  14163  14182     1
  14163  14165     1
  14163  14172     1
  14163  14168     1
  14163  14176     1
  14164  14176     1
  14164  14169     1
  14164  14177     1
  14165  14175     1
  14166  14168     1
  14166  14177     1
  14167  14172     1
  14167  14168     1
  14167  14170     1
  14167  14182     1
  14167  14169     1
  14167  14177     1
  14168  14173     1
  14168  14171     1
  14168  14175     1
  14169  14171     1
  14178  14182     1
  14178  14181     1
  14179  14182     1
  14179  14181     1
  14183  14191     1
  14183  14199     1
  14183  14204     1
  14183  14192     1
  14184  14190     1
  14184  14198     1
  14184  14201     1
  14184  14202     1
  14185  14187     1
  14185  14196     1
  14185  14186     1
  14185  14203     1
  14185  14201     1
  14185  14202     1
  14185  14189     1
  14186  14188     1
  14186  14195     1
  14186  14191     1
  14186  14199     1
  14186  14197     1
  14186  14205     1
  14187  14192     1
  14187  14200     1
  14187  14199     1
  14188  14198     1
  14189  14200     1
  14189  14191     1
  14190  14193     1
  14190  14205     1
  14190  14192     1
  14190  14200     1
  14190  14195     1
  14190  14191     1
  14191  14194     1
  14191  14198     1
  14191  14196     1
  14192  14194     1
  14201  14204     1
  14201  14205     1
  14202  14204     1
  14202  14205     1
  14206  14214     1
  14206  14222     1
  14206  14227     1
  14206  14215     1
  14207  14224     1
  14207  14225     1
  14207  14213     1
  14207  14221     1
  14208  14210     1
  14208  14219     1
  14208  14209     1
  14208  14226     1
  14208  14224     1
  14208  14225     1
  14208  14212     1
  14209  14220     1
  14209  14228     1
  14209  14211     1
  14209  14218     1
  14209  14214     1
  14209  14222     1
  14210  14222     1
  14210  14215     1
  14210  14223     1
  14211  14221     1
  14212  14214     1
  14212  14223     1
  14213  14218     1
  14213  14214     1
  14213  14216     1
  14213  14228     1
  14213  14215     1
  14213  14223     1
  14214  14219     1
  14214  14217     1
  14214  14221     1
  14215  14217     1
  14224  14228     1
  14224  14227     1
  14225  14228     1
  14225  14227     1
  14229  14237     1
  14229  14245     1
  14229  14250     1
  14229  14238     1
  14230  14236     1
  14230  14244     1
  14230  14247     1
  14230  14248     1
  14231  14233     1
  14231  14242     1
  14231  14232     1
  14231  14249     1
  14231  14247     1
  14231  14248     1
  14231  14235     1
  14232  14234     1
  14232  14241     1
  14232  14237     1
  14232  14245     1
  14232  14243     1
  14232  14251     1
  14233  14238     1
  14233  14246     1
  14233  14245     1
  14234  14244     1
  14235  14246     1
  14235  14237     1
  14236  14239     1
  14236  14251     1
  14236  14238     1
  14236  14246     1
  14236  14241     1
  14236  14237     1
  14237  14240     1
  14237  14244     1
  14237  14242     1
  14238  14240     1
  14247  14250     1
  14247  14251     1
  14248  14250     1
  14248  14251     1
  14252  14260     1
  14252  14268     1
  14252  14273     1
  14252  14261     1
  14253  14270     1
  14253  14271     1
  14253  14259     1
  14253  14267     1
  14254  14256     1
  14254  14265     1
  14254  14255     1
  14254  14272     1
  14254  14270     1
  14254  14271     1
  14254  14258     1
  14255  14266     1
  14255  14274     1
  14255  14257     1
  14255  14264     1
  14255  14260     1
  14255  14268     1
  14256  14268     1
  14256  14261     1
  14256  14269     1
  14257  14267     1
  14258  14260     1
  14258  14269     1
  14259  14264     1
  14259  14260     1
  14259  14262     1
  14259  14274     1
  14259  14261     1
  14259  14269     1
  14260  14265     1
  14260  14263     1
  14260  14267     1
  14261  14263     1
  14270  14274     1
  14270  14273     1
  14271  14274     1
  14271  14273     1
  14275  14283     1
  14275  14291     1
  14275  14296     1
  14275  14284     1
  14276  14282     1
  14276  14290     1
  14276  14293     1
  14276  14294     1
  14277  14279     1
  14277  14288     1
  14277  14278     1
  14277  14295     1
  14277  14293     1
  14277  14294     1
  14277  14281     1
  14278  14280     1
  14278  14287     1
  14278  14283     1
  14278  14291     1
  14278  14289     1
  14278  14297     1
  14279  14284     1
  14279  14292     1
  14279  14291     1
  14280  14290     1
  14281  14292     1
  14281  14283     1
  14282  14285     1
  14282  14297     1
  14282  14284     1
  14282  14292     1
  14282  14287     1
  14282  14283     1
  14283  14286     1
  14283  14290     1
  14283  14288     1
  14284  14286     1
  14293  14296     1
  14293  14297     1
  14294  14296     1
  14294  14297     1
  14298  14306     1
  14298  14314     1
  14298  14319     1
  14298  14307     1
  14299  14316     1
  14299  14317     1
  14299  14305     1
  14299  14313     1
  14300  14302     1
  14300  14311     1
  14300  14301     1
  14300  14318     1
  14300  14316     1
  14300  14317     1
  14300  14304     1
  14301  14312     1
  14301  14320     1
  14301  14303     1
  14301  14310     1
  14301  14306     1
  14301  14314     1
  14302  14314     1
  14302  14307     1
  14302  14315     1
  14303  14313     1
  14304  14306     1
  14304  14315     1
  14305  14310     1
  14305  14306     1
  14305  14308     1
  14305  14320     1
  14305  14307     1
  14305  14315     1
  14306  14311     1
  14306  14309     1
  14306  14313     1
  14307  14309     1
  14316  14320     1
  14316  14319     1
  14317  14320     1
  14317  14319     1
  14321  14329     1
  14321  14337     1
  14321  14342     1
  14321  14330     1
  14322  14328     1
  14322  14336     1
  14322  14339     1
  14322  14340     1
  14323  14325     1
  14323  14334     1
  14323  14324     1
  14323  14341     1
  14323  14339     1
  14323  14340     1
  14323  14327     1
  14324  14326     1
  14324  14333     1
  14324  14329     1
  14324  14337     1
  14324  14335     1
  14324  14343     1
  14325  14330     1
  14325  14338     1
  14325  14337     1
  14326  14336     1
  14327  14338     1
  14327  14329     1
  14328  14331     1
  14328  14343     1
  14328  14330     1
  14328  14338     1
  14328  14333     1
  14328  14329     1
  14329  14332     1
  14329  14336     1
  14329  14334     1
  14330  14332     1
  14339  14342     1
  14339  14343     1
  14340  14342     1
  14340  14343     1
  14344  14352     1
  14344  14360     1
  14344  14365     1
  14344  14353     1
  14345  14362     1
  14345  14363     1
  14345  14351     1
  14345  14359     1
  14346  14348     1
  14346  14357     1
  14346  14347     1
  14346  14364     1
  14346  14362     1
  14346  14363     1
  14346  14350     1
  14347  14358     1
  14347  14366     1
  14347  14349     1
  14347  14356     1
  14347  14352     1
  14347  14360     1
  14348  14360     1
  14348  14353     1
  14348  14361     1
  14349  14359     1
  14350  14352     1
  14350  14361     1
  14351  14356     1
  14351  14352     1
  14351  14354     1
  14351  14366     1
  14351  14353     1
  14351  14361     1
  14352  14357     1
  14352  14355     1
  14352  14359     1
  14353  14355     1
  14362  14366     1
  14362  14365     1
  14363  14366     1
  14363  14365     1
  14367  14375     1
  14367  14383     1
  14367  14388     1
  14367  14376     1
  14368  14374     1
  14368  14382     1
  14368  14385     1
  14368  14386     1
  14369  14371     1
  14369  14380     1
  14369  14370     1
  14369  14387     1
  14369  14385     1
  14369  14386     1
  14369  14373     1
  14370  14372     1
  14370  14379     1
  14370  14375     1
  14370  14383     1
  14370  14381     1
  14370  14389     1
  14371  14376     1
  14371  14384     1
  14371  14383     1
  14372  14382     1
  14373  14384     1
  14373  14375     1
  14374  14377     1
  14374  14389     1
  14374  14376     1
  14374  14384     1
  14374  14379     1
  14374  14375     1
  14375  14378     1
  14375  14382     1
  14375  14380     1
  14376  14378     1
  14385  14388     1
  14385  14389     1
  14386  14388     1
  14386  14389     1
  14390  14398     1
  14390  14406     1
  14390  14411     1
  14390  14399     1
  14391  14408     1
  14391  14409     1
  14391  14397     1
  14391  14405     1
  14392  14394     1
  14392  14403     1
  14392  14393     1
  14392  14410     1
  14392  14408     1
  14392  14409     1
  14392  14396     1
  14393  14404     1
  14393  14412     1
  14393  14395     1
  14393  14402     1
  14393  14398     1
  14393  14406     1
  14394  14406     1
  14394  14399     1
  14394  14407     1
  14395  14405     1
  14396  14398     1
  14396  14407     1
  14397  14402     1
  14397  14398     1
  14397  14400     1
  14397  14412     1
  14397  14399     1
  14397  14407     1
  14398  14403     1
  14398  14401     1
  14398  14405     1
  14399  14401     1
  14408  14412     1
  14408  14411     1
  14409  14412     1
  14409  14411     1
  14413  14421     1
  14413  14429     1
  14413  14434     1
  14413  14422     1
  14414  14420     1
  14414  14428     1
  14414  14431     1
  14414  14432     1
  14415  14417     1
  14415  14426     1
  14415  14416     1
  14415  14433     1
  14415  14431     1
  14415  14432     1
  14415  14419     1
  14416  14418     1
  14416  14425     1
  14416  14421     1
  14416  14429     1
  14416  14427     1
  14416  14435     1
  14417  14422     1
  14417  14430     1
  14417  14429     1
  14418  14428     1
  14419  14430     1
  14419  14421     1
  14420  14423     1
  14420  14435     1
  14420  14422     1
  14420  14430     1
  14420  14425     1
  14420  14421     1
  14421  14424     1
  14421  14428     1
  14421  14426     1
  14422  14424     1
  14431  14434     1
  14431  14435     1
  14432  14434     1
  14432  14435     1
  14436  14444     1
  14436  14452     1
  14436  14457     1
  14436  14445     1
  14437  14454     1
  14437  14455     1
  14437  14443     1
  14437  14451     1
  14438  14440     1
  14438  14449     1
  14438  14439     1
  14438  14456     1
  14438  14454     1
  14438  14455     1
  14438  14442     1
  14439  14450     1
  14439  14458     1
  14439  14441     1
  14439  14448     1
  14439  14444     1
  14439  14452     1
  14440  14452     1
  14440  14445     1
  14440  14453     1
  14441  14451     1
  14442  14444     1
  14442  14453     1
  14443  14448     1
  14443  14444     1
  14443  14446     1
  14443  14458     1
  14443  14445     1
  14443  14453     1
  14444  14449     1
  14444  14447     1
  14444  14451     1
  14445  14447     1
  14454  14458     1
  14454  14457     1
  14455  14458     1
  14455  14457     1
  14459  14467     1
  14459  14475     1
  14459  14480     1
  14459  14468     1
  14460  14466     1
  14460  14474     1
  14460  14477     1
  14460  14478     1
  14461  14463     1
  14461  14472     1
  14461  14462     1
  14461  14479     1
  14461  14477     1
  14461  14478     1
  14461  14465     1
  14462  14464     1
  14462  14471     1
  14462  14467     1
  14462  14475     1
  14462  14473     1
  14462  14481     1
  14463  14468     1
  14463  14476     1
  14463  14475     1
  14464  14474     1
  14465  14476     1
  14465  14467     1
  14466  14469     1
  14466  14481     1
  14466  14468     1
  14466  14476     1
  14466  14471     1
  14466  14467     1
  14467  14470     1
  14467  14474     1
  14467  14472     1
  14468  14470     1
  14477  14480     1
  14477  14481     1
  14478  14480     1
  14478  14481     1
  14482  14490     1
  14482  14498     1
  14482  14503     1
  14482  14491     1
  14483  14500     1
  14483  14501     1
  14483  14489     1
  14483  14497     1
  14484  14486     1
  14484  14495     1
  14484  14485     1
  14484  14502     1
  14484  14500     1
  14484  14501     1
  14484  14488     1
  14485  14496     1
  14485  14504     1
  14485  14487     1
  14485  14494     1
  14485  14490     1
  14485  14498     1
  14486  14498     1
  14486  14491     1
  14486  14499     1
  14487  14497     1
  14488  14490     1
  14488  14499     1
  14489  14494     1
  14489  14490     1
  14489  14492     1
  14489  14504     1
  14489  14491     1
  14489  14499     1
  14490  14495     1
  14490  14493     1
  14490  14497     1
  14491  14493     1
  14500  14504     1
  14500  14503     1
  14501  14504     1
  14501  14503     1
  14505  14513     1
  14505  14521     1
  14505  14526     1
  14505  14514     1
  14506  14512     1
  14506  14520     1
  14506  14523     1
  14506  14524     1
  14507  14509     1
  14507  14518     1
  14507  14508     1
  14507  14525     1
  14507  14523     1
  14507  14524     1
  14507  14511     1
  14508  14510     1
  14508  14517     1
  14508  14513     1
  14508  14521     1
  14508  14519     1
  14508  14527     1
  14509  14514     1
  14509  14522     1
  14509  14521     1
  14510  14520     1
  14511  14522     1
  14511  14513     1
  14512  14515     1
  14512  14527     1
  14512  14514     1
  14512  14522     1
  14512  14517     1
  14512  14513     1
  14513  14516     1
  14513  14520     1
  14513  14518     1
  14514  14516     1
  14523  14526     1
  14523  14527     1
  14524  14526     1
  14524  14527     1
  14528  14536     1
  14528  14544     1
  14528  14549     1
  14528  14537     1
  14529  14546     1
  14529  14547     1
  14529  14535     1
  14529  14543     1
  14530  14532     1
  14530  14541     1
  14530  14531     1
  14530  14548     1
  14530  14546     1
  14530  14547     1
  14530  14534     1
  14531  14542     1
  14531  14550     1
  14531  14533     1
  14531  14540     1
  14531  14536     1
  14531  14544     1
  14532  14544     1
  14532  14537     1
  14532  14545     1
  14533  14543     1
  14534  14536     1
  14534  14545     1
  14535  14540     1
  14535  14536     1
  14535  14538     1
  14535  14550     1
  14535  14537     1
  14535  14545     1
  14536  14541     1
  14536  14539     1
  14536  14543     1
  14537  14539     1
  14546  14550     1
  14546  14549     1
  14547  14550     1
  14547  14549     1
  14551  14559     1
  14551  14567     1
  14551  14572     1
  14551  14560     1
  14552  14558     1
  14552  14566     1
  14552  14569     1
  14552  14570     1
  14553  14555     1
  14553  14564     1
  14553  14554     1
  14553  14571     1
  14553  14569     1
  14553  14570     1
  14553  14557     1
  14554  14556     1
  14554  14563     1
  14554  14559     1
  14554  14567     1
  14554  14565     1
  14554  14573     1
  14555  14560     1
  14555  14568     1
  14555  14567     1
  14556  14566     1
  14557  14568     1
  14557  14559     1
  14558  14561     1
  14558  14573     1
  14558  14560     1
  14558  14568     1
  14558  14563     1
  14558  14559     1
  14559  14562     1
  14559  14566     1
  14559  14564     1
  14560  14562     1
  14569  14572     1
  14569  14573     1
  14570  14572     1
  14570  14573     1
  14574  14582     1
  14574  14590     1
  14574  14595     1
  14574  14583     1
  14575  14592     1
  14575  14593     1
  14575  14581     1
  14575  14589     1
  14576  14578     1
  14576  14587     1
  14576  14577     1
  14576  14594     1
  14576  14592     1
  14576  14593     1
  14576  14580     1
  14577  14588     1
  14577  14596     1
  14577  14579     1
  14577  14586     1
  14577  14582     1
  14577  14590     1
  14578  14590     1
  14578  14583     1
  14578  14591     1
  14579  14589     1
  14580  14582     1
  14580  14591     1
  14581  14586     1
  14581  14582     1
  14581  14584     1
  14581  14596     1
  14581  14583     1
  14581  14591     1
  14582  14587     1
  14582  14585     1
  14582  14589     1
  14583  14585     1
  14592  14596     1
  14592  14595     1
  14593  14596     1
  14593  14595     1
  14597  14605     1
  14597  14613     1
  14597  14618     1
  14597  14606     1
  14598  14604     1
  14598  14612     1
  14598  14615     1
  14598  14616     1
  14599  14601     1
  14599  14610     1
  14599  14600     1
  14599  14617     1
  14599  14615     1
  14599  14616     1
  14599  14603     1
  14600  14602     1
  14600  14609     1
  14600  14605     1
  14600  14613     1
  14600  14611     1
  14600  14619     1
  14601  14606     1
  14601  14614     1
  14601  14613     1
  14602  14612     1
  14603  14614     1
  14603  14605     1
  14604  14607     1
  14604  14619     1
  14604  14606     1
  14604  14614     1
  14604  14609     1
  14604  14605     1
  14605  14608     1
  14605  14612     1
  14605  14610     1
  14606  14608     1
  14615  14618     1
  14615  14619     1
  14616  14618     1
  14616  14619     1
  14620  14628     1
  14620  14636     1
  14620  14641     1
  14620  14629     1
  14621  14638     1
  14621  14639     1
  14621  14627     1
  14621  14635     1
  14622  14624     1
  14622  14633     1
  14622  14623     1
  14622  14640     1
  14622  14638     1
  14622  14639     1
  14622  14626     1
  14623  14634     1
  14623  14642     1
  14623  14625     1
  14623  14632     1
  14623  14628     1
  14623  14636     1
  14624  14636     1
  14624  14629     1
  14624  14637     1
  14625  14635     1
  14626  14628     1
  14626  14637     1
  14627  14632     1
  14627  14628     1
  14627  14630     1
  14627  14642     1
  14627  14629     1
  14627  14637     1
  14628  14633     1
  14628  14631     1
  14628  14635     1
  14629  14631     1
  14638  14642     1
  14638  14641     1
  14639  14642     1
  14639  14641     1
  14643  14651     1
  14643  14659     1
  14643  14664     1
  14643  14652     1
  14644  14650     1
  14644  14658     1
  14644  14661     1
  14644  14662     1
  14645  14647     1
  14645  14656     1
  14645  14646     1
  14645  14663     1
  14645  14661     1
  14645  14662     1
  14645  14649     1
  14646  14648     1
  14646  14655     1
  14646  14651     1
  14646  14659     1
  14646  14657     1
  14646  14665     1
  14647  14652     1
  14647  14660     1
  14647  14659     1
  14648  14658     1
  14649  14660     1
  14649  14651     1
  14650  14653     1
  14650  14665     1
  14650  14652     1
  14650  14660     1
  14650  14655     1
  14650  14651     1
  14651  14654     1
  14651  14658     1
  14651  14656     1
  14652  14654     1
  14661  14664     1
  14661  14665     1
  14662  14664     1
  14662  14665     1
  14666  14674     1
  14666  14682     1
  14666  14687     1
  14666  14675     1
  14667  14684     1
  14667  14685     1
  14667  14673     1
  14667  14681     1
  14668  14670     1
  14668  14679     1
  14668  14669     1
  14668  14686     1
  14668  14684     1
  14668  14685     1
  14668  14672     1
  14669  14680     1
  14669  14688     1
  14669  14671     1
  14669  14678     1
  14669  14674     1
  14669  14682     1
  14670  14682     1
  14670  14675     1
  14670  14683     1
  14671  14681     1
  14672  14674     1
  14672  14683     1
  14673  14678     1
  14673  14674     1
  14673  14676     1
  14673  14688     1
  14673  14675     1
  14673  14683     1
  14674  14679     1
  14674  14677     1
  14674  14681     1
  14675  14677     1
  14684  14688     1
  14684  14687     1
  14685  14688     1
  14685  14687     1
  14689  14697     1
  14689  14705     1
  14689  14710     1
  14689  14698     1
  14690  14696     1
  14690  14704     1
  14690  14707     1
  14690  14708     1
  14691  14693     1
  14691  14702     1
  14691  14692     1
  14691  14709     1
  14691  14707     1
  14691  14708     1
  14691  14695     1
  14692  14694     1
  14692  14701     1
  14692  14697     1
  14692  14705     1
  14692  14703     1
  14692  14711     1
  14693  14698     1
  14693  14706     1
  14693  14705     1
  14694  14704     1
  14695  14706     1
  14695  14697     1
  14696  14699     1
  14696  14711     1
  14696  14698     1
  14696  14706     1
  14696  14701     1
  14696  14697     1
  14697  14700     1
  14697  14704     1
  14697  14702     1
  14698  14700     1
  14707  14710     1
  14707  14711     1
  14708  14710     1
  14708  14711     1
  14712  14720     1
  14712  14728     1
  14712  14733     1
  14712  14721     1
  14713  14730     1
  14713  14731     1
  14713  14719     1
  14713  14727     1
  14714  14716     1
  14714  14725     1
  14714  14715     1
  14714  14732     1
  14714  14730     1
  14714  14731     1
  14714  14718     1
  14715  14726     1
  14715  14734     1
  14715  14717     1
  14715  14724     1
  14715  14720     1
  14715  14728     1
  14716  14728     1
  14716  14721     1
  14716  14729     1
  14717  14727     1
  14718  14720     1
  14718  14729     1
  14719  14724     1
  14719  14720     1
  14719  14722     1
  14719  14734     1
  14719  14721     1
  14719  14729     1
  14720  14725     1
  14720  14723     1
  14720  14727     1
  14721  14723     1
  14730  14734     1
  14730  14733     1
  14731  14734     1
  14731  14733     1
  14735  14743     1
  14735  14751     1
  14735  14756     1
  14735  14744     1
  14736  14742     1
  14736  14750     1
  14736  14753     1
  14736  14754     1
  14737  14739     1
  14737  14748     1
  14737  14738     1
  14737  14755     1
  14737  14753     1
  14737  14754     1
  14737  14741     1
  14738  14740     1
  14738  14747     1
  14738  14743     1
  14738  14751     1
  14738  14749     1
  14738  14757     1
  14739  14744     1
  14739  14752     1
  14739  14751     1
  14740  14750     1
  14741  14752     1
  14741  14743     1
  14742  14745     1
  14742  14757     1
  14742  14744     1
  14742  14752     1
  14742  14747     1
  14742  14743     1
  14743  14746     1
  14743  14750     1
  14743  14748     1
  14744  14746     1
  14753  14756     1
  14753  14757     1
  14754  14756     1
  14754  14757     1
  14758  14766     1
  14758  14774     1
  14758  14779     1
  14758  14767     1
  14759  14776     1
  14759  14777     1
  14759  14765     1
  14759  14773     1
  14760  14762     1
  14760  14771     1
  14760  14761     1
  14760  14778     1
  14760  14776     1
  14760  14777     1
  14760  14764     1
  14761  14772     1
  14761  14780     1
  14761  14763     1
  14761  14770     1
  14761  14766     1
  14761  14774     1
  14762  14774     1
  14762  14767     1
  14762  14775     1
  14763  14773     1
  14764  14766     1
  14764  14775     1
  14765  14770     1
  14765  14766     1
  14765  14768     1
  14765  14780     1
  14765  14767     1
  14765  14775     1
  14766  14771     1
  14766  14769     1
  14766  14773     1
  14767  14769     1
  14776  14780     1
  14776  14779     1
  14777  14780     1
  14777  14779     1
  14781  14789     1
  14781  14797     1
  14781  14802     1
  14781  14790     1
  14782  14788     1
  14782  14796     1
  14782  14799     1
  14782  14800     1
  14783  14785     1
  14783  14794     1
  14783  14784     1
  14783  14801     1
  14783  14799     1
  14783  14800     1
  14783  14787     1
  14784  14786     1
  14784  14793     1
  14784  14789     1
  14784  14797     1
  14784  14795     1
  14784  14803     1
  14785  14790     1
  14785  14798     1
  14785  14797     1
  14786  14796     1
  14787  14798     1
  14787  14789     1
  14788  14791     1
  14788  14803     1
  14788  14790     1
  14788  14798     1
  14788  14793     1
  14788  14789     1
  14789  14792     1
  14789  14796     1
  14789  14794     1
  14790  14792     1
  14799  14802     1
  14799  14803     1
  14800  14802     1
  14800  14803     1
  14804  14812     1
  14804  14820     1
  14804  14825     1
  14804  14813     1
  14805  14822     1
  14805  14823     1
  14805  14811     1
  14805  14819     1
  14806  14808     1
  14806  14817     1
  14806  14807     1
  14806  14824     1
  14806  14822     1
  14806  14823     1
  14806  14810     1
  14807  14818     1
  14807  14826     1
  14807  14809     1
  14807  14816     1
  14807  14812     1
  14807  14820     1
  14808  14820     1
  14808  14813     1
  14808  14821     1
  14809  14819     1
  14810  14812     1
  14810  14821     1
  14811  14816     1
  14811  14812     1
  14811  14814     1
  14811  14826     1
  14811  14813     1
  14811  14821     1
  14812  14817     1
  14812  14815     1
  14812  14819     1
  14813  14815     1
  14822  14826     1
  14822  14825     1
  14823  14826     1
  14823  14825     1
  14827  14835     1
  14827  14843     1
  14827  14848     1
  14827  14836     1
  14828  14834     1
  14828  14842     1
  14828  14845     1
  14828  14846     1
  14829  14831     1
  14829  14840     1
  14829  14830     1
  14829  14847     1
  14829  14845     1
  14829  14846     1
  14829  14833     1
  14830  14832     1
  14830  14839     1
  14830  14835     1
  14830  14843     1
  14830  14841     1
  14830  14849     1
  14831  14836     1
  14831  14844     1
  14831  14843     1
  14832  14842     1
  14833  14844     1
  14833  14835     1
  14834  14837     1
  14834  14849     1
  14834  14836     1
  14834  14844     1
  14834  14839     1
  14834  14835     1
  14835  14838     1
  14835  14842     1
  14835  14840     1
  14836  14838     1
  14845  14848     1
  14845  14849     1
  14846  14848     1
  14846  14849     1
  14850  14858     1
  14850  14866     1
  14850  14871     1
  14850  14859     1
  14851  14868     1
  14851  14869     1
  14851  14857     1
  14851  14865     1
  14852  14854     1
  14852  14863     1
  14852  14853     1
  14852  14870     1
  14852  14868     1
  14852  14869     1
  14852  14856     1
  14853  14864     1
  14853  14872     1
  14853  14855     1
  14853  14862     1
  14853  14858     1
  14853  14866     1
  14854  14866     1
  14854  14859     1
  14854  14867     1
  14855  14865     1
  14856  14858     1
  14856  14867     1
  14857  14862     1
  14857  14858     1
  14857  14860     1
  14857  14872     1
  14857  14859     1
  14857  14867     1
  14858  14863     1
  14858  14861     1
  14858  14865     1
  14859  14861     1
  14868  14872     1
  14868  14871     1
  14869  14872     1
  14869  14871     1
  14873  14881     1
  14873  14889     1
  14873  14894     1
  14873  14882     1
  14874  14880     1
  14874  14888     1
  14874  14891     1
  14874  14892     1
  14875  14877     1
  14875  14886     1
  14875  14876     1
  14875  14893     1
  14875  14891     1
  14875  14892     1
  14875  14879     1
  14876  14878     1
  14876  14885     1
  14876  14881     1
  14876  14889     1
  14876  14887     1
  14876  14895     1
  14877  14882     1
  14877  14890     1
  14877  14889     1
  14878  14888     1
  14879  14890     1
  14879  14881     1
  14880  14883     1
  14880  14895     1
  14880  14882     1
  14880  14890     1
  14880  14885     1
  14880  14881     1
  14881  14884     1
  14881  14888     1
  14881  14886     1
  14882  14884     1
  14891  14894     1
  14891  14895     1
  14892  14894     1
  14892  14895     1
  14896  14904     1
  14896  14912     1
  14896  14917     1
  14896  14905     1
  14897  14914     1
  14897  14915     1
  14897  14903     1
  14897  14911     1
  14898  14900     1
  14898  14909     1
  14898  14899     1
  14898  14916     1
  14898  14914     1
  14898  14915     1
  14898  14902     1
  14899  14910     1
  14899  14918     1
  14899  14901     1
  14899  14908     1
  14899  14904     1
  14899  14912     1
  14900  14912     1
  14900  14905     1
  14900  14913     1
  14901  14911     1
  14902  14904     1
  14902  14913     1
  14903  14908     1
  14903  14904     1
  14903  14906     1
  14903  14918     1
  14903  14905     1
  14903  14913     1
  14904  14909     1
  14904  14907     1
  14904  14911     1
  14905  14907     1
  14914  14918     1
  14914  14917     1
  14915  14918     1
  14915  14917     1
  14919  14927     1
  14919  14935     1
  14919  14940     1
  14919  14928     1
  14920  14926     1
  14920  14934     1
  14920  14937     1
  14920  14938     1
  14921  14923     1
  14921  14932     1
  14921  14922     1
  14921  14939     1
  14921  14937     1
  14921  14938     1
  14921  14925     1
  14922  14924     1
  14922  14931     1
  14922  14927     1
  14922  14935     1
  14922  14933     1
  14922  14941     1
  14923  14928     1
  14923  14936     1
  14923  14935     1
  14924  14934     1
  14925  14936     1
  14925  14927     1
  14926  14929     1
  14926  14941     1
  14926  14928     1
  14926  14936     1
  14926  14931     1
  14926  14927     1
  14927  14930     1
  14927  14934     1
  14927  14932     1
  14928  14930     1
  14937  14940     1
  14937  14941     1
  14938  14940     1
  14938  14941     1
  14942  14950     1
  14942  14958     1
  14942  14963     1
  14942  14951     1
  14943  14960     1
  14943  14961     1
  14943  14949     1
  14943  14957     1
  14944  14946     1
  14944  14955     1
  14944  14945     1
  14944  14962     1
  14944  14960     1
  14944  14961     1
  14944  14948     1
  14945  14956     1
  14945  14964     1
  14945  14947     1
  14945  14954     1
  14945  14950     1
  14945  14958     1
  14946  14958     1
  14946  14951     1
  14946  14959     1
  14947  14957     1
  14948  14950     1
  14948  14959     1
  14949  14954     1
  14949  14950     1
  14949  14952     1
  14949  14964     1
  14949  14951     1
  14949  14959     1
  14950  14955     1
  14950  14953     1
  14950  14957     1
  14951  14953     1
  14960  14964     1
  14960  14963     1
  14961  14964     1
  14961  14963     1
  14965  14973     1
  14965  14981     1
  14965  14986     1
  14965  14974     1
  14966  14972     1
  14966  14980     1
  14966  14983     1
  14966  14984     1
  14967  14969     1
  14967  14978     1
  14967  14968     1
  14967  14985     1
  14967  14983     1
  14967  14984     1
  14967  14971     1
  14968  14970     1
  14968  14977     1
  14968  14973     1
  14968  14981     1
  14968  14979     1
  14968  14987     1
  14969  14974     1
  14969  14982     1
  14969  14981     1
  14970  14980     1
  14971  14982     1
  14971  14973     1
  14972  14975     1
  14972  14987     1
  14972  14974     1
  14972  14982     1
  14972  14977     1
  14972  14973     1
  14973  14976     1
  14973  14980     1
  14973  14978     1
  14974  14976     1
  14983  14986     1
  14983  14987     1
  14984  14986     1
  14984  14987     1
  14988  14996     1
  14988  15004     1
  14988  15009     1
  14988  14997     1
  14989  15006     1
  14989  15007     1
  14989  14995     1
  14989  15003     1
  14990  14992     1
  14990  15001     1
  14990  14991     1
  14990  15008     1
  14990  15006     1
  14990  15007     1
  14990  14994     1
  14991  15002     1
  14991  15010     1
  14991  14993     1
  14991  15000     1
  14991  14996     1
  14991  15004     1
  14992  15004     1
  14992  14997     1
  14992  15005     1
  14993  15003     1
  14994  14996     1
  14994  15005     1
  14995  15000     1
  14995  14996     1
  14995  14998     1
  14995  15010     1
  14995  14997     1
  14995  15005     1
  14996  15001     1
  14996  14999     1
  14996  15003     1
  14997  14999     1
  15006  15010     1
  15006  15009     1
  15007  15010     1
  15007  15009     1
  15011  15019     1
  15011  15027     1
  15011  15032     1
  15011  15020     1
  15012  15018     1
  15012  15026     1
  15012  15029     1
  15012  15030     1
  15013  15015     1
  15013  15024     1
  15013  15014     1
  15013  15031     1
  15013  15029     1
  15013  15030     1
  15013  15017     1
  15014  15016     1
  15014  15023     1
  15014  15019     1
  15014  15027     1
  15014  15025     1
  15014  15033     1
  15015  15020     1
  15015  15028     1
  15015  15027     1
  15016  15026     1
  15017  15028     1
  15017  15019     1
  15018  15021     1
  15018  15033     1
  15018  15020     1
  15018  15028     1
  15018  15023     1
  15018  15019     1
  15019  15022     1
  15019  15026     1
  15019  15024     1
  15020  15022     1
  15029  15032     1
  15029  15033     1
  15030  15032     1
  15030  15033     1
  15034  15042     1
  15034  15050     1
  15034  15055     1
  15034  15043     1
  15035  15052     1
  15035  15053     1
  15035  15041     1
  15035  15049     1
  15036  15038     1
  15036  15047     1
  15036  15037     1
  15036  15054     1
  15036  15052     1
  15036  15053     1
  15036  15040     1
  15037  15048     1
  15037  15056     1
  15037  15039     1
  15037  15046     1
  15037  15042     1
  15037  15050     1
  15038  15050     1
  15038  15043     1
  15038  15051     1
  15039  15049     1
  15040  15042     1
  15040  15051     1
  15041  15046     1
  15041  15042     1
  15041  15044     1
  15041  15056     1
  15041  15043     1
  15041  15051     1
  15042  15047     1
  15042  15045     1
  15042  15049     1
  15043  15045     1
  15052  15056     1
  15052  15055     1
  15053  15056     1
  15053  15055     1
  15057  15065     1
  15057  15073     1
  15057  15078     1
  15057  15066     1
  15058  15064     1
  15058  15072     1
  15058  15075     1
  15058  15076     1
  15059  15061     1
  15059  15070     1
  15059  15060     1
  15059  15077     1
  15059  15075     1
  15059  15076     1
  15059  15063     1
  15060  15062     1
  15060  15069     1
  15060  15065     1
  15060  15073     1
  15060  15071     1
  15060  15079     1
  15061  15066     1
  15061  15074     1
  15061  15073     1
  15062  15072     1
  15063  15074     1
  15063  15065     1
  15064  15067     1
  15064  15079     1
  15064  15066     1
  15064  15074     1
  15064  15069     1
  15064  15065     1
  15065  15068     1
  15065  15072     1
  15065  15070     1
  15066  15068     1
  15075  15078     1
  15075  15079     1
  15076  15078     1
  15076  15079     1
  15080  15088     1
  15080  15096     1
  15080  15101     1
  15080  15089     1
  15081  15098     1
  15081  15099     1
  15081  15087     1
  15081  15095     1
  15082  15084     1
  15082  15093     1
  15082  15083     1
  15082  15100     1
  15082  15098     1
  15082  15099     1
  15082  15086     1
  15083  15094     1
  15083  15102     1
  15083  15085     1
  15083  15092     1
  15083  15088     1
  15083  15096     1
  15084  15096     1
  15084  15089     1
  15084  15097     1
  15085  15095     1
  15086  15088     1
  15086  15097     1
  15087  15092     1
  15087  15088     1
  15087  15090     1
  15087  15102     1
  15087  15089     1
  15087  15097     1
  15088  15093     1
  15088  15091     1
  15088  15095     1
  15089  15091     1
  15098  15102     1
  15098  15101     1
  15099  15102     1
  15099  15101     1
  15103  15111     1
  15103  15119     1
  15103  15124     1
  15103  15112     1
  15104  15110     1
  15104  15118     1
  15104  15121     1
  15104  15122     1
  15105  15107     1
  15105  15116     1
  15105  15106     1
  15105  15123     1
  15105  15121     1
  15105  15122     1
  15105  15109     1
  15106  15108     1
  15106  15115     1
  15106  15111     1
  15106  15119     1
  15106  15117     1
  15106  15125     1
  15107  15112     1
  15107  15120     1
  15107  15119     1
  15108  15118     1
  15109  15120     1
  15109  15111     1
  15110  15113     1
  15110  15125     1
  15110  15112     1
  15110  15120     1
  15110  15115     1
  15110  15111     1
  15111  15114     1
  15111  15118     1
  15111  15116     1
  15112  15114     1
  15121  15124     1
  15121  15125     1
  15122  15124     1
  15122  15125     1
  15126  15134     1
  15126  15142     1
  15126  15147     1
  15126  15135     1
  15127  15144     1
  15127  15145     1
  15127  15133     1
  15127  15141     1
  15128  15130     1
  15128  15139     1
  15128  15129     1
  15128  15146     1
  15128  15144     1
  15128  15145     1
  15128  15132     1
  15129  15140     1
  15129  15148     1
  15129  15131     1
  15129  15138     1
  15129  15134     1
  15129  15142     1
  15130  15142     1
  15130  15135     1
  15130  15143     1
  15131  15141     1
  15132  15134     1
  15132  15143     1
  15133  15138     1
  15133  15134     1
  15133  15136     1
  15133  15148     1
  15133  15135     1
  15133  15143     1
  15134  15139     1
  15134  15137     1
  15134  15141     1
  15135  15137     1
  15144  15148     1
  15144  15147     1
  15145  15148     1
  15145  15147     1
  15149  15157     1
  15149  15165     1
  15149  15170     1
  15149  15158     1
  15150  15156     1
  15150  15164     1
  15150  15167     1
  15150  15168     1
  15151  15153     1
  15151  15162     1
  15151  15152     1
  15151  15169     1
  15151  15167     1
  15151  15168     1
  15151  15155     1
  15152  15154     1
  15152  15161     1
  15152  15157     1
  15152  15165     1
  15152  15163     1
  15152  15171     1
  15153  15158     1
  15153  15166     1
  15153  15165     1
  15154  15164     1
  15155  15166     1
  15155  15157     1
  15156  15159     1
  15156  15171     1
  15156  15158     1
  15156  15166     1
  15156  15161     1
  15156  15157     1
  15157  15160     1
  15157  15164     1
  15157  15162     1
  15158  15160     1
  15167  15170     1
  15167  15171     1
  15168  15170     1
  15168  15171     1
  15172  15180     1
  15172  15188     1
  15172  15193     1
  15172  15181     1
  15173  15190     1
  15173  15191     1
  15173  15179     1
  15173  15187     1
  15174  15176     1
  15174  15185     1
  15174  15175     1
  15174  15192     1
  15174  15190     1
  15174  15191     1
  15174  15178     1
  15175  15186     1
  15175  15194     1
  15175  15177     1
  15175  15184     1
  15175  15180     1
  15175  15188     1
  15176  15188     1
  15176  15181     1
  15176  15189     1
  15177  15187     1
  15178  15180     1
  15178  15189     1
  15179  15184     1
  15179  15180     1
  15179  15182     1
  15179  15194     1
  15179  15181     1
  15179  15189     1
  15180  15185     1
  15180  15183     1
  15180  15187     1
  15181  15183     1
  15190  15194     1
  15190  15193     1
  15191  15194     1
  15191  15193     1
  15195  15203     1
  15195  15211     1
  15195  15216     1
  15195  15204     1
  15196  15202     1
  15196  15210     1
  15196  15213     1
  15196  15214     1
  15197  15199     1
  15197  15208     1
  15197  15198     1
  15197  15215     1
  15197  15213     1
  15197  15214     1
  15197  15201     1
  15198  15200     1
  15198  15207     1
  15198  15203     1
  15198  15211     1
  15198  15209     1
  15198  15217     1
  15199  15204     1
  15199  15212     1
  15199  15211     1
  15200  15210     1
  15201  15212     1
  15201  15203     1
  15202  15205     1
  15202  15217     1
  15202  15204     1
  15202  15212     1
  15202  15207     1
  15202  15203     1
  15203  15206     1
  15203  15210     1
  15203  15208     1
  15204  15206     1
  15213  15216     1
  15213  15217     1
  15214  15216     1
  15214  15217     1
  15218  15226     1
  15218  15234     1
  15218  15239     1
  15218  15227     1
  15219  15236     1
  15219  15237     1
  15219  15225     1
  15219  15233     1
  15220  15222     1
  15220  15231     1
  15220  15221     1
  15220  15238     1
  15220  15236     1
  15220  15237     1
  15220  15224     1
  15221  15232     1
  15221  15240     1
  15221  15223     1
  15221  15230     1
  15221  15226     1
  15221  15234     1
  15222  15234     1
  15222  15227     1
  15222  15235     1
  15223  15233     1
  15224  15226     1
  15224  15235     1
  15225  15230     1
  15225  15226     1
  15225  15228     1
  15225  15240     1
  15225  15227     1
  15225  15235     1
  15226  15231     1
  15226  15229     1
  15226  15233     1
  15227  15229     1
  15236  15240     1
  15236  15239     1
  15237  15240     1
  15237  15239     1
  15241  15249     1
  15241  15257     1
  15241  15262     1
  15241  15250     1
  15242  15248     1
  15242  15256     1
  15242  15259     1
  15242  15260     1
  15243  15245     1
  15243  15254     1
  15243  15244     1
  15243  15261     1
  15243  15259     1
  15243  15260     1
  15243  15247     1
  15244  15246     1
  15244  15253     1
  15244  15249     1
  15244  15257     1
  15244  15255     1
  15244  15263     1
  15245  15250     1
  15245  15258     1
  15245  15257     1
  15246  15256     1
  15247  15258     1
  15247  15249     1
  15248  15251     1
  15248  15263     1
  15248  15250     1
  15248  15258     1
  15248  15253     1
  15248  15249     1
  15249  15252     1
  15249  15256     1
  15249  15254     1
  15250  15252     1
  15259  15262     1
  15259  15263     1
  15260  15262     1
  15260  15263     1
  15264  15272     1
  15264  15280     1
  15264  15285     1
  15264  15273     1
  15265  15282     1
  15265  15283     1
  15265  15271     1
  15265  15279     1
  15266  15268     1
  15266  15277     1
  15266  15267     1
  15266  15284     1
  15266  15282     1
  15266  15283     1
  15266  15270     1
  15267  15278     1
  15267  15286     1
  15267  15269     1
  15267  15276     1
  15267  15272     1
  15267  15280     1
  15268  15280     1
  15268  15273     1
  15268  15281     1
  15269  15279     1
  15270  15272     1
  15270  15281     1
  15271  15276     1
  15271  15272     1
  15271  15274     1
  15271  15286     1
  15271  15273     1
  15271  15281     1
  15272  15277     1
  15272  15275     1
  15272  15279     1
  15273  15275     1
  15282  15286     1
  15282  15285     1
  15283  15286     1
  15283  15285     1
  15287  15295     1
  15287  15303     1
  15287  15308     1
  15287  15296     1
  15288  15294     1
  15288  15302     1
  15288  15305     1
  15288  15306     1
  15289  15291     1
  15289  15300     1
  15289  15290     1
  15289  15307     1
  15289  15305     1
  15289  15306     1
  15289  15293     1
  15290  15292     1
  15290  15299     1
  15290  15295     1
  15290  15303     1
  15290  15301     1
  15290  15309     1
  15291  15296     1
  15291  15304     1
  15291  15303     1
  15292  15302     1
  15293  15304     1
  15293  15295     1
  15294  15297     1
  15294  15309     1
  15294  15296     1
  15294  15304     1
  15294  15299     1
  15294  15295     1
  15295  15298     1
  15295  15302     1
  15295  15300     1
  15296  15298     1
  15305  15308     1
  15305  15309     1
  15306  15308     1
  15306  15309     1
  15310  15318     1
  15310  15326     1
  15310  15331     1
  15310  15319     1
  15311  15328     1
  15311  15329     1
  15311  15317     1
  15311  15325     1
  15312  15314     1
  15312  15323     1
  15312  15313     1
  15312  15330     1
  15312  15328     1
  15312  15329     1
  15312  15316     1
  15313  15324     1
  15313  15332     1
  15313  15315     1
  15313  15322     1
  15313  15318     1
  15313  15326     1
  15314  15326     1
  15314  15319     1
  15314  15327     1
  15315  15325     1
  15316  15318     1
  15316  15327     1
  15317  15322     1
  15317  15318     1
  15317  15320     1
  15317  15332     1
  15317  15319     1
  15317  15327     1
  15318  15323     1
  15318  15321     1
  15318  15325     1
  15319  15321     1
  15328  15332     1
  15328  15331     1
  15329  15332     1
  15329  15331     1
  15333  15341     1
  15333  15349     1
  15333  15354     1
  15333  15342     1
  15334  15340     1
  15334  15348     1
  15334  15351     1
  15334  15352     1
  15335  15337     1
  15335  15346     1
  15335  15336     1
  15335  15353     1
  15335  15351     1
  15335  15352     1
  15335  15339     1
  15336  15338     1
  15336  15345     1
  15336  15341     1
  15336  15349     1
  15336  15347     1
  15336  15355     1
  15337  15342     1
  15337  15350     1
  15337  15349     1
  15338  15348     1
  15339  15350     1
  15339  15341     1
  15340  15343     1
  15340  15355     1
  15340  15342     1
  15340  15350     1
  15340  15345     1
  15340  15341     1
  15341  15344     1
  15341  15348     1
  15341  15346     1
  15342  15344     1
  15351  15354     1
  15351  15355     1
  15352  15354     1
  15352  15355     1
  15356  15364     1
  15356  15372     1
  15356  15377     1
  15356  15365     1
  15357  15374     1
  15357  15375     1
  15357  15363     1
  15357  15371     1
  15358  15360     1
  15358  15369     1
  15358  15359     1
  15358  15376     1
  15358  15374     1
  15358  15375     1
  15358  15362     1
  15359  15370     1
  15359  15378     1
  15359  15361     1
  15359  15368     1
  15359  15364     1
  15359  15372     1
  15360  15372     1
  15360  15365     1
  15360  15373     1
  15361  15371     1
  15362  15364     1
  15362  15373     1
  15363  15368     1
  15363  15364     1
  15363  15366     1
  15363  15378     1
  15363  15365     1
  15363  15373     1
  15364  15369     1
  15364  15367     1
  15364  15371     1
  15365  15367     1
  15374  15378     1
  15374  15377     1
  15375  15378     1
  15375  15377     1
  15379  15387     1
  15379  15395     1
  15379  15400     1
  15379  15388     1
  15380  15386     1
  15380  15394     1
  15380  15397     1
  15380  15398     1
  15381  15383     1
  15381  15392     1
  15381  15382     1
  15381  15399     1
  15381  15397     1
  15381  15398     1
  15381  15385     1
  15382  15384     1
  15382  15391     1
  15382  15387     1
  15382  15395     1
  15382  15393     1
  15382  15401     1
  15383  15388     1
  15383  15396     1
  15383  15395     1
  15384  15394     1
  15385  15396     1
  15385  15387     1
  15386  15389     1
  15386  15401     1
  15386  15388     1
  15386  15396     1
  15386  15391     1
  15386  15387     1
  15387  15390     1
  15387  15394     1
  15387  15392     1
  15388  15390     1
  15397  15400     1
  15397  15401     1
  15398  15400     1
  15398  15401     1
  15402  15410     1
  15402  15418     1
  15402  15423     1
  15402  15411     1
  15403  15420     1
  15403  15421     1
  15403  15409     1
  15403  15417     1
  15404  15406     1
  15404  15415     1
  15404  15405     1
  15404  15422     1
  15404  15420     1
  15404  15421     1
  15404  15408     1
  15405  15416     1
  15405  15424     1
  15405  15407     1
  15405  15414     1
  15405  15410     1
  15405  15418     1
  15406  15418     1
  15406  15411     1
  15406  15419     1
  15407  15417     1
  15408  15410     1
  15408  15419     1
  15409  15414     1
  15409  15410     1
  15409  15412     1
  15409  15424     1
  15409  15411     1
  15409  15419     1
  15410  15415     1
  15410  15413     1
  15410  15417     1
  15411  15413     1
  15420  15424     1
  15420  15423     1
  15421  15424     1
  15421  15423     1
  15425  15433     1
  15425  15441     1
  15425  15446     1
  15425  15434     1
  15426  15432     1
  15426  15440     1
  15426  15443     1
  15426  15444     1
  15427  15429     1
  15427  15438     1
  15427  15428     1
  15427  15445     1
  15427  15443     1
  15427  15444     1
  15427  15431     1
  15428  15430     1
  15428  15437     1
  15428  15433     1
  15428  15441     1
  15428  15439     1
  15428  15447     1
  15429  15434     1
  15429  15442     1
  15429  15441     1
  15430  15440     1
  15431  15442     1
  15431  15433     1
  15432  15435     1
  15432  15447     1
  15432  15434     1
  15432  15442     1
  15432  15437     1
  15432  15433     1
  15433  15436     1
  15433  15440     1
  15433  15438     1
  15434  15436     1
  15443  15446     1
  15443  15447     1
  15444  15446     1
  15444  15447     1
  15448  15456     1
  15448  15464     1
  15448  15469     1
  15448  15457     1
  15449  15466     1
  15449  15467     1
  15449  15455     1
  15449  15463     1
  15450  15452     1
  15450  15461     1
  15450  15451     1
  15450  15468     1
  15450  15466     1
  15450  15467     1
  15450  15454     1
  15451  15462     1
  15451  15470     1
  15451  15453     1
  15451  15460     1
  15451  15456     1
  15451  15464     1
  15452  15464     1
  15452  15457     1
  15452  15465     1
  15453  15463     1
  15454  15456     1
  15454  15465     1
  15455  15460     1
  15455  15456     1
  15455  15458     1
  15455  15470     1
  15455  15457     1
  15455  15465     1
  15456  15461     1
  15456  15459     1
  15456  15463     1
  15457  15459     1
  15466  15470     1
  15466  15469     1
  15467  15470     1
  15467  15469     1
  15471  15479     1
  15471  15487     1
  15471  15492     1
  15471  15480     1
  15472  15478     1
  15472  15486     1
  15472  15489     1
  15472  15490     1
  15473  15475     1
  15473  15484     1
  15473  15474     1
  15473  15491     1
  15473  15489     1
  15473  15490     1
  15473  15477     1
  15474  15476     1
  15474  15483     1
  15474  15479     1
  15474  15487     1
  15474  15485     1
  15474  15493     1
  15475  15480     1
  15475  15488     1
  15475  15487     1
  15476  15486     1
  15477  15488     1
  15477  15479     1
  15478  15481     1
  15478  15493     1
  15478  15480     1
  15478  15488     1
  15478  15483     1
  15478  15479     1
  15479  15482     1
  15479  15486     1
  15479  15484     1
  15480  15482     1
  15489  15492     1
  15489  15493     1
  15490  15492     1
  15490  15493     1
  15494  15502     1
  15494  15510     1
  15494  15515     1
  15494  15503     1
  15495  15512     1
  15495  15513     1
  15495  15501     1
  15495  15509     1
  15496  15498     1
  15496  15507     1
  15496  15497     1
  15496  15514     1
  15496  15512     1
  15496  15513     1
  15496  15500     1
  15497  15508     1
  15497  15516     1
  15497  15499     1
  15497  15506     1
  15497  15502     1
  15497  15510     1
  15498  15510     1
  15498  15503     1
  15498  15511     1
  15499  15509     1
  15500  15502     1
  15500  15511     1
  15501  15506     1
  15501  15502     1
  15501  15504     1
  15501  15516     1
  15501  15503     1
  15501  15511     1
  15502  15507     1
  15502  15505     1
  15502  15509     1
  15503  15505     1
  15512  15516     1
  15512  15515     1
  15513  15516     1
  15513  15515     1
  15517  15525     1
  15517  15533     1
  15517  15538     1
  15517  15526     1
  15518  15524     1
  15518  15532     1
  15518  15535     1
  15518  15536     1
  15519  15521     1
  15519  15530     1
  15519  15520     1
  15519  15537     1
  15519  15535     1
  15519  15536     1
  15519  15523     1
  15520  15522     1
  15520  15529     1
  15520  15525     1
  15520  15533     1
  15520  15531     1
  15520  15539     1
  15521  15526     1
  15521  15534     1
  15521  15533     1
  15522  15532     1
  15523  15534     1
  15523  15525     1
  15524  15527     1
  15524  15539     1
  15524  15526     1
  15524  15534     1
  15524  15529     1
  15524  15525     1
  15525  15528     1
  15525  15532     1
  15525  15530     1
  15526  15528     1
  15535  15538     1
  15535  15539     1
  15536  15538     1
  15536  15539     1
  15540  15548     1
  15540  15556     1
  15540  15561     1
  15540  15549     1
  15541  15558     1
  15541  15559     1
  15541  15547     1
  15541  15555     1
  15542  15544     1
  15542  15553     1
  15542  15543     1
  15542  15560     1
  15542  15558     1
  15542  15559     1
  15542  15546     1
  15543  15554     1
  15543  15562     1
  15543  15545     1
  15543  15552     1
  15543  15548     1
  15543  15556     1
  15544  15556     1
  15544  15549     1
  15544  15557     1
  15545  15555     1
  15546  15548     1
  15546  15557     1
  15547  15552     1
  15547  15548     1
  15547  15550     1
  15547  15562     1
  15547  15549     1
  15547  15557     1
  15548  15553     1
  15548  15551     1
  15548  15555     1
  15549  15551     1
  15558  15562     1
  15558  15561     1
  15559  15562     1
  15559  15561     1
  15563  15571     1
  15563  15579     1
  15563  15584     1
  15563  15572     1
  15564  15570     1
  15564  15578     1
  15564  15581     1
  15564  15582     1
  15565  15567     1
  15565  15576     1
  15565  15566     1
  15565  15583     1
  15565  15581     1
  15565  15582     1
  15565  15569     1
  15566  15568     1
  15566  15575     1
  15566  15571     1
  15566  15579     1
  15566  15577     1
  15566  15585     1
  15567  15572     1
  15567  15580     1
  15567  15579     1
  15568  15578     1
  15569  15580     1
  15569  15571     1
  15570  15573     1
  15570  15585     1
  15570  15572     1
  15570  15580     1
  15570  15575     1
  15570  15571     1
  15571  15574     1
  15571  15578     1
  15571  15576     1
  15572  15574     1
  15581  15584     1
  15581  15585     1
  15582  15584     1
  15582  15585     1
  15586  15594     1
  15586  15602     1
  15586  15607     1
  15586  15595     1
  15587  15604     1
  15587  15605     1
  15587  15593     1
  15587  15601     1
  15588  15590     1
  15588  15599     1
  15588  15589     1
  15588  15606     1
  15588  15604     1
  15588  15605     1
  15588  15592     1
  15589  15600     1
  15589  15608     1
  15589  15591     1
  15589  15598     1
  15589  15594     1
  15589  15602     1
  15590  15602     1
  15590  15595     1
  15590  15603     1
  15591  15601     1
  15592  15594     1
  15592  15603     1
  15593  15598     1
  15593  15594     1
  15593  15596     1
  15593  15608     1
  15593  15595     1
  15593  15603     1
  15594  15599     1
  15594  15597     1
  15594  15601     1
  15595  15597     1
  15604  15608     1
  15604  15607     1
  15605  15608     1
  15605  15607     1
  15609  15617     1
  15609  15625     1
  15609  15630     1
  15609  15618     1
  15610  15616     1
  15610  15624     1
  15610  15627     1
  15610  15628     1
  15611  15613     1
  15611  15622     1
  15611  15612     1
  15611  15629     1
  15611  15627     1
  15611  15628     1
  15611  15615     1
  15612  15614     1
  15612  15621     1
  15612  15617     1
  15612  15625     1
  15612  15623     1
  15612  15631     1
  15613  15618     1
  15613  15626     1
  15613  15625     1
  15614  15624     1
  15615  15626     1
  15615  15617     1
  15616  15619     1
  15616  15631     1
  15616  15618     1
  15616  15626     1
  15616  15621     1
  15616  15617     1
  15617  15620     1
  15617  15624     1
  15617  15622     1
  15618  15620     1
  15627  15630     1
  15627  15631     1
  15628  15630     1
  15628  15631     1
  15632  15640     1
  15632  15648     1
  15632  15653     1
  15632  15641     1
  15633  15650     1
  15633  15651     1
  15633  15639     1
  15633  15647     1
  15634  15636     1
  15634  15645     1
  15634  15635     1
  15634  15652     1
  15634  15650     1
  15634  15651     1
  15634  15638     1
  15635  15646     1
  15635  15654     1
  15635  15637     1
  15635  15644     1
  15635  15640     1
  15635  15648     1
  15636  15648     1
  15636  15641     1
  15636  15649     1
  15637  15647     1
  15638  15640     1
  15638  15649     1
  15639  15644     1
  15639  15640     1
  15639  15642     1
  15639  15654     1
  15639  15641     1
  15639  15649     1
  15640  15645     1
  15640  15643     1
  15640  15647     1
  15641  15643     1
  15650  15654     1
  15650  15653     1
  15651  15654     1
  15651  15653     1
  15655  15663     1
  15655  15671     1
  15655  15676     1
  15655  15664     1
  15656  15662     1
  15656  15670     1
  15656  15673     1
  15656  15674     1
  15657  15659     1
  15657  15668     1
  15657  15658     1
  15657  15675     1
  15657  15673     1
  15657  15674     1
  15657  15661     1
  15658  15660     1
  15658  15667     1
  15658  15663     1
  15658  15671     1
  15658  15669     1
  15658  15677     1
  15659  15664     1
  15659  15672     1
  15659  15671     1
  15660  15670     1
  15661  15672     1
  15661  15663     1
  15662  15665     1
  15662  15677     1
  15662  15664     1
  15662  15672     1
  15662  15667     1
  15662  15663     1
  15663  15666     1
  15663  15670     1
  15663  15668     1
  15664  15666     1
  15673  15676     1
  15673  15677     1
  15674  15676     1
  15674  15677     1
  15678  15686     1
  15678  15694     1
  15678  15699     1
  15678  15687     1
  15679  15696     1
  15679  15697     1
  15679  15685     1
  15679  15693     1
  15680  15682     1
  15680  15691     1
  15680  15681     1
  15680  15698     1
  15680  15696     1
  15680  15697     1
  15680  15684     1
  15681  15692     1
  15681  15700     1
  15681  15683     1
  15681  15690     1
  15681  15686     1
  15681  15694     1
  15682  15694     1
  15682  15687     1
  15682  15695     1
  15683  15693     1
  15684  15686     1
  15684  15695     1
  15685  15690     1
  15685  15686     1
  15685  15688     1
  15685  15700     1
  15685  15687     1
  15685  15695     1
  15686  15691     1
  15686  15689     1
  15686  15693     1
  15687  15689     1
  15696  15700     1
  15696  15699     1
  15697  15700     1
  15697  15699     1
  15701  15709     1
  15701  15717     1
  15701  15722     1
  15701  15710     1
  15702  15708     1
  15702  15716     1
  15702  15719     1
  15702  15720     1
  15703  15705     1
  15703  15714     1
  15703  15704     1
  15703  15721     1
  15703  15719     1
  15703  15720     1
  15703  15707     1
  15704  15706     1
  15704  15713     1
  15704  15709     1
  15704  15717     1
  15704  15715     1
  15704  15723     1
  15705  15710     1
  15705  15718     1
  15705  15717     1
  15706  15716     1
  15707  15718     1
  15707  15709     1
  15708  15711     1
  15708  15723     1
  15708  15710     1
  15708  15718     1
  15708  15713     1
  15708  15709     1
  15709  15712     1
  15709  15716     1
  15709  15714     1
  15710  15712     1
  15719  15722     1
  15719  15723     1
  15720  15722     1
  15720  15723     1
  15724  15732     1
  15724  15740     1
  15724  15745     1
  15724  15733     1
  15725  15742     1
  15725  15743     1
  15725  15731     1
  15725  15739     1
  15726  15728     1
  15726  15737     1
  15726  15727     1
  15726  15744     1
  15726  15742     1
  15726  15743     1
  15726  15730     1
  15727  15738     1
  15727  15746     1
  15727  15729     1
  15727  15736     1
  15727  15732     1
  15727  15740     1
  15728  15740     1
  15728  15733     1
  15728  15741     1
  15729  15739     1
  15730  15732     1
  15730  15741     1
  15731  15736     1
  15731  15732     1
  15731  15734     1
  15731  15746     1
  15731  15733     1
  15731  15741     1
  15732  15737     1
  15732  15735     1
  15732  15739     1
  15733  15735     1
  15742  15746     1
  15742  15745     1
  15743  15746     1
  15743  15745     1
  15747  15755     1
  15747  15763     1
  15747  15768     1
  15747  15756     1
  15748  15754     1
  15748  15762     1
  15748  15765     1
  15748  15766     1
  15749  15751     1
  15749  15760     1
  15749  15750     1
  15749  15767     1
  15749  15765     1
  15749  15766     1
  15749  15753     1
  15750  15752     1
  15750  15759     1
  15750  15755     1
  15750  15763     1
  15750  15761     1
  15750  15769     1
  15751  15756     1
  15751  15764     1
  15751  15763     1
  15752  15762     1
  15753  15764     1
  15753  15755     1
  15754  15757     1
  15754  15769     1
  15754  15756     1
  15754  15764     1
  15754  15759     1
  15754  15755     1
  15755  15758     1
  15755  15762     1
  15755  15760     1
  15756  15758     1
  15765  15768     1
  15765  15769     1
  15766  15768     1
  15766  15769     1
  15770  15778     1
  15770  15786     1
  15770  15791     1
  15770  15779     1
  15771  15788     1
  15771  15789     1
  15771  15777     1
  15771  15785     1
  15772  15774     1
  15772  15783     1
  15772  15773     1
  15772  15790     1
  15772  15788     1
  15772  15789     1
  15772  15776     1
  15773  15784     1
  15773  15792     1
  15773  15775     1
  15773  15782     1
  15773  15778     1
  15773  15786     1
  15774  15786     1
  15774  15779     1
  15774  15787     1
  15775  15785     1
  15776  15778     1
  15776  15787     1
  15777  15782     1
  15777  15778     1
  15777  15780     1
  15777  15792     1
  15777  15779     1
  15777  15787     1
  15778  15783     1
  15778  15781     1
  15778  15785     1
  15779  15781     1
  15788  15792     1
  15788  15791     1
  15789  15792     1
  15789  15791     1
  15793  15801     1
  15793  15809     1
  15793  15814     1
  15793  15802     1
  15794  15800     1
  15794  15808     1
  15794  15811     1
  15794  15812     1
  15795  15797     1
  15795  15806     1
  15795  15796     1
  15795  15813     1
  15795  15811     1
  15795  15812     1
  15795  15799     1
  15796  15798     1
  15796  15805     1
  15796  15801     1
  15796  15809     1
  15796  15807     1
  15796  15815     1
  15797  15802     1
  15797  15810     1
  15797  15809     1
  15798  15808     1
  15799  15810     1
  15799  15801     1
  15800  15803     1
  15800  15815     1
  15800  15802     1
  15800  15810     1
  15800  15805     1
  15800  15801     1
  15801  15804     1
  15801  15808     1
  15801  15806     1
  15802  15804     1
  15811  15814     1
  15811  15815     1
  15812  15814     1
  15812  15815     1
  15816  15824     1
  15816  15832     1
  15816  15837     1
  15816  15825     1
  15817  15834     1
  15817  15835     1
  15817  15823     1
  15817  15831     1
  15818  15820     1
  15818  15829     1
  15818  15819     1
  15818  15836     1
  15818  15834     1
  15818  15835     1
  15818  15822     1
  15819  15830     1
  15819  15838     1
  15819  15821     1
  15819  15828     1
  15819  15824     1
  15819  15832     1
  15820  15832     1
  15820  15825     1
  15820  15833     1
  15821  15831     1
  15822  15824     1
  15822  15833     1
  15823  15828     1
  15823  15824     1
  15823  15826     1
  15823  15838     1
  15823  15825     1
  15823  15833     1
  15824  15829     1
  15824  15827     1
  15824  15831     1
  15825  15827     1
  15834  15838     1
  15834  15837     1
  15835  15838     1
  15835  15837     1
  15839  15847     1
  15839  15855     1
  15839  15860     1
  15839  15848     1
  15840  15846     1
  15840  15854     1
  15840  15857     1
  15840  15858     1
  15841  15843     1
  15841  15852     1
  15841  15842     1
  15841  15859     1
  15841  15857     1
  15841  15858     1
  15841  15845     1
  15842  15844     1
  15842  15851     1
  15842  15847     1
  15842  15855     1
  15842  15853     1
  15842  15861     1
  15843  15848     1
  15843  15856     1
  15843  15855     1
  15844  15854     1
  15845  15856     1
  15845  15847     1
  15846  15849     1
  15846  15861     1
  15846  15848     1
  15846  15856     1
  15846  15851     1
  15846  15847     1
  15847  15850     1
  15847  15854     1
  15847  15852     1
  15848  15850     1
  15857  15860     1
  15857  15861     1
  15858  15860     1
  15858  15861     1
  15862  15870     1
  15862  15878     1
  15862  15883     1
  15862  15871     1
  15863  15880     1
  15863  15881     1
  15863  15869     1
  15863  15877     1
  15864  15866     1
  15864  15875     1
  15864  15865     1
  15864  15882     1
  15864  15880     1
  15864  15881     1
  15864  15868     1
  15865  15876     1
  15865  15884     1
  15865  15867     1
  15865  15874     1
  15865  15870     1
  15865  15878     1
  15866  15878     1
  15866  15871     1
  15866  15879     1
  15867  15877     1
  15868  15870     1
  15868  15879     1
  15869  15874     1
  15869  15870     1
  15869  15872     1
  15869  15884     1
  15869  15871     1
  15869  15879     1
  15870  15875     1
  15870  15873     1
  15870  15877     1
  15871  15873     1
  15880  15884     1
  15880  15883     1
  15881  15884     1
  15881  15883     1
  15885  15893     1
  15885  15901     1
  15885  15906     1
  15885  15894     1
  15886  15892     1
  15886  15900     1
  15886  15903     1
  15886  15904     1
  15887  15889     1
  15887  15898     1
  15887  15888     1
  15887  15905     1
  15887  15903     1
  15887  15904     1
  15887  15891     1
  15888  15890     1
  15888  15897     1
  15888  15893     1
  15888  15901     1
  15888  15899     1
  15888  15907     1
  15889  15894     1
  15889  15902     1
  15889  15901     1
  15890  15900     1
  15891  15902     1
  15891  15893     1
  15892  15895     1
  15892  15907     1
  15892  15894     1
  15892  15902     1
  15892  15897     1
  15892  15893     1
  15893  15896     1
  15893  15900     1
  15893  15898     1
  15894  15896     1
  15903  15906     1
  15903  15907     1
  15904  15906     1
  15904  15907     1
  15908  15916     1
  15908  15924     1
  15908  15929     1
  15908  15917     1
  15909  15926     1
  15909  15927     1
  15909  15915     1
  15909  15923     1
  15910  15912     1
  15910  15921     1
  15910  15911     1
  15910  15928     1
  15910  15926     1
  15910  15927     1
  15910  15914     1
  15911  15922     1
  15911  15930     1
  15911  15913     1
  15911  15920     1
  15911  15916     1
  15911  15924     1
  15912  15924     1
  15912  15917     1
  15912  15925     1
  15913  15923     1
  15914  15916     1
  15914  15925     1
  15915  15920     1
  15915  15916     1
  15915  15918     1
  15915  15930     1
  15915  15917     1
  15915  15925     1
  15916  15921     1
  15916  15919     1
  15916  15923     1
  15917  15919     1
  15926  15930     1
  15926  15929     1
  15927  15930     1
  15927  15929     1
  15931  15939     1
  15931  15947     1
  15931  15952     1
  15931  15940     1
  15932  15938     1
  15932  15946     1
  15932  15949     1
  15932  15950     1
  15933  15935     1
  15933  15944     1
  15933  15934     1
  15933  15951     1
  15933  15949     1
  15933  15950     1
  15933  15937     1
  15934  15936     1
  15934  15943     1
  15934  15939     1
  15934  15947     1
  15934  15945     1
  15934  15953     1
  15935  15940     1
  15935  15948     1
  15935  15947     1
  15936  15946     1
  15937  15948     1
  15937  15939     1
  15938  15941     1
  15938  15953     1
  15938  15940     1
  15938  15948     1
  15938  15943     1
  15938  15939     1
  15939  15942     1
  15939  15946     1
  15939  15944     1
  15940  15942     1
  15949  15952     1
  15949  15953     1
  15950  15952     1
  15950  15953     1
  15954  15962     1
  15954  15970     1
  15954  15975     1
  15954  15963     1
  15955  15972     1
  15955  15973     1
  15955  15961     1
  15955  15969     1
  15956  15958     1
  15956  15967     1
  15956  15957     1
  15956  15974     1
  15956  15972     1
  15956  15973     1
  15956  15960     1
  15957  15968     1
  15957  15976     1
  15957  15959     1
  15957  15966     1
  15957  15962     1
  15957  15970     1
  15958  15970     1
  15958  15963     1
  15958  15971     1
  15959  15969     1
  15960  15962     1
  15960  15971     1
  15961  15966     1
  15961  15962     1
  15961  15964     1
  15961  15976     1
  15961  15963     1
  15961  15971     1
  15962  15967     1
  15962  15965     1
  15962  15969     1
  15963  15965     1
  15972  15976     1
  15972  15975     1
  15973  15976     1
  15973  15975     1
  15977  15985     1
  15977  15993     1
  15977  15998     1
  15977  15986     1
  15978  15984     1
  15978  15992     1
  15978  15995     1
  15978  15996     1
  15979  15981     1
  15979  15990     1
  15979  15980     1
  15979  15997     1
  15979  15995     1
  15979  15996     1
  15979  15983     1
  15980  15982     1
  15980  15989     1
  15980  15985     1
  15980  15993     1
  15980  15991     1
  15980  15999     1
  15981  15986     1
  15981  15994     1
  15981  15993     1
  15982  15992     1
  15983  15994     1
  15983  15985     1
  15984  15987     1
  15984  15999     1
  15984  15986     1
  15984  15994     1
  15984  15989     1
  15984  15985     1
  15985  15988     1
  15985  15992     1
  15985  15990     1
  15986  15988     1
  15995  15998     1
  15995  15999     1
  15996  15998     1
  15996  15999     1
  16000  16008     1
  16000  16016     1
  16000  16021     1
  16000  16009     1
  16001  16018     1
  16001  16019     1
  16001  16007     1
  16001  16015     1
  16002  16004     1
  16002  16013     1
  16002  16003     1
  16002  16020     1
  16002  16018     1
  16002  16019     1
  16002  16006     1
  16003  16014     1
  16003  16022     1
  16003  16005     1
  16003  16012     1
  16003  16008     1
  16003  16016     1
  16004  16016     1
  16004  16009     1
  16004  16017     1
  16005  16015     1
  16006  16008     1
  16006  16017     1
  16007  16012     1
  16007  16008     1
  16007  16010     1
  16007  16022     1
  16007  16009     1
  16007  16017     1
  16008  16013     1
  16008  16011     1
  16008  16015     1
  16009  16011     1
  16018  16022     1
  16018  16021     1
  16019  16022     1
  16019  16021     1
  16023  16031     1
  16023  16039     1
  16023  16044     1
  16023  16032     1
  16024  16030     1
  16024  16038     1
  16024  16041     1
  16024  16042     1
  16025  16027     1
  16025  16036     1
  16025  16026     1
  16025  16043     1
  16025  16041     1
  16025  16042     1
  16025  16029     1
  16026  16028     1
  16026  16035     1
  16026  16031     1
  16026  16039     1
  16026  16037     1
  16026  16045     1
  16027  16032     1
  16027  16040     1
  16027  16039     1
  16028  16038     1
  16029  16040     1
  16029  16031     1
  16030  16033     1
  16030  16045     1
  16030  16032     1
  16030  16040     1
  16030  16035     1
  16030  16031     1
  16031  16034     1
  16031  16038     1
  16031  16036     1
  16032  16034     1
  16041  16044     1
  16041  16045     1
  16042  16044     1
  16042  16045     1
  16046  16054     1
  16046  16062     1
  16046  16067     1
  16046  16055     1
  16047  16064     1
  16047  16065     1
  16047  16053     1
  16047  16061     1
  16048  16050     1
  16048  16059     1
  16048  16049     1
  16048  16066     1
  16048  16064     1
  16048  16065     1
  16048  16052     1
  16049  16060     1
  16049  16068     1
  16049  16051     1
  16049  16058     1
  16049  16054     1
  16049  16062     1
  16050  16062     1
  16050  16055     1
  16050  16063     1
  16051  16061     1
  16052  16054     1
  16052  16063     1
  16053  16058     1
  16053  16054     1
  16053  16056     1
  16053  16068     1
  16053  16055     1
  16053  16063     1
  16054  16059     1
  16054  16057     1
  16054  16061     1
  16055  16057     1
  16064  16068     1
  16064  16067     1
  16065  16068     1
  16065  16067     1
  16069  16077     1
  16069  16085     1
  16069  16090     1
  16069  16078     1
  16070  16076     1
  16070  16084     1
  16070  16087     1
  16070  16088     1
  16071  16073     1
  16071  16082     1
  16071  16072     1
  16071  16089     1
  16071  16087     1
  16071  16088     1
  16071  16075     1
  16072  16074     1
  16072  16081     1
  16072  16077     1
  16072  16085     1
  16072  16083     1
  16072  16091     1
  16073  16078     1
  16073  16086     1
  16073  16085     1
  16074  16084     1
  16075  16086     1
  16075  16077     1
  16076  16079     1
  16076  16091     1
  16076  16078     1
  16076  16086     1
  16076  16081     1
  16076  16077     1
  16077  16080     1
  16077  16084     1
  16077  16082     1
  16078  16080     1
  16087  16090     1
  16087  16091     1
  16088  16090     1
  16088  16091     1
  16092  16100     1
  16092  16108     1
  16092  16113     1
  16092  16101     1
  16093  16110     1
  16093  16111     1
  16093  16099     1
  16093  16107     1
  16094  16096     1
  16094  16105     1
  16094  16095     1
  16094  16112     1
  16094  16110     1
  16094  16111     1
  16094  16098     1
  16095  16106     1
  16095  16114     1
  16095  16097     1
  16095  16104     1
  16095  16100     1
  16095  16108     1
  16096  16108     1
  16096  16101     1
  16096  16109     1
  16097  16107     1
  16098  16100     1
  16098  16109     1
  16099  16104     1
  16099  16100     1
  16099  16102     1
  16099  16114     1
  16099  16101     1
  16099  16109     1
  16100  16105     1
  16100  16103     1
  16100  16107     1
  16101  16103     1
  16110  16114     1
  16110  16113     1
  16111  16114     1
  16111  16113     1
  16115  16123     1
  16115  16131     1
  16115  16136     1
  16115  16124     1
  16116  16122     1
  16116  16130     1
  16116  16133     1
  16116  16134     1
  16117  16119     1
  16117  16128     1
  16117  16118     1
  16117  16135     1
  16117  16133     1
  16117  16134     1
  16117  16121     1
  16118  16120     1
  16118  16127     1
  16118  16123     1
  16118  16131     1
  16118  16129     1
  16118  16137     1
  16119  16124     1
  16119  16132     1
  16119  16131     1
  16120  16130     1
  16121  16132     1
  16121  16123     1
  16122  16125     1
  16122  16137     1
  16122  16124     1
  16122  16132     1
  16122  16127     1
  16122  16123     1
  16123  16126     1
  16123  16130     1
  16123  16128     1
  16124  16126     1
  16133  16136     1
  16133  16137     1
  16134  16136     1
  16134  16137     1
  16138  16146     1
  16138  16154     1
  16138  16159     1
  16138  16147     1
  16139  16156     1
  16139  16157     1
  16139  16145     1
  16139  16153     1
  16140  16142     1
  16140  16151     1
  16140  16141     1
  16140  16158     1
  16140  16156     1
  16140  16157     1
  16140  16144     1
  16141  16152     1
  16141  16160     1
  16141  16143     1
  16141  16150     1
  16141  16146     1
  16141  16154     1
  16142  16154     1
  16142  16147     1
  16142  16155     1
  16143  16153     1
  16144  16146     1
  16144  16155     1
  16145  16150     1
  16145  16146     1
  16145  16148     1
  16145  16160     1
  16145  16147     1
  16145  16155     1
  16146  16151     1
  16146  16149     1
  16146  16153     1
  16147  16149     1
  16156  16160     1
  16156  16159     1
  16157  16160     1
  16157  16159     1
  16161  16169     1
  16161  16177     1
  16161  16182     1
  16161  16170     1
  16162  16168     1
  16162  16176     1
  16162  16179     1
  16162  16180     1
  16163  16165     1
  16163  16174     1
  16163  16164     1
  16163  16181     1
  16163  16179     1
  16163  16180     1
  16163  16167     1
  16164  16166     1
  16164  16173     1
  16164  16169     1
  16164  16177     1
  16164  16175     1
  16164  16183     1
  16165  16170     1
  16165  16178     1
  16165  16177     1
  16166  16176     1
  16167  16178     1
  16167  16169     1
  16168  16171     1
  16168  16183     1
  16168  16170     1
  16168  16178     1
  16168  16173     1
  16168  16169     1
  16169  16172     1
  16169  16176     1
  16169  16174     1
  16170  16172     1
  16179  16182     1
  16179  16183     1
  16180  16182     1
  16180  16183     1
  16184  16192     1
  16184  16200     1
  16184  16205     1
  16184  16193     1
  16185  16202     1
  16185  16203     1
  16185  16191     1
  16185  16199     1
  16186  16188     1
  16186  16197     1
  16186  16187     1
  16186  16204     1
  16186  16202     1
  16186  16203     1
  16186  16190     1
  16187  16198     1
  16187  16206     1
  16187  16189     1
  16187  16196     1
  16187  16192     1
  16187  16200     1
  16188  16200     1
  16188  16193     1
  16188  16201     1
  16189  16199     1
  16190  16192     1
  16190  16201     1
  16191  16196     1
  16191  16192     1
  16191  16194     1
  16191  16206     1
  16191  16193     1
  16191  16201     1
  16192  16197     1
  16192  16195     1
  16192  16199     1
  16193  16195     1
  16202  16206     1
  16202  16205     1
  16203  16206     1
  16203  16205     1
  16207  16215     1
  16207  16223     1
  16207  16228     1
  16207  16216     1
  16208  16214     1
  16208  16222     1
  16208  16225     1
  16208  16226     1
  16209  16211     1
  16209  16220     1
  16209  16210     1
  16209  16227     1
  16209  16225     1
  16209  16226     1
  16209  16213     1
  16210  16212     1
  16210  16219     1
  16210  16215     1
  16210  16223     1
  16210  16221     1
  16210  16229     1
  16211  16216     1
  16211  16224     1
  16211  16223     1
  16212  16222     1
  16213  16224     1
  16213  16215     1
  16214  16217     1
  16214  16229     1
  16214  16216     1
  16214  16224     1
  16214  16219     1
  16214  16215     1
  16215  16218     1
  16215  16222     1
  16215  16220     1
  16216  16218     1
  16225  16228     1
  16225  16229     1
  16226  16228     1
  16226  16229     1
  16230  16238     1
  16230  16246     1
  16230  16251     1
  16230  16239     1
  16231  16248     1
  16231  16249     1
  16231  16237     1
  16231  16245     1
  16232  16234     1
  16232  16243     1
  16232  16233     1
  16232  16250     1
  16232  16248     1
  16232  16249     1
  16232  16236     1
  16233  16244     1
  16233  16252     1
  16233  16235     1
  16233  16242     1
  16233  16238     1
  16233  16246     1
  16234  16246     1
  16234  16239     1
  16234  16247     1
  16235  16245     1
  16236  16238     1
  16236  16247     1
  16237  16242     1
  16237  16238     1
  16237  16240     1
  16237  16252     1
  16237  16239     1
  16237  16247     1
  16238  16243     1
  16238  16241     1
  16238  16245     1
  16239  16241     1
  16248  16252     1
  16248  16251     1
  16249  16252     1
  16249  16251     1
  16253  16261     1
  16253  16269     1
  16253  16274     1
  16253  16262     1
  16254  16260     1
  16254  16268     1
  16254  16271     1
  16254  16272     1
  16255  16257     1
  16255  16266     1
  16255  16256     1
  16255  16273     1
  16255  16271     1
  16255  16272     1
  16255  16259     1
  16256  16258     1
  16256  16265     1
  16256  16261     1
  16256  16269     1
  16256  16267     1
  16256  16275     1
  16257  16262     1
  16257  16270     1
  16257  16269     1
  16258  16268     1
  16259  16270     1
  16259  16261     1
  16260  16263     1
  16260  16275     1
  16260  16262     1
  16260  16270     1
  16260  16265     1
  16260  16261     1
  16261  16264     1
  16261  16268     1
  16261  16266     1
  16262  16264     1
  16271  16274     1
  16271  16275     1
  16272  16274     1
  16272  16275     1
  16276  16284     1
  16276  16292     1
  16276  16297     1
  16276  16285     1
  16277  16294     1
  16277  16295     1
  16277  16283     1
  16277  16291     1
  16278  16280     1
  16278  16289     1
  16278  16279     1
  16278  16296     1
  16278  16294     1
  16278  16295     1
  16278  16282     1
  16279  16290     1
  16279  16298     1
  16279  16281     1
  16279  16288     1
  16279  16284     1
  16279  16292     1
  16280  16292     1
  16280  16285     1
  16280  16293     1
  16281  16291     1
  16282  16284     1
  16282  16293     1
  16283  16288     1
  16283  16284     1
  16283  16286     1
  16283  16298     1
  16283  16285     1
  16283  16293     1
  16284  16289     1
  16284  16287     1
  16284  16291     1
  16285  16287     1
  16294  16298     1
  16294  16297     1
  16295  16298     1
  16295  16297     1
  16299  16307     1
  16299  16315     1
  16299  16320     1
  16299  16308     1
  16300  16306     1
  16300  16314     1
  16300  16317     1
  16300  16318     1
  16301  16303     1
  16301  16312     1
  16301  16302     1
  16301  16319     1
  16301  16317     1
  16301  16318     1
  16301  16305     1
  16302  16304     1
  16302  16311     1
  16302  16307     1
  16302  16315     1
  16302  16313     1
  16302  16321     1
  16303  16308     1
  16303  16316     1
  16303  16315     1
  16304  16314     1
  16305  16316     1
  16305  16307     1
  16306  16309     1
  16306  16321     1
  16306  16308     1
  16306  16316     1
  16306  16311     1
  16306  16307     1
  16307  16310     1
  16307  16314     1
  16307  16312     1
  16308  16310     1
  16317  16320     1
  16317  16321     1
  16318  16320     1
  16318  16321     1
  16322  16330     1
  16322  16338     1
  16322  16343     1
  16322  16331     1
  16323  16340     1
  16323  16341     1
  16323  16329     1
  16323  16337     1
  16324  16326     1
  16324  16335     1
  16324  16325     1
  16324  16342     1
  16324  16340     1
  16324  16341     1
  16324  16328     1
  16325  16336     1
  16325  16344     1
  16325  16327     1
  16325  16334     1
  16325  16330     1
  16325  16338     1
  16326  16338     1
  16326  16331     1
  16326  16339     1
  16327  16337     1
  16328  16330     1
  16328  16339     1
  16329  16334     1
  16329  16330     1
  16329  16332     1
  16329  16344     1
  16329  16331     1
  16329  16339     1
  16330  16335     1
  16330  16333     1
  16330  16337     1
  16331  16333     1
  16340  16344     1
  16340  16343     1
  16341  16344     1
  16341  16343     1
  16345  16353     1
  16345  16361     1
  16345  16366     1
  16345  16354     1
  16346  16352     1
  16346  16360     1
  16346  16363     1
  16346  16364     1
  16347  16349     1
  16347  16358     1
  16347  16348     1
  16347  16365     1
  16347  16363     1
  16347  16364     1
  16347  16351     1
  16348  16350     1
  16348  16357     1
  16348  16353     1
  16348  16361     1
  16348  16359     1
  16348  16367     1
  16349  16354     1
  16349  16362     1
  16349  16361     1
  16350  16360     1
  16351  16362     1
  16351  16353     1
  16352  16355     1
  16352  16367     1
  16352  16354     1
  16352  16362     1
  16352  16357     1
  16352  16353     1
  16353  16356     1
  16353  16360     1
  16353  16358     1
  16354  16356     1
  16363  16366     1
  16363  16367     1
  16364  16366     1
  16364  16367     1
  16368  16376     1
  16368  16384     1
  16368  16389     1
  16368  16377     1
  16369  16386     1
  16369  16387     1
  16369  16375     1
  16369  16383     1
  16370  16372     1
  16370  16381     1
  16370  16371     1
  16370  16388     1
  16370  16386     1
  16370  16387     1
  16370  16374     1
  16371  16382     1
  16371  16390     1
  16371  16373     1
  16371  16380     1
  16371  16376     1
  16371  16384     1
  16372  16384     1
  16372  16377     1
  16372  16385     1
  16373  16383     1
  16374  16376     1
  16374  16385     1
  16375  16380     1
  16375  16376     1
  16375  16378     1
  16375  16390     1
  16375  16377     1
  16375  16385     1
  16376  16381     1
  16376  16379     1
  16376  16383     1
  16377  16379     1
  16386  16390     1
  16386  16389     1
  16387  16390     1
  16387  16389     1
  16391  16399     1
  16391  16407     1
  16391  16412     1
  16391  16400     1
  16392  16398     1
  16392  16406     1
  16392  16409     1
  16392  16410     1
  16393  16395     1
  16393  16404     1
  16393  16394     1
  16393  16411     1
  16393  16409     1
  16393  16410     1
  16393  16397     1
  16394  16396     1
  16394  16403     1
  16394  16399     1
  16394  16407     1
  16394  16405     1
  16394  16413     1
  16395  16400     1
  16395  16408     1
  16395  16407     1
  16396  16406     1
  16397  16408     1
  16397  16399     1
  16398  16401     1
  16398  16413     1
  16398  16400     1
  16398  16408     1
  16398  16403     1
  16398  16399     1
  16399  16402     1
  16399  16406     1
  16399  16404     1
  16400  16402     1
  16409  16412     1
  16409  16413     1
  16410  16412     1
  16410  16413     1
  16414  16422     1
  16414  16430     1
  16414  16435     1
  16414  16423     1
  16415  16432     1
  16415  16433     1
  16415  16421     1
  16415  16429     1
  16416  16418     1
  16416  16427     1
  16416  16417     1
  16416  16434     1
  16416  16432     1
  16416  16433     1
  16416  16420     1
  16417  16428     1
  16417  16436     1
  16417  16419     1
  16417  16426     1
  16417  16422     1
  16417  16430     1
  16418  16430     1
  16418  16423     1
  16418  16431     1
  16419  16429     1
  16420  16422     1
  16420  16431     1
  16421  16426     1
  16421  16422     1
  16421  16424     1
  16421  16436     1
  16421  16423     1
  16421  16431     1
  16422  16427     1
  16422  16425     1
  16422  16429     1
  16423  16425     1
  16432  16436     1
  16432  16435     1
  16433  16436     1
  16433  16435     1
  16437  16445     1
  16437  16453     1
  16437  16458     1
  16437  16446     1
  16438  16444     1
  16438  16452     1
  16438  16455     1
  16438  16456     1
  16439  16441     1
  16439  16450     1
  16439  16440     1
  16439  16457     1
  16439  16455     1
  16439  16456     1
  16439  16443     1
  16440  16442     1
  16440  16449     1
  16440  16445     1
  16440  16453     1
  16440  16451     1
  16440  16459     1
  16441  16446     1
  16441  16454     1
  16441  16453     1
  16442  16452     1
  16443  16454     1
  16443  16445     1
  16444  16447     1
  16444  16459     1
  16444  16446     1
  16444  16454     1
  16444  16449     1
  16444  16445     1
  16445  16448     1
  16445  16452     1
  16445  16450     1
  16446  16448     1
  16455  16458     1
  16455  16459     1
  16456  16458     1
  16456  16459     1
  16460  16468     1
  16460  16476     1
  16460  16481     1
  16460  16469     1
  16461  16478     1
  16461  16479     1
  16461  16467     1
  16461  16475     1
  16462  16464     1
  16462  16473     1
  16462  16463     1
  16462  16480     1
  16462  16478     1
  16462  16479     1
  16462  16466     1
  16463  16474     1
  16463  16482     1
  16463  16465     1
  16463  16472     1
  16463  16468     1
  16463  16476     1
  16464  16476     1
  16464  16469     1
  16464  16477     1
  16465  16475     1
  16466  16468     1
  16466  16477     1
  16467  16472     1
  16467  16468     1
  16467  16470     1
  16467  16482     1
  16467  16469     1
  16467  16477     1
  16468  16473     1
  16468  16471     1
  16468  16475     1
  16469  16471     1
  16478  16482     1
  16478  16481     1
  16479  16482     1
  16479  16481     1
  16483  16491     1
  16483  16499     1
  16483  16504     1
  16483  16492     1
  16484  16490     1
  16484  16498     1
  16484  16501     1
  16484  16502     1
  16485  16487     1
  16485  16496     1
  16485  16486     1
  16485  16503     1
  16485  16501     1
  16485  16502     1
  16485  16489     1
  16486  16488     1
  16486  16495     1
  16486  16491     1
  16486  16499     1
  16486  16497     1
  16486  16505     1
  16487  16492     1
  16487  16500     1
  16487  16499     1
  16488  16498     1
  16489  16500     1
  16489  16491     1
  16490  16493     1
  16490  16505     1
  16490  16492     1
  16490  16500     1
  16490  16495     1
  16490  16491     1
  16491  16494     1
  16491  16498     1
  16491  16496     1
  16492  16494     1
  16501  16504     1
  16501  16505     1
  16502  16504     1
  16502  16505     1
  16506  16514     1
  16506  16522     1
  16506  16527     1
  16506  16515     1
  16507  16524     1
  16507  16525     1
  16507  16513     1
  16507  16521     1
  16508  16510     1
  16508  16519     1
  16508  16509     1
  16508  16526     1
  16508  16524     1
  16508  16525     1
  16508  16512     1
  16509  16520     1
  16509  16528     1
  16509  16511     1
  16509  16518     1
  16509  16514     1
  16509  16522     1
  16510  16522     1
  16510  16515     1
  16510  16523     1
  16511  16521     1
  16512  16514     1
  16512  16523     1
  16513  16518     1
  16513  16514     1
  16513  16516     1
  16513  16528     1
  16513  16515     1
  16513  16523     1
  16514  16519     1
  16514  16517     1
  16514  16521     1
  16515  16517     1
  16524  16528     1
  16524  16527     1
  16525  16528     1
  16525  16527     1
  16529  16537     1
  16529  16545     1
  16529  16550     1
  16529  16538     1
  16530  16536     1
  16530  16544     1
  16530  16547     1
  16530  16548     1
  16531  16533     1
  16531  16542     1
  16531  16532     1
  16531  16549     1
  16531  16547     1
  16531  16548     1
  16531  16535     1
  16532  16534     1
  16532  16541     1
  16532  16537     1
  16532  16545     1
  16532  16543     1
  16532  16551     1
  16533  16538     1
  16533  16546     1
  16533  16545     1
  16534  16544     1
  16535  16546     1
  16535  16537     1
  16536  16539     1
  16536  16551     1
  16536  16538     1
  16536  16546     1
  16536  16541     1
  16536  16537     1
  16537  16540     1
  16537  16544     1
  16537  16542     1
  16538  16540     1
  16547  16550     1
  16547  16551     1
  16548  16550     1
  16548  16551     1
  16552  16560     1
  16552  16568     1
  16552  16573     1
  16552  16561     1
  16553  16570     1
  16553  16571     1
  16553  16559     1
  16553  16567     1
  16554  16556     1
  16554  16565     1
  16554  16555     1
  16554  16572     1
  16554  16570     1
  16554  16571     1
  16554  16558     1
  16555  16566     1
  16555  16574     1
  16555  16557     1
  16555  16564     1
  16555  16560     1
  16555  16568     1
  16556  16568     1
  16556  16561     1
  16556  16569     1
  16557  16567     1
  16558  16560     1
  16558  16569     1
  16559  16564     1
  16559  16560     1
  16559  16562     1
  16559  16574     1
  16559  16561     1
  16559  16569     1
  16560  16565     1
  16560  16563     1
  16560  16567     1
  16561  16563     1
  16570  16574     1
  16570  16573     1
  16571  16574     1
  16571  16573     1
  16575  16583     1
  16575  16591     1
  16575  16596     1
  16575  16584     1
  16576  16582     1
  16576  16590     1
  16576  16593     1
  16576  16594     1
  16577  16579     1
  16577  16588     1
  16577  16578     1
  16577  16595     1
  16577  16593     1
  16577  16594     1
  16577  16581     1
  16578  16580     1
  16578  16587     1
  16578  16583     1
  16578  16591     1
  16578  16589     1
  16578  16597     1
  16579  16584     1
  16579  16592     1
  16579  16591     1
  16580  16590     1
  16581  16592     1
  16581  16583     1
  16582  16585     1
  16582  16597     1
  16582  16584     1
  16582  16592     1
  16582  16587     1
  16582  16583     1
  16583  16586     1
  16583  16590     1
  16583  16588     1
  16584  16586     1
  16593  16596     1
  16593  16597     1
  16594  16596     1
  16594  16597     1
  16598  16606     1
  16598  16614     1
  16598  16619     1
  16598  16607     1
  16599  16616     1
  16599  16617     1
  16599  16605     1
  16599  16613     1
  16600  16602     1
  16600  16611     1
  16600  16601     1
  16600  16618     1
  16600  16616     1
  16600  16617     1
  16600  16604     1
  16601  16612     1
  16601  16620     1
  16601  16603     1
  16601  16610     1
  16601  16606     1
  16601  16614     1
  16602  16614     1
  16602  16607     1
  16602  16615     1
  16603  16613     1
  16604  16606     1
  16604  16615     1
  16605  16610     1
  16605  16606     1
  16605  16608     1
  16605  16620     1
  16605  16607     1
  16605  16615     1
  16606  16611     1
  16606  16609     1
  16606  16613     1
  16607  16609     1
  16616  16620     1
  16616  16619     1
  16617  16620     1
  16617  16619     1
  16621  16629     1
  16621  16637     1
  16621  16642     1
  16621  16630     1
  16622  16628     1
  16622  16636     1
  16622  16639     1
  16622  16640     1
  16623  16625     1
  16623  16634     1
  16623  16624     1
  16623  16641     1
  16623  16639     1
  16623  16640     1
  16623  16627     1
  16624  16626     1
  16624  16633     1
  16624  16629     1
  16624  16637     1
  16624  16635     1
  16624  16643     1
  16625  16630     1
  16625  16638     1
  16625  16637     1
  16626  16636     1
  16627  16638     1
  16627  16629     1
  16628  16631     1
  16628  16643     1
  16628  16630     1
  16628  16638     1
  16628  16633     1
  16628  16629     1
  16629  16632     1
  16629  16636     1
  16629  16634     1
  16630  16632     1
  16639  16642     1
  16639  16643     1
  16640  16642     1
  16640  16643     1
  16644  16652     1
  16644  16660     1
  16644  16665     1
  16644  16653     1
  16645  16662     1
  16645  16663     1
  16645  16651     1
  16645  16659     1
  16646  16648     1
  16646  16657     1
  16646  16647     1
  16646  16664     1
  16646  16662     1
  16646  16663     1
  16646  16650     1
  16647  16658     1
  16647  16666     1
  16647  16649     1
  16647  16656     1
  16647  16652     1
  16647  16660     1
  16648  16660     1
  16648  16653     1
  16648  16661     1
  16649  16659     1
  16650  16652     1
  16650  16661     1
  16651  16656     1
  16651  16652     1
  16651  16654     1
  16651  16666     1
  16651  16653     1
  16651  16661     1
  16652  16657     1
  16652  16655     1
  16652  16659     1
  16653  16655     1
  16662  16666     1
  16662  16665     1
  16663  16666     1
  16663  16665     1
  16667  16675     1
  16667  16683     1
  16667  16688     1
  16667  16676     1
  16668  16674     1
  16668  16682     1
  16668  16685     1
  16668  16686     1
  16669  16671     1
  16669  16680     1
  16669  16670     1
  16669  16687     1
  16669  16685     1
  16669  16686     1
  16669  16673     1
  16670  16672     1
  16670  16679     1
  16670  16675     1
  16670  16683     1
  16670  16681     1
  16670  16689     1
  16671  16676     1
  16671  16684     1
  16671  16683     1
  16672  16682     1
  16673  16684     1
  16673  16675     1
  16674  16677     1
  16674  16689     1
  16674  16676     1
  16674  16684     1
  16674  16679     1
  16674  16675     1
  16675  16678     1
  16675  16682     1
  16675  16680     1
  16676  16678     1
  16685  16688     1
  16685  16689     1
  16686  16688     1
  16686  16689     1
  16690  16698     1
  16690  16706     1
  16690  16711     1
  16690  16699     1
  16691  16708     1
  16691  16709     1
  16691  16697     1
  16691  16705     1
  16692  16694     1
  16692  16703     1
  16692  16693     1
  16692  16710     1
  16692  16708     1
  16692  16709     1
  16692  16696     1
  16693  16704     1
  16693  16712     1
  16693  16695     1
  16693  16702     1
  16693  16698     1
  16693  16706     1
  16694  16706     1
  16694  16699     1
  16694  16707     1
  16695  16705     1
  16696  16698     1
  16696  16707     1
  16697  16702     1
  16697  16698     1
  16697  16700     1
  16697  16712     1
  16697  16699     1
  16697  16707     1
  16698  16703     1
  16698  16701     1
  16698  16705     1
  16699  16701     1
  16708  16712     1
  16708  16711     1
  16709  16712     1
  16709  16711     1
  16713  16721     1
  16713  16729     1
  16713  16734     1
  16713  16722     1
  16714  16720     1
  16714  16728     1
  16714  16731     1
  16714  16732     1
  16715  16717     1
  16715  16726     1
  16715  16716     1
  16715  16733     1
  16715  16731     1
  16715  16732     1
  16715  16719     1
  16716  16718     1
  16716  16725     1
  16716  16721     1
  16716  16729     1
  16716  16727     1
  16716  16735     1
  16717  16722     1
  16717  16730     1
  16717  16729     1
  16718  16728     1
  16719  16730     1
  16719  16721     1
  16720  16723     1
  16720  16735     1
  16720  16722     1
  16720  16730     1
  16720  16725     1
  16720  16721     1
  16721  16724     1
  16721  16728     1
  16721  16726     1
  16722  16724     1
  16731  16734     1
  16731  16735     1
  16732  16734     1
  16732  16735     1
  16736  16744     1
  16736  16752     1
  16736  16757     1
  16736  16745     1
  16737  16754     1
  16737  16755     1
  16737  16743     1
  16737  16751     1
  16738  16740     1
  16738  16749     1
  16738  16739     1
  16738  16756     1
  16738  16754     1
  16738  16755     1
  16738  16742     1
  16739  16750     1
  16739  16758     1
  16739  16741     1
  16739  16748     1
  16739  16744     1
  16739  16752     1
  16740  16752     1
  16740  16745     1
  16740  16753     1
  16741  16751     1
  16742  16744     1
  16742  16753     1
  16743  16748     1
  16743  16744     1
  16743  16746     1
  16743  16758     1
  16743  16745     1
  16743  16753     1
  16744  16749     1
  16744  16747     1
  16744  16751     1
  16745  16747     1
  16754  16758     1
  16754  16757     1
  16755  16758     1
  16755  16757     1
  16759  16767     1
  16759  16775     1
  16759  16780     1
  16759  16768     1
  16760  16766     1
  16760  16774     1
  16760  16777     1
  16760  16778     1
  16761  16763     1
  16761  16772     1
  16761  16762     1
  16761  16779     1
  16761  16777     1
  16761  16778     1
  16761  16765     1
  16762  16764     1
  16762  16771     1
  16762  16767     1
  16762  16775     1
  16762  16773     1
  16762  16781     1
  16763  16768     1
  16763  16776     1
  16763  16775     1
  16764  16774     1
  16765  16776     1
  16765  16767     1
  16766  16769     1
  16766  16781     1
  16766  16768     1
  16766  16776     1
  16766  16771     1
  16766  16767     1
  16767  16770     1
  16767  16774     1
  16767  16772     1
  16768  16770     1
  16777  16780     1
  16777  16781     1
  16778  16780     1
  16778  16781     1
  16782  16790     1
  16782  16798     1
  16782  16803     1
  16782  16791     1
  16783  16800     1
  16783  16801     1
  16783  16789     1
  16783  16797     1
  16784  16786     1
  16784  16795     1
  16784  16785     1
  16784  16802     1
  16784  16800     1
  16784  16801     1
  16784  16788     1
  16785  16796     1
  16785  16804     1
  16785  16787     1
  16785  16794     1
  16785  16790     1
  16785  16798     1
  16786  16798     1
  16786  16791     1
  16786  16799     1
  16787  16797     1
  16788  16790     1
  16788  16799     1
  16789  16794     1
  16789  16790     1
  16789  16792     1
  16789  16804     1
  16789  16791     1
  16789  16799     1
  16790  16795     1
  16790  16793     1
  16790  16797     1
  16791  16793     1
  16800  16804     1
  16800  16803     1
  16801  16804     1
  16801  16803     1
  16805  16813     1
  16805  16821     1
  16805  16826     1
  16805  16814     1
  16806  16812     1
  16806  16820     1
  16806  16823     1
  16806  16824     1
  16807  16809     1
  16807  16818     1
  16807  16808     1
  16807  16825     1
  16807  16823     1
  16807  16824     1
  16807  16811     1
  16808  16810     1
  16808  16817     1
  16808  16813     1
  16808  16821     1
  16808  16819     1
  16808  16827     1
  16809  16814     1
  16809  16822     1
  16809  16821     1
  16810  16820     1
  16811  16822     1
  16811  16813     1
  16812  16815     1
  16812  16827     1
  16812  16814     1
  16812  16822     1
  16812  16817     1
  16812  16813     1
  16813  16816     1
  16813  16820     1
  16813  16818     1
  16814  16816     1
  16823  16826     1
  16823  16827     1
  16824  16826     1
  16824  16827     1
  16828  16836     1
  16828  16844     1
  16828  16849     1
  16828  16837     1
  16829  16846     1
  16829  16847     1
  16829  16835     1
  16829  16843     1
  16830  16832     1
  16830  16841     1
  16830  16831     1
  16830  16848     1
  16830  16846     1
  16830  16847     1
  16830  16834     1
  16831  16842     1
  16831  16850     1
  16831  16833     1
  16831  16840     1
  16831  16836     1
  16831  16844     1
  16832  16844     1
  16832  16837     1
  16832  16845     1
  16833  16843     1
  16834  16836     1
  16834  16845     1
  16835  16840     1
  16835  16836     1
  16835  16838     1
  16835  16850     1
  16835  16837     1
  16835  16845     1
  16836  16841     1
  16836  16839     1
  16836  16843     1
  16837  16839     1
  16846  16850     1
  16846  16849     1
  16847  16850     1
  16847  16849     1
  16851  16859     1
  16851  16867     1
  16851  16872     1
  16851  16860     1
  16852  16858     1
  16852  16866     1
  16852  16869     1
  16852  16870     1
  16853  16855     1
  16853  16864     1
  16853  16854     1
  16853  16871     1
  16853  16869     1
  16853  16870     1
  16853  16857     1
  16854  16856     1
  16854  16863     1
  16854  16859     1
  16854  16867     1
  16854  16865     1
  16854  16873     1
  16855  16860     1
  16855  16868     1
  16855  16867     1
  16856  16866     1
  16857  16868     1
  16857  16859     1
  16858  16861     1
  16858  16873     1
  16858  16860     1
  16858  16868     1
  16858  16863     1
  16858  16859     1
  16859  16862     1
  16859  16866     1
  16859  16864     1
  16860  16862     1
  16869  16872     1
  16869  16873     1
  16870  16872     1
  16870  16873     1
  16874  16882     1
  16874  16890     1
  16874  16895     1
  16874  16883     1
  16875  16892     1
  16875  16893     1
  16875  16881     1
  16875  16889     1
  16876  16878     1
  16876  16887     1
  16876  16877     1
  16876  16894     1
  16876  16892     1
  16876  16893     1
  16876  16880     1
  16877  16888     1
  16877  16896     1
  16877  16879     1
  16877  16886     1
  16877  16882     1
  16877  16890     1
  16878  16890     1
  16878  16883     1
  16878  16891     1
  16879  16889     1
  16880  16882     1
  16880  16891     1
  16881  16886     1
  16881  16882     1
  16881  16884     1
  16881  16896     1
  16881  16883     1
  16881  16891     1
  16882  16887     1
  16882  16885     1
  16882  16889     1
  16883  16885     1
  16892  16896     1
  16892  16895     1
  16893  16896     1
  16893  16895     1
  16897  16905     1
  16897  16913     1
  16897  16918     1
  16897  16906     1
  16898  16904     1
  16898  16912     1
  16898  16915     1
  16898  16916     1
  16899  16901     1
  16899  16910     1
  16899  16900     1
  16899  16917     1
  16899  16915     1
  16899  16916     1
  16899  16903     1
  16900  16902     1
  16900  16909     1
  16900  16905     1
  16900  16913     1
  16900  16911     1
  16900  16919     1
  16901  16906     1
  16901  16914     1
  16901  16913     1
  16902  16912     1
  16903  16914     1
  16903  16905     1
  16904  16907     1
  16904  16919     1
  16904  16906     1
  16904  16914     1
  16904  16909     1
  16904  16905     1
  16905  16908     1
  16905  16912     1
  16905  16910     1
  16906  16908     1
  16915  16918     1
  16915  16919     1
  16916  16918     1
  16916  16919     1
  16920  16928     1
  16920  16936     1
  16920  16941     1
  16920  16929     1
  16921  16938     1
  16921  16939     1
  16921  16927     1
  16921  16935     1
  16922  16924     1
  16922  16933     1
  16922  16923     1
  16922  16940     1
  16922  16938     1
  16922  16939     1
  16922  16926     1
  16923  16934     1
  16923  16942     1
  16923  16925     1
  16923  16932     1
  16923  16928     1
  16923  16936     1
  16924  16936     1
  16924  16929     1
  16924  16937     1
  16925  16935     1
  16926  16928     1
  16926  16937     1
  16927  16932     1
  16927  16928     1
  16927  16930     1
  16927  16942     1
  16927  16929     1
  16927  16937     1
  16928  16933     1
  16928  16931     1
  16928  16935     1
  16929  16931     1
  16938  16942     1
  16938  16941     1
  16939  16942     1
  16939  16941     1
  16943  16951     1
  16943  16959     1
  16943  16964     1
  16943  16952     1
  16944  16950     1
  16944  16958     1
  16944  16961     1
  16944  16962     1
  16945  16947     1
  16945  16956     1
  16945  16946     1
  16945  16963     1
  16945  16961     1
  16945  16962     1
  16945  16949     1
  16946  16948     1
  16946  16955     1
  16946  16951     1
  16946  16959     1
  16946  16957     1
  16946  16965     1
  16947  16952     1
  16947  16960     1
  16947  16959     1
  16948  16958     1
  16949  16960     1
  16949  16951     1
  16950  16953     1
  16950  16965     1
  16950  16952     1
  16950  16960     1
  16950  16955     1
  16950  16951     1
  16951  16954     1
  16951  16958     1
  16951  16956     1
  16952  16954     1
  16961  16964     1
  16961  16965     1
  16962  16964     1
  16962  16965     1
  16966  16974     1
  16966  16982     1
  16966  16987     1
  16966  16975     1
  16967  16984     1
  16967  16985     1
  16967  16973     1
  16967  16981     1
  16968  16970     1
  16968  16979     1
  16968  16969     1
  16968  16986     1
  16968  16984     1
  16968  16985     1
  16968  16972     1
  16969  16980     1
  16969  16988     1
  16969  16971     1
  16969  16978     1
  16969  16974     1
  16969  16982     1
  16970  16982     1
  16970  16975     1
  16970  16983     1
  16971  16981     1
  16972  16974     1
  16972  16983     1
  16973  16978     1
  16973  16974     1
  16973  16976     1
  16973  16988     1
  16973  16975     1
  16973  16983     1
  16974  16979     1
  16974  16977     1
  16974  16981     1
  16975  16977     1
  16984  16988     1
  16984  16987     1
  16985  16988     1
  16985  16987     1
  16989  16997     1
  16989  17005     1
  16989  17010     1
  16989  16998     1
  16990  16996     1
  16990  17004     1
  16990  17007     1
  16990  17008     1
  16991  16993     1
  16991  17002     1
  16991  16992     1
  16991  17009     1
  16991  17007     1
  16991  17008     1
  16991  16995     1
  16992  16994     1
  16992  17001     1
  16992  16997     1
  16992  17005     1
  16992  17003     1
  16992  17011     1
  16993  16998     1
  16993  17006     1
  16993  17005     1
  16994  17004     1
  16995  17006     1
  16995  16997     1
  16996  16999     1
  16996  17011     1
  16996  16998     1
  16996  17006     1
  16996  17001     1
  16996  16997     1
  16997  17000     1
  16997  17004     1
  16997  17002     1
  16998  17000     1
  17007  17010     1
  17007  17011     1
  17008  17010     1
  17008  17011     1
  17012  17020     1
  17012  17028     1
  17012  17033     1
  17012  17021     1
  17013  17030     1
  17013  17031     1
  17013  17019     1
  17013  17027     1
  17014  17016     1
  17014  17025     1
  17014  17015     1
  17014  17032     1
  17014  17030     1
  17014  17031     1
  17014  17018     1
  17015  17026     1
  17015  17034     1
  17015  17017     1
  17015  17024     1
  17015  17020     1
  17015  17028     1
  17016  17028     1
  17016  17021     1
  17016  17029     1
  17017  17027     1
  17018  17020     1
  17018  17029     1
  17019  17024     1
  17019  17020     1
  17019  17022     1
  17019  17034     1
  17019  17021     1
  17019  17029     1
  17020  17025     1
  17020  17023     1
  17020  17027     1
  17021  17023     1
  17030  17034     1
  17030  17033     1
  17031  17034     1
  17031  17033     1
  17035  17043     1
  17035  17051     1
  17035  17056     1
  17035  17044     1
  17036  17042     1
  17036  17050     1
  17036  17053     1
  17036  17054     1
  17037  17039     1
  17037  17048     1
  17037  17038     1
  17037  17055     1
  17037  17053     1
  17037  17054     1
  17037  17041     1
  17038  17040     1
  17038  17047     1
  17038  17043     1
  17038  17051     1
  17038  17049     1
  17038  17057     1
  17039  17044     1
  17039  17052     1
  17039  17051     1
  17040  17050     1
  17041  17052     1
  17041  17043     1
  17042  17045     1
  17042  17057     1
  17042  17044     1
  17042  17052     1
  17042  17047     1
  17042  17043     1
  17043  17046     1
  17043  17050     1
  17043  17048     1
  17044  17046     1
  17053  17056     1
  17053  17057     1
  17054  17056     1
  17054  17057     1
  17058  17066     1
  17058  17074     1
  17058  17079     1
  17058  17067     1
  17059  17076     1
  17059  17077     1
  17059  17065     1
  17059  17073     1
  17060  17062     1
  17060  17071     1
  17060  17061     1
  17060  17078     1
  17060  17076     1
  17060  17077     1
  17060  17064     1
  17061  17072     1
  17061  17080     1
  17061  17063     1
  17061  17070     1
  17061  17066     1
  17061  17074     1
  17062  17074     1
  17062  17067     1
  17062  17075     1
  17063  17073     1
  17064  17066     1
  17064  17075     1
  17065  17070     1
  17065  17066     1
  17065  17068     1
  17065  17080     1
  17065  17067     1
  17065  17075     1
  17066  17071     1
  17066  17069     1
  17066  17073     1
  17067  17069     1
  17076  17080     1
  17076  17079     1
  17077  17080     1
  17077  17079     1
  17081  17089     1
  17081  17097     1
  17081  17102     1
  17081  17090     1
  17082  17088     1
  17082  17096     1
  17082  17099     1
  17082  17100     1
  17083  17085     1
  17083  17094     1
  17083  17084     1
  17083  17101     1
  17083  17099     1
  17083  17100     1
  17083  17087     1
  17084  17086     1
  17084  17093     1
  17084  17089     1
  17084  17097     1
  17084  17095     1
  17084  17103     1
  17085  17090     1
  17085  17098     1
  17085  17097     1
  17086  17096     1
  17087  17098     1
  17087  17089     1
  17088  17091     1
  17088  17103     1
  17088  17090     1
  17088  17098     1
  17088  17093     1
  17088  17089     1
  17089  17092     1
  17089  17096     1
  17089  17094     1
  17090  17092     1
  17099  17102     1
  17099  17103     1
  17100  17102     1
  17100  17103     1
  17104  17112     1
  17104  17120     1
  17104  17125     1
  17104  17113     1
  17105  17122     1
  17105  17123     1
  17105  17111     1
  17105  17119     1
  17106  17108     1
  17106  17117     1
  17106  17107     1
  17106  17124     1
  17106  17122     1
  17106  17123     1
  17106  17110     1
  17107  17118     1
  17107  17126     1
  17107  17109     1
  17107  17116     1
  17107  17112     1
  17107  17120     1
  17108  17120     1
  17108  17113     1
  17108  17121     1
  17109  17119     1
  17110  17112     1
  17110  17121     1
  17111  17116     1
  17111  17112     1
  17111  17114     1
  17111  17126     1
  17111  17113     1
  17111  17121     1
  17112  17117     1
  17112  17115     1
  17112  17119     1
  17113  17115     1
  17122  17126     1
  17122  17125     1
  17123  17126     1
  17123  17125     1
  17127  17135     1
  17127  17143     1
  17127  17148     1
  17127  17136     1
  17128  17134     1
  17128  17142     1
  17128  17145     1
  17128  17146     1
  17129  17131     1
  17129  17140     1
  17129  17130     1
  17129  17147     1
  17129  17145     1
  17129  17146     1
  17129  17133     1
  17130  17132     1
  17130  17139     1
  17130  17135     1
  17130  17143     1
  17130  17141     1
  17130  17149     1
  17131  17136     1
  17131  17144     1
  17131  17143     1
  17132  17142     1
  17133  17144     1
  17133  17135     1
  17134  17137     1
  17134  17149     1
  17134  17136     1
  17134  17144     1
  17134  17139     1
  17134  17135     1
  17135  17138     1
  17135  17142     1
  17135  17140     1
  17136  17138     1
  17145  17148     1
  17145  17149     1
  17146  17148     1
  17146  17149     1
  17150  17158     1
  17150  17166     1
  17150  17171     1
  17150  17159     1
  17151  17168     1
  17151  17169     1
  17151  17157     1
  17151  17165     1
  17152  17154     1
  17152  17163     1
  17152  17153     1
  17152  17170     1
  17152  17168     1
  17152  17169     1
  17152  17156     1
  17153  17164     1
  17153  17172     1
  17153  17155     1
  17153  17162     1
  17153  17158     1
  17153  17166     1
  17154  17166     1
  17154  17159     1
  17154  17167     1
  17155  17165     1
  17156  17158     1
  17156  17167     1
  17157  17162     1
  17157  17158     1
  17157  17160     1
  17157  17172     1
  17157  17159     1
  17157  17167     1
  17158  17163     1
  17158  17161     1
  17158  17165     1
  17159  17161     1
  17168  17172     1
  17168  17171     1
  17169  17172     1
  17169  17171     1
  17173  17181     1
  17173  17189     1
  17173  17194     1
  17173  17182     1
  17174  17180     1
  17174  17188     1
  17174  17191     1
  17174  17192     1
  17175  17177     1
  17175  17186     1
  17175  17176     1
  17175  17193     1
  17175  17191     1
  17175  17192     1
  17175  17179     1
  17176  17178     1
  17176  17185     1
  17176  17181     1
  17176  17189     1
  17176  17187     1
  17176  17195     1
  17177  17182     1
  17177  17190     1
  17177  17189     1
  17178  17188     1
  17179  17190     1
  17179  17181     1
  17180  17183     1
  17180  17195     1
  17180  17182     1
  17180  17190     1
  17180  17185     1
  17180  17181     1
  17181  17184     1
  17181  17188     1
  17181  17186     1
  17182  17184     1
  17191  17194     1
  17191  17195     1
  17192  17194     1
  17192  17195     1
  17196  17204     1
  17196  17212     1
  17196  17217     1
  17196  17205     1
  17197  17214     1
  17197  17215     1
  17197  17203     1
  17197  17211     1
  17198  17200     1
  17198  17209     1
  17198  17199     1
  17198  17216     1
  17198  17214     1
  17198  17215     1
  17198  17202     1
  17199  17210     1
  17199  17218     1
  17199  17201     1
  17199  17208     1
  17199  17204     1
  17199  17212     1
  17200  17212     1
  17200  17205     1
  17200  17213     1
  17201  17211     1
  17202  17204     1
  17202  17213     1
  17203  17208     1
  17203  17204     1
  17203  17206     1
  17203  17218     1
  17203  17205     1
  17203  17213     1
  17204  17209     1
  17204  17207     1
  17204  17211     1
  17205  17207     1
  17214  17218     1
  17214  17217     1
  17215  17218     1
  17215  17217     1
  17219  17227     1
  17219  17235     1
  17219  17240     1
  17219  17228     1
  17220  17226     1
  17220  17234     1
  17220  17237     1
  17220  17238     1
  17221  17223     1
  17221  17232     1
  17221  17222     1
  17221  17239     1
  17221  17237     1
  17221  17238     1
  17221  17225     1
  17222  17224     1
  17222  17231     1
  17222  17227     1
  17222  17235     1
  17222  17233     1
  17222  17241     1
  17223  17228     1
  17223  17236     1
  17223  17235     1
  17224  17234     1
  17225  17236     1
  17225  17227     1
  17226  17229     1
  17226  17241     1
  17226  17228     1
  17226  17236     1
  17226  17231     1
  17226  17227     1
  17227  17230     1
  17227  17234     1
  17227  17232     1
  17228  17230     1
  17237  17240     1
  17237  17241     1
  17238  17240     1
  17238  17241     1
  17242  17250     1
  17242  17258     1
  17242  17263     1
  17242  17251     1
  17243  17260     1
  17243  17261     1
  17243  17249     1
  17243  17257     1
  17244  17246     1
  17244  17255     1
  17244  17245     1
  17244  17262     1
  17244  17260     1
  17244  17261     1
  17244  17248     1
  17245  17256     1
  17245  17264     1
  17245  17247     1
  17245  17254     1
  17245  17250     1
  17245  17258     1
  17246  17258     1
  17246  17251     1
  17246  17259     1
  17247  17257     1
  17248  17250     1
  17248  17259     1
  17249  17254     1
  17249  17250     1
  17249  17252     1
  17249  17264     1
  17249  17251     1
  17249  17259     1
  17250  17255     1
  17250  17253     1
  17250  17257     1
  17251  17253     1
  17260  17264     1
  17260  17263     1
  17261  17264     1
  17261  17263     1
  17265  17273     1
  17265  17281     1
  17265  17286     1
  17265  17274     1
  17266  17272     1
  17266  17280     1
  17266  17283     1
  17266  17284     1
  17267  17269     1
  17267  17278     1
  17267  17268     1
  17267  17285     1
  17267  17283     1
  17267  17284     1
  17267  17271     1
  17268  17270     1
  17268  17277     1
  17268  17273     1
  17268  17281     1
  17268  17279     1
  17268  17287     1
  17269  17274     1
  17269  17282     1
  17269  17281     1
  17270  17280     1
  17271  17282     1
  17271  17273     1
  17272  17275     1
  17272  17287     1
  17272  17274     1
  17272  17282     1
  17272  17277     1
  17272  17273     1
  17273  17276     1
  17273  17280     1
  17273  17278     1
  17274  17276     1
  17283  17286     1
  17283  17287     1
  17284  17286     1
  17284  17287     1
  17288  17296     1
  17288  17304     1
  17288  17309     1
  17288  17297     1
  17289  17306     1
  17289  17307     1
  17289  17295     1
  17289  17303     1
  17290  17292     1
  17290  17301     1
  17290  17291     1
  17290  17308     1
  17290  17306     1
  17290  17307     1
  17290  17294     1
  17291  17302     1
  17291  17310     1
  17291  17293     1
  17291  17300     1
  17291  17296     1
  17291  17304     1
  17292  17304     1
  17292  17297     1
  17292  17305     1
  17293  17303     1
  17294  17296     1
  17294  17305     1
  17295  17300     1
  17295  17296     1
  17295  17298     1
  17295  17310     1
  17295  17297     1
  17295  17305     1
  17296  17301     1
  17296  17299     1
  17296  17303     1
  17297  17299     1
  17306  17310     1
  17306  17309     1
  17307  17310     1
  17307  17309     1
  17311  17319     1
  17311  17327     1
  17311  17332     1
  17311  17320     1
  17312  17318     1
  17312  17326     1
  17312  17329     1
  17312  17330     1
  17313  17315     1
  17313  17324     1
  17313  17314     1
  17313  17331     1
  17313  17329     1
  17313  17330     1
  17313  17317     1
  17314  17316     1
  17314  17323     1
  17314  17319     1
  17314  17327     1
  17314  17325     1
  17314  17333     1
  17315  17320     1
  17315  17328     1
  17315  17327     1
  17316  17326     1
  17317  17328     1
  17317  17319     1
  17318  17321     1
  17318  17333     1
  17318  17320     1
  17318  17328     1
  17318  17323     1
  17318  17319     1
  17319  17322     1
  17319  17326     1
  17319  17324     1
  17320  17322     1
  17329  17332     1
  17329  17333     1
  17330  17332     1
  17330  17333     1
  17334  17342     1
  17334  17350     1
  17334  17355     1
  17334  17343     1
  17335  17352     1
  17335  17353     1
  17335  17341     1
  17335  17349     1
  17336  17338     1
  17336  17347     1
  17336  17337     1
  17336  17354     1
  17336  17352     1
  17336  17353     1
  17336  17340     1
  17337  17348     1
  17337  17356     1
  17337  17339     1
  17337  17346     1
  17337  17342     1
  17337  17350     1
  17338  17350     1
  17338  17343     1
  17338  17351     1
  17339  17349     1
  17340  17342     1
  17340  17351     1
  17341  17346     1
  17341  17342     1
  17341  17344     1
  17341  17356     1
  17341  17343     1
  17341  17351     1
  17342  17347     1
  17342  17345     1
  17342  17349     1
  17343  17345     1
  17352  17356     1
  17352  17355     1
  17353  17356     1
  17353  17355     1
  17357  17365     1
  17357  17373     1
  17357  17378     1
  17357  17366     1
  17358  17364     1
  17358  17372     1
  17358  17375     1
  17358  17376     1
  17359  17361     1
  17359  17370     1
  17359  17360     1
  17359  17377     1
  17359  17375     1
  17359  17376     1
  17359  17363     1
  17360  17362     1
  17360  17369     1
  17360  17365     1
  17360  17373     1
  17360  17371     1
  17360  17379     1
  17361  17366     1
  17361  17374     1
  17361  17373     1
  17362  17372     1
  17363  17374     1
  17363  17365     1
  17364  17367     1
  17364  17379     1
  17364  17366     1
  17364  17374     1
  17364  17369     1
  17364  17365     1
  17365  17368     1
  17365  17372     1
  17365  17370     1
  17366  17368     1
  17375  17378     1
  17375  17379     1
  17376  17378     1
  17376  17379     1
  17380  17388     1
  17380  17396     1
  17380  17401     1
  17380  17389     1
  17381  17398     1
  17381  17399     1
  17381  17387     1
  17381  17395     1
  17382  17384     1
  17382  17393     1
  17382  17383     1
  17382  17400     1
  17382  17398     1
  17382  17399     1
  17382  17386     1
  17383  17394     1
  17383  17402     1
  17383  17385     1
  17383  17392     1
  17383  17388     1
  17383  17396     1
  17384  17396     1
  17384  17389     1
  17384  17397     1
  17385  17395     1
  17386  17388     1
  17386  17397     1
  17387  17392     1
  17387  17388     1
  17387  17390     1
  17387  17402     1
  17387  17389     1
  17387  17397     1
  17388  17393     1
  17388  17391     1
  17388  17395     1
  17389  17391     1
  17398  17402     1
  17398  17401     1
  17399  17402     1
  17399  17401     1
  17403  17411     1
  17403  17419     1
  17403  17424     1
  17403  17412     1
  17404  17410     1
  17404  17418     1
  17404  17421     1
  17404  17422     1
  17405  17407     1
  17405  17416     1
  17405  17406     1
  17405  17423     1
  17405  17421     1
  17405  17422     1
  17405  17409     1
  17406  17408     1
  17406  17415     1
  17406  17411     1
  17406  17419     1
  17406  17417     1
  17406  17425     1
  17407  17412     1
  17407  17420     1
  17407  17419     1
  17408  17418     1
  17409  17420     1
  17409  17411     1
  17410  17413     1
  17410  17425     1
  17410  17412     1
  17410  17420     1
  17410  17415     1
  17410  17411     1
  17411  17414     1
  17411  17418     1
  17411  17416     1
  17412  17414     1
  17421  17424     1
  17421  17425     1
  17422  17424     1
  17422  17425     1
  17426  17434     1
  17426  17442     1
  17426  17447     1
  17426  17435     1
  17427  17444     1
  17427  17445     1
  17427  17433     1
  17427  17441     1
  17428  17430     1
  17428  17439     1
  17428  17429     1
  17428  17446     1
  17428  17444     1
  17428  17445     1
  17428  17432     1
  17429  17440     1
  17429  17448     1
  17429  17431     1
  17429  17438     1
  17429  17434     1
  17429  17442     1
  17430  17442     1
  17430  17435     1
  17430  17443     1
  17431  17441     1
  17432  17434     1
  17432  17443     1
  17433  17438     1
  17433  17434     1
  17433  17436     1
  17433  17448     1
  17433  17435     1
  17433  17443     1
  17434  17439     1
  17434  17437     1
  17434  17441     1
  17435  17437     1
  17444  17448     1
  17444  17447     1
  17445  17448     1
  17445  17447     1
  17449  17457     1
  17449  17465     1
  17449  17470     1
  17449  17458     1
  17450  17456     1
  17450  17464     1
  17450  17467     1
  17450  17468     1
  17451  17453     1
  17451  17462     1
  17451  17452     1
  17451  17469     1
  17451  17467     1
  17451  17468     1
  17451  17455     1
  17452  17454     1
  17452  17461     1
  17452  17457     1
  17452  17465     1
  17452  17463     1
  17452  17471     1
  17453  17458     1
  17453  17466     1
  17453  17465     1
  17454  17464     1
  17455  17466     1
  17455  17457     1
  17456  17459     1
  17456  17471     1
  17456  17458     1
  17456  17466     1
  17456  17461     1
  17456  17457     1
  17457  17460     1
  17457  17464     1
  17457  17462     1
  17458  17460     1
  17467  17470     1
  17467  17471     1
  17468  17470     1
  17468  17471     1
  17472  17480     1
  17472  17488     1
  17472  17493     1
  17472  17481     1
  17473  17490     1
  17473  17491     1
  17473  17479     1
  17473  17487     1
  17474  17476     1
  17474  17485     1
  17474  17475     1
  17474  17492     1
  17474  17490     1
  17474  17491     1
  17474  17478     1
  17475  17486     1
  17475  17494     1
  17475  17477     1
  17475  17484     1
  17475  17480     1
  17475  17488     1
  17476  17488     1
  17476  17481     1
  17476  17489     1
  17477  17487     1
  17478  17480     1
  17478  17489     1
  17479  17484     1
  17479  17480     1
  17479  17482     1
  17479  17494     1
  17479  17481     1
  17479  17489     1
  17480  17485     1
  17480  17483     1
  17480  17487     1
  17481  17483     1
  17490  17494     1
  17490  17493     1
  17491  17494     1
  17491  17493     1
  17495  17503     1
  17495  17511     1
  17495  17516     1
  17495  17504     1
  17496  17502     1
  17496  17510     1
  17496  17513     1
  17496  17514     1
  17497  17499     1
  17497  17508     1
  17497  17498     1
  17497  17515     1
  17497  17513     1
  17497  17514     1
  17497  17501     1
  17498  17500     1
  17498  17507     1
  17498  17503     1
  17498  17511     1
  17498  17509     1
  17498  17517     1
  17499  17504     1
  17499  17512     1
  17499  17511     1
  17500  17510     1
  17501  17512     1
  17501  17503     1
  17502  17505     1
  17502  17517     1
  17502  17504     1
  17502  17512     1
  17502  17507     1
  17502  17503     1
  17503  17506     1
  17503  17510     1
  17503  17508     1
  17504  17506     1
  17513  17516     1
  17513  17517     1
  17514  17516     1
  17514  17517     1
  17518  17526     1
  17518  17534     1
  17518  17539     1
  17518  17527     1
  17519  17536     1
  17519  17537     1
  17519  17525     1
  17519  17533     1
  17520  17522     1
  17520  17531     1
  17520  17521     1
  17520  17538     1
  17520  17536     1
  17520  17537     1
  17520  17524     1
  17521  17532     1
  17521  17540     1
  17521  17523     1
  17521  17530     1
  17521  17526     1
  17521  17534     1
  17522  17534     1
  17522  17527     1
  17522  17535     1
  17523  17533     1
  17524  17526     1
  17524  17535     1
  17525  17530     1
  17525  17526     1
  17525  17528     1
  17525  17540     1
  17525  17527     1
  17525  17535     1
  17526  17531     1
  17526  17529     1
  17526  17533     1
  17527  17529     1
  17536  17540     1
  17536  17539     1
  17537  17540     1
  17537  17539     1
  17541  17549     1
  17541  17557     1
  17541  17562     1
  17541  17550     1
  17542  17548     1
  17542  17556     1
  17542  17559     1
  17542  17560     1
  17543  17545     1
  17543  17554     1
  17543  17544     1
  17543  17561     1
  17543  17559     1
  17543  17560     1
  17543  17547     1
  17544  17546     1
  17544  17553     1
  17544  17549     1
  17544  17557     1
  17544  17555     1
  17544  17563     1
  17545  17550     1
  17545  17558     1
  17545  17557     1
  17546  17556     1
  17547  17558     1
  17547  17549     1
  17548  17551     1
  17548  17563     1
  17548  17550     1
  17548  17558     1
  17548  17553     1
  17548  17549     1
  17549  17552     1
  17549  17556     1
  17549  17554     1
  17550  17552     1
  17559  17562     1
  17559  17563     1
  17560  17562     1
  17560  17563     1
  17564  17572     1
  17564  17580     1
  17564  17585     1
  17564  17573     1
  17565  17582     1
  17565  17583     1
  17565  17571     1
  17565  17579     1
  17566  17568     1
  17566  17577     1
  17566  17567     1
  17566  17584     1
  17566  17582     1
  17566  17583     1
  17566  17570     1
  17567  17578     1
  17567  17586     1
  17567  17569     1
  17567  17576     1
  17567  17572     1
  17567  17580     1
  17568  17580     1
  17568  17573     1
  17568  17581     1
  17569  17579     1
  17570  17572     1
  17570  17581     1
  17571  17576     1
  17571  17572     1
  17571  17574     1
  17571  17586     1
  17571  17573     1
  17571  17581     1
  17572  17577     1
  17572  17575     1
  17572  17579     1
  17573  17575     1
  17582  17586     1
  17582  17585     1
  17583  17586     1
  17583  17585     1
  17587  17595     1
  17587  17603     1
  17587  17608     1
  17587  17596     1
  17588  17594     1
  17588  17602     1
  17588  17605     1
  17588  17606     1
  17589  17591     1
  17589  17600     1
  17589  17590     1
  17589  17607     1
  17589  17605     1
  17589  17606     1
  17589  17593     1
  17590  17592     1
  17590  17599     1
  17590  17595     1
  17590  17603     1
  17590  17601     1
  17590  17609     1
  17591  17596     1
  17591  17604     1
  17591  17603     1
  17592  17602     1
  17593  17604     1
  17593  17595     1
  17594  17597     1
  17594  17609     1
  17594  17596     1
  17594  17604     1
  17594  17599     1
  17594  17595     1
  17595  17598     1
  17595  17602     1
  17595  17600     1
  17596  17598     1
  17605  17608     1
  17605  17609     1
  17606  17608     1
  17606  17609     1
  17610  17618     1
  17610  17626     1
  17610  17631     1
  17610  17619     1
  17611  17628     1
  17611  17629     1
  17611  17617     1
  17611  17625     1
  17612  17614     1
  17612  17623     1
  17612  17613     1
  17612  17630     1
  17612  17628     1
  17612  17629     1
  17612  17616     1
  17613  17624     1
  17613  17632     1
  17613  17615     1
  17613  17622     1
  17613  17618     1
  17613  17626     1
  17614  17626     1
  17614  17619     1
  17614  17627     1
  17615  17625     1
  17616  17618     1
  17616  17627     1
  17617  17622     1
  17617  17618     1
  17617  17620     1
  17617  17632     1
  17617  17619     1
  17617  17627     1
  17618  17623     1
  17618  17621     1
  17618  17625     1
  17619  17621     1
  17628  17632     1
  17628  17631     1
  17629  17632     1
  17629  17631     1
  17633  17641     1
  17633  17649     1
  17633  17654     1
  17633  17642     1
  17634  17640     1
  17634  17648     1
  17634  17651     1
  17634  17652     1
  17635  17637     1
  17635  17646     1
  17635  17636     1
  17635  17653     1
  17635  17651     1
  17635  17652     1
  17635  17639     1
  17636  17638     1
  17636  17645     1
  17636  17641     1
  17636  17649     1
  17636  17647     1
  17636  17655     1
  17637  17642     1
  17637  17650     1
  17637  17649     1
  17638  17648     1
  17639  17650     1
  17639  17641     1
  17640  17643     1
  17640  17655     1
  17640  17642     1
  17640  17650     1
  17640  17645     1
  17640  17641     1
  17641  17644     1
  17641  17648     1
  17641  17646     1
  17642  17644     1
  17651  17654     1
  17651  17655     1
  17652  17654     1
  17652  17655     1
  17656  17664     1
  17656  17672     1
  17656  17677     1
  17656  17665     1
  17657  17674     1
  17657  17675     1
  17657  17663     1
  17657  17671     1
  17658  17660     1
  17658  17669     1
  17658  17659     1
  17658  17676     1
  17658  17674     1
  17658  17675     1
  17658  17662     1
  17659  17670     1
  17659  17678     1
  17659  17661     1
  17659  17668     1
  17659  17664     1
  17659  17672     1
  17660  17672     1
  17660  17665     1
  17660  17673     1
  17661  17671     1
  17662  17664     1
  17662  17673     1
  17663  17668     1
  17663  17664     1
  17663  17666     1
  17663  17678     1
  17663  17665     1
  17663  17673     1
  17664  17669     1
  17664  17667     1
  17664  17671     1
  17665  17667     1
  17674  17678     1
  17674  17677     1
  17675  17678     1
  17675  17677     1
  17679  17687     1
  17679  17695     1
  17679  17700     1
  17679  17688     1
  17680  17686     1
  17680  17694     1
  17680  17697     1
  17680  17698     1
  17681  17683     1
  17681  17692     1
  17681  17682     1
  17681  17699     1
  17681  17697     1
  17681  17698     1
  17681  17685     1
  17682  17684     1
  17682  17691     1
  17682  17687     1
  17682  17695     1
  17682  17693     1
  17682  17701     1
  17683  17688     1
  17683  17696     1
  17683  17695     1
  17684  17694     1
  17685  17696     1
  17685  17687     1
  17686  17689     1
  17686  17701     1
  17686  17688     1
  17686  17696     1
  17686  17691     1
  17686  17687     1
  17687  17690     1
  17687  17694     1
  17687  17692     1
  17688  17690     1
  17697  17700     1
  17697  17701     1
  17698  17700     1
  17698  17701     1
  17702  17710     1
  17702  17718     1
  17702  17723     1
  17702  17711     1
  17703  17720     1
  17703  17721     1
  17703  17709     1
  17703  17717     1
  17704  17706     1
  17704  17715     1
  17704  17705     1
  17704  17722     1
  17704  17720     1
  17704  17721     1
  17704  17708     1
  17705  17716     1
  17705  17724     1
  17705  17707     1
  17705  17714     1
  17705  17710     1
  17705  17718     1
  17706  17718     1
  17706  17711     1
  17706  17719     1
  17707  17717     1
  17708  17710     1
  17708  17719     1
  17709  17714     1
  17709  17710     1
  17709  17712     1
  17709  17724     1
  17709  17711     1
  17709  17719     1
  17710  17715     1
  17710  17713     1
  17710  17717     1
  17711  17713     1
  17720  17724     1
  17720  17723     1
  17721  17724     1
  17721  17723     1
  17725  17733     1
  17725  17741     1
  17725  17746     1
  17725  17734     1
  17726  17732     1
  17726  17740     1
  17726  17743     1
  17726  17744     1
  17727  17729     1
  17727  17738     1
  17727  17728     1
  17727  17745     1
  17727  17743     1
  17727  17744     1
  17727  17731     1
  17728  17730     1
  17728  17737     1
  17728  17733     1
  17728  17741     1
  17728  17739     1
  17728  17747     1
  17729  17734     1
  17729  17742     1
  17729  17741     1
  17730  17740     1
  17731  17742     1
  17731  17733     1
  17732  17735     1
  17732  17747     1
  17732  17734     1
  17732  17742     1
  17732  17737     1
  17732  17733     1
  17733  17736     1
  17733  17740     1
  17733  17738     1
  17734  17736     1
  17743  17746     1
  17743  17747     1
  17744  17746     1
  17744  17747     1
  17748  17756     1
  17748  17764     1
  17748  17769     1
  17748  17757     1
  17749  17766     1
  17749  17767     1
  17749  17755     1
  17749  17763     1
  17750  17752     1
  17750  17761     1
  17750  17751     1
  17750  17768     1
  17750  17766     1
  17750  17767     1
  17750  17754     1
  17751  17762     1
  17751  17770     1
  17751  17753     1
  17751  17760     1
  17751  17756     1
  17751  17764     1
  17752  17764     1
  17752  17757     1
  17752  17765     1
  17753  17763     1
  17754  17756     1
  17754  17765     1
  17755  17760     1
  17755  17756     1
  17755  17758     1
  17755  17770     1
  17755  17757     1
  17755  17765     1
  17756  17761     1
  17756  17759     1
  17756  17763     1
  17757  17759     1
  17766  17770     1
  17766  17769     1
  17767  17770     1
  17767  17769     1
  17771  17779     1
  17771  17787     1
  17771  17792     1
  17771  17780     1
  17772  17778     1
  17772  17786     1
  17772  17789     1
  17772  17790     1
  17773  17775     1
  17773  17784     1
  17773  17774     1
  17773  17791     1
  17773  17789     1
  17773  17790     1
  17773  17777     1
  17774  17776     1
  17774  17783     1
  17774  17779     1
  17774  17787     1
  17774  17785     1
  17774  17793     1
  17775  17780     1
  17775  17788     1
  17775  17787     1
  17776  17786     1
  17777  17788     1
  17777  17779     1
  17778  17781     1
  17778  17793     1
  17778  17780     1
  17778  17788     1
  17778  17783     1
  17778  17779     1
  17779  17782     1
  17779  17786     1
  17779  17784     1
  17780  17782     1
  17789  17792     1
  17789  17793     1
  17790  17792     1
  17790  17793     1
  17794  17802     1
  17794  17810     1
  17794  17815     1
  17794  17803     1
  17795  17812     1
  17795  17813     1
  17795  17801     1
  17795  17809     1
  17796  17798     1
  17796  17807     1
  17796  17797     1
  17796  17814     1
  17796  17812     1
  17796  17813     1
  17796  17800     1
  17797  17808     1
  17797  17816     1
  17797  17799     1
  17797  17806     1
  17797  17802     1
  17797  17810     1
  17798  17810     1
  17798  17803     1
  17798  17811     1
  17799  17809     1
  17800  17802     1
  17800  17811     1
  17801  17806     1
  17801  17802     1
  17801  17804     1
  17801  17816     1
  17801  17803     1
  17801  17811     1
  17802  17807     1
  17802  17805     1
  17802  17809     1
  17803  17805     1
  17812  17816     1
  17812  17815     1
  17813  17816     1
  17813  17815     1
  17817  17825     1
  17817  17833     1
  17817  17838     1
  17817  17826     1
  17818  17824     1
  17818  17832     1
  17818  17835     1
  17818  17836     1
  17819  17821     1
  17819  17830     1
  17819  17820     1
  17819  17837     1
  17819  17835     1
  17819  17836     1
  17819  17823     1
  17820  17822     1
  17820  17829     1
  17820  17825     1
  17820  17833     1
  17820  17831     1
  17820  17839     1
  17821  17826     1
  17821  17834     1
  17821  17833     1
  17822  17832     1
  17823  17834     1
  17823  17825     1
  17824  17827     1
  17824  17839     1
  17824  17826     1
  17824  17834     1
  17824  17829     1
  17824  17825     1
  17825  17828     1
  17825  17832     1
  17825  17830     1
  17826  17828     1
  17835  17838     1
  17835  17839     1
  17836  17838     1
  17836  17839     1
  17840  17848     1
  17840  17856     1
  17840  17861     1
  17840  17849     1
  17841  17858     1
  17841  17859     1
  17841  17847     1
  17841  17855     1
  17842  17844     1
  17842  17853     1
  17842  17843     1
  17842  17860     1
  17842  17858     1
  17842  17859     1
  17842  17846     1
  17843  17854     1
  17843  17862     1
  17843  17845     1
  17843  17852     1
  17843  17848     1
  17843  17856     1
  17844  17856     1
  17844  17849     1
  17844  17857     1
  17845  17855     1
  17846  17848     1
  17846  17857     1
  17847  17852     1
  17847  17848     1
  17847  17850     1
  17847  17862     1
  17847  17849     1
  17847  17857     1
  17848  17853     1
  17848  17851     1
  17848  17855     1
  17849  17851     1
  17858  17862     1
  17858  17861     1
  17859  17862     1
  17859  17861     1
  17863  17871     1
  17863  17879     1
  17863  17884     1
  17863  17872     1
  17864  17870     1
  17864  17878     1
  17864  17881     1
  17864  17882     1
  17865  17867     1
  17865  17876     1
  17865  17866     1
  17865  17883     1
  17865  17881     1
  17865  17882     1
  17865  17869     1
  17866  17868     1
  17866  17875     1
  17866  17871     1
  17866  17879     1
  17866  17877     1
  17866  17885     1
  17867  17872     1
  17867  17880     1
  17867  17879     1
  17868  17878     1
  17869  17880     1
  17869  17871     1
  17870  17873     1
  17870  17885     1
  17870  17872     1
  17870  17880     1
  17870  17875     1
  17870  17871     1
  17871  17874     1
  17871  17878     1
  17871  17876     1
  17872  17874     1
  17881  17884     1
  17881  17885     1
  17882  17884     1
  17882  17885     1
  17886  17894     1
  17886  17902     1
  17886  17907     1
  17886  17895     1
  17887  17904     1
  17887  17905     1
  17887  17893     1
  17887  17901     1
  17888  17890     1
  17888  17899     1
  17888  17889     1
  17888  17906     1
  17888  17904     1
  17888  17905     1
  17888  17892     1
  17889  17900     1
  17889  17908     1
  17889  17891     1
  17889  17898     1
  17889  17894     1
  17889  17902     1
  17890  17902     1
  17890  17895     1
  17890  17903     1
  17891  17901     1
  17892  17894     1
  17892  17903     1
  17893  17898     1
  17893  17894     1
  17893  17896     1
  17893  17908     1
  17893  17895     1
  17893  17903     1
  17894  17899     1
  17894  17897     1
  17894  17901     1
  17895  17897     1
  17904  17908     1
  17904  17907     1
  17905  17908     1
  17905  17907     1
  17909  17917     1
  17909  17925     1
  17909  17930     1
  17909  17918     1
  17910  17916     1
  17910  17924     1
  17910  17927     1
  17910  17928     1
  17911  17913     1
  17911  17922     1
  17911  17912     1
  17911  17929     1
  17911  17927     1
  17911  17928     1
  17911  17915     1
  17912  17914     1
  17912  17921     1
  17912  17917     1
  17912  17925     1
  17912  17923     1
  17912  17931     1
  17913  17918     1
  17913  17926     1
  17913  17925     1
  17914  17924     1
  17915  17926     1
  17915  17917     1
  17916  17919     1
  17916  17931     1
  17916  17918     1
  17916  17926     1
  17916  17921     1
  17916  17917     1
  17917  17920     1
  17917  17924     1
  17917  17922     1
  17918  17920     1
  17927  17930     1
  17927  17931     1
  17928  17930     1
  17928  17931     1
  17932  17940     1
  17932  17948     1
  17932  17953     1
  17932  17941     1
  17933  17950     1
  17933  17951     1
  17933  17939     1
  17933  17947     1
  17934  17936     1
  17934  17945     1
  17934  17935     1
  17934  17952     1
  17934  17950     1
  17934  17951     1
  17934  17938     1
  17935  17946     1
  17935  17954     1
  17935  17937     1
  17935  17944     1
  17935  17940     1
  17935  17948     1
  17936  17948     1
  17936  17941     1
  17936  17949     1
  17937  17947     1
  17938  17940     1
  17938  17949     1
  17939  17944     1
  17939  17940     1
  17939  17942     1
  17939  17954     1
  17939  17941     1
  17939  17949     1
  17940  17945     1
  17940  17943     1
  17940  17947     1
  17941  17943     1
  17950  17954     1
  17950  17953     1
  17951  17954     1
  17951  17953     1
  17955  17963     1
  17955  17971     1
  17955  17976     1
  17955  17964     1
  17956  17962     1
  17956  17970     1
  17956  17973     1
  17956  17974     1
  17957  17959     1
  17957  17968     1
  17957  17958     1
  17957  17975     1
  17957  17973     1
  17957  17974     1
  17957  17961     1
  17958  17960     1
  17958  17967     1
  17958  17963     1
  17958  17971     1
  17958  17969     1
  17958  17977     1
  17959  17964     1
  17959  17972     1
  17959  17971     1
  17960  17970     1
  17961  17972     1
  17961  17963     1
  17962  17965     1
  17962  17977     1
  17962  17964     1
  17962  17972     1
  17962  17967     1
  17962  17963     1
  17963  17966     1
  17963  17970     1
  17963  17968     1
  17964  17966     1
  17973  17976     1
  17973  17977     1
  17974  17976     1
  17974  17977     1
  17978  17986     1
  17978  17994     1
  17978  17999     1
  17978  17987     1
  17979  17996     1
  17979  17997     1
  17979  17985     1
  17979  17993     1
  17980  17982     1
  17980  17991     1
  17980  17981     1
  17980  17998     1
  17980  17996     1
  17980  17997     1
  17980  17984     1
  17981  17992     1
  17981  18000     1
  17981  17983     1
  17981  17990     1
  17981  17986     1
  17981  17994     1
  17982  17994     1
  17982  17987     1
  17982  17995     1
  17983  17993     1
  17984  17986     1
  17984  17995     1
  17985  17990     1
  17985  17986     1
  17985  17988     1
  17985  18000     1
  17985  17987     1
  17985  17995     1
  17986  17991     1
  17986  17989     1
  17986  17993     1
  17987  17989     1
  17996  18000     1
  17996  17999     1
  17997  18000     1
  17997  17999     1
  18001  18009     1
  18001  18017     1
  18001  18022     1
  18001  18010     1
  18002  18008     1
  18002  18016     1
  18002  18019     1
  18002  18020     1
  18003  18005     1
  18003  18014     1
  18003  18004     1
  18003  18021     1
  18003  18019     1
  18003  18020     1
  18003  18007     1
  18004  18006     1
  18004  18013     1
  18004  18009     1
  18004  18017     1
  18004  18015     1
  18004  18023     1
  18005  18010     1
  18005  18018     1
  18005  18017     1
  18006  18016     1
  18007  18018     1
  18007  18009     1
  18008  18011     1
  18008  18023     1
  18008  18010     1
  18008  18018     1
  18008  18013     1
  18008  18009     1
  18009  18012     1
  18009  18016     1
  18009  18014     1
  18010  18012     1
  18019  18022     1
  18019  18023     1
  18020  18022     1
  18020  18023     1
  18024  18032     1
  18024  18040     1
  18024  18045     1
  18024  18033     1
  18025  18042     1
  18025  18043     1
  18025  18031     1
  18025  18039     1
  18026  18028     1
  18026  18037     1
  18026  18027     1
  18026  18044     1
  18026  18042     1
  18026  18043     1
  18026  18030     1
  18027  18038     1
  18027  18046     1
  18027  18029     1
  18027  18036     1
  18027  18032     1
  18027  18040     1
  18028  18040     1
  18028  18033     1
  18028  18041     1
  18029  18039     1
  18030  18032     1
  18030  18041     1
  18031  18036     1
  18031  18032     1
  18031  18034     1
  18031  18046     1
  18031  18033     1
  18031  18041     1
  18032  18037     1
  18032  18035     1
  18032  18039     1
  18033  18035     1
  18042  18046     1
  18042  18045     1
  18043  18046     1
  18043  18045     1
  18047  18055     1
  18047  18063     1
  18047  18068     1
  18047  18056     1
  18048  18054     1
  18048  18062     1
  18048  18065     1
  18048  18066     1
  18049  18051     1
  18049  18060     1
  18049  18050     1
  18049  18067     1
  18049  18065     1
  18049  18066     1
  18049  18053     1
  18050  18052     1
  18050  18059     1
  18050  18055     1
  18050  18063     1
  18050  18061     1
  18050  18069     1
  18051  18056     1
  18051  18064     1
  18051  18063     1
  18052  18062     1
  18053  18064     1
  18053  18055     1
  18054  18057     1
  18054  18069     1
  18054  18056     1
  18054  18064     1
  18054  18059     1
  18054  18055     1
  18055  18058     1
  18055  18062     1
  18055  18060     1
  18056  18058     1
  18065  18068     1
  18065  18069     1
  18066  18068     1
  18066  18069     1
  18070  18078     1
  18070  18086     1
  18070  18091     1
  18070  18079     1
  18071  18088     1
  18071  18089     1
  18071  18077     1
  18071  18085     1
  18072  18074     1
  18072  18083     1
  18072  18073     1
  18072  18090     1
  18072  18088     1
  18072  18089     1
  18072  18076     1
  18073  18084     1
  18073  18092     1
  18073  18075     1
  18073  18082     1
  18073  18078     1
  18073  18086     1
  18074  18086     1
  18074  18079     1
  18074  18087     1
  18075  18085     1
  18076  18078     1
  18076  18087     1
  18077  18082     1
  18077  18078     1
  18077  18080     1
  18077  18092     1
  18077  18079     1
  18077  18087     1
  18078  18083     1
  18078  18081     1
  18078  18085     1
  18079  18081     1
  18088  18092     1
  18088  18091     1
  18089  18092     1
  18089  18091     1
  18093  18101     1
  18093  18109     1
  18093  18114     1
  18093  18102     1
  18094  18100     1
  18094  18108     1
  18094  18111     1
  18094  18112     1
  18095  18097     1
  18095  18106     1
  18095  18096     1
  18095  18113     1
  18095  18111     1
  18095  18112     1
  18095  18099     1
  18096  18098     1
  18096  18105     1
  18096  18101     1
  18096  18109     1
  18096  18107     1
  18096  18115     1
  18097  18102     1
  18097  18110     1
  18097  18109     1
  18098  18108     1
  18099  18110     1
  18099  18101     1
  18100  18103     1
  18100  18115     1
  18100  18102     1
  18100  18110     1
  18100  18105     1
  18100  18101     1
  18101  18104     1
  18101  18108     1
  18101  18106     1
  18102  18104     1
  18111  18114     1
  18111  18115     1
  18112  18114     1
  18112  18115     1
  18116  18124     1
  18116  18132     1
  18116  18137     1
  18116  18125     1
  18117  18134     1
  18117  18135     1
  18117  18123     1
  18117  18131     1
  18118  18120     1
  18118  18129     1
  18118  18119     1
  18118  18136     1
  18118  18134     1
  18118  18135     1
  18118  18122     1
  18119  18130     1
  18119  18138     1
  18119  18121     1
  18119  18128     1
  18119  18124     1
  18119  18132     1
  18120  18132     1
  18120  18125     1
  18120  18133     1
  18121  18131     1
  18122  18124     1
  18122  18133     1
  18123  18128     1
  18123  18124     1
  18123  18126     1
  18123  18138     1
  18123  18125     1
  18123  18133     1
  18124  18129     1
  18124  18127     1
  18124  18131     1
  18125  18127     1
  18134  18138     1
  18134  18137     1
  18135  18138     1
  18135  18137     1
  18139  18147     1
  18139  18155     1
  18139  18160     1
  18139  18148     1
  18140  18146     1
  18140  18154     1
  18140  18157     1
  18140  18158     1
  18141  18143     1
  18141  18152     1
  18141  18142     1
  18141  18159     1
  18141  18157     1
  18141  18158     1
  18141  18145     1
  18142  18144     1
  18142  18151     1
  18142  18147     1
  18142  18155     1
  18142  18153     1
  18142  18161     1
  18143  18148     1
  18143  18156     1
  18143  18155     1
  18144  18154     1
  18145  18156     1
  18145  18147     1
  18146  18149     1
  18146  18161     1
  18146  18148     1
  18146  18156     1
  18146  18151     1
  18146  18147     1
  18147  18150     1
  18147  18154     1
  18147  18152     1
  18148  18150     1
  18157  18160     1
  18157  18161     1
  18158  18160     1
  18158  18161     1
  18162  18170     1
  18162  18178     1
  18162  18183     1
  18162  18171     1
  18163  18180     1
  18163  18181     1
  18163  18169     1
  18163  18177     1
  18164  18166     1
  18164  18175     1
  18164  18165     1
  18164  18182     1
  18164  18180     1
  18164  18181     1
  18164  18168     1
  18165  18176     1
  18165  18184     1
  18165  18167     1
  18165  18174     1
  18165  18170     1
  18165  18178     1
  18166  18178     1
  18166  18171     1
  18166  18179     1
  18167  18177     1
  18168  18170     1
  18168  18179     1
  18169  18174     1
  18169  18170     1
  18169  18172     1
  18169  18184     1
  18169  18171     1
  18169  18179     1
  18170  18175     1
  18170  18173     1
  18170  18177     1
  18171  18173     1
  18180  18184     1
  18180  18183     1
  18181  18184     1
  18181  18183     1
  18185  18193     1
  18185  18201     1
  18185  18206     1
  18185  18194     1
  18186  18192     1
  18186  18200     1
  18186  18203     1
  18186  18204     1
  18187  18189     1
  18187  18198     1
  18187  18188     1
  18187  18205     1
  18187  18203     1
  18187  18204     1
  18187  18191     1
  18188  18190     1
  18188  18197     1
  18188  18193     1
  18188  18201     1
  18188  18199     1
  18188  18207     1
  18189  18194     1
  18189  18202     1
  18189  18201     1
  18190  18200     1
  18191  18202     1
  18191  18193     1
  18192  18195     1
  18192  18207     1
  18192  18194     1
  18192  18202     1
  18192  18197     1
  18192  18193     1
  18193  18196     1
  18193  18200     1
  18193  18198     1
  18194  18196     1
  18203  18206     1
  18203  18207     1
  18204  18206     1
  18204  18207     1
  18208  18216     1
  18208  18224     1
  18208  18229     1
  18208  18217     1
  18209  18226     1
  18209  18227     1
  18209  18215     1
  18209  18223     1
  18210  18212     1
  18210  18221     1
  18210  18211     1
  18210  18228     1
  18210  18226     1
  18210  18227     1
  18210  18214     1
  18211  18222     1
  18211  18230     1
  18211  18213     1
  18211  18220     1
  18211  18216     1
  18211  18224     1
  18212  18224     1
  18212  18217     1
  18212  18225     1
  18213  18223     1
  18214  18216     1
  18214  18225     1
  18215  18220     1
  18215  18216     1
  18215  18218     1
  18215  18230     1
  18215  18217     1
  18215  18225     1
  18216  18221     1
  18216  18219     1
  18216  18223     1
  18217  18219     1
  18226  18230     1
  18226  18229     1
  18227  18230     1
  18227  18229     1
  18231  18239     1
  18231  18247     1
  18231  18252     1
  18231  18240     1
  18232  18238     1
  18232  18246     1
  18232  18249     1
  18232  18250     1
  18233  18235     1
  18233  18244     1
  18233  18234     1
  18233  18251     1
  18233  18249     1
  18233  18250     1
  18233  18237     1
  18234  18236     1
  18234  18243     1
  18234  18239     1
  18234  18247     1
  18234  18245     1
  18234  18253     1
  18235  18240     1
  18235  18248     1
  18235  18247     1
  18236  18246     1
  18237  18248     1
  18237  18239     1
  18238  18241     1
  18238  18253     1
  18238  18240     1
  18238  18248     1
  18238  18243     1
  18238  18239     1
  18239  18242     1
  18239  18246     1
  18239  18244     1
  18240  18242     1
  18249  18252     1
  18249  18253     1
  18250  18252     1
  18250  18253     1
  18254  18262     1
  18254  18270     1
  18254  18275     1
  18254  18263     1
  18255  18272     1
  18255  18273     1
  18255  18261     1
  18255  18269     1
  18256  18258     1
  18256  18267     1
  18256  18257     1
  18256  18274     1
  18256  18272     1
  18256  18273     1
  18256  18260     1
  18257  18268     1
  18257  18276     1
  18257  18259     1
  18257  18266     1
  18257  18262     1
  18257  18270     1
  18258  18270     1
  18258  18263     1
  18258  18271     1
  18259  18269     1
  18260  18262     1
  18260  18271     1
  18261  18266     1
  18261  18262     1
  18261  18264     1
  18261  18276     1
  18261  18263     1
  18261  18271     1
  18262  18267     1
  18262  18265     1
  18262  18269     1
  18263  18265     1
  18272  18276     1
  18272  18275     1
  18273  18276     1
  18273  18275     1
  18277  18285     1
  18277  18293     1
  18277  18298     1
  18277  18286     1
  18278  18284     1
  18278  18292     1
  18278  18295     1
  18278  18296     1
  18279  18281     1
  18279  18290     1
  18279  18280     1
  18279  18297     1
  18279  18295     1
  18279  18296     1
  18279  18283     1
  18280  18282     1
  18280  18289     1
  18280  18285     1
  18280  18293     1
  18280  18291     1
  18280  18299     1
  18281  18286     1
  18281  18294     1
  18281  18293     1
  18282  18292     1
  18283  18294     1
  18283  18285     1
  18284  18287     1
  18284  18299     1
  18284  18286     1
  18284  18294     1
  18284  18289     1
  18284  18285     1
  18285  18288     1
  18285  18292     1
  18285  18290     1
  18286  18288     1
  18295  18298     1
  18295  18299     1
  18296  18298     1
  18296  18299     1
  18300  18308     1
  18300  18316     1
  18300  18321     1
  18300  18309     1
  18301  18318     1
  18301  18319     1
  18301  18307     1
  18301  18315     1
  18302  18304     1
  18302  18313     1
  18302  18303     1
  18302  18320     1
  18302  18318     1
  18302  18319     1
  18302  18306     1
  18303  18314     1
  18303  18322     1
  18303  18305     1
  18303  18312     1
  18303  18308     1
  18303  18316     1
  18304  18316     1
  18304  18309     1
  18304  18317     1
  18305  18315     1
  18306  18308     1
  18306  18317     1
  18307  18312     1
  18307  18308     1
  18307  18310     1
  18307  18322     1
  18307  18309     1
  18307  18317     1
  18308  18313     1
  18308  18311     1
  18308  18315     1
  18309  18311     1
  18318  18322     1
  18318  18321     1
  18319  18322     1
  18319  18321     1
  18323  18331     1
  18323  18339     1
  18323  18344     1
  18323  18332     1
  18324  18330     1
  18324  18338     1
  18324  18341     1
  18324  18342     1
  18325  18327     1
  18325  18336     1
  18325  18326     1
  18325  18343     1
  18325  18341     1
  18325  18342     1
  18325  18329     1
  18326  18328     1
  18326  18335     1
  18326  18331     1
  18326  18339     1
  18326  18337     1
  18326  18345     1
  18327  18332     1
  18327  18340     1
  18327  18339     1
  18328  18338     1
  18329  18340     1
  18329  18331     1
  18330  18333     1
  18330  18345     1
  18330  18332     1
  18330  18340     1
  18330  18335     1
  18330  18331     1
  18331  18334     1
  18331  18338     1
  18331  18336     1
  18332  18334     1
  18341  18344     1
  18341  18345     1
  18342  18344     1
  18342  18345     1
  18346  18354     1
  18346  18362     1
  18346  18367     1
  18346  18355     1
  18347  18364     1
  18347  18365     1
  18347  18353     1
  18347  18361     1
  18348  18350     1
  18348  18359     1
  18348  18349     1
  18348  18366     1
  18348  18364     1
  18348  18365     1
  18348  18352     1
  18349  18360     1
  18349  18368     1
  18349  18351     1
  18349  18358     1
  18349  18354     1
  18349  18362     1
  18350  18362     1
  18350  18355     1
  18350  18363     1
  18351  18361     1
  18352  18354     1
  18352  18363     1
  18353  18358     1
  18353  18354     1
  18353  18356     1
  18353  18368     1
  18353  18355     1
  18353  18363     1
  18354  18359     1
  18354  18357     1
  18354  18361     1
  18355  18357     1
  18364  18368     1
  18364  18367     1
  18365  18368     1
  18365  18367     1
  18369  18377     1
  18369  18385     1
  18369  18390     1
  18369  18378     1
  18370  18376     1
  18370  18384     1
  18370  18387     1
  18370  18388     1
  18371  18373     1
  18371  18382     1
  18371  18372     1
  18371  18389     1
  18371  18387     1
  18371  18388     1
  18371  18375     1
  18372  18374     1
  18372  18381     1
  18372  18377     1
  18372  18385     1
  18372  18383     1
  18372  18391     1
  18373  18378     1
  18373  18386     1
  18373  18385     1
  18374  18384     1
  18375  18386     1
  18375  18377     1
  18376  18379     1
  18376  18391     1
  18376  18378     1
  18376  18386     1
  18376  18381     1
  18376  18377     1
  18377  18380     1
  18377  18384     1
  18377  18382     1
  18378  18380     1
  18387  18390     1
  18387  18391     1
  18388  18390     1
  18388  18391     1
  18392  18400     1
  18392  18408     1
  18392  18413     1
  18392  18401     1
  18393  18410     1
  18393  18411     1
  18393  18399     1
  18393  18407     1
  18394  18396     1
  18394  18405     1
  18394  18395     1
  18394  18412     1
  18394  18410     1
  18394  18411     1
  18394  18398     1
  18395  18406     1
  18395  18414     1
  18395  18397     1
  18395  18404     1
  18395  18400     1
  18395  18408     1
  18396  18408     1
  18396  18401     1
  18396  18409     1
  18397  18407     1
  18398  18400     1
  18398  18409     1
  18399  18404     1
  18399  18400     1
  18399  18402     1
  18399  18414     1
  18399  18401     1
  18399  18409     1
  18400  18405     1
  18400  18403     1
  18400  18407     1
  18401  18403     1
  18410  18414     1
  18410  18413     1
  18411  18414     1
  18411  18413     1
  18415  18423     1
  18415  18431     1
  18415  18436     1
  18415  18424     1
  18416  18422     1
  18416  18430     1
  18416  18433     1
  18416  18434     1
  18417  18419     1
  18417  18428     1
  18417  18418     1
  18417  18435     1
  18417  18433     1
  18417  18434     1
  18417  18421     1
  18418  18420     1
  18418  18427     1
  18418  18423     1
  18418  18431     1
  18418  18429     1
  18418  18437     1
  18419  18424     1
  18419  18432     1
  18419  18431     1
  18420  18430     1
  18421  18432     1
  18421  18423     1
  18422  18425     1
  18422  18437     1
  18422  18424     1
  18422  18432     1
  18422  18427     1
  18422  18423     1
  18423  18426     1
  18423  18430     1
  18423  18428     1
  18424  18426     1
  18433  18436     1
  18433  18437     1
  18434  18436     1
  18434  18437     1
  18438  18446     1
  18438  18454     1
  18438  18459     1
  18438  18447     1
  18439  18456     1
  18439  18457     1
  18439  18445     1
  18439  18453     1
  18440  18442     1
  18440  18451     1
  18440  18441     1
  18440  18458     1
  18440  18456     1
  18440  18457     1
  18440  18444     1
  18441  18452     1
  18441  18460     1
  18441  18443     1
  18441  18450     1
  18441  18446     1
  18441  18454     1
  18442  18454     1
  18442  18447     1
  18442  18455     1
  18443  18453     1
  18444  18446     1
  18444  18455     1
  18445  18450     1
  18445  18446     1
  18445  18448     1
  18445  18460     1
  18445  18447     1
  18445  18455     1
  18446  18451     1
  18446  18449     1
  18446  18453     1
  18447  18449     1
  18456  18460     1
  18456  18459     1
  18457  18460     1
  18457  18459     1
  18461  18469     1
  18461  18477     1
  18461  18482     1
  18461  18470     1
  18462  18468     1
  18462  18476     1
  18462  18479     1
  18462  18480     1
  18463  18465     1
  18463  18474     1
  18463  18464     1
  18463  18481     1
  18463  18479     1
  18463  18480     1
  18463  18467     1
  18464  18466     1
  18464  18473     1
  18464  18469     1
  18464  18477     1
  18464  18475     1
  18464  18483     1
  18465  18470     1
  18465  18478     1
  18465  18477     1
  18466  18476     1
  18467  18478     1
  18467  18469     1
  18468  18471     1
  18468  18483     1
  18468  18470     1
  18468  18478     1
  18468  18473     1
  18468  18469     1
  18469  18472     1
  18469  18476     1
  18469  18474     1
  18470  18472     1
  18479  18482     1
  18479  18483     1
  18480  18482     1
  18480  18483     1
  18484  18492     1
  18484  18500     1
  18484  18505     1
  18484  18493     1
  18485  18502     1
  18485  18503     1
  18485  18491     1
  18485  18499     1
  18486  18488     1
  18486  18497     1
  18486  18487     1
  18486  18504     1
  18486  18502     1
  18486  18503     1
  18486  18490     1
  18487  18498     1
  18487  18506     1
  18487  18489     1
  18487  18496     1
  18487  18492     1
  18487  18500     1
  18488  18500     1
  18488  18493     1
  18488  18501     1
  18489  18499     1
  18490  18492     1
  18490  18501     1
  18491  18496     1
  18491  18492     1
  18491  18494     1
  18491  18506     1
  18491  18493     1
  18491  18501     1
  18492  18497     1
  18492  18495     1
  18492  18499     1
  18493  18495     1
  18502  18506     1
  18502  18505     1
  18503  18506     1
  18503  18505     1
  18507  18515     1
  18507  18523     1
  18507  18528     1
  18507  18516     1
  18508  18514     1
  18508  18522     1
  18508  18525     1
  18508  18526     1
  18509  18511     1
  18509  18520     1
  18509  18510     1
  18509  18527     1
  18509  18525     1
  18509  18526     1
  18509  18513     1
  18510  18512     1
  18510  18519     1
  18510  18515     1
  18510  18523     1
  18510  18521     1
  18510  18529     1
  18511  18516     1
  18511  18524     1
  18511  18523     1
  18512  18522     1
  18513  18524     1
  18513  18515     1
  18514  18517     1
  18514  18529     1
  18514  18516     1
  18514  18524     1
  18514  18519     1
  18514  18515     1
  18515  18518     1
  18515  18522     1
  18515  18520     1
  18516  18518     1
  18525  18528     1
  18525  18529     1
  18526  18528     1
  18526  18529     1
  18530  18538     1
  18530  18546     1
  18530  18551     1
  18530  18539     1
  18531  18548     1
  18531  18549     1
  18531  18537     1
  18531  18545     1
  18532  18534     1
  18532  18543     1
  18532  18533     1
  18532  18550     1
  18532  18548     1
  18532  18549     1
  18532  18536     1
  18533  18544     1
  18533  18552     1
  18533  18535     1
  18533  18542     1
  18533  18538     1
  18533  18546     1
  18534  18546     1
  18534  18539     1
  18534  18547     1
  18535  18545     1
  18536  18538     1
  18536  18547     1
  18537  18542     1
  18537  18538     1
  18537  18540     1
  18537  18552     1
  18537  18539     1
  18537  18547     1
  18538  18543     1
  18538  18541     1
  18538  18545     1
  18539  18541     1
  18548  18552     1
  18548  18551     1
  18549  18552     1
  18549  18551     1
  18553  18561     1
  18553  18569     1
  18553  18574     1
  18553  18562     1
  18554  18560     1
  18554  18568     1
  18554  18571     1
  18554  18572     1
  18555  18557     1
  18555  18566     1
  18555  18556     1
  18555  18573     1
  18555  18571     1
  18555  18572     1
  18555  18559     1
  18556  18558     1
  18556  18565     1
  18556  18561     1
  18556  18569     1
  18556  18567     1
  18556  18575     1
  18557  18562     1
  18557  18570     1
  18557  18569     1
  18558  18568     1
  18559  18570     1
  18559  18561     1
  18560  18563     1
  18560  18575     1
  18560  18562     1
  18560  18570     1
  18560  18565     1
  18560  18561     1
  18561  18564     1
  18561  18568     1
  18561  18566     1
  18562  18564     1
  18571  18574     1
  18571  18575     1
  18572  18574     1
  18572  18575     1
  18576  18584     1
  18576  18592     1
  18576  18597     1
  18576  18585     1
  18577  18594     1
  18577  18595     1
  18577  18583     1
  18577  18591     1
  18578  18580     1
  18578  18589     1
  18578  18579     1
  18578  18596     1
  18578  18594     1
  18578  18595     1
  18578  18582     1
  18579  18590     1
  18579  18598     1
  18579  18581     1
  18579  18588     1
  18579  18584     1
  18579  18592     1
  18580  18592     1
  18580  18585     1
  18580  18593     1
  18581  18591     1
  18582  18584     1
  18582  18593     1
  18583  18588     1
  18583  18584     1
  18583  18586     1
  18583  18598     1
  18583  18585     1
  18583  18593     1
  18584  18589     1
  18584  18587     1
  18584  18591     1
  18585  18587     1
  18594  18598     1
  18594  18597     1
  18595  18598     1
  18595  18597     1
  18599  18607     1
  18599  18615     1
  18599  18620     1
  18599  18608     1
  18600  18606     1
  18600  18614     1
  18600  18617     1
  18600  18618     1
  18601  18603     1
  18601  18612     1
  18601  18602     1
  18601  18619     1
  18601  18617     1
  18601  18618     1
  18601  18605     1
  18602  18604     1
  18602  18611     1
  18602  18607     1
  18602  18615     1
  18602  18613     1
  18602  18621     1
  18603  18608     1
  18603  18616     1
  18603  18615     1
  18604  18614     1
  18605  18616     1
  18605  18607     1
  18606  18609     1
  18606  18621     1
  18606  18608     1
  18606  18616     1
  18606  18611     1
  18606  18607     1
  18607  18610     1
  18607  18614     1
  18607  18612     1
  18608  18610     1
  18617  18620     1
  18617  18621     1
  18618  18620     1
  18618  18621     1
  18622  18630     1
  18622  18638     1
  18622  18643     1
  18622  18631     1
  18623  18640     1
  18623  18641     1
  18623  18629     1
  18623  18637     1
  18624  18626     1
  18624  18635     1
  18624  18625     1
  18624  18642     1
  18624  18640     1
  18624  18641     1
  18624  18628     1
  18625  18636     1
  18625  18644     1
  18625  18627     1
  18625  18634     1
  18625  18630     1
  18625  18638     1
  18626  18638     1
  18626  18631     1
  18626  18639     1
  18627  18637     1
  18628  18630     1
  18628  18639     1
  18629  18634     1
  18629  18630     1
  18629  18632     1
  18629  18644     1
  18629  18631     1
  18629  18639     1
  18630  18635     1
  18630  18633     1
  18630  18637     1
  18631  18633     1
  18640  18644     1
  18640  18643     1
  18641  18644     1
  18641  18643     1
  18645  18653     1
  18645  18661     1
  18645  18666     1
  18645  18654     1
  18646  18652     1
  18646  18660     1
  18646  18663     1
  18646  18664     1
  18647  18649     1
  18647  18658     1
  18647  18648     1
  18647  18665     1
  18647  18663     1
  18647  18664     1
  18647  18651     1
  18648  18650     1
  18648  18657     1
  18648  18653     1
  18648  18661     1
  18648  18659     1
  18648  18667     1
  18649  18654     1
  18649  18662     1
  18649  18661     1
  18650  18660     1
  18651  18662     1
  18651  18653     1
  18652  18655     1
  18652  18667     1
  18652  18654     1
  18652  18662     1
  18652  18657     1
  18652  18653     1
  18653  18656     1
  18653  18660     1
  18653  18658     1
  18654  18656     1
  18663  18666     1
  18663  18667     1
  18664  18666     1
  18664  18667     1
  18668  18676     1
  18668  18684     1
  18668  18689     1
  18668  18677     1
  18669  18686     1
  18669  18687     1
  18669  18675     1
  18669  18683     1
  18670  18672     1
  18670  18681     1
  18670  18671     1
  18670  18688     1
  18670  18686     1
  18670  18687     1
  18670  18674     1
  18671  18682     1
  18671  18690     1
  18671  18673     1
  18671  18680     1
  18671  18676     1
  18671  18684     1
  18672  18684     1
  18672  18677     1
  18672  18685     1
  18673  18683     1
  18674  18676     1
  18674  18685     1
  18675  18680     1
  18675  18676     1
  18675  18678     1
  18675  18690     1
  18675  18677     1
  18675  18685     1
  18676  18681     1
  18676  18679     1
  18676  18683     1
  18677  18679     1
  18686  18690     1
  18686  18689     1
  18687  18690     1
  18687  18689     1
  18691  18699     1
  18691  18707     1
  18691  18712     1
  18691  18700     1
  18692  18698     1
  18692  18706     1
  18692  18709     1
  18692  18710     1
  18693  18695     1
  18693  18704     1
  18693  18694     1
  18693  18711     1
  18693  18709     1
  18693  18710     1
  18693  18697     1
  18694  18696     1
  18694  18703     1
  18694  18699     1
  18694  18707     1
  18694  18705     1
  18694  18713     1
  18695  18700     1
  18695  18708     1
  18695  18707     1
  18696  18706     1
  18697  18708     1
  18697  18699     1
  18698  18701     1
  18698  18713     1
  18698  18700     1
  18698  18708     1
  18698  18703     1
  18698  18699     1
  18699  18702     1
  18699  18706     1
  18699  18704     1
  18700  18702     1
  18709  18712     1
  18709  18713     1
  18710  18712     1
  18710  18713     1
  18714  18722     1
  18714  18730     1
  18714  18735     1
  18714  18723     1
  18715  18732     1
  18715  18733     1
  18715  18721     1
  18715  18729     1
  18716  18718     1
  18716  18727     1
  18716  18717     1
  18716  18734     1
  18716  18732     1
  18716  18733     1
  18716  18720     1
  18717  18728     1
  18717  18736     1
  18717  18719     1
  18717  18726     1
  18717  18722     1
  18717  18730     1
  18718  18730     1
  18718  18723     1
  18718  18731     1
  18719  18729     1
  18720  18722     1
  18720  18731     1
  18721  18726     1
  18721  18722     1
  18721  18724     1
  18721  18736     1
  18721  18723     1
  18721  18731     1
  18722  18727     1
  18722  18725     1
  18722  18729     1
  18723  18725     1
  18732  18736     1
  18732  18735     1
  18733  18736     1
  18733  18735     1
  18737  18745     1
  18737  18753     1
  18737  18758     1
  18737  18746     1
  18738  18744     1
  18738  18752     1
  18738  18755     1
  18738  18756     1
  18739  18741     1
  18739  18750     1
  18739  18740     1
  18739  18757     1
  18739  18755     1
  18739  18756     1
  18739  18743     1
  18740  18742     1
  18740  18749     1
  18740  18745     1
  18740  18753     1
  18740  18751     1
  18740  18759     1
  18741  18746     1
  18741  18754     1
  18741  18753     1
  18742  18752     1
  18743  18754     1
  18743  18745     1
  18744  18747     1
  18744  18759     1
  18744  18746     1
  18744  18754     1
  18744  18749     1
  18744  18745     1
  18745  18748     1
  18745  18752     1
  18745  18750     1
  18746  18748     1
  18755  18758     1
  18755  18759     1
  18756  18758     1
  18756  18759     1
  18760  18768     1
  18760  18776     1
  18760  18781     1
  18760  18769     1
  18761  18778     1
  18761  18779     1
  18761  18767     1
  18761  18775     1
  18762  18764     1
  18762  18773     1
  18762  18763     1
  18762  18780     1
  18762  18778     1
  18762  18779     1
  18762  18766     1
  18763  18774     1
  18763  18782     1
  18763  18765     1
  18763  18772     1
  18763  18768     1
  18763  18776     1
  18764  18776     1
  18764  18769     1
  18764  18777     1
  18765  18775     1
  18766  18768     1
  18766  18777     1
  18767  18772     1
  18767  18768     1
  18767  18770     1
  18767  18782     1
  18767  18769     1
  18767  18777     1
  18768  18773     1
  18768  18771     1
  18768  18775     1
  18769  18771     1
  18778  18782     1
  18778  18781     1
  18779  18782     1
  18779  18781     1
  18783  18791     1
  18783  18799     1
  18783  18804     1
  18783  18792     1
  18784  18790     1
  18784  18798     1
  18784  18801     1
  18784  18802     1
  18785  18787     1
  18785  18796     1
  18785  18786     1
  18785  18803     1
  18785  18801     1
  18785  18802     1
  18785  18789     1
  18786  18788     1
  18786  18795     1
  18786  18791     1
  18786  18799     1
  18786  18797     1
  18786  18805     1
  18787  18792     1
  18787  18800     1
  18787  18799     1
  18788  18798     1
  18789  18800     1
  18789  18791     1
  18790  18793     1
  18790  18805     1
  18790  18792     1
  18790  18800     1
  18790  18795     1
  18790  18791     1
  18791  18794     1
  18791  18798     1
  18791  18796     1
  18792  18794     1
  18801  18804     1
  18801  18805     1
  18802  18804     1
  18802  18805     1
  18806  18814     1
  18806  18822     1
  18806  18827     1
  18806  18815     1
  18807  18824     1
  18807  18825     1
  18807  18813     1
  18807  18821     1
  18808  18810     1
  18808  18819     1
  18808  18809     1
  18808  18826     1
  18808  18824     1
  18808  18825     1
  18808  18812     1
  18809  18820     1
  18809  18828     1
  18809  18811     1
  18809  18818     1
  18809  18814     1
  18809  18822     1
  18810  18822     1
  18810  18815     1
  18810  18823     1
  18811  18821     1
  18812  18814     1
  18812  18823     1
  18813  18818     1
  18813  18814     1
  18813  18816     1
  18813  18828     1
  18813  18815     1
  18813  18823     1
  18814  18819     1
  18814  18817     1
  18814  18821     1
  18815  18817     1
  18824  18828     1
  18824  18827     1
  18825  18828     1
  18825  18827     1
  18829  18837     1
  18829  18845     1
  18829  18850     1
  18829  18838     1
  18830  18836     1
  18830  18844     1
  18830  18847     1
  18830  18848     1
  18831  18833     1
  18831  18842     1
  18831  18832     1
  18831  18849     1
  18831  18847     1
  18831  18848     1
  18831  18835     1
  18832  18834     1
  18832  18841     1
  18832  18837     1
  18832  18845     1
  18832  18843     1
  18832  18851     1
  18833  18838     1
  18833  18846     1
  18833  18845     1
  18834  18844     1
  18835  18846     1
  18835  18837     1
  18836  18839     1
  18836  18851     1
  18836  18838     1
  18836  18846     1
  18836  18841     1
  18836  18837     1
  18837  18840     1
  18837  18844     1
  18837  18842     1
  18838  18840     1
  18847  18850     1
  18847  18851     1
  18848  18850     1
  18848  18851     1
  18852  18860     1
  18852  18868     1
  18852  18873     1
  18852  18861     1
  18853  18870     1
  18853  18871     1
  18853  18859     1
  18853  18867     1
  18854  18856     1
  18854  18865     1
  18854  18855     1
  18854  18872     1
  18854  18870     1
  18854  18871     1
  18854  18858     1
  18855  18866     1
  18855  18874     1
  18855  18857     1
  18855  18864     1
  18855  18860     1
  18855  18868     1
  18856  18868     1
  18856  18861     1
  18856  18869     1
  18857  18867     1
  18858  18860     1
  18858  18869     1
  18859  18864     1
  18859  18860     1
  18859  18862     1
  18859  18874     1
  18859  18861     1
  18859  18869     1
  18860  18865     1
  18860  18863     1
  18860  18867     1
  18861  18863     1
  18870  18874     1
  18870  18873     1
  18871  18874     1
  18871  18873     1
  18875  18883     1
  18875  18891     1
  18875  18896     1
  18875  18884     1
  18876  18882     1
  18876  18890     1
  18876  18893     1
  18876  18894     1
  18877  18879     1
  18877  18888     1
  18877  18878     1
  18877  18895     1
  18877  18893     1
  18877  18894     1
  18877  18881     1
  18878  18880     1
  18878  18887     1
  18878  18883     1
  18878  18891     1
  18878  18889     1
  18878  18897     1
  18879  18884     1
  18879  18892     1
  18879  18891     1
  18880  18890     1
  18881  18892     1
  18881  18883     1
  18882  18885     1
  18882  18897     1
  18882  18884     1
  18882  18892     1
  18882  18887     1
  18882  18883     1
  18883  18886     1
  18883  18890     1
  18883  18888     1
  18884  18886     1
  18893  18896     1
  18893  18897     1
  18894  18896     1
  18894  18897     1
  18898  18906     1
  18898  18914     1
  18898  18919     1
  18898  18907     1
  18899  18916     1
  18899  18917     1
  18899  18905     1
  18899  18913     1
  18900  18902     1
  18900  18911     1
  18900  18901     1
  18900  18918     1
  18900  18916     1
  18900  18917     1
  18900  18904     1
  18901  18912     1
  18901  18920     1
  18901  18903     1
  18901  18910     1
  18901  18906     1
  18901  18914     1
  18902  18914     1
  18902  18907     1
  18902  18915     1
  18903  18913     1
  18904  18906     1
  18904  18915     1
  18905  18910     1
  18905  18906     1
  18905  18908     1
  18905  18920     1
  18905  18907     1
  18905  18915     1
  18906  18911     1
  18906  18909     1
  18906  18913     1
  18907  18909     1
  18916  18920     1
  18916  18919     1
  18917  18920     1
  18917  18919     1
  18921  18929     1
  18921  18937     1
  18921  18942     1
  18921  18930     1
  18922  18928     1
  18922  18936     1
  18922  18939     1
  18922  18940     1
  18923  18925     1
  18923  18934     1
  18923  18924     1
  18923  18941     1
  18923  18939     1
  18923  18940     1
  18923  18927     1
  18924  18926     1
  18924  18933     1
  18924  18929     1
  18924  18937     1
  18924  18935     1
  18924  18943     1
  18925  18930     1
  18925  18938     1
  18925  18937     1
  18926  18936     1
  18927  18938     1
  18927  18929     1
  18928  18931     1
  18928  18943     1
  18928  18930     1
  18928  18938     1
  18928  18933     1
  18928  18929     1
  18929  18932     1
  18929  18936     1
  18929  18934     1
  18930  18932     1
  18939  18942     1
  18939  18943     1
  18940  18942     1
  18940  18943     1
  18944  18952     1
  18944  18960     1
  18944  18965     1
  18944  18953     1
  18945  18962     1
  18945  18963     1
  18945  18951     1
  18945  18959     1
  18946  18948     1
  18946  18957     1
  18946  18947     1
  18946  18964     1
  18946  18962     1
  18946  18963     1
  18946  18950     1
  18947  18958     1
  18947  18966     1
  18947  18949     1
  18947  18956     1
  18947  18952     1
  18947  18960     1
  18948  18960     1
  18948  18953     1
  18948  18961     1
  18949  18959     1
  18950  18952     1
  18950  18961     1
  18951  18956     1
  18951  18952     1
  18951  18954     1
  18951  18966     1
  18951  18953     1
  18951  18961     1
  18952  18957     1
  18952  18955     1
  18952  18959     1
  18953  18955     1
  18962  18966     1
  18962  18965     1
  18963  18966     1
  18963  18965     1
  18967  18975     1
  18967  18983     1
  18967  18988     1
  18967  18976     1
  18968  18974     1
  18968  18982     1
  18968  18985     1
  18968  18986     1
  18969  18971     1
  18969  18980     1
  18969  18970     1
  18969  18987     1
  18969  18985     1
  18969  18986     1
  18969  18973     1
  18970  18972     1
  18970  18979     1
  18970  18975     1
  18970  18983     1
  18970  18981     1
  18970  18989     1
  18971  18976     1
  18971  18984     1
  18971  18983     1
  18972  18982     1
  18973  18984     1
  18973  18975     1
  18974  18977     1
  18974  18989     1
  18974  18976     1
  18974  18984     1
  18974  18979     1
  18974  18975     1
  18975  18978     1
  18975  18982     1
  18975  18980     1
  18976  18978     1
  18985  18988     1
  18985  18989     1
  18986  18988     1
  18986  18989     1
  18990  18998     1
  18990  19006     1
  18990  19011     1
  18990  18999     1
  18991  19008     1
  18991  19009     1
  18991  18997     1
  18991  19005     1
  18992  18994     1
  18992  19003     1
  18992  18993     1
  18992  19010     1
  18992  19008     1
  18992  19009     1
  18992  18996     1
  18993  19004     1
  18993  19012     1
  18993  18995     1
  18993  19002     1
  18993  18998     1
  18993  19006     1
  18994  19006     1
  18994  18999     1
  18994  19007     1
  18995  19005     1
  18996  18998     1
  18996  19007     1
  18997  19002     1
  18997  18998     1
  18997  19000     1
  18997  19012     1
  18997  18999     1
  18997  19007     1
  18998  19003     1
  18998  19001     1
  18998  19005     1
  18999  19001     1
  19008  19012     1
  19008  19011     1
  19009  19012     1
  19009  19011     1
  19013  19021     1
  19013  19029     1
  19013  19034     1
  19013  19022     1
  19014  19020     1
  19014  19028     1
  19014  19031     1
  19014  19032     1
  19015  19017     1
  19015  19026     1
  19015  19016     1
  19015  19033     1
  19015  19031     1
  19015  19032     1
  19015  19019     1
  19016  19018     1
  19016  19025     1
  19016  19021     1
  19016  19029     1
  19016  19027     1
  19016  19035     1
  19017  19022     1
  19017  19030     1
  19017  19029     1
  19018  19028     1
  19019  19030     1
  19019  19021     1
  19020  19023     1
  19020  19035     1
  19020  19022     1
  19020  19030     1
  19020  19025     1
  19020  19021     1
  19021  19024     1
  19021  19028     1
  19021  19026     1
  19022  19024     1
  19031  19034     1
  19031  19035     1
  19032  19034     1
  19032  19035     1
  19036  19044     1
  19036  19052     1
  19036  19057     1
  19036  19045     1
  19037  19054     1
  19037  19055     1
  19037  19043     1
  19037  19051     1
  19038  19040     1
  19038  19049     1
  19038  19039     1
  19038  19056     1
  19038  19054     1
  19038  19055     1
  19038  19042     1
  19039  19050     1
  19039  19058     1
  19039  19041     1
  19039  19048     1
  19039  19044     1
  19039  19052     1
  19040  19052     1
  19040  19045     1
  19040  19053     1
  19041  19051     1
  19042  19044     1
  19042  19053     1
  19043  19048     1
  19043  19044     1
  19043  19046     1
  19043  19058     1
  19043  19045     1
  19043  19053     1
  19044  19049     1
  19044  19047     1
  19044  19051     1
  19045  19047     1
  19054  19058     1
  19054  19057     1
  19055  19058     1
  19055  19057     1
  19059  19067     1
  19059  19075     1
  19059  19080     1
  19059  19068     1
  19060  19066     1
  19060  19074     1
  19060  19077     1
  19060  19078     1
  19061  19063     1
  19061  19072     1
  19061  19062     1
  19061  19079     1
  19061  19077     1
  19061  19078     1
  19061  19065     1
  19062  19064     1
  19062  19071     1
  19062  19067     1
  19062  19075     1
  19062  19073     1
  19062  19081     1
  19063  19068     1
  19063  19076     1
  19063  19075     1
  19064  19074     1
  19065  19076     1
  19065  19067     1
  19066  19069     1
  19066  19081     1
  19066  19068     1
  19066  19076     1
  19066  19071     1
  19066  19067     1
  19067  19070     1
  19067  19074     1
  19067  19072     1
  19068  19070     1
  19077  19080     1
  19077  19081     1
  19078  19080     1
  19078  19081     1
  19082  19090     1
  19082  19098     1
  19082  19103     1
  19082  19091     1
  19083  19100     1
  19083  19101     1
  19083  19089     1
  19083  19097     1
  19084  19086     1
  19084  19095     1
  19084  19085     1
  19084  19102     1
  19084  19100     1
  19084  19101     1
  19084  19088     1
  19085  19096     1
  19085  19104     1
  19085  19087     1
  19085  19094     1
  19085  19090     1
  19085  19098     1
  19086  19098     1
  19086  19091     1
  19086  19099     1
  19087  19097     1
  19088  19090     1
  19088  19099     1
  19089  19094     1
  19089  19090     1
  19089  19092     1
  19089  19104     1
  19089  19091     1
  19089  19099     1
  19090  19095     1
  19090  19093     1
  19090  19097     1
  19091  19093     1
  19100  19104     1
  19100  19103     1
  19101  19104     1
  19101  19103     1
  19105  19113     1
  19105  19121     1
  19105  19126     1
  19105  19114     1
  19106  19112     1
  19106  19120     1
  19106  19123     1
  19106  19124     1
  19107  19109     1
  19107  19118     1
  19107  19108     1
  19107  19125     1
  19107  19123     1
  19107  19124     1
  19107  19111     1
  19108  19110     1
  19108  19117     1
  19108  19113     1
  19108  19121     1
  19108  19119     1
  19108  19127     1
  19109  19114     1
  19109  19122     1
  19109  19121     1
  19110  19120     1
  19111  19122     1
  19111  19113     1
  19112  19115     1
  19112  19127     1
  19112  19114     1
  19112  19122     1
  19112  19117     1
  19112  19113     1
  19113  19116     1
  19113  19120     1
  19113  19118     1
  19114  19116     1
  19123  19126     1
  19123  19127     1
  19124  19126     1
  19124  19127     1
  19128  19136     1
  19128  19144     1
  19128  19149     1
  19128  19137     1
  19129  19146     1
  19129  19147     1
  19129  19135     1
  19129  19143     1
  19130  19132     1
  19130  19141     1
  19130  19131     1
  19130  19148     1
  19130  19146     1
  19130  19147     1
  19130  19134     1
  19131  19142     1
  19131  19150     1
  19131  19133     1
  19131  19140     1
  19131  19136     1
  19131  19144     1
  19132  19144     1
  19132  19137     1
  19132  19145     1
  19133  19143     1
  19134  19136     1
  19134  19145     1
  19135  19140     1
  19135  19136     1
  19135  19138     1
  19135  19150     1
  19135  19137     1
  19135  19145     1
  19136  19141     1
  19136  19139     1
  19136  19143     1
  19137  19139     1
  19146  19150     1
  19146  19149     1
  19147  19150     1
  19147  19149     1
  19151  19159     1
  19151  19167     1
  19151  19172     1
  19151  19160     1
  19152  19158     1
  19152  19166     1
  19152  19169     1
  19152  19170     1
  19153  19155     1
  19153  19164     1
  19153  19154     1
  19153  19171     1
  19153  19169     1
  19153  19170     1
  19153  19157     1
  19154  19156     1
  19154  19163     1
  19154  19159     1
  19154  19167     1
  19154  19165     1
  19154  19173     1
  19155  19160     1
  19155  19168     1
  19155  19167     1
  19156  19166     1
  19157  19168     1
  19157  19159     1
  19158  19161     1
  19158  19173     1
  19158  19160     1
  19158  19168     1
  19158  19163     1
  19158  19159     1
  19159  19162     1
  19159  19166     1
  19159  19164     1
  19160  19162     1
  19169  19172     1
  19169  19173     1
  19170  19172     1
  19170  19173     1
  19174  19182     1
  19174  19190     1
  19174  19195     1
  19174  19183     1
  19175  19192     1
  19175  19193     1
  19175  19181     1
  19175  19189     1
  19176  19178     1
  19176  19187     1
  19176  19177     1
  19176  19194     1
  19176  19192     1
  19176  19193     1
  19176  19180     1
  19177  19188     1
  19177  19196     1
  19177  19179     1
  19177  19186     1
  19177  19182     1
  19177  19190     1
  19178  19190     1
  19178  19183     1
  19178  19191     1
  19179  19189     1
  19180  19182     1
  19180  19191     1
  19181  19186     1
  19181  19182     1
  19181  19184     1
  19181  19196     1
  19181  19183     1
  19181  19191     1
  19182  19187     1
  19182  19185     1
  19182  19189     1
  19183  19185     1
  19192  19196     1
  19192  19195     1
  19193  19196     1
  19193  19195     1
  19197  19205     1
  19197  19213     1
  19197  19218     1
  19197  19206     1
  19198  19204     1
  19198  19212     1
  19198  19215     1
  19198  19216     1
  19199  19201     1
  19199  19210     1
  19199  19200     1
  19199  19217     1
  19199  19215     1
  19199  19216     1
  19199  19203     1
  19200  19202     1
  19200  19209     1
  19200  19205     1
  19200  19213     1
  19200  19211     1
  19200  19219     1
  19201  19206     1
  19201  19214     1
  19201  19213     1
  19202  19212     1
  19203  19214     1
  19203  19205     1
  19204  19207     1
  19204  19219     1
  19204  19206     1
  19204  19214     1
  19204  19209     1
  19204  19205     1
  19205  19208     1
  19205  19212     1
  19205  19210     1
  19206  19208     1
  19215  19218     1
  19215  19219     1
  19216  19218     1
  19216  19219     1
  19220  19228     1
  19220  19236     1
  19220  19241     1
  19220  19229     1
  19221  19238     1
  19221  19239     1
  19221  19227     1
  19221  19235     1
  19222  19224     1
  19222  19233     1
  19222  19223     1
  19222  19240     1
  19222  19238     1
  19222  19239     1
  19222  19226     1
  19223  19234     1
  19223  19242     1
  19223  19225     1
  19223  19232     1
  19223  19228     1
  19223  19236     1
  19224  19236     1
  19224  19229     1
  19224  19237     1
  19225  19235     1
  19226  19228     1
  19226  19237     1
  19227  19232     1
  19227  19228     1
  19227  19230     1
  19227  19242     1
  19227  19229     1
  19227  19237     1
  19228  19233     1
  19228  19231     1
  19228  19235     1
  19229  19231     1
  19238  19242     1
  19238  19241     1
  19239  19242     1
  19239  19241     1
  19243  19251     1
  19243  19259     1
  19243  19264     1
  19243  19252     1
  19244  19250     1
  19244  19258     1
  19244  19261     1
  19244  19262     1
  19245  19247     1
  19245  19256     1
  19245  19246     1
  19245  19263     1
  19245  19261     1
  19245  19262     1
  19245  19249     1
  19246  19248     1
  19246  19255     1
  19246  19251     1
  19246  19259     1
  19246  19257     1
  19246  19265     1
  19247  19252     1
  19247  19260     1
  19247  19259     1
  19248  19258     1
  19249  19260     1
  19249  19251     1
  19250  19253     1
  19250  19265     1
  19250  19252     1
  19250  19260     1
  19250  19255     1
  19250  19251     1
  19251  19254     1
  19251  19258     1
  19251  19256     1
  19252  19254     1
  19261  19264     1
  19261  19265     1
  19262  19264     1
  19262  19265     1
  19266  19274     1
  19266  19282     1
  19266  19287     1
  19266  19275     1
  19267  19284     1
  19267  19285     1
  19267  19273     1
  19267  19281     1
  19268  19270     1
  19268  19279     1
  19268  19269     1
  19268  19286     1
  19268  19284     1
  19268  19285     1
  19268  19272     1
  19269  19280     1
  19269  19288     1
  19269  19271     1
  19269  19278     1
  19269  19274     1
  19269  19282     1
  19270  19282     1
  19270  19275     1
  19270  19283     1
  19271  19281     1
  19272  19274     1
  19272  19283     1
  19273  19278     1
  19273  19274     1
  19273  19276     1
  19273  19288     1
  19273  19275     1
  19273  19283     1
  19274  19279     1
  19274  19277     1
  19274  19281     1
  19275  19277     1
  19284  19288     1
  19284  19287     1
  19285  19288     1
  19285  19287     1
  19289  19297     1
  19289  19305     1
  19289  19310     1
  19289  19298     1
  19290  19296     1
  19290  19304     1
  19290  19307     1
  19290  19308     1
  19291  19293     1
  19291  19302     1
  19291  19292     1
  19291  19309     1
  19291  19307     1
  19291  19308     1
  19291  19295     1
  19292  19294     1
  19292  19301     1
  19292  19297     1
  19292  19305     1
  19292  19303     1
  19292  19311     1
  19293  19298     1
  19293  19306     1
  19293  19305     1
  19294  19304     1
  19295  19306     1
  19295  19297     1
  19296  19299     1
  19296  19311     1
  19296  19298     1
  19296  19306     1
  19296  19301     1
  19296  19297     1
  19297  19300     1
  19297  19304     1
  19297  19302     1
  19298  19300     1
  19307  19310     1
  19307  19311     1
  19308  19310     1
  19308  19311     1
  19312  19320     1
  19312  19328     1
  19312  19333     1
  19312  19321     1
  19313  19330     1
  19313  19331     1
  19313  19319     1
  19313  19327     1
  19314  19316     1
  19314  19325     1
  19314  19315     1
  19314  19332     1
  19314  19330     1
  19314  19331     1
  19314  19318     1
  19315  19326     1
  19315  19334     1
  19315  19317     1
  19315  19324     1
  19315  19320     1
  19315  19328     1
  19316  19328     1
  19316  19321     1
  19316  19329     1
  19317  19327     1
  19318  19320     1
  19318  19329     1
  19319  19324     1
  19319  19320     1
  19319  19322     1
  19319  19334     1
  19319  19321     1
  19319  19329     1
  19320  19325     1
  19320  19323     1
  19320  19327     1
  19321  19323     1
  19330  19334     1
  19330  19333     1
  19331  19334     1
  19331  19333     1
  19335  19343     1
  19335  19351     1
  19335  19356     1
  19335  19344     1
  19336  19342     1
  19336  19350     1
  19336  19353     1
  19336  19354     1
  19337  19339     1
  19337  19348     1
  19337  19338     1
  19337  19355     1
  19337  19353     1
  19337  19354     1
  19337  19341     1
  19338  19340     1
  19338  19347     1
  19338  19343     1
  19338  19351     1
  19338  19349     1
  19338  19357     1
  19339  19344     1
  19339  19352     1
  19339  19351     1
  19340  19350     1
  19341  19352     1
  19341  19343     1
  19342  19345     1
  19342  19357     1
  19342  19344     1
  19342  19352     1
  19342  19347     1
  19342  19343     1
  19343  19346     1
  19343  19350     1
  19343  19348     1
  19344  19346     1
  19353  19356     1
  19353  19357     1
  19354  19356     1
  19354  19357     1
  19358  19366     1
  19358  19374     1
  19358  19379     1
  19358  19367     1
  19359  19376     1
  19359  19377     1
  19359  19365     1
  19359  19373     1
  19360  19362     1
  19360  19371     1
  19360  19361     1
  19360  19378     1
  19360  19376     1
  19360  19377     1
  19360  19364     1
  19361  19372     1
  19361  19380     1
  19361  19363     1
  19361  19370     1
  19361  19366     1
  19361  19374     1
  19362  19374     1
  19362  19367     1
  19362  19375     1
  19363  19373     1
  19364  19366     1
  19364  19375     1
  19365  19370     1
  19365  19366     1
  19365  19368     1
  19365  19380     1
  19365  19367     1
  19365  19375     1
  19366  19371     1
  19366  19369     1
  19366  19373     1
  19367  19369     1
  19376  19380     1
  19376  19379     1
  19377  19380     1
  19377  19379     1
  19381  19389     1
  19381  19397     1
  19381  19402     1
  19381  19390     1
  19382  19388     1
  19382  19396     1
  19382  19399     1
  19382  19400     1
  19383  19385     1
  19383  19394     1
  19383  19384     1
  19383  19401     1
  19383  19399     1
  19383  19400     1
  19383  19387     1
  19384  19386     1
  19384  19393     1
  19384  19389     1
  19384  19397     1
  19384  19395     1
  19384  19403     1
  19385  19390     1
  19385  19398     1
  19385  19397     1
  19386  19396     1
  19387  19398     1
  19387  19389     1
  19388  19391     1
  19388  19403     1
  19388  19390     1
  19388  19398     1
  19388  19393     1
  19388  19389     1
  19389  19392     1
  19389  19396     1
  19389  19394     1
  19390  19392     1
  19399  19402     1
  19399  19403     1
  19400  19402     1
  19400  19403     1
  19404  19412     1
  19404  19420     1
  19404  19425     1
  19404  19413     1
  19405  19422     1
  19405  19423     1
  19405  19411     1
  19405  19419     1
  19406  19408     1
  19406  19417     1
  19406  19407     1
  19406  19424     1
  19406  19422     1
  19406  19423     1
  19406  19410     1
  19407  19418     1
  19407  19426     1
  19407  19409     1
  19407  19416     1
  19407  19412     1
  19407  19420     1
  19408  19420     1
  19408  19413     1
  19408  19421     1
  19409  19419     1
  19410  19412     1
  19410  19421     1
  19411  19416     1
  19411  19412     1
  19411  19414     1
  19411  19426     1
  19411  19413     1
  19411  19421     1
  19412  19417     1
  19412  19415     1
  19412  19419     1
  19413  19415     1
  19422  19426     1
  19422  19425     1
  19423  19426     1
  19423  19425     1
  19427  19435     1
  19427  19443     1
  19427  19448     1
  19427  19436     1
  19428  19434     1
  19428  19442     1
  19428  19445     1
  19428  19446     1
  19429  19431     1
  19429  19440     1
  19429  19430     1
  19429  19447     1
  19429  19445     1
  19429  19446     1
  19429  19433     1
  19430  19432     1
  19430  19439     1
  19430  19435     1
  19430  19443     1
  19430  19441     1
  19430  19449     1
  19431  19436     1
  19431  19444     1
  19431  19443     1
  19432  19442     1
  19433  19444     1
  19433  19435     1
  19434  19437     1
  19434  19449     1
  19434  19436     1
  19434  19444     1
  19434  19439     1
  19434  19435     1
  19435  19438     1
  19435  19442     1
  19435  19440     1
  19436  19438     1
  19445  19448     1
  19445  19449     1
  19446  19448     1
  19446  19449     1
  19450  19458     1
  19450  19466     1
  19450  19471     1
  19450  19459     1
  19451  19468     1
  19451  19469     1
  19451  19457     1
  19451  19465     1
  19452  19454     1
  19452  19463     1
  19452  19453     1
  19452  19470     1
  19452  19468     1
  19452  19469     1
  19452  19456     1
  19453  19464     1
  19453  19472     1
  19453  19455     1
  19453  19462     1
  19453  19458     1
  19453  19466     1
  19454  19466     1
  19454  19459     1
  19454  19467     1
  19455  19465     1
  19456  19458     1
  19456  19467     1
  19457  19462     1
  19457  19458     1
  19457  19460     1
  19457  19472     1
  19457  19459     1
  19457  19467     1
  19458  19463     1
  19458  19461     1
  19458  19465     1
  19459  19461     1
  19468  19472     1
  19468  19471     1
  19469  19472     1
  19469  19471     1
  19473  19481     1
  19473  19489     1
  19473  19494     1
  19473  19482     1
  19474  19480     1
  19474  19488     1
  19474  19491     1
  19474  19492     1
  19475  19477     1
  19475  19486     1
  19475  19476     1
  19475  19493     1
  19475  19491     1
  19475  19492     1
  19475  19479     1
  19476  19478     1
  19476  19485     1
  19476  19481     1
  19476  19489     1
  19476  19487     1
  19476  19495     1
  19477  19482     1
  19477  19490     1
  19477  19489     1
  19478  19488     1
  19479  19490     1
  19479  19481     1
  19480  19483     1
  19480  19495     1
  19480  19482     1
  19480  19490     1
  19480  19485     1
  19480  19481     1
  19481  19484     1
  19481  19488     1
  19481  19486     1
  19482  19484     1
  19491  19494     1
  19491  19495     1
  19492  19494     1
  19492  19495     1
  19496  19504     1
  19496  19512     1
  19496  19517     1
  19496  19505     1
  19497  19514     1
  19497  19515     1
  19497  19503     1
  19497  19511     1
  19498  19500     1
  19498  19509     1
  19498  19499     1
  19498  19516     1
  19498  19514     1
  19498  19515     1
  19498  19502     1
  19499  19510     1
  19499  19518     1
  19499  19501     1
  19499  19508     1
  19499  19504     1
  19499  19512     1
  19500  19512     1
  19500  19505     1
  19500  19513     1
  19501  19511     1
  19502  19504     1
  19502  19513     1
  19503  19508     1
  19503  19504     1
  19503  19506     1
  19503  19518     1
  19503  19505     1
  19503  19513     1
  19504  19509     1
  19504  19507     1
  19504  19511     1
  19505  19507     1
  19514  19518     1
  19514  19517     1
  19515  19518     1
  19515  19517     1
  19519  19527     1
  19519  19535     1
  19519  19540     1
  19519  19528     1
  19520  19526     1
  19520  19534     1
  19520  19537     1
  19520  19538     1
  19521  19523     1
  19521  19532     1
  19521  19522     1
  19521  19539     1
  19521  19537     1
  19521  19538     1
  19521  19525     1
  19522  19524     1
  19522  19531     1
  19522  19527     1
  19522  19535     1
  19522  19533     1
  19522  19541     1
  19523  19528     1
  19523  19536     1
  19523  19535     1
  19524  19534     1
  19525  19536     1
  19525  19527     1
  19526  19529     1
  19526  19541     1
  19526  19528     1
  19526  19536     1
  19526  19531     1
  19526  19527     1
  19527  19530     1
  19527  19534     1
  19527  19532     1
  19528  19530     1
  19537  19540     1
  19537  19541     1
  19538  19540     1
  19538  19541     1
  19542  19550     1
  19542  19558     1
  19542  19563     1
  19542  19551     1
  19543  19560     1
  19543  19561     1
  19543  19549     1
  19543  19557     1
  19544  19546     1
  19544  19555     1
  19544  19545     1
  19544  19562     1
  19544  19560     1
  19544  19561     1
  19544  19548     1
  19545  19556     1
  19545  19564     1
  19545  19547     1
  19545  19554     1
  19545  19550     1
  19545  19558     1
  19546  19558     1
  19546  19551     1
  19546  19559     1
  19547  19557     1
  19548  19550     1
  19548  19559     1
  19549  19554     1
  19549  19550     1
  19549  19552     1
  19549  19564     1
  19549  19551     1
  19549  19559     1
  19550  19555     1
  19550  19553     1
  19550  19557     1
  19551  19553     1
  19560  19564     1
  19560  19563     1
  19561  19564     1
  19561  19563     1
  19565  19573     1
  19565  19581     1
  19565  19586     1
  19565  19574     1
  19566  19572     1
  19566  19580     1
  19566  19583     1
  19566  19584     1
  19567  19569     1
  19567  19578     1
  19567  19568     1
  19567  19585     1
  19567  19583     1
  19567  19584     1
  19567  19571     1
  19568  19570     1
  19568  19577     1
  19568  19573     1
  19568  19581     1
  19568  19579     1
  19568  19587     1
  19569  19574     1
  19569  19582     1
  19569  19581     1
  19570  19580     1
  19571  19582     1
  19571  19573     1
  19572  19575     1
  19572  19587     1
  19572  19574     1
  19572  19582     1
  19572  19577     1
  19572  19573     1
  19573  19576     1
  19573  19580     1
  19573  19578     1
  19574  19576     1
  19583  19586     1
  19583  19587     1
  19584  19586     1
  19584  19587     1
  19588  19596     1
  19588  19604     1
  19588  19609     1
  19588  19597     1
  19589  19606     1
  19589  19607     1
  19589  19595     1
  19589  19603     1
  19590  19592     1
  19590  19601     1
  19590  19591     1
  19590  19608     1
  19590  19606     1
  19590  19607     1
  19590  19594     1
  19591  19602     1
  19591  19610     1
  19591  19593     1
  19591  19600     1
  19591  19596     1
  19591  19604     1
  19592  19604     1
  19592  19597     1
  19592  19605     1
  19593  19603     1
  19594  19596     1
  19594  19605     1
  19595  19600     1
  19595  19596     1
  19595  19598     1
  19595  19610     1
  19595  19597     1
  19595  19605     1
  19596  19601     1
  19596  19599     1
  19596  19603     1
  19597  19599     1
  19606  19610     1
  19606  19609     1
  19607  19610     1
  19607  19609     1
  19611  19619     1
  19611  19627     1
  19611  19632     1
  19611  19620     1
  19612  19618     1
  19612  19626     1
  19612  19629     1
  19612  19630     1
  19613  19615     1
  19613  19624     1
  19613  19614     1
  19613  19631     1
  19613  19629     1
  19613  19630     1
  19613  19617     1
  19614  19616     1
  19614  19623     1
  19614  19619     1
  19614  19627     1
  19614  19625     1
  19614  19633     1
  19615  19620     1
  19615  19628     1
  19615  19627     1
  19616  19626     1
  19617  19628     1
  19617  19619     1
  19618  19621     1
  19618  19633     1
  19618  19620     1
  19618  19628     1
  19618  19623     1
  19618  19619     1
  19619  19622     1
  19619  19626     1
  19619  19624     1
  19620  19622     1
  19629  19632     1
  19629  19633     1
  19630  19632     1
  19630  19633     1
  19634  19642     1
  19634  19650     1
  19634  19655     1
  19634  19643     1
  19635  19652     1
  19635  19653     1
  19635  19641     1
  19635  19649     1
  19636  19638     1
  19636  19647     1
  19636  19637     1
  19636  19654     1
  19636  19652     1
  19636  19653     1
  19636  19640     1
  19637  19648     1
  19637  19656     1
  19637  19639     1
  19637  19646     1
  19637  19642     1
  19637  19650     1
  19638  19650     1
  19638  19643     1
  19638  19651     1
  19639  19649     1
  19640  19642     1
  19640  19651     1
  19641  19646     1
  19641  19642     1
  19641  19644     1
  19641  19656     1
  19641  19643     1
  19641  19651     1
  19642  19647     1
  19642  19645     1
  19642  19649     1
  19643  19645     1
  19652  19656     1
  19652  19655     1
  19653  19656     1
  19653  19655     1
  19657  19665     1
  19657  19673     1
  19657  19678     1
  19657  19666     1
  19658  19664     1
  19658  19672     1
  19658  19675     1
  19658  19676     1
  19659  19661     1
  19659  19670     1
  19659  19660     1
  19659  19677     1
  19659  19675     1
  19659  19676     1
  19659  19663     1
  19660  19662     1
  19660  19669     1
  19660  19665     1
  19660  19673     1
  19660  19671     1
  19660  19679     1
  19661  19666     1
  19661  19674     1
  19661  19673     1
  19662  19672     1
  19663  19674     1
  19663  19665     1
  19664  19667     1
  19664  19679     1
  19664  19666     1
  19664  19674     1
  19664  19669     1
  19664  19665     1
  19665  19668     1
  19665  19672     1
  19665  19670     1
  19666  19668     1
  19675  19678     1
  19675  19679     1
  19676  19678     1
  19676  19679     1
  19680  19688     1
  19680  19696     1
  19680  19701     1
  19680  19689     1
  19681  19698     1
  19681  19699     1
  19681  19687     1
  19681  19695     1
  19682  19684     1
  19682  19693     1
  19682  19683     1
  19682  19700     1
  19682  19698     1
  19682  19699     1
  19682  19686     1
  19683  19694     1
  19683  19702     1
  19683  19685     1
  19683  19692     1
  19683  19688     1
  19683  19696     1
  19684  19696     1
  19684  19689     1
  19684  19697     1
  19685  19695     1
  19686  19688     1
  19686  19697     1
  19687  19692     1
  19687  19688     1
  19687  19690     1
  19687  19702     1
  19687  19689     1
  19687  19697     1
  19688  19693     1
  19688  19691     1
  19688  19695     1
  19689  19691     1
  19698  19702     1
  19698  19701     1
  19699  19702     1
  19699  19701     1
  19703  19711     1
  19703  19719     1
  19703  19724     1
  19703  19712     1
  19704  19710     1
  19704  19718     1
  19704  19721     1
  19704  19722     1
  19705  19707     1
  19705  19716     1
  19705  19706     1
  19705  19723     1
  19705  19721     1
  19705  19722     1
  19705  19709     1
  19706  19708     1
  19706  19715     1
  19706  19711     1
  19706  19719     1
  19706  19717     1
  19706  19725     1
  19707  19712     1
  19707  19720     1
  19707  19719     1
  19708  19718     1
  19709  19720     1
  19709  19711     1
  19710  19713     1
  19710  19725     1
  19710  19712     1
  19710  19720     1
  19710  19715     1
  19710  19711     1
  19711  19714     1
  19711  19718     1
  19711  19716     1
  19712  19714     1
  19721  19724     1
  19721  19725     1
  19722  19724     1
  19722  19725     1
  19726  19734     1
  19726  19742     1
  19726  19747     1
  19726  19735     1
  19727  19744     1
  19727  19745     1
  19727  19733     1
  19727  19741     1
  19728  19730     1
  19728  19739     1
  19728  19729     1
  19728  19746     1
  19728  19744     1
  19728  19745     1
  19728  19732     1
  19729  19740     1
  19729  19748     1
  19729  19731     1
  19729  19738     1
  19729  19734     1
  19729  19742     1
  19730  19742     1
  19730  19735     1
  19730  19743     1
  19731  19741     1
  19732  19734     1
  19732  19743     1
  19733  19738     1
  19733  19734     1
  19733  19736     1
  19733  19748     1
  19733  19735     1
  19733  19743     1
  19734  19739     1
  19734  19737     1
  19734  19741     1
  19735  19737     1
  19744  19748     1
  19744  19747     1
  19745  19748     1
  19745  19747     1
  19749  19757     1
  19749  19765     1
  19749  19770     1
  19749  19758     1
  19750  19756     1
  19750  19764     1
  19750  19767     1
  19750  19768     1
  19751  19753     1
  19751  19762     1
  19751  19752     1
  19751  19769     1
  19751  19767     1
  19751  19768     1
  19751  19755     1
  19752  19754     1
  19752  19761     1
  19752  19757     1
  19752  19765     1
  19752  19763     1
  19752  19771     1
  19753  19758     1
  19753  19766     1
  19753  19765     1
  19754  19764     1
  19755  19766     1
  19755  19757     1
  19756  19759     1
  19756  19771     1
  19756  19758     1
  19756  19766     1
  19756  19761     1
  19756  19757     1
  19757  19760     1
  19757  19764     1
  19757  19762     1
  19758  19760     1
  19767  19770     1
  19767  19771     1
  19768  19770     1
  19768  19771     1
  19772  19780     1
  19772  19788     1
  19772  19793     1
  19772  19781     1
  19773  19790     1
  19773  19791     1
  19773  19779     1
  19773  19787     1
  19774  19776     1
  19774  19785     1
  19774  19775     1
  19774  19792     1
  19774  19790     1
  19774  19791     1
  19774  19778     1
  19775  19786     1
  19775  19794     1
  19775  19777     1
  19775  19784     1
  19775  19780     1
  19775  19788     1
  19776  19788     1
  19776  19781     1
  19776  19789     1
  19777  19787     1
  19778  19780     1
  19778  19789     1
  19779  19784     1
  19779  19780     1
  19779  19782     1
  19779  19794     1
  19779  19781     1
  19779  19789     1
  19780  19785     1
  19780  19783     1
  19780  19787     1
  19781  19783     1
  19790  19794     1
  19790  19793     1
  19791  19794     1
  19791  19793     1
  19795  19803     1
  19795  19811     1
  19795  19816     1
  19795  19804     1
  19796  19802     1
  19796  19810     1
  19796  19813     1
  19796  19814     1
  19797  19799     1
  19797  19808     1
  19797  19798     1
  19797  19815     1
  19797  19813     1
  19797  19814     1
  19797  19801     1
  19798  19800     1
  19798  19807     1
  19798  19803     1
  19798  19811     1
  19798  19809     1
  19798  19817     1
  19799  19804     1
  19799  19812     1
  19799  19811     1
  19800  19810     1
  19801  19812     1
  19801  19803     1
  19802  19805     1
  19802  19817     1
  19802  19804     1
  19802  19812     1
  19802  19807     1
  19802  19803     1
  19803  19806     1
  19803  19810     1
  19803  19808     1
  19804  19806     1
  19813  19816     1
  19813  19817     1
  19814  19816     1
  19814  19817     1
  19818  19826     1
  19818  19834     1
  19818  19839     1
  19818  19827     1
  19819  19836     1
  19819  19837     1
  19819  19825     1
  19819  19833     1
  19820  19822     1
  19820  19831     1
  19820  19821     1
  19820  19838     1
  19820  19836     1
  19820  19837     1
  19820  19824     1
  19821  19832     1
  19821  19840     1
  19821  19823     1
  19821  19830     1
  19821  19826     1
  19821  19834     1
  19822  19834     1
  19822  19827     1
  19822  19835     1
  19823  19833     1
  19824  19826     1
  19824  19835     1
  19825  19830     1
  19825  19826     1
  19825  19828     1
  19825  19840     1
  19825  19827     1
  19825  19835     1
  19826  19831     1
  19826  19829     1
  19826  19833     1
  19827  19829     1
  19836  19840     1
  19836  19839     1
  19837  19840     1
  19837  19839     1
  19841  19849     1
  19841  19857     1
  19841  19862     1
  19841  19850     1
  19842  19848     1
  19842  19856     1
  19842  19859     1
  19842  19860     1
  19843  19845     1
  19843  19854     1
  19843  19844     1
  19843  19861     1
  19843  19859     1
  19843  19860     1
  19843  19847     1
  19844  19846     1
  19844  19853     1
  19844  19849     1
  19844  19857     1
  19844  19855     1
  19844  19863     1
  19845  19850     1
  19845  19858     1
  19845  19857     1
  19846  19856     1
  19847  19858     1
  19847  19849     1
  19848  19851     1
  19848  19863     1
  19848  19850     1
  19848  19858     1
  19848  19853     1
  19848  19849     1
  19849  19852     1
  19849  19856     1
  19849  19854     1
  19850  19852     1
  19859  19862     1
  19859  19863     1
  19860  19862     1
  19860  19863     1
  19864  19872     1
  19864  19880     1
  19864  19885     1
  19864  19873     1
  19865  19882     1
  19865  19883     1
  19865  19871     1
  19865  19879     1
  19866  19868     1
  19866  19877     1
  19866  19867     1
  19866  19884     1
  19866  19882     1
  19866  19883     1
  19866  19870     1
  19867  19878     1
  19867  19886     1
  19867  19869     1
  19867  19876     1
  19867  19872     1
  19867  19880     1
  19868  19880     1
  19868  19873     1
  19868  19881     1
  19869  19879     1
  19870  19872     1
  19870  19881     1
  19871  19876     1
  19871  19872     1
  19871  19874     1
  19871  19886     1
  19871  19873     1
  19871  19881     1
  19872  19877     1
  19872  19875     1
  19872  19879     1
  19873  19875     1
  19882  19886     1
  19882  19885     1
  19883  19886     1
  19883  19885     1
  19887  19895     1
  19887  19903     1
  19887  19908     1
  19887  19896     1
  19888  19894     1
  19888  19902     1
  19888  19905     1
  19888  19906     1
  19889  19891     1
  19889  19900     1
  19889  19890     1
  19889  19907     1
  19889  19905     1
  19889  19906     1
  19889  19893     1
  19890  19892     1
  19890  19899     1
  19890  19895     1
  19890  19903     1
  19890  19901     1
  19890  19909     1
  19891  19896     1
  19891  19904     1
  19891  19903     1
  19892  19902     1
  19893  19904     1
  19893  19895     1
  19894  19897     1
  19894  19909     1
  19894  19896     1
  19894  19904     1
  19894  19899     1
  19894  19895     1
  19895  19898     1
  19895  19902     1
  19895  19900     1
  19896  19898     1
  19905  19908     1
  19905  19909     1
  19906  19908     1
  19906  19909     1

[ angles ]
;    ai     aj     ak funct         c0         c1         c2         c3
      1      2     14     1   111.0400475 552.288000
      1      5     17     1   111.0400475 552.288000
      1      8     11     1   111.0400475 552.288000
      2      1      5     1   112.3500484 533.878400
      2      1      8     1   112.3500484 533.878400
      2     14     26     1   111.5100476 526.347200
      5      1      8     1   112.3500484 533.878400
      5     17     20     1   111.5100476 526.347200
      8     11     23     1   111.5100476 526.347200
     11     23     86     1   107.9700462 569.024000
     14     26    115     1   107.9700462 569.024000
     17     20     57     1   107.9700462 569.024000
     20     57     48     1   112.4800480 524.673600
     23     86     77     1   112.4800480 524.673600
     26    115    106     1   112.4800480 524.673600
     29     30     42     1   111.0400475 552.288000
     29     33     45     1   111.0400475 552.288000
     29     36     39     1   111.0400475 552.288000
     30     29     33     1   112.3500484 533.878400
     30     29     36     1   112.3500484 533.878400
     30     42     54     1   111.5100476 526.347200
     33     29     36     1   112.3500484 533.878400
     33     45     51     1   111.5100476 526.347200
     36     39     48     1   111.5100476 526.347200
     39     48     57     1   107.9700462 569.024000
     42     54    173     1   107.9700462 569.024000
     45     51    144     1   107.9700462 569.024000
     51    144    135     1   112.4800480 524.673600
     54    173    164     1   112.4800480 524.673600
     58     59     71     1   111.0400475 552.288000
     58     62     74     1   111.0400475 552.288000
     58     65     68     1   111.0400475 552.288000
     59     58     62     1   112.3500484 533.878400
     59     58     65     1   112.3500484 533.878400
     59     71     83     1   111.5100476 526.347200
     62     58     65     1   112.3500484 533.878400
     62     74     80     1   111.5100476 526.347200
     65     68     77     1   111.5100476 526.347200
     68     77     86     1   107.9700462 569.024000
     71     83    231     1   107.9700462 569.024000
     74     80    202     1   107.9700462 569.024000
     80    202    193     1   112.4800480 524.673600
     83    231    222     1   112.4800480 524.673600
     87     88    100     1   111.0400475 552.288000
     87     91    103     1   111.0400475 552.288000
     87     94     97     1   111.0400475 552.288000
     88     87     91     1   112.3500484 533.878400
     88     87     94     1   112.3500484 533.878400
     88    100    112     1   111.5100476 526.347200
     91     87     94     1   112.3500484 533.878400
     91    103    109     1   111.5100476 526.347200
     94     97    106     1   111.5100476 526.347200
     97    106    115     1   107.9700462 569.024000
    100    112    289     1   107.9700462 569.024000
    103    109    260     1   107.9700462 569.024000
    109    260    251     1   112.4800480 524.673600
    112    289    280     1   112.4800480 524.673600
    116    117    129     1   111.0400475 552.288000
    116    120    132     1   111.0400475 552.288000
    116    123    126     1   111.0400475 552.288000
    117    116    120     1   112.3500484 533.878400
    117    116    123     1   112.3500484 533.878400
    117    129    141     1   111.5100476 526.347200
    120    116    123     1   112.3500484 533.878400
    120    132    138     1   111.5100476 526.347200
    123    126    135     1   111.5100476 526.347200
    126    135    144     1   107.9700462 569.024000
    129    141    347     1   107.9700462 569.024000
    132    138    318     1   107.9700462 569.024000
    138    318    309     1   112.4800480 524.673600
    141    347    338     1   112.4800480 524.673600
    145    146    158     1   111.0400475 552.288000
    145    149    161     1   111.0400475 552.288000
    145    152    155     1   111.0400475 552.288000
    146    145    149     1   112.3500484 533.878400
    146    145    152     1   112.3500484 533.878400
    146    158    170     1   111.5100476 526.347200
    149    145    152     1   112.3500484 533.878400
    149    161    167     1   111.5100476 526.347200
    152    155    164     1   111.5100476 526.347200
    155    164    173     1   107.9700462 569.024000
    158    170    405     1   107.9700462 569.024000
    161    167    376     1   107.9700462 569.024000
    167    376    367     1   112.4800480 524.673600
    170    405    396     1   112.4800480 524.673600
    174    175    187     1   111.0400475 552.288000
    174    178    190     1   111.0400475 552.288000
    174    181    184     1   111.0400475 552.288000
    175    174    178     1   112.3500484 533.878400
    175    174    181     1   112.3500484 533.878400
    175    187    199     1   111.5100476 526.347200
    178    174    181     1   112.3500484 533.878400
    178    190    196     1   111.5100476 526.347200
    181    184    193     1   111.5100476 526.347200
    184    193    202     1   107.9700462 569.024000
    187    199    463     1   107.9700462 569.024000
    190    196    434     1   107.9700462 569.024000
    196    434    425     1   112.4800480 524.673600
    199    463    454     1   112.4800480 524.673600
    203    204    216     1   111.0400475 552.288000
    203    207    219     1   111.0400475 552.288000
    203    210    213     1   111.0400475 552.288000
    204    203    207     1   112.3500484 533.878400
    204    203    210     1   112.3500484 533.878400
    204    216    228     1   111.5100476 526.347200
    207    203    210     1   112.3500484 533.878400
    207    219    225     1   111.5100476 526.347200
    210    213    222     1   111.5100476 526.347200
    213    222    231     1   107.9700462 569.024000
    216    228    521     1   107.9700462 569.024000
    219    225    492     1   107.9700462 569.024000
    225    492    483     1   112.4800480 524.673600
    228    521    512     1   112.4800480 524.673600
    232    233    245     1   111.0400475 552.288000
    232    236    248     1   111.0400475 552.288000
    232    239    242     1   111.0400475 552.288000
    233    232    236     1   112.3500484 533.878400
    233    232    239     1   112.3500484 533.878400
    233    245    257     1   111.5100476 526.347200
    236    232    239     1   112.3500484 533.878400
    236    248    254     1   111.5100476 526.347200
    239    242    251     1   111.5100476 526.347200
    242    251    260     1   107.9700462 569.024000
    245    257    579     1   107.9700462 569.024000
    248    254    550     1   107.9700462 569.024000
    254    550    541     1   112.4800480 524.673600
    257    579    570     1   112.4800480 524.673600
    261    262    274     1   111.0400475 552.288000
    261    265    277     1   111.0400475 552.288000
    261    268    271     1   111.0400475 552.288000
    262    261    265     1   112.3500484 533.878400
    262    261    268     1   112.3500484 533.878400
    262    274    286     1   111.5100476 526.347200
    265    261    268     1   112.3500484 533.878400
    265    277    283     1   111.5100476 526.347200
    268    271    280     1   111.5100476 526.347200
    271    280    289     1   107.9700462 569.024000
    274    286    637     1   107.9700462 569.024000
    277    283    608     1   107.9700462 569.024000
    283    608    599     1   112.4800480 524.673600
    286    637    628     1   112.4800480 524.673600
    290    291    303     1   111.0400475 552.288000
    290    294    306     1   111.0400475 552.288000
    290    297    300     1   111.0400475 552.288000
    291    290    294     1   112.3500484 533.878400
    291    290    297     1   112.3500484 533.878400
    291    303    315     1   111.5100476 526.347200
    294    290    297     1   112.3500484 533.878400
    294    306    312     1   111.5100476 526.347200
    297    300    309     1   111.5100476 526.347200
    300    309    318     1   107.9700462 569.024000
    303    315    695     1   107.9700462 569.024000
    306    312    666     1   107.9700462 569.024000
    312    666    657     1   112.4800480 524.673600
    315    695    686     1   112.4800480 524.673600
    319    320    332     1   111.0400475 552.288000
    319    323    335     1   111.0400475 552.288000
    319    326    329     1   111.0400475 552.288000
    320    319    323     1   112.3500484 533.878400
    320    319    326     1   112.3500484 533.878400
    320    332    344     1   111.5100476 526.347200
    323    319    326     1   112.3500484 533.878400
    323    335    341     1   111.5100476 526.347200
    326    329    338     1   111.5100476 526.347200
    329    338    347     1   107.9700462 569.024000
    332    344    753     1   107.9700462 569.024000
    335    341    724     1   107.9700462 569.024000
    341    724    715     1   112.4800480 524.673600
    344    753    744     1   112.4800480 524.673600
    348    349    361     1   111.0400475 552.288000
    348    352    364     1   111.0400475 552.288000
    348    355    358     1   111.0400475 552.288000
    349    348    352     1   112.3500484 533.878400
    349    348    355     1   112.3500484 533.878400
    349    361    373     1   111.5100476 526.347200
    352    348    355     1   112.3500484 533.878400
    352    364    370     1   111.5100476 526.347200
    355    358    367     1   111.5100476 526.347200
    358    367    376     1   107.9700462 569.024000
    361    373    811     1   107.9700462 569.024000
    364    370    782     1   107.9700462 569.024000
    370    782    773     1   112.4800480 524.673600
    373    811    802     1   112.4800480 524.673600
    377    378    390     1   111.0400475 552.288000
    377    381    393     1   111.0400475 552.288000
    377    384    387     1   111.0400475 552.288000
    378    377    381     1   112.3500484 533.878400
    378    377    384     1   112.3500484 533.878400
    378    390    402     1   111.5100476 526.347200
    381    377    384     1   112.3500484 533.878400
    381    393    399     1   111.5100476 526.347200
    384    387    396     1   111.5100476 526.347200
    387    396    405     1   107.9700462 569.024000
    390    402    869     1   107.9700462 569.024000
    393    399    840     1   107.9700462 569.024000
    399    840    831     1   112.4800480 524.673600
    402    869    860     1   112.4800480 524.673600
    406    407    419     1   111.0400475 552.288000
    406    410    422     1   111.0400475 552.288000
    406    413    416     1   111.0400475 552.288000
    407    406    410     1   112.3500484 533.878400
    407    406    413     1   112.3500484 533.878400
    407    419    431     1   111.5100476 526.347200
    410    406    413     1   112.3500484 533.878400
    410    422    428     1   111.5100476 526.347200
    413    416    425     1   111.5100476 526.347200
    416    425    434     1   107.9700462 569.024000
    419    431    927     1   107.9700462 569.024000
    422    428    898     1   107.9700462 569.024000
    428    898    889     1   112.4800480 524.673600
    431    927    918     1   112.4800480 524.673600
    435    436    448     1   111.0400475 552.288000
    435    439    451     1   111.0400475 552.288000
    435    442    445     1   111.0400475 552.288000
    436    435    439     1   112.3500484 533.878400
    436    435    442     1   112.3500484 533.878400
    436    448    460     1   111.5100476 526.347200
    439    435    442     1   112.3500484 533.878400
    439    451    457     1   111.5100476 526.347200
    442    445    454     1   111.5100476 526.347200
    445    454    463     1   107.9700462 569.024000
    448    460    985     1   107.9700462 569.024000
    451    457    956     1   107.9700462 569.024000
    457    956    947     1   112.4800480 524.673600
    460    985    976     1   112.4800480 524.673600
    464    465    477     1   111.0400475 552.288000
    464    468    480     1   111.0400475 552.288000
    464    471    474     1   111.0400475 552.288000
    465    464    468     1   112.3500484 533.878400
    465    464    471     1   112.3500484 533.878400
    465    477    489     1   111.5100476 526.347200
    468    464    471     1   112.3500484 533.878400
    468    480    486     1   111.5100476 526.347200
    471    474    483     1   111.5100476 526.347200
    474    483    492     1   107.9700462 569.024000
    477    489   1043     1   107.9700462 569.024000
    480    486   1014     1   107.9700462 569.024000
    486   1014   1005     1   112.4800480 524.673600
    489   1043   1034     1   112.4800480 524.673600
    493    494    506     1   111.0400475 552.288000
    493    497    509     1   111.0400475 552.288000
    493    500    503     1   111.0400475 552.288000
    494    493    497     1   112.3500484 533.878400
    494    493    500     1   112.3500484 533.878400
    494    506    518     1   111.5100476 526.347200
    497    493    500     1   112.3500484 533.878400
    497    509    515     1   111.5100476 526.347200
    500    503    512     1   111.5100476 526.347200
    503    512    521     1   107.9700462 569.024000
    506    518   1101     1   107.9700462 569.024000
    509    515   1072     1   107.9700462 569.024000
    515   1072   1063     1   112.4800480 524.673600
    518   1101   1092     1   112.4800480 524.673600
    522    523    535     1   111.0400475 552.288000
    522    526    538     1   111.0400475 552.288000
    522    529    532     1   111.0400475 552.288000
    523    522    526     1   112.3500484 533.878400
    523    522    529     1   112.3500484 533.878400
    523    535    547     1   111.5100476 526.347200
    526    522    529     1   112.3500484 533.878400
    526    538    544     1   111.5100476 526.347200
    529    532    541     1   111.5100476 526.347200
    532    541    550     1   107.9700462 569.024000
    535    547   1159     1   107.9700462 569.024000
    538    544   1130     1   107.9700462 569.024000
    544   1130   1121     1   112.4800480 524.673600
    547   1159   1150     1   112.4800480 524.673600
    551    552    564     1   111.0400475 552.288000
    551    555    567     1   111.0400475 552.288000
    551    558    561     1   111.0400475 552.288000
    552    551    555     1   112.3500484 533.878400
    552    551    558     1   112.3500484 533.878400
    552    564    576     1   111.5100476 526.347200
    555    551    558     1   112.3500484 533.878400
    555    567    573     1   111.5100476 526.347200
    558    561    570     1   111.5100476 526.347200
    561    570    579     1   107.9700462 569.024000
    564    576   1217     1   107.9700462 569.024000
    567    573   1188     1   107.9700462 569.024000
    573   1188   1179     1   112.4800480 524.673600
    576   1217   1208     1   112.4800480 524.673600
    580    581    593     1   111.0400475 552.288000
    580    584    596     1   111.0400475 552.288000
    580    587    590     1   111.0400475 552.288000
    581    580    584     1   112.3500484 533.878400
    581    580    587     1   112.3500484 533.878400
    581    593    605     1   111.5100476 526.347200
    584    580    587     1   112.3500484 533.878400
    584    596    602     1   111.5100476 526.347200
    587    590    599     1   111.5100476 526.347200
    590    599    608     1   107.9700462 569.024000
    593    605   1275     1   107.9700462 569.024000
    596    602   1246     1   107.9700462 569.024000
    602   1246   1237     1   112.4800480 524.673600
    605   1275   1266     1   112.4800480 524.673600
    609    610    622     1   111.0400475 552.288000
    609    613    625     1   111.0400475 552.288000
    609    616    619     1   111.0400475 552.288000
    610    609    613     1   112.3500484 533.878400
    610    609    616     1   112.3500484 533.878400
    610    622    634     1   111.5100476 526.347200
    613    609    616     1   112.3500484 533.878400
    613    625    631     1   111.5100476 526.347200
    616    619    628     1   111.5100476 526.347200
    619    628    637     1   107.9700462 569.024000
    622    634   1333     1   107.9700462 569.024000
    625    631   1304     1   107.9700462 569.024000
    631   1304   1295     1   112.4800480 524.673600
    634   1333   1324     1   112.4800480 524.673600
    638    639    651     1   111.0400475 552.288000
    638    642    654     1   111.0400475 552.288000
    638    645    648     1   111.0400475 552.288000
    639    638    642     1   112.3500484 533.878400
    639    638    645     1   112.3500484 533.878400
    639    651    663     1   111.5100476 526.347200
    642    638    645     1   112.3500484 533.878400
    642    654    660     1   111.5100476 526.347200
    645    648    657     1   111.5100476 526.347200
    648    657    666     1   107.9700462 569.024000
    651    663   1391     1   107.9700462 569.024000
    654    660   1362     1   107.9700462 569.024000
    660   1362   1353     1   112.4800480 524.673600
    663   1391   1382     1   112.4800480 524.673600
    667    668    680     1   111.0400475 552.288000
    667    671    683     1   111.0400475 552.288000
    667    674    677     1   111.0400475 552.288000
    668    667    671     1   112.3500484 533.878400
    668    667    674     1   112.3500484 533.878400
    668    680    692     1   111.5100476 526.347200
    671    667    674     1   112.3500484 533.878400
    671    683    689     1   111.5100476 526.347200
    674    677    686     1   111.5100476 526.347200
    677    686    695     1   107.9700462 569.024000
    680    692   1449     1   107.9700462 569.024000
    683    689   1420     1   107.9700462 569.024000
    689   1420   1411     1   112.4800480 524.673600
    692   1449   1440     1   112.4800480 524.673600
    696    697    709     1   111.0400475 552.288000
    696    700    712     1   111.0400475 552.288000
    696    703    706     1   111.0400475 552.288000
    697    696    700     1   112.3500484 533.878400
    697    696    703     1   112.3500484 533.878400
    697    709    721     1   111.5100476 526.347200
    700    696    703     1   112.3500484 533.878400
    700    712    718     1   111.5100476 526.347200
    703    706    715     1   111.5100476 526.347200
    706    715    724     1   107.9700462 569.024000
    709    721   1507     1   107.9700462 569.024000
    712    718   1478     1   107.9700462 569.024000
    718   1478   1469     1   112.4800480 524.673600
    721   1507   1498     1   112.4800480 524.673600
    725    726    738     1   111.0400475 552.288000
    725    729    741     1   111.0400475 552.288000
    725    732    735     1   111.0400475 552.288000
    726    725    729     1   112.3500484 533.878400
    726    725    732     1   112.3500484 533.878400
    726    738    750     1   111.5100476 526.347200
    729    725    732     1   112.3500484 533.878400
    729    741    747     1   111.5100476 526.347200
    732    735    744     1   111.5100476 526.347200
    735    744    753     1   107.9700462 569.024000
    738    750   1565     1   107.9700462 569.024000
    741    747   1536     1   107.9700462 569.024000
    747   1536   1527     1   112.4800480 524.673600
    750   1565   1556     1   112.4800480 524.673600
    754    755    767     1   111.0400475 552.288000
    754    758    770     1   111.0400475 552.288000
    754    761    764     1   111.0400475 552.288000
    755    754    758     1   112.3500484 533.878400
    755    754    761     1   112.3500484 533.878400
    755    767    779     1   111.5100476 526.347200
    758    754    761     1   112.3500484 533.878400
    758    770    776     1   111.5100476 526.347200
    761    764    773     1   111.5100476 526.347200
    764    773    782     1   107.9700462 569.024000
    767    779   1623     1   107.9700462 569.024000
    770    776   1594     1   107.9700462 569.024000
    776   1594   1585     1   112.4800480 524.673600
    779   1623   1614     1   112.4800480 524.673600
    783    784    796     1   111.0400475 552.288000
    783    787    799     1   111.0400475 552.288000
    783    790    793     1   111.0400475 552.288000
    784    783    787     1   112.3500484 533.878400
    784    783    790     1   112.3500484 533.878400
    784    796    808     1   111.5100476 526.347200
    787    783    790     1   112.3500484 533.878400
    787    799    805     1   111.5100476 526.347200
    790    793    802     1   111.5100476 526.347200
    793    802    811     1   107.9700462 569.024000
    796    808   1681     1   107.9700462 569.024000
    799    805   1652     1   107.9700462 569.024000
    805   1652   1643     1   112.4800480 524.673600
    808   1681   1672     1   112.4800480 524.673600
    812    813    825     1   111.0400475 552.288000
    812    816    828     1   111.0400475 552.288000
    812    819    822     1   111.0400475 552.288000
    813    812    816     1   112.3500484 533.878400
    813    812    819     1   112.3500484 533.878400
    813    825    837     1   111.5100476 526.347200
    816    812    819     1   112.3500484 533.878400
    816    828    834     1   111.5100476 526.347200
    819    822    831     1   111.5100476 526.347200
    822    831    840     1   107.9700462 569.024000
    825    837   1739     1   107.9700462 569.024000
    828    834   1710     1   107.9700462 569.024000
    834   1710   1701     1   112.4800480 524.673600
    837   1739   1730     1   112.4800480 524.673600
    841    842    854     1   111.0400475 552.288000
    841    845    857     1   111.0400475 552.288000
    841    848    851     1   111.0400475 552.288000
    842    841    845     1   112.3500484 533.878400
    842    841    848     1   112.3500484 533.878400
    842    854    866     1   111.5100476 526.347200
    845    841    848     1   112.3500484 533.878400
    845    857    863     1   111.5100476 526.347200
    848    851    860     1   111.5100476 526.347200
    851    860    869     1   107.9700462 569.024000
    854    866   1797     1   107.9700462 569.024000
    857    863   1768     1   107.9700462 569.024000
    863   1768   1759     1   112.4800480 524.673600
    866   1797   1788     1   112.4800480 524.673600
    870    871    883     1   111.0400475 552.288000
    870    874    886     1   111.0400475 552.288000
    870    877    880     1   111.0400475 552.288000
    871    870    874     1   112.3500484 533.878400
    871    870    877     1   112.3500484 533.878400
    871    883    895     1   111.5100476 526.347200
    874    870    877     1   112.3500484 533.878400
    874    886    892     1   111.5100476 526.347200
    877    880    889     1   111.5100476 526.347200
    880    889    898     1   107.9700462 569.024000
    883    895   1855     1   107.9700462 569.024000
    886    892   1826     1   107.9700462 569.024000
    892   1826   1817     1   112.4800480 524.673600
    895   1855   1846     1   112.4800480 524.673600
    899    900    912     1   111.0400475 552.288000
    899    903    915     1   111.0400475 552.288000
    899    906    909     1   111.0400475 552.288000
    900    899    903     1   112.3500484 533.878400
    900    899    906     1   112.3500484 533.878400
    900    912    924     1   111.5100476 526.347200
    903    899    906     1   112.3500484 533.878400
    903    915    921     1   111.5100476 526.347200
    906    909    918     1   111.5100476 526.347200
    909    918    927     1   107.9700462 569.024000
    912    924   1913     1   107.9700462 569.024000
    915    921   1884     1   107.9700462 569.024000
    921   1884   1875     1   112.4800480 524.673600
    924   1913   1904     1   112.4800480 524.673600
    928    929    941     1   111.0400475 552.288000
    928    932    944     1   111.0400475 552.288000
    928    935    938     1   111.0400475 552.288000
    929    928    932     1   112.3500484 533.878400
    929    928    935     1   112.3500484 533.878400
    929    941    953     1   111.5100476 526.347200
    932    928    935     1   112.3500484 533.878400
    932    944    950     1   111.5100476 526.347200
    935    938    947     1   111.5100476 526.347200
    938    947    956     1   107.9700462 569.024000
    941    953   1971     1   107.9700462 569.024000
    944    950   1942     1   107.9700462 569.024000
    950   1942   1933     1   112.4800480 524.673600
    953   1971   1962     1   112.4800480 524.673600
    957    958    970     1   111.0400475 552.288000
    957    961    973     1   111.0400475 552.288000
    957    964    967     1   111.0400475 552.288000
    958    957    961     1   112.3500484 533.878400
    958    957    964     1   112.3500484 533.878400
    958    970    982     1   111.5100476 526.347200
    961    957    964     1   112.3500484 533.878400
    961    973    979     1   111.5100476 526.347200
    964    967    976     1   111.5100476 526.347200
    967    976    985     1   107.9700462 569.024000
    970    982   2029     1   107.9700462 569.024000
    973    979   2000     1   107.9700462 569.024000
    979   2000   1991     1   112.4800480 524.673600
    982   2029   2020     1   112.4800480 524.673600
    986    987    999     1   111.0400475 552.288000
    986    990   1002     1   111.0400475 552.288000
    986    993    996     1   111.0400475 552.288000
    987    986    990     1   112.3500484 533.878400
    987    986    993     1   112.3500484 533.878400
    987    999   1011     1   111.5100476 526.347200
    990    986    993     1   112.3500484 533.878400
    990   1002   1008     1   111.5100476 526.347200
    993    996   1005     1   111.5100476 526.347200
    996   1005   1014     1   107.9700462 569.024000
    999   1011   2087     1   107.9700462 569.024000
   1002   1008   2058     1   107.9700462 569.024000
   1008   2058   2049     1   112.4800480 524.673600
   1011   2087   2078     1   112.4800480 524.673600
   1015   1016   1028     1   111.0400475 552.288000
   1015   1019   1031     1   111.0400475 552.288000
   1015   1022   1025     1   111.0400475 552.288000
   1016   1015   1019     1   112.3500484 533.878400
   1016   1015   1022     1   112.3500484 533.878400
   1016   1028   1040     1   111.5100476 526.347200
   1019   1015   1022     1   112.3500484 533.878400
   1019   1031   1037     1   111.5100476 526.347200
   1022   1025   1034     1   111.5100476 526.347200
   1025   1034   1043     1   107.9700462 569.024000
   1028   1040   2145     1   107.9700462 569.024000
   1031   1037   2116     1   107.9700462 569.024000
   1037   2116   2107     1   112.4800480 524.673600
   1040   2145   2136     1   112.4800480 524.673600
   1044   1045   1057     1   111.0400475 552.288000
   1044   1048   1060     1   111.0400475 552.288000
   1044   1051   1054     1   111.0400475 552.288000
   1045   1044   1048     1   112.3500484 533.878400
   1045   1044   1051     1   112.3500484 533.878400
   1045   1057   1069     1   111.5100476 526.347200
   1048   1044   1051     1   112.3500484 533.878400
   1048   1060   1066     1   111.5100476 526.347200
   1051   1054   1063     1   111.5100476 526.347200
   1054   1063   1072     1   107.9700462 569.024000
   1057   1069   2203     1   107.9700462 569.024000
   1060   1066   2174     1   107.9700462 569.024000
   1066   2174   2165     1   112.4800480 524.673600
   1069   2203   2194     1   112.4800480 524.673600
   1073   1074   1086     1   111.0400475 552.288000
   1073   1077   1089     1   111.0400475 552.288000
   1073   1080   1083     1   111.0400475 552.288000
   1074   1073   1077     1   112.3500484 533.878400
   1074   1073   1080     1   112.3500484 533.878400
   1074   1086   1098     1   111.5100476 526.347200
   1077   1073   1080     1   112.3500484 533.878400
   1077   1089   1095     1   111.5100476 526.347200
   1080   1083   1092     1   111.5100476 526.347200
   1083   1092   1101     1   107.9700462 569.024000
   1086   1098   2261     1   107.9700462 569.024000
   1089   1095   2232     1   107.9700462 569.024000
   1095   2232   2223     1   112.4800480 524.673600
   1098   2261   2252     1   112.4800480 524.673600
   1102   1103   1115     1   111.0400475 552.288000
   1102   1106   1118     1   111.0400475 552.288000
   1102   1109   1112     1   111.0400475 552.288000
   1103   1102   1106     1   112.3500484 533.878400
   1103   1102   1109     1   112.3500484 533.878400
   1103   1115   1127     1   111.5100476 526.347200
   1106   1102   1109     1   112.3500484 533.878400
   1106   1118   1124     1   111.5100476 526.347200
   1109   1112   1121     1   111.5100476 526.347200
   1112   1121   1130     1   107.9700462 569.024000
   1115   1127   2319     1   107.9700462 569.024000
   1118   1124   2290     1   107.9700462 569.024000
   1124   2290   2281     1   112.4800480 524.673600
   1127   2319   2310     1   112.4800480 524.673600
   1131   1132   1144     1   111.0400475 552.288000
   1131   1135   1147     1   111.0400475 552.288000
   1131   1138   1141     1   111.0400475 552.288000
   1132   1131   1135     1   112.3500484 533.878400
   1132   1131   1138     1   112.3500484 533.878400
   1132   1144   1156     1   111.5100476 526.347200
   1135   1131   1138     1   112.3500484 533.878400
   1135   1147   1153     1   111.5100476 526.347200
   1138   1141   1150     1   111.5100476 526.347200
   1141   1150   1159     1   107.9700462 569.024000
   1144   1156   2377     1   107.9700462 569.024000
   1147   1153   2348     1   107.9700462 569.024000
   1153   2348   2339     1   112.4800480 524.673600
   1156   2377   2368     1   112.4800480 524.673600
   1160   1161   1173     1   111.0400475 552.288000
   1160   1164   1176     1   111.0400475 552.288000
   1160   1167   1170     1   111.0400475 552.288000
   1161   1160   1164     1   112.3500484 533.878400
   1161   1160   1167     1   112.3500484 533.878400
   1161   1173   1185     1   111.5100476 526.347200
   1164   1160   1167     1   112.3500484 533.878400
   1164   1176   1182     1   111.5100476 526.347200
   1167   1170   1179     1   111.5100476 526.347200
   1170   1179   1188     1   107.9700462 569.024000
   1173   1185   2435     1   107.9700462 569.024000
   1176   1182   2406     1   107.9700462 569.024000
   1182   2406   2397     1   112.4800480 524.673600
   1185   2435   2426     1   112.4800480 524.673600
   1189   1190   1202     1   111.0400475 552.288000
   1189   1193   1205     1   111.0400475 552.288000
   1189   1196   1199     1   111.0400475 552.288000
   1190   1189   1193     1   112.3500484 533.878400
   1190   1189   1196     1   112.3500484 533.878400
   1190   1202   1214     1   111.5100476 526.347200
   1193   1189   1196     1   112.3500484 533.878400
   1193   1205   1211     1   111.5100476 526.347200
   1196   1199   1208     1   111.5100476 526.347200
   1199   1208   1217     1   107.9700462 569.024000
   1202   1214   2493     1   107.9700462 569.024000
   1205   1211   2464     1   107.9700462 569.024000
   1211   2464   2455     1   112.4800480 524.673600
   1214   2493   2484     1   112.4800480 524.673600
   1218   1219   1231     1   111.0400475 552.288000
   1218   1222   1234     1   111.0400475 552.288000
   1218   1225   1228     1   111.0400475 552.288000
   1219   1218   1222     1   112.3500484 533.878400
   1219   1218   1225     1   112.3500484 533.878400
   1219   1231   1243     1   111.5100476 526.347200
   1222   1218   1225     1   112.3500484 533.878400
   1222   1234   1240     1   111.5100476 526.347200
   1225   1228   1237     1   111.5100476 526.347200
   1228   1237   1246     1   107.9700462 569.024000
   1231   1243   2551     1   107.9700462 569.024000
   1234   1240   2522     1   107.9700462 569.024000
   1240   2522   2513     1   112.4800480 524.673600
   1243   2551   2542     1   112.4800480 524.673600
   1247   1248   1260     1   111.0400475 552.288000
   1247   1251   1263     1   111.0400475 552.288000
   1247   1254   1257     1   111.0400475 552.288000
   1248   1247   1251     1   112.3500484 533.878400
   1248   1247   1254     1   112.3500484 533.878400
   1248   1260   1272     1   111.5100476 526.347200
   1251   1247   1254     1   112.3500484 533.878400
   1251   1263   1269     1   111.5100476 526.347200
   1254   1257   1266     1   111.5100476 526.347200
   1257   1266   1275     1   107.9700462 569.024000
   1260   1272   2609     1   107.9700462 569.024000
   1263   1269   2580     1   107.9700462 569.024000
   1269   2580   2571     1   112.4800480 524.673600
   1272   2609   2600     1   112.4800480 524.673600
   1276   1277   1289     1   111.0400475 552.288000
   1276   1280   1292     1   111.0400475 552.288000
   1276   1283   1286     1   111.0400475 552.288000
   1277   1276   1280     1   112.3500484 533.878400
   1277   1276   1283     1   112.3500484 533.878400
   1277   1289   1301     1   111.5100476 526.347200
   1280   1276   1283     1   112.3500484 533.878400
   1280   1292   1298     1   111.5100476 526.347200
   1283   1286   1295     1   111.5100476 526.347200
   1286   1295   1304     1   107.9700462 569.024000
   1289   1301   2667     1   107.9700462 569.024000
   1292   1298   2638     1   107.9700462 569.024000
   1298   2638   2629     1   112.4800480 524.673600
   1301   2667   2658     1   112.4800480 524.673600
   1305   1306   1318     1   111.0400475 552.288000
   1305   1309   1321     1   111.0400475 552.288000
   1305   1312   1315     1   111.0400475 552.288000
   1306   1305   1309     1   112.3500484 533.878400
   1306   1305   1312     1   112.3500484 533.878400
   1306   1318   1330     1   111.5100476 526.347200
   1309   1305   1312     1   112.3500484 533.878400
   1309   1321   1327     1   111.5100476 526.347200
   1312   1315   1324     1   111.5100476 526.347200
   1315   1324   1333     1   107.9700462 569.024000
   1318   1330   2725     1   107.9700462 569.024000
   1321   1327   2696     1   107.9700462 569.024000
   1327   2696   2687     1   112.4800480 524.673600
   1330   2725   2716     1   112.4800480 524.673600
   1334   1335   1347     1   111.0400475 552.288000
   1334   1338   1350     1   111.0400475 552.288000
   1334   1341   1344     1   111.0400475 552.288000
   1335   1334   1338     1   112.3500484 533.878400
   1335   1334   1341     1   112.3500484 533.878400
   1335   1347   1359     1   111.5100476 526.347200
   1338   1334   1341     1   112.3500484 533.878400
   1338   1350   1356     1   111.5100476 526.347200
   1341   1344   1353     1   111.5100476 526.347200
   1344   1353   1362     1   107.9700462 569.024000
   1347   1359   2783     1   107.9700462 569.024000
   1350   1356   2754     1   107.9700462 569.024000
   1356   2754   2745     1   112.4800480 524.673600
   1359   2783   2774     1   112.4800480 524.673600
   1363   1364   1376     1   111.0400475 552.288000
   1363   1367   1379     1   111.0400475 552.288000
   1363   1370   1373     1   111.0400475 552.288000
   1364   1363   1367     1   112.3500484 533.878400
   1364   1363   1370     1   112.3500484 533.878400
   1364   1376   1388     1   111.5100476 526.347200
   1367   1363   1370     1   112.3500484 533.878400
   1367   1379   1385     1   111.5100476 526.347200
   1370   1373   1382     1   111.5100476 526.347200
   1373   1382   1391     1   107.9700462 569.024000
   1376   1388   2841     1   107.9700462 569.024000
   1379   1385   2812     1   107.9700462 569.024000
   1385   2812   2803     1   112.4800480 524.673600
   1388   2841   2832     1   112.4800480 524.673600
   1392   1393   1405     1   111.0400475 552.288000
   1392   1396   1408     1   111.0400475 552.288000
   1392   1399   1402     1   111.0400475 552.288000
   1393   1392   1396     1   112.3500484 533.878400
   1393   1392   1399     1   112.3500484 533.878400
   1393   1405   1417     1   111.5100476 526.347200
   1396   1392   1399     1   112.3500484 533.878400
   1396   1408   1414     1   111.5100476 526.347200
   1399   1402   1411     1   111.5100476 526.347200
   1402   1411   1420     1   107.9700462 569.024000
   1405   1417   2899     1   107.9700462 569.024000
   1408   1414   2870     1   107.9700462 569.024000
   1414   2870   2861     1   112.4800480 524.673600
   1417   2899   2890     1   112.4800480 524.673600
   1421   1422   1434     1   111.0400475 552.288000
   1421   1425   1437     1   111.0400475 552.288000
   1421   1428   1431     1   111.0400475 552.288000
   1422   1421   1425     1   112.3500484 533.878400
   1422   1421   1428     1   112.3500484 533.878400
   1422   1434   1446     1   111.5100476 526.347200
   1425   1421   1428     1   112.3500484 533.878400
   1425   1437   1443     1   111.5100476 526.347200
   1428   1431   1440     1   111.5100476 526.347200
   1431   1440   1449     1   107.9700462 569.024000
   1434   1446   2957     1   107.9700462 569.024000
   1437   1443   2928     1   107.9700462 569.024000
   1443   2928   2919     1   112.4800480 524.673600
   1446   2957   2948     1   112.4800480 524.673600
   1450   1451   1463     1   111.0400475 552.288000
   1450   1454   1466     1   111.0400475 552.288000
   1450   1457   1460     1   111.0400475 552.288000
   1451   1450   1454     1   112.3500484 533.878400
   1451   1450   1457     1   112.3500484 533.878400
   1451   1463   1475     1   111.5100476 526.347200
   1454   1450   1457     1   112.3500484 533.878400
   1454   1466   1472     1   111.5100476 526.347200
   1457   1460   1469     1   111.5100476 526.347200
   1460   1469   1478     1   107.9700462 569.024000
   1463   1475   3015     1   107.9700462 569.024000
   1466   1472   2986     1   107.9700462 569.024000
   1472   2986   2977     1   112.4800480 524.673600
   1475   3015   3006     1   112.4800480 524.673600
   1479   1480   1492     1   111.0400475 552.288000
   1479   1483   1495     1   111.0400475 552.288000
   1479   1486   1489     1   111.0400475 552.288000
   1480   1479   1483     1   112.3500484 533.878400
   1480   1479   1486     1   112.3500484 533.878400
   1480   1492   1504     1   111.5100476 526.347200
   1483   1479   1486     1   112.3500484 533.878400
   1483   1495   1501     1   111.5100476 526.347200
   1486   1489   1498     1   111.5100476 526.347200
   1489   1498   1507     1   107.9700462 569.024000
   1492   1504   3073     1   107.9700462 569.024000
   1495   1501   3044     1   107.9700462 569.024000
   1501   3044   3035     1   112.4800480 524.673600
   1504   3073   3064     1   112.4800480 524.673600
   1508   1509   1521     1   111.0400475 552.288000
   1508   1512   1524     1   111.0400475 552.288000
   1508   1515   1518     1   111.0400475 552.288000
   1509   1508   1512     1   112.3500484 533.878400
   1509   1508   1515     1   112.3500484 533.878400
   1509   1521   1533     1   111.5100476 526.347200
   1512   1508   1515     1   112.3500484 533.878400
   1512   1524   1530     1   111.5100476 526.347200
   1515   1518   1527     1   111.5100476 526.347200
   1518   1527   1536     1   107.9700462 569.024000
   1521   1533   3131     1   107.9700462 569.024000
   1524   1530   3102     1   107.9700462 569.024000
   1530   3102   3093     1   112.4800480 524.673600
   1533   3131   3122     1   112.4800480 524.673600
   1537   1538   1550     1   111.0400475 552.288000
   1537   1541   1553     1   111.0400475 552.288000
   1537   1544   1547     1   111.0400475 552.288000
   1538   1537   1541     1   112.3500484 533.878400
   1538   1537   1544     1   112.3500484 533.878400
   1538   1550   1562     1   111.5100476 526.347200
   1541   1537   1544     1   112.3500484 533.878400
   1541   1553   1559     1   111.5100476 526.347200
   1544   1547   1556     1   111.5100476 526.347200
   1547   1556   1565     1   107.9700462 569.024000
   1550   1562   3189     1   107.9700462 569.024000
   1553   1559   3160     1   107.9700462 569.024000
   1559   3160   3151     1   112.4800480 524.673600
   1562   3189   3180     1   112.4800480 524.673600
   1566   1567   1579     1   111.0400475 552.288000
   1566   1570   1582     1   111.0400475 552.288000
   1566   1573   1576     1   111.0400475 552.288000
   1567   1566   1570     1   112.3500484 533.878400
   1567   1566   1573     1   112.3500484 533.878400
   1567   1579   1591     1   111.5100476 526.347200
   1570   1566   1573     1   112.3500484 533.878400
   1570   1582   1588     1   111.5100476 526.347200
   1573   1576   1585     1   111.5100476 526.347200
   1576   1585   1594     1   107.9700462 569.024000
   1579   1591   3247     1   107.9700462 569.024000
   1582   1588   3218     1   107.9700462 569.024000
   1588   3218   3209     1   112.4800480 524.673600
   1591   3247   3238     1   112.4800480 524.673600
   1595   1596   1608     1   111.0400475 552.288000
   1595   1599   1611     1   111.0400475 552.288000
   1595   1602   1605     1   111.0400475 552.288000
   1596   1595   1599     1   112.3500484 533.878400
   1596   1595   1602     1   112.3500484 533.878400
   1596   1608   1620     1   111.5100476 526.347200
   1599   1595   1602     1   112.3500484 533.878400
   1599   1611   1617     1   111.5100476 526.347200
   1602   1605   1614     1   111.5100476 526.347200
   1605   1614   1623     1   107.9700462 569.024000
   1608   1620   3305     1   107.9700462 569.024000
   1611   1617   3276     1   107.9700462 569.024000
   1617   3276   3267     1   112.4800480 524.673600
   1620   3305   3296     1   112.4800480 524.673600
   1624   1625   1637     1   111.0400475 552.288000
   1624   1628   1640     1   111.0400475 552.288000
   1624   1631   1634     1   111.0400475 552.288000
   1625   1624   1628     1   112.3500484 533.878400
   1625   1624   1631     1   112.3500484 533.878400
   1625   1637   1649     1   111.5100476 526.347200
   1628   1624   1631     1   112.3500484 533.878400
   1628   1640   1646     1   111.5100476 526.347200
   1631   1634   1643     1   111.5100476 526.347200
   1634   1643   1652     1   107.9700462 569.024000
   1637   1649   3363     1   107.9700462 569.024000
   1640   1646   3334     1   107.9700462 569.024000
   1646   3334   3325     1   112.4800480 524.673600
   1649   3363   3354     1   112.4800480 524.673600
   1653   1654   1666     1   111.0400475 552.288000
   1653   1657   1669     1   111.0400475 552.288000
   1653   1660   1663     1   111.0400475 552.288000
   1654   1653   1657     1   112.3500484 533.878400
   1654   1653   1660     1   112.3500484 533.878400
   1654   1666   1678     1   111.5100476 526.347200
   1657   1653   1660     1   112.3500484 533.878400
   1657   1669   1675     1   111.5100476 526.347200
   1660   1663   1672     1   111.5100476 526.347200
   1663   1672   1681     1   107.9700462 569.024000
   1666   1678   3421     1   107.9700462 569.024000
   1669   1675   3392     1   107.9700462 569.024000
   1675   3392   3383     1   112.4800480 524.673600
   1678   3421   3412     1   112.4800480 524.673600
   1682   1683   1695     1   111.0400475 552.288000
   1682   1686   1698     1   111.0400475 552.288000
   1682   1689   1692     1   111.0400475 552.288000
   1683   1682   1686     1   112.3500484 533.878400
   1683   1682   1689     1   112.3500484 533.878400
   1683   1695   1707     1   111.5100476 526.347200
   1686   1682   1689     1   112.3500484 533.878400
   1686   1698   1704     1   111.5100476 526.347200
   1689   1692   1701     1   111.5100476 526.347200
   1692   1701   1710     1   107.9700462 569.024000
   1695   1707   3479     1   107.9700462 569.024000
   1698   1704   3450     1   107.9700462 569.024000
   1704   3450   3441     1   112.4800480 524.673600
   1707   3479   3470     1   112.4800480 524.673600
   1711   1712   1724     1   111.0400475 552.288000
   1711   1715   1727     1   111.0400475 552.288000
   1711   1718   1721     1   111.0400475 552.288000
   1712   1711   1715     1   112.3500484 533.878400
   1712   1711   1718     1   112.3500484 533.878400
   1712   1724   1736     1   111.5100476 526.347200
   1715   1711   1718     1   112.3500484 533.878400
   1715   1727   1733     1   111.5100476 526.347200
   1718   1721   1730     1   111.5100476 526.347200
   1721   1730   1739     1   107.9700462 569.024000
   1724   1736   3537     1   107.9700462 569.024000
   1727   1733   3508     1   107.9700462 569.024000
   1733   3508   3499     1   112.4800480 524.673600
   1736   3537   3528     1   112.4800480 524.673600
   1740   1741   1753     1   111.0400475 552.288000
   1740   1744   1756     1   111.0400475 552.288000
   1740   1747   1750     1   111.0400475 552.288000
   1741   1740   1744     1   112.3500484 533.878400
   1741   1740   1747     1   112.3500484 533.878400
   1741   1753   1765     1   111.5100476 526.347200
   1744   1740   1747     1   112.3500484 533.878400
   1744   1756   1762     1   111.5100476 526.347200
   1747   1750   1759     1   111.5100476 526.347200
   1750   1759   1768     1   107.9700462 569.024000
   1753   1765   3595     1   107.9700462 569.024000
   1756   1762   3566     1   107.9700462 569.024000
   1762   3566   3557     1   112.4800480 524.673600
   1765   3595   3586     1   112.4800480 524.673600
   1769   1770   1782     1   111.0400475 552.288000
   1769   1773   1785     1   111.0400475 552.288000
   1769   1776   1779     1   111.0400475 552.288000
   1770   1769   1773     1   112.3500484 533.878400
   1770   1769   1776     1   112.3500484 533.878400
   1770   1782   1794     1   111.5100476 526.347200
   1773   1769   1776     1   112.3500484 533.878400
   1773   1785   1791     1   111.5100476 526.347200
   1776   1779   1788     1   111.5100476 526.347200
   1779   1788   1797     1   107.9700462 569.024000
   1782   1794   3653     1   107.9700462 569.024000
   1785   1791   3624     1   107.9700462 569.024000
   1791   3624   3615     1   112.4800480 524.673600
   1794   3653   3644     1   112.4800480 524.673600
   1798   1799   1811     1   111.0400475 552.288000
   1798   1802   1814     1   111.0400475 552.288000
   1798   1805   1808     1   111.0400475 552.288000
   1799   1798   1802     1   112.3500484 533.878400
   1799   1798   1805     1   112.3500484 533.878400
   1799   1811   1823     1   111.5100476 526.347200
   1802   1798   1805     1   112.3500484 533.878400
   1802   1814   1820     1   111.5100476 526.347200
   1805   1808   1817     1   111.5100476 526.347200
   1808   1817   1826     1   107.9700462 569.024000
   1811   1823   3711     1   107.9700462 569.024000
   1814   1820   3682     1   107.9700462 569.024000
   1820   3682   3673     1   112.4800480 524.673600
   1823   3711   3702     1   112.4800480 524.673600
   1827   1828   1840     1   111.0400475 552.288000
   1827   1831   1843     1   111.0400475 552.288000
   1827   1834   1837     1   111.0400475 552.288000
   1828   1827   1831     1   112.3500484 533.878400
   1828   1827   1834     1   112.3500484 533.878400
   1828   1840   1852     1   111.5100476 526.347200
   1831   1827   1834     1   112.3500484 533.878400
   1831   1843   1849     1   111.5100476 526.347200
   1834   1837   1846     1   111.5100476 526.347200
   1837   1846   1855     1   107.9700462 569.024000
   1840   1852   3769     1   107.9700462 569.024000
   1843   1849   3740     1   107.9700462 569.024000
   1849   3740   3731     1   112.4800480 524.673600
   1852   3769   3760     1   112.4800480 524.673600
   1856   1857   1869     1   111.0400475 552.288000
   1856   1860   1872     1   111.0400475 552.288000
   1856   1863   1866     1   111.0400475 552.288000
   1857   1856   1860     1   112.3500484 533.878400
   1857   1856   1863     1   112.3500484 533.878400
   1857   1869   1881     1   111.5100476 526.347200
   1860   1856   1863     1   112.3500484 533.878400
   1860   1872   1878     1   111.5100476 526.347200
   1863   1866   1875     1   111.5100476 526.347200
   1866   1875   1884     1   107.9700462 569.024000
   1869   1881   3827     1   107.9700462 569.024000
   1872   1878   3798     1   107.9700462 569.024000
   1878   3798   3789     1   112.4800480 524.673600
   1881   3827   3818     1   112.4800480 524.673600
   1885   1886   1898     1   111.0400475 552.288000
   1885   1889   1901     1   111.0400475 552.288000
   1885   1892   1895     1   111.0400475 552.288000
   1886   1885   1889     1   112.3500484 533.878400
   1886   1885   1892     1   112.3500484 533.878400
   1886   1898   1910     1   111.5100476 526.347200
   1889   1885   1892     1   112.3500484 533.878400
   1889   1901   1907     1   111.5100476 526.347200
   1892   1895   1904     1   111.5100476 526.347200
   1895   1904   1913     1   107.9700462 569.024000
   1898   1910   3885     1   107.9700462 569.024000
   1901   1907   3856     1   107.9700462 569.024000
   1907   3856   3847     1   112.4800480 524.673600
   1910   3885   3876     1   112.4800480 524.673600
   1914   1915   1927     1   111.0400475 552.288000
   1914   1918   1930     1   111.0400475 552.288000
   1914   1921   1924     1   111.0400475 552.288000
   1915   1914   1918     1   112.3500484 533.878400
   1915   1914   1921     1   112.3500484 533.878400
   1915   1927   1939     1   111.5100476 526.347200
   1918   1914   1921     1   112.3500484 533.878400
   1918   1930   1936     1   111.5100476 526.347200
   1921   1924   1933     1   111.5100476 526.347200
   1924   1933   1942     1   107.9700462 569.024000
   1927   1939   3943     1   107.9700462 569.024000
   1930   1936   3914     1   107.9700462 569.024000
   1936   3914   3905     1   112.4800480 524.673600
   1939   3943   3934     1   112.4800480 524.673600
   1943   1944   1956     1   111.0400475 552.288000
   1943   1947   1959     1   111.0400475 552.288000
   1943   1950   1953     1   111.0400475 552.288000
   1944   1943   1947     1   112.3500484 533.878400
   1944   1943   1950     1   112.3500484 533.878400
   1944   1956   1968     1   111.5100476 526.347200
   1947   1943   1950     1   112.3500484 533.878400
   1947   1959   1965     1   111.5100476 526.347200
   1950   1953   1962     1   111.5100476 526.347200
   1953   1962   1971     1   107.9700462 569.024000
   1956   1968   4001     1   107.9700462 569.024000
   1959   1965   3972     1   107.9700462 569.024000
   1965   3972   3963     1   112.4800480 524.673600
   1968   4001   3992     1   112.4800480 524.673600
   1972   1973   1985     1   111.0400475 552.288000
   1972   1976   1988     1   111.0400475 552.288000
   1972   1979   1982     1   111.0400475 552.288000
   1973   1972   1976     1   112.3500484 533.878400
   1973   1972   1979     1   112.3500484 533.878400
   1973   1985   1997     1   111.5100476 526.347200
   1976   1972   1979     1   112.3500484 533.878400
   1976   1988   1994     1   111.5100476 526.347200
   1979   1982   1991     1   111.5100476 526.347200
   1982   1991   2000     1   107.9700462 569.024000
   1985   1997   4059     1   107.9700462 569.024000
   1988   1994   4030     1   107.9700462 569.024000
   1994   4030   4021     1   112.4800480 524.673600
   1997   4059   4050     1   112.4800480 524.673600
   2001   2002   2014     1   111.0400475 552.288000
   2001   2005   2017     1   111.0400475 552.288000
   2001   2008   2011     1   111.0400475 552.288000
   2002   2001   2005     1   112.3500484 533.878400
   2002   2001   2008     1   112.3500484 533.878400
   2002   2014   2026     1   111.5100476 526.347200
   2005   2001   2008     1   112.3500484 533.878400
   2005   2017   2023     1   111.5100476 526.347200
   2008   2011   2020     1   111.5100476 526.347200
   2011   2020   2029     1   107.9700462 569.024000
   2014   2026   4117     1   107.9700462 569.024000
   2017   2023   4088     1   107.9700462 569.024000
   2023   4088   4079     1   112.4800480 524.673600
   2026   4117   4108     1   112.4800480 524.673600
   2030   2031   2043     1   111.0400475 552.288000
   2030   2034   2046     1   111.0400475 552.288000
   2030   2037   2040     1   111.0400475 552.288000
   2031   2030   2034     1   112.3500484 533.878400
   2031   2030   2037     1   112.3500484 533.878400
   2031   2043   2055     1   111.5100476 526.347200
   2034   2030   2037     1   112.3500484 533.878400
   2034   2046   2052     1   111.5100476 526.347200
   2037   2040   2049     1   111.5100476 526.347200
   2040   2049   2058     1   107.9700462 569.024000
   2043   2055   4175     1   107.9700462 569.024000
   2046   2052   4146     1   107.9700462 569.024000
   2052   4146   4137     1   112.4800480 524.673600
   2055   4175   4166     1   112.4800480 524.673600
   2059   2060   2072     1   111.0400475 552.288000
   2059   2063   2075     1   111.0400475 552.288000
   2059   2066   2069     1   111.0400475 552.288000
   2060   2059   2063     1   112.3500484 533.878400
   2060   2059   2066     1   112.3500484 533.878400
   2060   2072   2084     1   111.5100476 526.347200
   2063   2059   2066     1   112.3500484 533.878400
   2063   2075   2081     1   111.5100476 526.347200
   2066   2069   2078     1   111.5100476 526.347200
   2069   2078   2087     1   107.9700462 569.024000
   2072   2084   4233     1   107.9700462 569.024000
   2075   2081   4204     1   107.9700462 569.024000
   2081   4204   4195     1   112.4800480 524.673600
   2084   4233   4224     1   112.4800480 524.673600
   2088   2089   2101     1   111.0400475 552.288000
   2088   2092   2104     1   111.0400475 552.288000
   2088   2095   2098     1   111.0400475 552.288000
   2089   2088   2092     1   112.3500484 533.878400
   2089   2088   2095     1   112.3500484 533.878400
   2089   2101   2113     1   111.5100476 526.347200
   2092   2088   2095     1   112.3500484 533.878400
   2092   2104   2110     1   111.5100476 526.347200
   2095   2098   2107     1   111.5100476 526.347200
   2098   2107   2116     1   107.9700462 569.024000
   2101   2113   4291     1   107.9700462 569.024000
   2104   2110   4262     1   107.9700462 569.024000
   2110   4262   4253     1   112.4800480 524.673600
   2113   4291   4282     1   112.4800480 524.673600
   2117   2118   2130     1   111.0400475 552.288000
   2117   2121   2133     1   111.0400475 552.288000
   2117   2124   2127     1   111.0400475 552.288000
   2118   2117   2121     1   112.3500484 533.878400
   2118   2117   2124     1   112.3500484 533.878400
   2118   2130   2142     1   111.5100476 526.347200
   2121   2117   2124     1   112.3500484 533.878400
   2121   2133   2139     1   111.5100476 526.347200
   2124   2127   2136     1   111.5100476 526.347200
   2127   2136   2145     1   107.9700462 569.024000
   2130   2142   4349     1   107.9700462 569.024000
   2133   2139   4320     1   107.9700462 569.024000
   2139   4320   4311     1   112.4800480 524.673600
   2142   4349   4340     1   112.4800480 524.673600
   2146   2147   2159     1   111.0400475 552.288000
   2146   2150   2162     1   111.0400475 552.288000
   2146   2153   2156     1   111.0400475 552.288000
   2147   2146   2150     1   112.3500484 533.878400
   2147   2146   2153     1   112.3500484 533.878400
   2147   2159   2171     1   111.5100476 526.347200
   2150   2146   2153     1   112.3500484 533.878400
   2150   2162   2168     1   111.5100476 526.347200
   2153   2156   2165     1   111.5100476 526.347200
   2156   2165   2174     1   107.9700462 569.024000
   2159   2171   4407     1   107.9700462 569.024000
   2162   2168   4378     1   107.9700462 569.024000
   2168   4378   4369     1   112.4800480 524.673600
   2171   4407   4398     1   112.4800480 524.673600
   2175   2176   2188     1   111.0400475 552.288000
   2175   2179   2191     1   111.0400475 552.288000
   2175   2182   2185     1   111.0400475 552.288000
   2176   2175   2179     1   112.3500484 533.878400
   2176   2175   2182     1   112.3500484 533.878400
   2176   2188   2200     1   111.5100476 526.347200
   2179   2175   2182     1   112.3500484 533.878400
   2179   2191   2197     1   111.5100476 526.347200
   2182   2185   2194     1   111.5100476 526.347200
   2185   2194   2203     1   107.9700462 569.024000
   2188   2200   4465     1   107.9700462 569.024000
   2191   2197   4436     1   107.9700462 569.024000
   2197   4436   4427     1   112.4800480 524.673600
   2200   4465   4456     1   112.4800480 524.673600
   2204   2205   2217     1   111.0400475 552.288000
   2204   2208   2220     1   111.0400475 552.288000
   2204   2211   2214     1   111.0400475 552.288000
   2205   2204   2208     1   112.3500484 533.878400
   2205   2204   2211     1   112.3500484 533.878400
   2205   2217   2229     1   111.5100476 526.347200
   2208   2204   2211     1   112.3500484 533.878400
   2208   2220   2226     1   111.5100476 526.347200
   2211   2214   2223     1   111.5100476 526.347200
   2214   2223   2232     1   107.9700462 569.024000
   2217   2229   4523     1   107.9700462 569.024000
   2220   2226   4494     1   107.9700462 569.024000
   2226   4494   4485     1   112.4800480 524.673600
   2229   4523   4514     1   112.4800480 524.673600
   2233   2234   2246     1   111.0400475 552.288000
   2233   2237   2249     1   111.0400475 552.288000
   2233   2240   2243     1   111.0400475 552.288000
   2234   2233   2237     1   112.3500484 533.878400
   2234   2233   2240     1   112.3500484 533.878400
   2234   2246   2258     1   111.5100476 526.347200
   2237   2233   2240     1   112.3500484 533.878400
   2237   2249   2255     1   111.5100476 526.347200
   2240   2243   2252     1   111.5100476 526.347200
   2243   2252   2261     1   107.9700462 569.024000
   2246   2258   4581     1   107.9700462 569.024000
   2249   2255   4552     1   107.9700462 569.024000
   2255   4552   4543     1   112.4800480 524.673600
   2258   4581   4572     1   112.4800480 524.673600
   2262   2263   2275     1   111.0400475 552.288000
   2262   2266   2278     1   111.0400475 552.288000
   2262   2269   2272     1   111.0400475 552.288000
   2263   2262   2266     1   112.3500484 533.878400
   2263   2262   2269     1   112.3500484 533.878400
   2263   2275   2287     1   111.5100476 526.347200
   2266   2262   2269     1   112.3500484 533.878400
   2266   2278   2284     1   111.5100476 526.347200
   2269   2272   2281     1   111.5100476 526.347200
   2272   2281   2290     1   107.9700462 569.024000
   2275   2287   4639     1   107.9700462 569.024000
   2278   2284   4610     1   107.9700462 569.024000
   2284   4610   4601     1   112.4800480 524.673600
   2287   4639   4630     1   112.4800480 524.673600
   2291   2292   2304     1   111.0400475 552.288000
   2291   2295   2307     1   111.0400475 552.288000
   2291   2298   2301     1   111.0400475 552.288000
   2292   2291   2295     1   112.3500484 533.878400
   2292   2291   2298     1   112.3500484 533.878400
   2292   2304   2316     1   111.5100476 526.347200
   2295   2291   2298     1   112.3500484 533.878400
   2295   2307   2313     1   111.5100476 526.347200
   2298   2301   2310     1   111.5100476 526.347200
   2301   2310   2319     1   107.9700462 569.024000
   2304   2316   4697     1   107.9700462 569.024000
   2307   2313   4668     1   107.9700462 569.024000
   2313   4668   4659     1   112.4800480 524.673600
   2316   4697   4688     1   112.4800480 524.673600
   2320   2321   2333     1   111.0400475 552.288000
   2320   2324   2336     1   111.0400475 552.288000
   2320   2327   2330     1   111.0400475 552.288000
   2321   2320   2324     1   112.3500484 533.878400
   2321   2320   2327     1   112.3500484 533.878400
   2321   2333   2345     1   111.5100476 526.347200
   2324   2320   2327     1   112.3500484 533.878400
   2324   2336   2342     1   111.5100476 526.347200
   2327   2330   2339     1   111.5100476 526.347200
   2330   2339   2348     1   107.9700462 569.024000
   2333   2345   4755     1   107.9700462 569.024000
   2336   2342   4726     1   107.9700462 569.024000
   2342   4726   4717     1   112.4800480 524.673600
   2345   4755   4746     1   112.4800480 524.673600
   2349   2350   2362     1   111.0400475 552.288000
   2349   2353   2365     1   111.0400475 552.288000
   2349   2356   2359     1   111.0400475 552.288000
   2350   2349   2353     1   112.3500484 533.878400
   2350   2349   2356     1   112.3500484 533.878400
   2350   2362   2374     1   111.5100476 526.347200
   2353   2349   2356     1   112.3500484 533.878400
   2353   2365   2371     1   111.5100476 526.347200
   2356   2359   2368     1   111.5100476 526.347200
   2359   2368   2377     1   107.9700462 569.024000
   2362   2374   4813     1   107.9700462 569.024000
   2365   2371   4784     1   107.9700462 569.024000
   2371   4784   4775     1   112.4800480 524.673600
   2374   4813   4804     1   112.4800480 524.673600
   2378   2379   2391     1   111.0400475 552.288000
   2378   2382   2394     1   111.0400475 552.288000
   2378   2385   2388     1   111.0400475 552.288000
   2379   2378   2382     1   112.3500484 533.878400
   2379   2378   2385     1   112.3500484 533.878400
   2379   2391   2403     1   111.5100476 526.347200
   2382   2378   2385     1   112.3500484 533.878400
   2382   2394   2400     1   111.5100476 526.347200
   2385   2388   2397     1   111.5100476 526.347200
   2388   2397   2406     1   107.9700462 569.024000
   2391   2403   4871     1   107.9700462 569.024000
   2394   2400   4842     1   107.9700462 569.024000
   2400   4842   4833     1   112.4800480 524.673600
   2403   4871   4862     1   112.4800480 524.673600
   2407   2408   2420     1   111.0400475 552.288000
   2407   2411   2423     1   111.0400475 552.288000
   2407   2414   2417     1   111.0400475 552.288000
   2408   2407   2411     1   112.3500484 533.878400
   2408   2407   2414     1   112.3500484 533.878400
   2408   2420   2432     1   111.5100476 526.347200
   2411   2407   2414     1   112.3500484 533.878400
   2411   2423   2429     1   111.5100476 526.347200
   2414   2417   2426     1   111.5100476 526.347200
   2417   2426   2435     1   107.9700462 569.024000
   2420   2432   4929     1   107.9700462 569.024000
   2423   2429   4900     1   107.9700462 569.024000
   2429   4900   4891     1   112.4800480 524.673600
   2432   4929   4920     1   112.4800480 524.673600
   2436   2437   2449     1   111.0400475 552.288000
   2436   2440   2452     1   111.0400475 552.288000
   2436   2443   2446     1   111.0400475 552.288000
   2437   2436   2440     1   112.3500484 533.878400
   2437   2436   2443     1   112.3500484 533.878400
   2437   2449   2461     1   111.5100476 526.347200
   2440   2436   2443     1   112.3500484 533.878400
   2440   2452   2458     1   111.5100476 526.347200
   2443   2446   2455     1   111.5100476 526.347200
   2446   2455   2464     1   107.9700462 569.024000
   2449   2461   4987     1   107.9700462 569.024000
   2452   2458   4958     1   107.9700462 569.024000
   2458   4958   4949     1   112.4800480 524.673600
   2461   4987   4978     1   112.4800480 524.673600
   2465   2466   2478     1   111.0400475 552.288000
   2465   2469   2481     1   111.0400475 552.288000
   2465   2472   2475     1   111.0400475 552.288000
   2466   2465   2469     1   112.3500484 533.878400
   2466   2465   2472     1   112.3500484 533.878400
   2466   2478   2490     1   111.5100476 526.347200
   2469   2465   2472     1   112.3500484 533.878400
   2469   2481   2487     1   111.5100476 526.347200
   2472   2475   2484     1   111.5100476 526.347200
   2475   2484   2493     1   107.9700462 569.024000
   2478   2490   5045     1   107.9700462 569.024000
   2481   2487   5016     1   107.9700462 569.024000
   2487   5016   5007     1   112.4800480 524.673600
   2490   5045   5036     1   112.4800480 524.673600
   2494   2495   2507     1   111.0400475 552.288000
   2494   2498   2510     1   111.0400475 552.288000
   2494   2501   2504     1   111.0400475 552.288000
   2495   2494   2498     1   112.3500484 533.878400
   2495   2494   2501     1   112.3500484 533.878400
   2495   2507   2519     1   111.5100476 526.347200
   2498   2494   2501     1   112.3500484 533.878400
   2498   2510   2516     1   111.5100476 526.347200
   2501   2504   2513     1   111.5100476 526.347200
   2504   2513   2522     1   107.9700462 569.024000
   2507   2519   5103     1   107.9700462 569.024000
   2510   2516   5074     1   107.9700462 569.024000
   2516   5074   5065     1   112.4800480 524.673600
   2519   5103   5094     1   112.4800480 524.673600
   2523   2524   2536     1   111.0400475 552.288000
   2523   2527   2539     1   111.0400475 552.288000
   2523   2530   2533     1   111.0400475 552.288000
   2524   2523   2527     1   112.3500484 533.878400
   2524   2523   2530     1   112.3500484 533.878400
   2524   2536   2548     1   111.5100476 526.347200
   2527   2523   2530     1   112.3500484 533.878400
   2527   2539   2545     1   111.5100476 526.347200
   2530   2533   2542     1   111.5100476 526.347200
   2533   2542   2551     1   107.9700462 569.024000
   2536   2548   5161     1   107.9700462 569.024000
   2539   2545   5132     1   107.9700462 569.024000
   2545   5132   5123     1   112.4800480 524.673600
   2548   5161   5152     1   112.4800480 524.673600
   2552   2553   2565     1   111.0400475 552.288000
   2552   2556   2568     1   111.0400475 552.288000
   2552   2559   2562     1   111.0400475 552.288000
   2553   2552   2556     1   112.3500484 533.878400
   2553   2552   2559     1   112.3500484 533.878400
   2553   2565   2577     1   111.5100476 526.347200
   2556   2552   2559     1   112.3500484 533.878400
   2556   2568   2574     1   111.5100476 526.347200
   2559   2562   2571     1   111.5100476 526.347200
   2562   2571   2580     1   107.9700462 569.024000
   2565   2577   5219     1   107.9700462 569.024000
   2568   2574   5190     1   107.9700462 569.024000
   2574   5190   5181     1   112.4800480 524.673600
   2577   5219   5210     1   112.4800480 524.673600
   2581   2582   2594     1   111.0400475 552.288000
   2581   2585   2597     1   111.0400475 552.288000
   2581   2588   2591     1   111.0400475 552.288000
   2582   2581   2585     1   112.3500484 533.878400
   2582   2581   2588     1   112.3500484 533.878400
   2582   2594   2606     1   111.5100476 526.347200
   2585   2581   2588     1   112.3500484 533.878400
   2585   2597   2603     1   111.5100476 526.347200
   2588   2591   2600     1   111.5100476 526.347200
   2591   2600   2609     1   107.9700462 569.024000
   2594   2606   5277     1   107.9700462 569.024000
   2597   2603   5248     1   107.9700462 569.024000
   2603   5248   5239     1   112.4800480 524.673600
   2606   5277   5268     1   112.4800480 524.673600
   2610   2611   2623     1   111.0400475 552.288000
   2610   2614   2626     1   111.0400475 552.288000
   2610   2617   2620     1   111.0400475 552.288000
   2611   2610   2614     1   112.3500484 533.878400
   2611   2610   2617     1   112.3500484 533.878400
   2611   2623   2635     1   111.5100476 526.347200
   2614   2610   2617     1   112.3500484 533.878400
   2614   2626   2632     1   111.5100476 526.347200
   2617   2620   2629     1   111.5100476 526.347200
   2620   2629   2638     1   107.9700462 569.024000
   2623   2635   5335     1   107.9700462 569.024000
   2626   2632   5306     1   107.9700462 569.024000
   2632   5306   5297     1   112.4800480 524.673600
   2635   5335   5326     1   112.4800480 524.673600
   2639   2640   2652     1   111.0400475 552.288000
   2639   2643   2655     1   111.0400475 552.288000
   2639   2646   2649     1   111.0400475 552.288000
   2640   2639   2643     1   112.3500484 533.878400
   2640   2639   2646     1   112.3500484 533.878400
   2640   2652   2664     1   111.5100476 526.347200
   2643   2639   2646     1   112.3500484 533.878400
   2643   2655   2661     1   111.5100476 526.347200
   2646   2649   2658     1   111.5100476 526.347200
   2649   2658   2667     1   107.9700462 569.024000
   2652   2664   5393     1   107.9700462 569.024000
   2655   2661   5364     1   107.9700462 569.024000
   2661   5364   5355     1   112.4800480 524.673600
   2664   5393   5384     1   112.4800480 524.673600
   2668   2669   2681     1   111.0400475 552.288000
   2668   2672   2684     1   111.0400475 552.288000
   2668   2675   2678     1   111.0400475 552.288000
   2669   2668   2672     1   112.3500484 533.878400
   2669   2668   2675     1   112.3500484 533.878400
   2669   2681   2693     1   111.5100476 526.347200
   2672   2668   2675     1   112.3500484 533.878400
   2672   2684   2690     1   111.5100476 526.347200
   2675   2678   2687     1   111.5100476 526.347200
   2678   2687   2696     1   107.9700462 569.024000
   2681   2693   5451     1   107.9700462 569.024000
   2684   2690   5422     1   107.9700462 569.024000
   2690   5422   5413     1   112.4800480 524.673600
   2693   5451   5442     1   112.4800480 524.673600
   2697   2698   2710     1   111.0400475 552.288000
   2697   2701   2713     1   111.0400475 552.288000
   2697   2704   2707     1   111.0400475 552.288000
   2698   2697   2701     1   112.3500484 533.878400
   2698   2697   2704     1   112.3500484 533.878400
   2698   2710   2722     1   111.5100476 526.347200
   2701   2697   2704     1   112.3500484 533.878400
   2701   2713   2719     1   111.5100476 526.347200
   2704   2707   2716     1   111.5100476 526.347200
   2707   2716   2725     1   107.9700462 569.024000
   2710   2722   5509     1   107.9700462 569.024000
   2713   2719   5480     1   107.9700462 569.024000
   2719   5480   5471     1   112.4800480 524.673600
   2722   5509   5500     1   112.4800480 524.673600
   2726   2727   2739     1   111.0400475 552.288000
   2726   2730   2742     1   111.0400475 552.288000
   2726   2733   2736     1   111.0400475 552.288000
   2727   2726   2730     1   112.3500484 533.878400
   2727   2726   2733     1   112.3500484 533.878400
   2727   2739   2751     1   111.5100476 526.347200
   2730   2726   2733     1   112.3500484 533.878400
   2730   2742   2748     1   111.5100476 526.347200
   2733   2736   2745     1   111.5100476 526.347200
   2736   2745   2754     1   107.9700462 569.024000
   2739   2751   5567     1   107.9700462 569.024000
   2742   2748   5538     1   107.9700462 569.024000
   2748   5538   5529     1   112.4800480 524.673600
   2751   5567   5558     1   112.4800480 524.673600
   2755   2756   2768     1   111.0400475 552.288000
   2755   2759   2771     1   111.0400475 552.288000
   2755   2762   2765     1   111.0400475 552.288000
   2756   2755   2759     1   112.3500484 533.878400
   2756   2755   2762     1   112.3500484 533.878400
   2756   2768   2780     1   111.5100476 526.347200
   2759   2755   2762     1   112.3500484 533.878400
   2759   2771   2777     1   111.5100476 526.347200
   2762   2765   2774     1   111.5100476 526.347200
   2765   2774   2783     1   107.9700462 569.024000
   2768   2780   5625     1   107.9700462 569.024000
   2771   2777   5596     1   107.9700462 569.024000
   2777   5596   5587     1   112.4800480 524.673600
   2780   5625   5616     1   112.4800480 524.673600
   2784   2785   2797     1   111.0400475 552.288000
   2784   2788   2800     1   111.0400475 552.288000
   2784   2791   2794     1   111.0400475 552.288000
   2785   2784   2788     1   112.3500484 533.878400
   2785   2784   2791     1   112.3500484 533.878400
   2785   2797   2809     1   111.5100476 526.347200
   2788   2784   2791     1   112.3500484 533.878400
   2788   2800   2806     1   111.5100476 526.347200
   2791   2794   2803     1   111.5100476 526.347200
   2794   2803   2812     1   107.9700462 569.024000
   2797   2809   5683     1   107.9700462 569.024000
   2800   2806   5654     1   107.9700462 569.024000
   2806   5654   5645     1   112.4800480 524.673600
   2809   5683   5674     1   112.4800480 524.673600
   2813   2814   2826     1   111.0400475 552.288000
   2813   2817   2829     1   111.0400475 552.288000
   2813   2820   2823     1   111.0400475 552.288000
   2814   2813   2817     1   112.3500484 533.878400
   2814   2813   2820     1   112.3500484 533.878400
   2814   2826   2838     1   111.5100476 526.347200
   2817   2813   2820     1   112.3500484 533.878400
   2817   2829   2835     1   111.5100476 526.347200
   2820   2823   2832     1   111.5100476 526.347200
   2823   2832   2841     1   107.9700462 569.024000
   2826   2838   5741     1   107.9700462 569.024000
   2829   2835   5712     1   107.9700462 569.024000
   2835   5712   5703     1   112.4800480 524.673600
   2838   5741   5732     1   112.4800480 524.673600
   2842   2843   2855     1   111.0400475 552.288000
   2842   2846   2858     1   111.0400475 552.288000
   2842   2849   2852     1   111.0400475 552.288000
   2843   2842   2846     1   112.3500484 533.878400
   2843   2842   2849     1   112.3500484 533.878400
   2843   2855   2867     1   111.5100476 526.347200
   2846   2842   2849     1   112.3500484 533.878400
   2846   2858   2864     1   111.5100476 526.347200
   2849   2852   2861     1   111.5100476 526.347200
   2852   2861   2870     1   107.9700462 569.024000
   2855   2867   5799     1   107.9700462 569.024000
   2858   2864   5770     1   107.9700462 569.024000
   2864   5770   5761     1   112.4800480 524.673600
   2867   5799   5790     1   112.4800480 524.673600
   2871   2872   2884     1   111.0400475 552.288000
   2871   2875   2887     1   111.0400475 552.288000
   2871   2878   2881     1   111.0400475 552.288000
   2872   2871   2875     1   112.3500484 533.878400
   2872   2871   2878     1   112.3500484 533.878400
   2872   2884   2896     1   111.5100476 526.347200
   2875   2871   2878     1   112.3500484 533.878400
   2875   2887   2893     1   111.5100476 526.347200
   2878   2881   2890     1   111.5100476 526.347200
   2881   2890   2899     1   107.9700462 569.024000
   2884   2896   5857     1   107.9700462 569.024000
   2887   2893   5828     1   107.9700462 569.024000
   2893   5828   5819     1   112.4800480 524.673600
   2896   5857   5848     1   112.4800480 524.673600
   2900   2901   2913     1   111.0400475 552.288000
   2900   2904   2916     1   111.0400475 552.288000
   2900   2907   2910     1   111.0400475 552.288000
   2901   2900   2904     1   112.3500484 533.878400
   2901   2900   2907     1   112.3500484 533.878400
   2901   2913   2925     1   111.5100476 526.347200
   2904   2900   2907     1   112.3500484 533.878400
   2904   2916   2922     1   111.5100476 526.347200
   2907   2910   2919     1   111.5100476 526.347200
   2910   2919   2928     1   107.9700462 569.024000
   2913   2925   5915     1   107.9700462 569.024000
   2916   2922   5886     1   107.9700462 569.024000
   2922   5886   5877     1   112.4800480 524.673600
   2925   5915   5906     1   112.4800480 524.673600
   2929   2930   2942     1   111.0400475 552.288000
   2929   2933   2945     1   111.0400475 552.288000
   2929   2936   2939     1   111.0400475 552.288000
   2930   2929   2933     1   112.3500484 533.878400
   2930   2929   2936     1   112.3500484 533.878400
   2930   2942   2954     1   111.5100476 526.347200
   2933   2929   2936     1   112.3500484 533.878400
   2933   2945   2951     1   111.5100476 526.347200
   2936   2939   2948     1   111.5100476 526.347200
   2939   2948   2957     1   107.9700462 569.024000
   2942   2954   5973     1   107.9700462 569.024000
   2945   2951   5944     1   107.9700462 569.024000
   2951   5944   5935     1   112.4800480 524.673600
   2954   5973   5964     1   112.4800480 524.673600
   2958   2959   2971     1   111.0400475 552.288000
   2958   2962   2974     1   111.0400475 552.288000
   2958   2965   2968     1   111.0400475 552.288000
   2959   2958   2962     1   112.3500484 533.878400
   2959   2958   2965     1   112.3500484 533.878400
   2959   2971   2983     1   111.5100476 526.347200
   2962   2958   2965     1   112.3500484 533.878400
   2962   2974   2980     1   111.5100476 526.347200
   2965   2968   2977     1   111.5100476 526.347200
   2968   2977   2986     1   107.9700462 569.024000
   2971   2983   6031     1   107.9700462 569.024000
   2974   2980   6002     1   107.9700462 569.024000
   2980   6002   5993     1   112.4800480 524.673600
   2983   6031   6022     1   112.4800480 524.673600
   2987   2988   3000     1   111.0400475 552.288000
   2987   2991   3003     1   111.0400475 552.288000
   2987   2994   2997     1   111.0400475 552.288000
   2988   2987   2991     1   112.3500484 533.878400
   2988   2987   2994     1   112.3500484 533.878400
   2988   3000   3012     1   111.5100476 526.347200
   2991   2987   2994     1   112.3500484 533.878400
   2991   3003   3009     1   111.5100476 526.347200
   2994   2997   3006     1   111.5100476 526.347200
   2997   3006   3015     1   107.9700462 569.024000
   3000   3012   6089     1   107.9700462 569.024000
   3003   3009   6060     1   107.9700462 569.024000
   3009   6060   6051     1   112.4800480 524.673600
   3012   6089   6080     1   112.4800480 524.673600
   3016   3017   3029     1   111.0400475 552.288000
   3016   3020   3032     1   111.0400475 552.288000
   3016   3023   3026     1   111.0400475 552.288000
   3017   3016   3020     1   112.3500484 533.878400
   3017   3016   3023     1   112.3500484 533.878400
   3017   3029   3041     1   111.5100476 526.347200
   3020   3016   3023     1   112.3500484 533.878400
   3020   3032   3038     1   111.5100476 526.347200
   3023   3026   3035     1   111.5100476 526.347200
   3026   3035   3044     1   107.9700462 569.024000
   3029   3041   6147     1   107.9700462 569.024000
   3032   3038   6118     1   107.9700462 569.024000
   3038   6118   6109     1   112.4800480 524.673600
   3041   6147   6138     1   112.4800480 524.673600
   3045   3046   3058     1   111.0400475 552.288000
   3045   3049   3061     1   111.0400475 552.288000
   3045   3052   3055     1   111.0400475 552.288000
   3046   3045   3049     1   112.3500484 533.878400
   3046   3045   3052     1   112.3500484 533.878400
   3046   3058   3070     1   111.5100476 526.347200
   3049   3045   3052     1   112.3500484 533.878400
   3049   3061   3067     1   111.5100476 526.347200
   3052   3055   3064     1   111.5100476 526.347200
   3055   3064   3073     1   107.9700462 569.024000
   3058   3070   6205     1   107.9700462 569.024000
   3061   3067   6176     1   107.9700462 569.024000
   3067   6176   6167     1   112.4800480 524.673600
   3070   6205   6196     1   112.4800480 524.673600
   3074   3075   3087     1   111.0400475 552.288000
   3074   3078   3090     1   111.0400475 552.288000
   3074   3081   3084     1   111.0400475 552.288000
   3075   3074   3078     1   112.3500484 533.878400
   3075   3074   3081     1   112.3500484 533.878400
   3075   3087   3099     1   111.5100476 526.347200
   3078   3074   3081     1   112.3500484 533.878400
   3078   3090   3096     1   111.5100476 526.347200
   3081   3084   3093     1   111.5100476 526.347200
   3084   3093   3102     1   107.9700462 569.024000
   3087   3099   6263     1   107.9700462 569.024000
   3090   3096   6234     1   107.9700462 569.024000
   3096   6234   6225     1   112.4800480 524.673600
   3099   6263   6254     1   112.4800480 524.673600
   3103   3104   3116     1   111.0400475 552.288000
   3103   3107   3119     1   111.0400475 552.288000
   3103   3110   3113     1   111.0400475 552.288000
   3104   3103   3107     1   112.3500484 533.878400
   3104   3103   3110     1   112.3500484 533.878400
   3104   3116   3128     1   111.5100476 526.347200
   3107   3103   3110     1   112.3500484 533.878400
   3107   3119   3125     1   111.5100476 526.347200
   3110   3113   3122     1   111.5100476 526.347200
   3113   3122   3131     1   107.9700462 569.024000
   3116   3128   6321     1   107.9700462 569.024000
   3119   3125   6292     1   107.9700462 569.024000
   3125   6292   6283     1   112.4800480 524.673600
   3128   6321   6312     1   112.4800480 524.673600
   3132   3133   3145     1   111.0400475 552.288000
   3132   3136   3148     1   111.0400475 552.288000
   3132   3139   3142     1   111.0400475 552.288000
   3133   3132   3136     1   112.3500484 533.878400
   3133   3132   3139     1   112.3500484 533.878400
   3133   3145   3157     1   111.5100476 526.347200
   3136   3132   3139     1   112.3500484 533.878400
   3136   3148   3154     1   111.5100476 526.347200
   3139   3142   3151     1   111.5100476 526.347200
   3142   3151   3160     1   107.9700462 569.024000
   3145   3157   6379     1   107.9700462 569.024000
   3148   3154   6350     1   107.9700462 569.024000
   3154   6350   6341     1   112.4800480 524.673600
   3157   6379   6370     1   112.4800480 524.673600
   3161   3162   3174     1   111.0400475 552.288000
   3161   3165   3177     1   111.0400475 552.288000
   3161   3168   3171     1   111.0400475 552.288000
   3162   3161   3165     1   112.3500484 533.878400
   3162   3161   3168     1   112.3500484 533.878400
   3162   3174   3186     1   111.5100476 526.347200
   3165   3161   3168     1   112.3500484 533.878400
   3165   3177   3183     1   111.5100476 526.347200
   3168   3171   3180     1   111.5100476 526.347200
   3171   3180   3189     1   107.9700462 569.024000
   3174   3186   6437     1   107.9700462 569.024000
   3177   3183   6408     1   107.9700462 569.024000
   3183   6408   6399     1   112.4800480 524.673600
   3186   6437   6428     1   112.4800480 524.673600
   3190   3191   3203     1   111.0400475 552.288000
   3190   3194   3206     1   111.0400475 552.288000
   3190   3197   3200     1   111.0400475 552.288000
   3191   3190   3194     1   112.3500484 533.878400
   3191   3190   3197     1   112.3500484 533.878400
   3191   3203   3215     1   111.5100476 526.347200
   3194   3190   3197     1   112.3500484 533.878400
   3194   3206   3212     1   111.5100476 526.347200
   3197   3200   3209     1   111.5100476 526.347200
   3200   3209   3218     1   107.9700462 569.024000
   3203   3215   6495     1   107.9700462 569.024000
   3206   3212   6466     1   107.9700462 569.024000
   3212   6466   6457     1   112.4800480 524.673600
   3215   6495   6486     1   112.4800480 524.673600
   3219   3220   3232     1   111.0400475 552.288000
   3219   3223   3235     1   111.0400475 552.288000
   3219   3226   3229     1   111.0400475 552.288000
   3220   3219   3223     1   112.3500484 533.878400
   3220   3219   3226     1   112.3500484 533.878400
   3220   3232   3244     1   111.5100476 526.347200
   3223   3219   3226     1   112.3500484 533.878400
   3223   3235   3241     1   111.5100476 526.347200
   3226   3229   3238     1   111.5100476 526.347200
   3229   3238   3247     1   107.9700462 569.024000
   3232   3244   6553     1   107.9700462 569.024000
   3235   3241   6524     1   107.9700462 569.024000
   3241   6524   6515     1   112.4800480 524.673600
   3244   6553   6544     1   112.4800480 524.673600
   3248   3249   3261     1   111.0400475 552.288000
   3248   3252   3264     1   111.0400475 552.288000
   3248   3255   3258     1   111.0400475 552.288000
   3249   3248   3252     1   112.3500484 533.878400
   3249   3248   3255     1   112.3500484 533.878400
   3249   3261   3273     1   111.5100476 526.347200
   3252   3248   3255     1   112.3500484 533.878400
   3252   3264   3270     1   111.5100476 526.347200
   3255   3258   3267     1   111.5100476 526.347200
   3258   3267   3276     1   107.9700462 569.024000
   3261   3273   6611     1   107.9700462 569.024000
   3264   3270   6582     1   107.9700462 569.024000
   3270   6582   6573     1   112.4800480 524.673600
   3273   6611   6602     1   112.4800480 524.673600
   3277   3278   3290     1   111.0400475 552.288000
   3277   3281   3293     1   111.0400475 552.288000
   3277   3284   3287     1   111.0400475 552.288000
   3278   3277   3281     1   112.3500484 533.878400
   3278   3277   3284     1   112.3500484 533.878400
   3278   3290   3302     1   111.5100476 526.347200
   3281   3277   3284     1   112.3500484 533.878400
   3281   3293   3299     1   111.5100476 526.347200
   3284   3287   3296     1   111.5100476 526.347200
   3287   3296   3305     1   107.9700462 569.024000
   3290   3302   6669     1   107.9700462 569.024000
   3293   3299   6640     1   107.9700462 569.024000
   3299   6640   6631     1   112.4800480 524.673600
   3302   6669   6660     1   112.4800480 524.673600
   3306   3307   3319     1   111.0400475 552.288000
   3306   3310   3322     1   111.0400475 552.288000
   3306   3313   3316     1   111.0400475 552.288000
   3307   3306   3310     1   112.3500484 533.878400
   3307   3306   3313     1   112.3500484 533.878400
   3307   3319   3331     1   111.5100476 526.347200
   3310   3306   3313     1   112.3500484 533.878400
   3310   3322   3328     1   111.5100476 526.347200
   3313   3316   3325     1   111.5100476 526.347200
   3316   3325   3334     1   107.9700462 569.024000
   3319   3331   6727     1   107.9700462 569.024000
   3322   3328   6698     1   107.9700462 569.024000
   3328   6698   6689     1   112.4800480 524.673600
   3331   6727   6718     1   112.4800480 524.673600
   3335   3336   3348     1   111.0400475 552.288000
   3335   3339   3351     1   111.0400475 552.288000
   3335   3342   3345     1   111.0400475 552.288000
   3336   3335   3339     1   112.3500484 533.878400
   3336   3335   3342     1   112.3500484 533.878400
   3336   3348   3360     1   111.5100476 526.347200
   3339   3335   3342     1   112.3500484 533.878400
   3339   3351   3357     1   111.5100476 526.347200
   3342   3345   3354     1   111.5100476 526.347200
   3345   3354   3363     1   107.9700462 569.024000
   3348   3360   6785     1   107.9700462 569.024000
   3351   3357   6756     1   107.9700462 569.024000
   3357   6756   6747     1   112.4800480 524.673600
   3360   6785   6776     1   112.4800480 524.673600
   3364   3365   3377     1   111.0400475 552.288000
   3364   3368   3380     1   111.0400475 552.288000
   3364   3371   3374     1   111.0400475 552.288000
   3365   3364   3368     1   112.3500484 533.878400
   3365   3364   3371     1   112.3500484 533.878400
   3365   3377   3389     1   111.5100476 526.347200
   3368   3364   3371     1   112.3500484 533.878400
   3368   3380   3386     1   111.5100476 526.347200
   3371   3374   3383     1   111.5100476 526.347200
   3374   3383   3392     1   107.9700462 569.024000
   3377   3389   6843     1   107.9700462 569.024000
   3380   3386   6814     1   107.9700462 569.024000
   3386   6814   6805     1   112.4800480 524.673600
   3389   6843   6834     1   112.4800480 524.673600
   3393   3394   3406     1   111.0400475 552.288000
   3393   3397   3409     1   111.0400475 552.288000
   3393   3400   3403     1   111.0400475 552.288000
   3394   3393   3397     1   112.3500484 533.878400
   3394   3393   3400     1   112.3500484 533.878400
   3394   3406   3418     1   111.5100476 526.347200
   3397   3393   3400     1   112.3500484 533.878400
   3397   3409   3415     1   111.5100476 526.347200
   3400   3403   3412     1   111.5100476 526.347200
   3403   3412   3421     1   107.9700462 569.024000
   3406   3418   6901     1   107.9700462 569.024000
   3409   3415   6872     1   107.9700462 569.024000
   3415   6872   6863     1   112.4800480 524.673600
   3418   6901   6892     1   112.4800480 524.673600
   3422   3423   3435     1   111.0400475 552.288000
   3422   3426   3438     1   111.0400475 552.288000
   3422   3429   3432     1   111.0400475 552.288000
   3423   3422   3426     1   112.3500484 533.878400
   3423   3422   3429     1   112.3500484 533.878400
   3423   3435   3447     1   111.5100476 526.347200
   3426   3422   3429     1   112.3500484 533.878400
   3426   3438   3444     1   111.5100476 526.347200
   3429   3432   3441     1   111.5100476 526.347200
   3432   3441   3450     1   107.9700462 569.024000
   3435   3447   6959     1   107.9700462 569.024000
   3438   3444   6930     1   107.9700462 569.024000
   3444   6930   6921     1   112.4800480 524.673600
   3447   6959   6950     1   112.4800480 524.673600
   3451   3452   3464     1   111.0400475 552.288000
   3451   3455   3467     1   111.0400475 552.288000
   3451   3458   3461     1   111.0400475 552.288000
   3452   3451   3455     1   112.3500484 533.878400
   3452   3451   3458     1   112.3500484 533.878400
   3452   3464   3476     1   111.5100476 526.347200
   3455   3451   3458     1   112.3500484 533.878400
   3455   3467   3473     1   111.5100476 526.347200
   3458   3461   3470     1   111.5100476 526.347200
   3461   3470   3479     1   107.9700462 569.024000
   3464   3476   7017     1   107.9700462 569.024000
   3467   3473   6988     1   107.9700462 569.024000
   3473   6988   6979     1   112.4800480 524.673600
   3476   7017   7008     1   112.4800480 524.673600
   3480   3481   3493     1   111.0400475 552.288000
   3480   3484   3496     1   111.0400475 552.288000
   3480   3487   3490     1   111.0400475 552.288000
   3481   3480   3484     1   112.3500484 533.878400
   3481   3480   3487     1   112.3500484 533.878400
   3481   3493   3505     1   111.5100476 526.347200
   3484   3480   3487     1   112.3500484 533.878400
   3484   3496   3502     1   111.5100476 526.347200
   3487   3490   3499     1   111.5100476 526.347200
   3490   3499   3508     1   107.9700462 569.024000
   3493   3505   7075     1   107.9700462 569.024000
   3496   3502   7046     1   107.9700462 569.024000
   3502   7046   7037     1   112.4800480 524.673600
   3505   7075   7066     1   112.4800480 524.673600
   3509   3510   3522     1   111.0400475 552.288000
   3509   3513   3525     1   111.0400475 552.288000
   3509   3516   3519     1   111.0400475 552.288000
   3510   3509   3513     1   112.3500484 533.878400
   3510   3509   3516     1   112.3500484 533.878400
   3510   3522   3534     1   111.5100476 526.347200
   3513   3509   3516     1   112.3500484 533.878400
   3513   3525   3531     1   111.5100476 526.347200
   3516   3519   3528     1   111.5100476 526.347200
   3519   3528   3537     1   107.9700462 569.024000
   3522   3534   7133     1   107.9700462 569.024000
   3525   3531   7104     1   107.9700462 569.024000
   3531   7104   7095     1   112.4800480 524.673600
   3534   7133   7124     1   112.4800480 524.673600
   3538   3539   3551     1   111.0400475 552.288000
   3538   3542   3554     1   111.0400475 552.288000
   3538   3545   3548     1   111.0400475 552.288000
   3539   3538   3542     1   112.3500484 533.878400
   3539   3538   3545     1   112.3500484 533.878400
   3539   3551   3563     1   111.5100476 526.347200
   3542   3538   3545     1   112.3500484 533.878400
   3542   3554   3560     1   111.5100476 526.347200
   3545   3548   3557     1   111.5100476 526.347200
   3548   3557   3566     1   107.9700462 569.024000
   3551   3563   7191     1   107.9700462 569.024000
   3554   3560   7162     1   107.9700462 569.024000
   3560   7162   7153     1   112.4800480 524.673600
   3563   7191   7182     1   112.4800480 524.673600
   3567   3568   3580     1   111.0400475 552.288000
   3567   3571   3583     1   111.0400475 552.288000
   3567   3574   3577     1   111.0400475 552.288000
   3568   3567   3571     1   112.3500484 533.878400
   3568   3567   3574     1   112.3500484 533.878400
   3568   3580   3592     1   111.5100476 526.347200
   3571   3567   3574     1   112.3500484 533.878400
   3571   3583   3589     1   111.5100476 526.347200
   3574   3577   3586     1   111.5100476 526.347200
   3577   3586   3595     1   107.9700462 569.024000
   3580   3592   7249     1   107.9700462 569.024000
   3583   3589   7220     1   107.9700462 569.024000
   3589   7220   7211     1   112.4800480 524.673600
   3592   7249   7240     1   112.4800480 524.673600
   3596   3597   3609     1   111.0400475 552.288000
   3596   3600   3612     1   111.0400475 552.288000
   3596   3603   3606     1   111.0400475 552.288000
   3597   3596   3600     1   112.3500484 533.878400
   3597   3596   3603     1   112.3500484 533.878400
   3597   3609   3621     1   111.5100476 526.347200
   3600   3596   3603     1   112.3500484 533.878400
   3600   3612   3618     1   111.5100476 526.347200
   3603   3606   3615     1   111.5100476 526.347200
   3606   3615   3624     1   107.9700462 569.024000
   3609   3621   7307     1   107.9700462 569.024000
   3612   3618   7278     1   107.9700462 569.024000
   3618   7278   7269     1   112.4800480 524.673600
   3621   7307   7298     1   112.4800480 524.673600
   3625   3626   3638     1   111.0400475 552.288000
   3625   3629   3641     1   111.0400475 552.288000
   3625   3632   3635     1   111.0400475 552.288000
   3626   3625   3629     1   112.3500484 533.878400
   3626   3625   3632     1   112.3500484 533.878400
   3626   3638   3650     1   111.5100476 526.347200
   3629   3625   3632     1   112.3500484 533.878400
   3629   3641   3647     1   111.5100476 526.347200
   3632   3635   3644     1   111.5100476 526.347200
   3635   3644   3653     1   107.9700462 569.024000
   3638   3650   7365     1   107.9700462 569.024000
   3641   3647   7336     1   107.9700462 569.024000
   3647   7336   7327     1   112.4800480 524.673600
   3650   7365   7356     1   112.4800480 524.673600
   3654   3655   3667     1   111.0400475 552.288000
   3654   3658   3670     1   111.0400475 552.288000
   3654   3661   3664     1   111.0400475 552.288000
   3655   3654   3658     1   112.3500484 533.878400
   3655   3654   3661     1   112.3500484 533.878400
   3655   3667   3679     1   111.5100476 526.347200
   3658   3654   3661     1   112.3500484 533.878400
   3658   3670   3676     1   111.5100476 526.347200
   3661   3664   3673     1   111.5100476 526.347200
   3664   3673   3682     1   107.9700462 569.024000
   3667   3679   7423     1   107.9700462 569.024000
   3670   3676   7394     1   107.9700462 569.024000
   3676   7394   7385     1   112.4800480 524.673600
   3679   7423   7414     1   112.4800480 524.673600
   3683   3684   3696     1   111.0400475 552.288000
   3683   3687   3699     1   111.0400475 552.288000
   3683   3690   3693     1   111.0400475 552.288000
   3684   3683   3687     1   112.3500484 533.878400
   3684   3683   3690     1   112.3500484 533.878400
   3684   3696   3708     1   111.5100476 526.347200
   3687   3683   3690     1   112.3500484 533.878400
   3687   3699   3705     1   111.5100476 526.347200
   3690   3693   3702     1   111.5100476 526.347200
   3693   3702   3711     1   107.9700462 569.024000
   3696   3708   7481     1   107.9700462 569.024000
   3699   3705   7452     1   107.9700462 569.024000
   3705   7452   7443     1   112.4800480 524.673600
   3708   7481   7472     1   112.4800480 524.673600
   3712   3713   3725     1   111.0400475 552.288000
   3712   3716   3728     1   111.0400475 552.288000
   3712   3719   3722     1   111.0400475 552.288000
   3713   3712   3716     1   112.3500484 533.878400
   3713   3712   3719     1   112.3500484 533.878400
   3713   3725   3737     1   111.5100476 526.347200
   3716   3712   3719     1   112.3500484 533.878400
   3716   3728   3734     1   111.5100476 526.347200
   3719   3722   3731     1   111.5100476 526.347200
   3722   3731   3740     1   107.9700462 569.024000
   3725   3737   7539     1   107.9700462 569.024000
   3728   3734   7510     1   107.9700462 569.024000
   3734   7510   7501     1   112.4800480 524.673600
   3737   7539   7530     1   112.4800480 524.673600
   3741   3742   3754     1   111.0400475 552.288000
   3741   3745   3757     1   111.0400475 552.288000
   3741   3748   3751     1   111.0400475 552.288000
   3742   3741   3745     1   112.3500484 533.878400
   3742   3741   3748     1   112.3500484 533.878400
   3742   3754   3766     1   111.5100476 526.347200
   3745   3741   3748     1   112.3500484 533.878400
   3745   3757   3763     1   111.5100476 526.347200
   3748   3751   3760     1   111.5100476 526.347200
   3751   3760   3769     1   107.9700462 569.024000
   3754   3766   7597     1   107.9700462 569.024000
   3757   3763   7568     1   107.9700462 569.024000
   3763   7568   7559     1   112.4800480 524.673600
   3766   7597   7588     1   112.4800480 524.673600
   3770   3771   3783     1   111.0400475 552.288000
   3770   3774   3786     1   111.0400475 552.288000
   3770   3777   3780     1   111.0400475 552.288000
   3771   3770   3774     1   112.3500484 533.878400
   3771   3770   3777     1   112.3500484 533.878400
   3771   3783   3795     1   111.5100476 526.347200
   3774   3770   3777     1   112.3500484 533.878400
   3774   3786   3792     1   111.5100476 526.347200
   3777   3780   3789     1   111.5100476 526.347200
   3780   3789   3798     1   107.9700462 569.024000
   3783   3795   7655     1   107.9700462 569.024000
   3786   3792   7626     1   107.9700462 569.024000
   3792   7626   7617     1   112.4800480 524.673600
   3795   7655   7646     1   112.4800480 524.673600
   3799   3800   3812     1   111.0400475 552.288000
   3799   3803   3815     1   111.0400475 552.288000
   3799   3806   3809     1   111.0400475 552.288000
   3800   3799   3803     1   112.3500484 533.878400
   3800   3799   3806     1   112.3500484 533.878400
   3800   3812   3824     1   111.5100476 526.347200
   3803   3799   3806     1   112.3500484 533.878400
   3803   3815   3821     1   111.5100476 526.347200
   3806   3809   3818     1   111.5100476 526.347200
   3809   3818   3827     1   107.9700462 569.024000
   3812   3824   7713     1   107.9700462 569.024000
   3815   3821   7684     1   107.9700462 569.024000
   3821   7684   7675     1   112.4800480 524.673600
   3824   7713   7704     1   112.4800480 524.673600
   3828   3829   3841     1   111.0400475 552.288000
   3828   3832   3844     1   111.0400475 552.288000
   3828   3835   3838     1   111.0400475 552.288000
   3829   3828   3832     1   112.3500484 533.878400
   3829   3828   3835     1   112.3500484 533.878400
   3829   3841   3853     1   111.5100476 526.347200
   3832   3828   3835     1   112.3500484 533.878400
   3832   3844   3850     1   111.5100476 526.347200
   3835   3838   3847     1   111.5100476 526.347200
   3838   3847   3856     1   107.9700462 569.024000
   3841   3853   7771     1   107.9700462 569.024000
   3844   3850   7742     1   107.9700462 569.024000
   3850   7742   7733     1   112.4800480 524.673600
   3853   7771   7762     1   112.4800480 524.673600
   3857   3858   3870     1   111.0400475 552.288000
   3857   3861   3873     1   111.0400475 552.288000
   3857   3864   3867     1   111.0400475 552.288000
   3858   3857   3861     1   112.3500484 533.878400
   3858   3857   3864     1   112.3500484 533.878400
   3858   3870   3882     1   111.5100476 526.347200
   3861   3857   3864     1   112.3500484 533.878400
   3861   3873   3879     1   111.5100476 526.347200
   3864   3867   3876     1   111.5100476 526.347200
   3867   3876   3885     1   107.9700462 569.024000
   3870   3882   7829     1   107.9700462 569.024000
   3873   3879   7800     1   107.9700462 569.024000
   3879   7800   7791     1   112.4800480 524.673600
   3882   7829   7820     1   112.4800480 524.673600
   3886   3887   3899     1   111.0400475 552.288000
   3886   3890   3902     1   111.0400475 552.288000
   3886   3893   3896     1   111.0400475 552.288000
   3887   3886   3890     1   112.3500484 533.878400
   3887   3886   3893     1   112.3500484 533.878400
   3887   3899   3911     1   111.5100476 526.347200
   3890   3886   3893     1   112.3500484 533.878400
   3890   3902   3908     1   111.5100476 526.347200
   3893   3896   3905     1   111.5100476 526.347200
   3896   3905   3914     1   107.9700462 569.024000
   3899   3911   7887     1   107.9700462 569.024000
   3902   3908   7858     1   107.9700462 569.024000
   3908   7858   7849     1   112.4800480 524.673600
   3911   7887   7878     1   112.4800480 524.673600
   3915   3916   3928     1   111.0400475 552.288000
   3915   3919   3931     1   111.0400475 552.288000
   3915   3922   3925     1   111.0400475 552.288000
   3916   3915   3919     1   112.3500484 533.878400
   3916   3915   3922     1   112.3500484 533.878400
   3916   3928   3940     1   111.5100476 526.347200
   3919   3915   3922     1   112.3500484 533.878400
   3919   3931   3937     1   111.5100476 526.347200
   3922   3925   3934     1   111.5100476 526.347200
   3925   3934   3943     1   107.9700462 569.024000
   3928   3940   7945     1   107.9700462 569.024000
   3931   3937   7916     1   107.9700462 569.024000
   3937   7916   7907     1   112.4800480 524.673600
   3940   7945   7936     1   112.4800480 524.673600
   3944   3945   3957     1   111.0400475 552.288000
   3944   3948   3960     1   111.0400475 552.288000
   3944   3951   3954     1   111.0400475 552.288000
   3945   3944   3948     1   112.3500484 533.878400
   3945   3944   3951     1   112.3500484 533.878400
   3945   3957   3969     1   111.5100476 526.347200
   3948   3944   3951     1   112.3500484 533.878400
   3948   3960   3966     1   111.5100476 526.347200
   3951   3954   3963     1   111.5100476 526.347200
   3954   3963   3972     1   107.9700462 569.024000
   3957   3969   8003     1   107.9700462 569.024000
   3960   3966   7974     1   107.9700462 569.024000
   3966   7974   7965     1   112.4800480 524.673600
   3969   8003   7994     1   112.4800480 524.673600
   3973   3974   3986     1   111.0400475 552.288000
   3973   3977   3989     1   111.0400475 552.288000
   3973   3980   3983     1   111.0400475 552.288000
   3974   3973   3977     1   112.3500484 533.878400
   3974   3973   3980     1   112.3500484 533.878400
   3974   3986   3998     1   111.5100476 526.347200
   3977   3973   3980     1   112.3500484 533.878400
   3977   3989   3995     1   111.5100476 526.347200
   3980   3983   3992     1   111.5100476 526.347200
   3983   3992   4001     1   107.9700462 569.024000
   3986   3998   8061     1   107.9700462 569.024000
   3989   3995   8032     1   107.9700462 569.024000
   3995   8032   8023     1   112.4800480 524.673600
   3998   8061   8052     1   112.4800480 524.673600
   4002   4003   4015     1   111.0400475 552.288000
   4002   4006   4018     1   111.0400475 552.288000
   4002   4009   4012     1   111.0400475 552.288000
   4003   4002   4006     1   112.3500484 533.878400
   4003   4002   4009     1   112.3500484 533.878400
   4003   4015   4027     1   111.5100476 526.347200
   4006   4002   4009     1   112.3500484 533.878400
   4006   4018   4024     1   111.5100476 526.347200
   4009   4012   4021     1   111.5100476 526.347200
   4012   4021   4030     1   107.9700462 569.024000
   4015   4027   8119     1   107.9700462 569.024000
   4018   4024   8090     1   107.9700462 569.024000
   4024   8090   8081     1   112.4800480 524.673600
   4027   8119   8110     1   112.4800480 524.673600
   4031   4032   4044     1   111.0400475 552.288000
   4031   4035   4047     1   111.0400475 552.288000
   4031   4038   4041     1   111.0400475 552.288000
   4032   4031   4035     1   112.3500484 533.878400
   4032   4031   4038     1   112.3500484 533.878400
   4032   4044   4056     1   111.5100476 526.347200
   4035   4031   4038     1   112.3500484 533.878400
   4035   4047   4053     1   111.5100476 526.347200
   4038   4041   4050     1   111.5100476 526.347200
   4041   4050   4059     1   107.9700462 569.024000
   4044   4056   8177     1   107.9700462 569.024000
   4047   4053   8148     1   107.9700462 569.024000
   4053   8148   8139     1   112.4800480 524.673600
   4056   8177   8168     1   112.4800480 524.673600
   4060   4061   4073     1   111.0400475 552.288000
   4060   4064   4076     1   111.0400475 552.288000
   4060   4067   4070     1   111.0400475 552.288000
   4061   4060   4064     1   112.3500484 533.878400
   4061   4060   4067     1   112.3500484 533.878400
   4061   4073   4085     1   111.5100476 526.347200
   4064   4060   4067     1   112.3500484 533.878400
   4064   4076   4082     1   111.5100476 526.347200
   4067   4070   4079     1   111.5100476 526.347200
   4070   4079   4088     1   107.9700462 569.024000
   4073   4085   8235     1   107.9700462 569.024000
   4076   4082   8206     1   107.9700462 569.024000
   4082   8206   8197     1   112.4800480 524.673600
   4085   8235   8226     1   112.4800480 524.673600
   4089   4090   4102     1   111.0400475 552.288000
   4089   4093   4105     1   111.0400475 552.288000
   4089   4096   4099     1   111.0400475 552.288000
   4090   4089   4093     1   112.3500484 533.878400
   4090   4089   4096     1   112.3500484 533.878400
   4090   4102   4114     1   111.5100476 526.347200
   4093   4089   4096     1   112.3500484 533.878400
   4093   4105   4111     1   111.5100476 526.347200
   4096   4099   4108     1   111.5100476 526.347200
   4099   4108   4117     1   107.9700462 569.024000
   4102   4114   8293     1   107.9700462 569.024000
   4105   4111   8264     1   107.9700462 569.024000
   4111   8264   8255     1   112.4800480 524.673600
   4114   8293   8284     1   112.4800480 524.673600
   4118   4119   4131     1   111.0400475 552.288000
   4118   4122   4134     1   111.0400475 552.288000
   4118   4125   4128     1   111.0400475 552.288000
   4119   4118   4122     1   112.3500484 533.878400
   4119   4118   4125     1   112.3500484 533.878400
   4119   4131   4143     1   111.5100476 526.347200
   4122   4118   4125     1   112.3500484 533.878400
   4122   4134   4140     1   111.5100476 526.347200
   4125   4128   4137     1   111.5100476 526.347200
   4128   4137   4146     1   107.9700462 569.024000
   4131   4143   8351     1   107.9700462 569.024000
   4134   4140   8322     1   107.9700462 569.024000
   4140   8322   8313     1   112.4800480 524.673600
   4143   8351   8342     1   112.4800480 524.673600
   4147   4148   4160     1   111.0400475 552.288000
   4147   4151   4163     1   111.0400475 552.288000
   4147   4154   4157     1   111.0400475 552.288000
   4148   4147   4151     1   112.3500484 533.878400
   4148   4147   4154     1   112.3500484 533.878400
   4148   4160   4172     1   111.5100476 526.347200
   4151   4147   4154     1   112.3500484 533.878400
   4151   4163   4169     1   111.5100476 526.347200
   4154   4157   4166     1   111.5100476 526.347200
   4157   4166   4175     1   107.9700462 569.024000
   4160   4172   8409     1   107.9700462 569.024000
   4163   4169   8380     1   107.9700462 569.024000
   4169   8380   8371     1   112.4800480 524.673600
   4172   8409   8400     1   112.4800480 524.673600
   4176   4177   4189     1   111.0400475 552.288000
   4176   4180   4192     1   111.0400475 552.288000
   4176   4183   4186     1   111.0400475 552.288000
   4177   4176   4180     1   112.3500484 533.878400
   4177   4176   4183     1   112.3500484 533.878400
   4177   4189   4201     1   111.5100476 526.347200
   4180   4176   4183     1   112.3500484 533.878400
   4180   4192   4198     1   111.5100476 526.347200
   4183   4186   4195     1   111.5100476 526.347200
   4186   4195   4204     1   107.9700462 569.024000
   4189   4201   8467     1   107.9700462 569.024000
   4192   4198   8438     1   107.9700462 569.024000
   4198   8438   8429     1   112.4800480 524.673600
   4201   8467   8458     1   112.4800480 524.673600
   4205   4206   4218     1   111.0400475 552.288000
   4205   4209   4221     1   111.0400475 552.288000
   4205   4212   4215     1   111.0400475 552.288000
   4206   4205   4209     1   112.3500484 533.878400
   4206   4205   4212     1   112.3500484 533.878400
   4206   4218   4230     1   111.5100476 526.347200
   4209   4205   4212     1   112.3500484 533.878400
   4209   4221   4227     1   111.5100476 526.347200
   4212   4215   4224     1   111.5100476 526.347200
   4215   4224   4233     1   107.9700462 569.024000
   4218   4230   8525     1   107.9700462 569.024000
   4221   4227   8496     1   107.9700462 569.024000
   4227   8496   8487     1   112.4800480 524.673600
   4230   8525   8516     1   112.4800480 524.673600
   4234   4235   4247     1   111.0400475 552.288000
   4234   4238   4250     1   111.0400475 552.288000
   4234   4241   4244     1   111.0400475 552.288000
   4235   4234   4238     1   112.3500484 533.878400
   4235   4234   4241     1   112.3500484 533.878400
   4235   4247   4259     1   111.5100476 526.347200
   4238   4234   4241     1   112.3500484 533.878400
   4238   4250   4256     1   111.5100476 526.347200
   4241   4244   4253     1   111.5100476 526.347200
   4244   4253   4262     1   107.9700462 569.024000
   4247   4259   8583     1   107.9700462 569.024000
   4250   4256   8554     1   107.9700462 569.024000
   4256   8554   8545     1   112.4800480 524.673600
   4259   8583   8574     1   112.4800480 524.673600
   4263   4264   4276     1   111.0400475 552.288000
   4263   4267   4279     1   111.0400475 552.288000
   4263   4270   4273     1   111.0400475 552.288000
   4264   4263   4267     1   112.3500484 533.878400
   4264   4263   4270     1   112.3500484 533.878400
   4264   4276   4288     1   111.5100476 526.347200
   4267   4263   4270     1   112.3500484 533.878400
   4267   4279   4285     1   111.5100476 526.347200
   4270   4273   4282     1   111.5100476 526.347200
   4273   4282   4291     1   107.9700462 569.024000
   4276   4288   8641     1   107.9700462 569.024000
   4279   4285   8612     1   107.9700462 569.024000
   4285   8612   8603     1   112.4800480 524.673600
   4288   8641   8632     1   112.4800480 524.673600
   4292   4293   4305     1   111.0400475 552.288000
   4292   4296   4308     1   111.0400475 552.288000
   4292   4299   4302     1   111.0400475 552.288000
   4293   4292   4296     1   112.3500484 533.878400
   4293   4292   4299     1   112.3500484 533.878400
   4293   4305   4317     1   111.5100476 526.347200
   4296   4292   4299     1   112.3500484 533.878400
   4296   4308   4314     1   111.5100476 526.347200
   4299   4302   4311     1   111.5100476 526.347200
   4302   4311   4320     1   107.9700462 569.024000
   4305   4317   8699     1   107.9700462 569.024000
   4308   4314   8670     1   107.9700462 569.024000
   4314   8670   8661     1   112.4800480 524.673600
   4317   8699   8690     1   112.4800480 524.673600
   4321   4322   4334     1   111.0400475 552.288000
   4321   4325   4337     1   111.0400475 552.288000
   4321   4328   4331     1   111.0400475 552.288000
   4322   4321   4325     1   112.3500484 533.878400
   4322   4321   4328     1   112.3500484 533.878400
   4322   4334   4346     1   111.5100476 526.347200
   4325   4321   4328     1   112.3500484 533.878400
   4325   4337   4343     1   111.5100476 526.347200
   4328   4331   4340     1   111.5100476 526.347200
   4331   4340   4349     1   107.9700462 569.024000
   4334   4346   8757     1   107.9700462 569.024000
   4337   4343   8728     1   107.9700462 569.024000
   4343   8728   8719     1   112.4800480 524.673600
   4346   8757   8748     1   112.4800480 524.673600
   4350   4351   4363     1   111.0400475 552.288000
   4350   4354   4366     1   111.0400475 552.288000
   4350   4357   4360     1   111.0400475 552.288000
   4351   4350   4354     1   112.3500484 533.878400
   4351   4350   4357     1   112.3500484 533.878400
   4351   4363   4375     1   111.5100476 526.347200
   4354   4350   4357     1   112.3500484 533.878400
   4354   4366   4372     1   111.5100476 526.347200
   4357   4360   4369     1   111.5100476 526.347200
   4360   4369   4378     1   107.9700462 569.024000
   4363   4375   8815     1   107.9700462 569.024000
   4366   4372   8786     1   107.9700462 569.024000
   4372   8786   8777     1   112.4800480 524.673600
   4375   8815   8806     1   112.4800480 524.673600
   4379   4380   4392     1   111.0400475 552.288000
   4379   4383   4395     1   111.0400475 552.288000
   4379   4386   4389     1   111.0400475 552.288000
   4380   4379   4383     1   112.3500484 533.878400
   4380   4379   4386     1   112.3500484 533.878400
   4380   4392   4404     1   111.5100476 526.347200
   4383   4379   4386     1   112.3500484 533.878400
   4383   4395   4401     1   111.5100476 526.347200
   4386   4389   4398     1   111.5100476 526.347200
   4389   4398   4407     1   107.9700462 569.024000
   4392   4404   8873     1   107.9700462 569.024000
   4395   4401   8844     1   107.9700462 569.024000
   4401   8844   8835     1   112.4800480 524.673600
   4404   8873   8864     1   112.4800480 524.673600
   4408   4409   4421     1   111.0400475 552.288000
   4408   4412   4424     1   111.0400475 552.288000
   4408   4415   4418     1   111.0400475 552.288000
   4409   4408   4412     1   112.3500484 533.878400
   4409   4408   4415     1   112.3500484 533.878400
   4409   4421   4433     1   111.5100476 526.347200
   4412   4408   4415     1   112.3500484 533.878400
   4412   4424   4430     1   111.5100476 526.347200
   4415   4418   4427     1   111.5100476 526.347200
   4418   4427   4436     1   107.9700462 569.024000
   4421   4433   8931     1   107.9700462 569.024000
   4424   4430   8902     1   107.9700462 569.024000
   4430   8902   8893     1   112.4800480 524.673600
   4433   8931   8922     1   112.4800480 524.673600
   4437   4438   4450     1   111.0400475 552.288000
   4437   4441   4453     1   111.0400475 552.288000
   4437   4444   4447     1   111.0400475 552.288000
   4438   4437   4441     1   112.3500484 533.878400
   4438   4437   4444     1   112.3500484 533.878400
   4438   4450   4462     1   111.5100476 526.347200
   4441   4437   4444     1   112.3500484 533.878400
   4441   4453   4459     1   111.5100476 526.347200
   4444   4447   4456     1   111.5100476 526.347200
   4447   4456   4465     1   107.9700462 569.024000
   4450   4462   8989     1   107.9700462 569.024000
   4453   4459   8960     1   107.9700462 569.024000
   4459   8960   8951     1   112.4800480 524.673600
   4462   8989   8980     1   112.4800480 524.673600
   4466   4467   4479     1   111.0400475 552.288000
   4466   4470   4482     1   111.0400475 552.288000
   4466   4473   4476     1   111.0400475 552.288000
   4467   4466   4470     1   112.3500484 533.878400
   4467   4466   4473     1   112.3500484 533.878400
   4467   4479   4491     1   111.5100476 526.347200
   4470   4466   4473     1   112.3500484 533.878400
   4470   4482   4488     1   111.5100476 526.347200
   4473   4476   4485     1   111.5100476 526.347200
   4476   4485   4494     1   107.9700462 569.024000
   4479   4491   9047     1   107.9700462 569.024000
   4482   4488   9018     1   107.9700462 569.024000
   4488   9018   9009     1   112.4800480 524.673600
   4491   9047   9038     1   112.4800480 524.673600
   4495   4496   4508     1   111.0400475 552.288000
   4495   4499   4511     1   111.0400475 552.288000
   4495   4502   4505     1   111.0400475 552.288000
   4496   4495   4499     1   112.3500484 533.878400
   4496   4495   4502     1   112.3500484 533.878400
   4496   4508   4520     1   111.5100476 526.347200
   4499   4495   4502     1   112.3500484 533.878400
   4499   4511   4517     1   111.5100476 526.347200
   4502   4505   4514     1   111.5100476 526.347200
   4505   4514   4523     1   107.9700462 569.024000
   4508   4520   9105     1   107.9700462 569.024000
   4511   4517   9076     1   107.9700462 569.024000
   4517   9076   9067     1   112.4800480 524.673600
   4520   9105   9096     1   112.4800480 524.673600
   4524   4525   4537     1   111.0400475 552.288000
   4524   4528   4540     1   111.0400475 552.288000
   4524   4531   4534     1   111.0400475 552.288000
   4525   4524   4528     1   112.3500484 533.878400
   4525   4524   4531     1   112.3500484 533.878400
   4525   4537   4549     1   111.5100476 526.347200
   4528   4524   4531     1   112.3500484 533.878400
   4528   4540   4546     1   111.5100476 526.347200
   4531   4534   4543     1   111.5100476 526.347200
   4534   4543   4552     1   107.9700462 569.024000
   4537   4549   9163     1   107.9700462 569.024000
   4540   4546   9134     1   107.9700462 569.024000
   4546   9134   9125     1   112.4800480 524.673600
   4549   9163   9154     1   112.4800480 524.673600
   4553   4554   4566     1   111.0400475 552.288000
   4553   4557   4569     1   111.0400475 552.288000
   4553   4560   4563     1   111.0400475 552.288000
   4554   4553   4557     1   112.3500484 533.878400
   4554   4553   4560     1   112.3500484 533.878400
   4554   4566   4578     1   111.5100476 526.347200
   4557   4553   4560     1   112.3500484 533.878400
   4557   4569   4575     1   111.5100476 526.347200
   4560   4563   4572     1   111.5100476 526.347200
   4563   4572   4581     1   107.9700462 569.024000
   4566   4578   9221     1   107.9700462 569.024000
   4569   4575   9192     1   107.9700462 569.024000
   4575   9192   9183     1   112.4800480 524.673600
   4578   9221   9212     1   112.4800480 524.673600
   4582   4583   4595     1   111.0400475 552.288000
   4582   4586   4598     1   111.0400475 552.288000
   4582   4589   4592     1   111.0400475 552.288000
   4583   4582   4586     1   112.3500484 533.878400
   4583   4582   4589     1   112.3500484 533.878400
   4583   4595   4607     1   111.5100476 526.347200
   4586   4582   4589     1   112.3500484 533.878400
   4586   4598   4604     1   111.5100476 526.347200
   4589   4592   4601     1   111.5100476 526.347200
   4592   4601   4610     1   107.9700462 569.024000
   4595   4607   9279     1   107.9700462 569.024000
   4598   4604   9250     1   107.9700462 569.024000
   4604   9250   9241     1   112.4800480 524.673600
   4607   9279   9270     1   112.4800480 524.673600
   4611   4612   4624     1   111.0400475 552.288000
   4611   4615   4627     1   111.0400475 552.288000
   4611   4618   4621     1   111.0400475 552.288000
   4612   4611   4615     1   112.3500484 533.878400
   4612   4611   4618     1   112.3500484 533.878400
   4612   4624   4636     1   111.5100476 526.347200
   4615   4611   4618     1   112.3500484 533.878400
   4615   4627   4633     1   111.5100476 526.347200
   4618   4621   4630     1   111.5100476 526.347200
   4621   4630   4639     1   107.9700462 569.024000
   4624   4636   9337     1   107.9700462 569.024000
   4627   4633   9308     1   107.9700462 569.024000
   4633   9308   9299     1   112.4800480 524.673600
   4636   9337   9328     1   112.4800480 524.673600
   4640   4641   4653     1   111.0400475 552.288000
   4640   4644   4656     1   111.0400475 552.288000
   4640   4647   4650     1   111.0400475 552.288000
   4641   4640   4644     1   112.3500484 533.878400
   4641   4640   4647     1   112.3500484 533.878400
   4641   4653   4665     1   111.5100476 526.347200
   4644   4640   4647     1   112.3500484 533.878400
   4644   4656   4662     1   111.5100476 526.347200
   4647   4650   4659     1   111.5100476 526.347200
   4650   4659   4668     1   107.9700462 569.024000
   4653   4665   9395     1   107.9700462 569.024000
   4656   4662   9366     1   107.9700462 569.024000
   4662   9366   9357     1   112.4800480 524.673600
   4665   9395   9386     1   112.4800480 524.673600
   4669   4670   4682     1   111.0400475 552.288000
   4669   4673   4685     1   111.0400475 552.288000
   4669   4676   4679     1   111.0400475 552.288000
   4670   4669   4673     1   112.3500484 533.878400
   4670   4669   4676     1   112.3500484 533.878400
   4670   4682   4694     1   111.5100476 526.347200
   4673   4669   4676     1   112.3500484 533.878400
   4673   4685   4691     1   111.5100476 526.347200
   4676   4679   4688     1   111.5100476 526.347200
   4679   4688   4697     1   107.9700462 569.024000
   4682   4694   9453     1   107.9700462 569.024000
   4685   4691   9424     1   107.9700462 569.024000
   4691   9424   9415     1   112.4800480 524.673600
   4694   9453   9444     1   112.4800480 524.673600
   4698   4699   4711     1   111.0400475 552.288000
   4698   4702   4714     1   111.0400475 552.288000
   4698   4705   4708     1   111.0400475 552.288000
   4699   4698   4702     1   112.3500484 533.878400
   4699   4698   4705     1   112.3500484 533.878400
   4699   4711   4723     1   111.5100476 526.347200
   4702   4698   4705     1   112.3500484 533.878400
   4702   4714   4720     1   111.5100476 526.347200
   4705   4708   4717     1   111.5100476 526.347200
   4708   4717   4726     1   107.9700462 569.024000
   4711   4723   9511     1   107.9700462 569.024000
   4714   4720   9482     1   107.9700462 569.024000
   4720   9482   9473     1   112.4800480 524.673600
   4723   9511   9502     1   112.4800480 524.673600
   4727   4728   4740     1   111.0400475 552.288000
   4727   4731   4743     1   111.0400475 552.288000
   4727   4734   4737     1   111.0400475 552.288000
   4728   4727   4731     1   112.3500484 533.878400
   4728   4727   4734     1   112.3500484 533.878400
   4728   4740   4752     1   111.5100476 526.347200
   4731   4727   4734     1   112.3500484 533.878400
   4731   4743   4749     1   111.5100476 526.347200
   4734   4737   4746     1   111.5100476 526.347200
   4737   4746   4755     1   107.9700462 569.024000
   4740   4752   9569     1   107.9700462 569.024000
   4743   4749   9540     1   107.9700462 569.024000
   4749   9540   9531     1   112.4800480 524.673600
   4752   9569   9560     1   112.4800480 524.673600
   4756   4757   4769     1   111.0400475 552.288000
   4756   4760   4772     1   111.0400475 552.288000
   4756   4763   4766     1   111.0400475 552.288000
   4757   4756   4760     1   112.3500484 533.878400
   4757   4756   4763     1   112.3500484 533.878400
   4757   4769   4781     1   111.5100476 526.347200
   4760   4756   4763     1   112.3500484 533.878400
   4760   4772   4778     1   111.5100476 526.347200
   4763   4766   4775     1   111.5100476 526.347200
   4766   4775   4784     1   107.9700462 569.024000
   4769   4781   9627     1   107.9700462 569.024000
   4772   4778   9598     1   107.9700462 569.024000
   4778   9598   9589     1   112.4800480 524.673600
   4781   9627   9618     1   112.4800480 524.673600
   4785   4786   4798     1   111.0400475 552.288000
   4785   4789   4801     1   111.0400475 552.288000
   4785   4792   4795     1   111.0400475 552.288000
   4786   4785   4789     1   112.3500484 533.878400
   4786   4785   4792     1   112.3500484 533.878400
   4786   4798   4810     1   111.5100476 526.347200
   4789   4785   4792     1   112.3500484 533.878400
   4789   4801   4807     1   111.5100476 526.347200
   4792   4795   4804     1   111.5100476 526.347200
   4795   4804   4813     1   107.9700462 569.024000
   4798   4810   9685     1   107.9700462 569.024000
   4801   4807   9656     1   107.9700462 569.024000
   4807   9656   9647     1   112.4800480 524.673600
   4810   9685   9676     1   112.4800480 524.673600
   4814   4815   4827     1   111.0400475 552.288000
   4814   4818   4830     1   111.0400475 552.288000
   4814   4821   4824     1   111.0400475 552.288000
   4815   4814   4818     1   112.3500484 533.878400
   4815   4814   4821     1   112.3500484 533.878400
   4815   4827   4839     1   111.5100476 526.347200
   4818   4814   4821     1   112.3500484 533.878400
   4818   4830   4836     1   111.5100476 526.347200
   4821   4824   4833     1   111.5100476 526.347200
   4824   4833   4842     1   107.9700462 569.024000
   4827   4839   9743     1   107.9700462 569.024000
   4830   4836   9714     1   107.9700462 569.024000
   4836   9714   9705     1   112.4800480 524.673600
   4839   9743   9734     1   112.4800480 524.673600
   4843   4844   4856     1   111.0400475 552.288000
   4843   4847   4859     1   111.0400475 552.288000
   4843   4850   4853     1   111.0400475 552.288000
   4844   4843   4847     1   112.3500484 533.878400
   4844   4843   4850     1   112.3500484 533.878400
   4844   4856   4868     1   111.5100476 526.347200
   4847   4843   4850     1   112.3500484 533.878400
   4847   4859   4865     1   111.5100476 526.347200
   4850   4853   4862     1   111.5100476 526.347200
   4853   4862   4871     1   107.9700462 569.024000
   4856   4868   9801     1   107.9700462 569.024000
   4859   4865   9772     1   107.9700462 569.024000
   4865   9772   9763     1   112.4800480 524.673600
   4868   9801   9792     1   112.4800480 524.673600
   4872   4873   4885     1   111.0400475 552.288000
   4872   4876   4888     1   111.0400475 552.288000
   4872   4879   4882     1   111.0400475 552.288000
   4873   4872   4876     1   112.3500484 533.878400
   4873   4872   4879     1   112.3500484 533.878400
   4873   4885   4897     1   111.5100476 526.347200
   4876   4872   4879     1   112.3500484 533.878400
   4876   4888   4894     1   111.5100476 526.347200
   4879   4882   4891     1   111.5100476 526.347200
   4882   4891   4900     1   107.9700462 569.024000
   4885   4897   9859     1   107.9700462 569.024000
   4888   4894   9830     1   107.9700462 569.024000
   4894   9830   9821     1   112.4800480 524.673600
   4897   9859   9850     1   112.4800480 524.673600
   4901   4902   4914     1   111.0400475 552.288000
   4901   4905   4917     1   111.0400475 552.288000
   4901   4908   4911     1   111.0400475 552.288000
   4902   4901   4905     1   112.3500484 533.878400
   4902   4901   4908     1   112.3500484 533.878400
   4902   4914   4926     1   111.5100476 526.347200
   4905   4901   4908     1   112.3500484 533.878400
   4905   4917   4923     1   111.5100476 526.347200
   4908   4911   4920     1   111.5100476 526.347200
   4911   4920   4929     1   107.9700462 569.024000
   4914   4926   9917     1   107.9700462 569.024000
   4917   4923   9888     1   107.9700462 569.024000
   4923   9888   9879     1   112.4800480 524.673600
   4926   9917   9908     1   112.4800480 524.673600
   4930   4931   4943     1   111.0400475 552.288000
   4930   4934   4946     1   111.0400475 552.288000
   4930   4937   4940     1   111.0400475 552.288000
   4931   4930   4934     1   112.3500484 533.878400
   4931   4930   4937     1   112.3500484 533.878400
   4931   4943   4955     1   111.5100476 526.347200
   4934   4930   4937     1   112.3500484 533.878400
   4934   4946   4952     1   111.5100476 526.347200
   4937   4940   4949     1   111.5100476 526.347200
   4940   4949   4958     1   107.9700462 569.024000
   4943   4955   9975     1   107.9700462 569.024000
   4946   4952   9946     1   107.9700462 569.024000
   4952   9946   9937     1   112.4800480 524.673600
   4955   9975   9966     1   112.4800480 524.673600
   4959   4960   4972     1   111.0400475 552.288000
   4959   4963   4975     1   111.0400475 552.288000
   4959   4966   4969     1   111.0400475 552.288000
   4960   4959   4963     1   112.3500484 533.878400
   4960   4959   4966     1   112.3500484 533.878400
   4960   4972   4984     1   111.5100476 526.347200
   4963   4959   4966     1   112.3500484 533.878400
   4963   4975   4981     1   111.5100476 526.347200
   4966   4969   4978     1   111.5100476 526.347200
   4969   4978   4987     1   107.9700462 569.024000
   4972   4984  10033     1   107.9700462 569.024000
   4975   4981  10004     1   107.9700462 569.024000
   4981  10004   9995     1   112.4800480 524.673600
   4984  10033  10024     1   112.4800480 524.673600
   4988   4989   5001     1   111.0400475 552.288000
   4988   4992   5004     1   111.0400475 552.288000
   4988   4995   4998     1   111.0400475 552.288000
   4989   4988   4992     1   112.3500484 533.878400
   4989   4988   4995     1   112.3500484 533.878400
   4989   5001   5013     1   111.5100476 526.347200
   4992   4988   4995     1   112.3500484 533.878400
   4992   5004   5010     1   111.5100476 526.347200
   4995   4998   5007     1   111.5100476 526.347200
   4998   5007   5016     1   107.9700462 569.024000
   5001   5013  10091     1   107.9700462 569.024000
   5004   5010  10062     1   107.9700462 569.024000
   5010  10062  10053     1   112.4800480 524.673600
   5013  10091  10082     1   112.4800480 524.673600
   5017   5018   5030     1   111.0400475 552.288000
   5017   5021   5033     1   111.0400475 552.288000
   5017   5024   5027     1   111.0400475 552.288000
   5018   5017   5021     1   112.3500484 533.878400
   5018   5017   5024     1   112.3500484 533.878400
   5018   5030   5042     1   111.5100476 526.347200
   5021   5017   5024     1   112.3500484 533.878400
   5021   5033   5039     1   111.5100476 526.347200
   5024   5027   5036     1   111.5100476 526.347200
   5027   5036   5045     1   107.9700462 569.024000
   5030   5042  10149     1   107.9700462 569.024000
   5033   5039  10120     1   107.9700462 569.024000
   5039  10120  10111     1   112.4800480 524.673600
   5042  10149  10140     1   112.4800480 524.673600
   5046   5047   5059     1   111.0400475 552.288000
   5046   5050   5062     1   111.0400475 552.288000
   5046   5053   5056     1   111.0400475 552.288000
   5047   5046   5050     1   112.3500484 533.878400
   5047   5046   5053     1   112.3500484 533.878400
   5047   5059   5071     1   111.5100476 526.347200
   5050   5046   5053     1   112.3500484 533.878400
   5050   5062   5068     1   111.5100476 526.347200
   5053   5056   5065     1   111.5100476 526.347200
   5056   5065   5074     1   107.9700462 569.024000
   5059   5071  10207     1   107.9700462 569.024000
   5062   5068  10178     1   107.9700462 569.024000
   5068  10178  10169     1   112.4800480 524.673600
   5071  10207  10198     1   112.4800480 524.673600
   5075   5076   5088     1   111.0400475 552.288000
   5075   5079   5091     1   111.0400475 552.288000
   5075   5082   5085     1   111.0400475 552.288000
   5076   5075   5079     1   112.3500484 533.878400
   5076   5075   5082     1   112.3500484 533.878400
   5076   5088   5100     1   111.5100476 526.347200
   5079   5075   5082     1   112.3500484 533.878400
   5079   5091   5097     1   111.5100476 526.347200
   5082   5085   5094     1   111.5100476 526.347200
   5085   5094   5103     1   107.9700462 569.024000
   5088   5100  10265     1   107.9700462 569.024000
   5091   5097  10236     1   107.9700462 569.024000
   5097  10236  10227     1   112.4800480 524.673600
   5100  10265  10256     1   112.4800480 524.673600
   5104   5105   5117     1   111.0400475 552.288000
   5104   5108   5120     1   111.0400475 552.288000
   5104   5111   5114     1   111.0400475 552.288000
   5105   5104   5108     1   112.3500484 533.878400
   5105   5104   5111     1   112.3500484 533.878400
   5105   5117   5129     1   111.5100476 526.347200
   5108   5104   5111     1   112.3500484 533.878400
   5108   5120   5126     1   111.5100476 526.347200
   5111   5114   5123     1   111.5100476 526.347200
   5114   5123   5132     1   107.9700462 569.024000
   5117   5129  10323     1   107.9700462 569.024000
   5120   5126  10294     1   107.9700462 569.024000
   5126  10294  10285     1   112.4800480 524.673600
   5129  10323  10314     1   112.4800480 524.673600
   5133   5134   5146     1   111.0400475 552.288000
   5133   5137   5149     1   111.0400475 552.288000
   5133   5140   5143     1   111.0400475 552.288000
   5134   5133   5137     1   112.3500484 533.878400
   5134   5133   5140     1   112.3500484 533.878400
   5134   5146   5158     1   111.5100476 526.347200
   5137   5133   5140     1   112.3500484 533.878400
   5137   5149   5155     1   111.5100476 526.347200
   5140   5143   5152     1   111.5100476 526.347200
   5143   5152   5161     1   107.9700462 569.024000
   5146   5158  10381     1   107.9700462 569.024000
   5149   5155  10352     1   107.9700462 569.024000
   5155  10352  10343     1   112.4800480 524.673600
   5158  10381  10372     1   112.4800480 524.673600
   5162   5163   5175     1   111.0400475 552.288000
   5162   5166   5178     1   111.0400475 552.288000
   5162   5169   5172     1   111.0400475 552.288000
   5163   5162   5166     1   112.3500484 533.878400
   5163   5162   5169     1   112.3500484 533.878400
   5163   5175   5187     1   111.5100476 526.347200
   5166   5162   5169     1   112.3500484 533.878400
   5166   5178   5184     1   111.5100476 526.347200
   5169   5172   5181     1   111.5100476 526.347200
   5172   5181   5190     1   107.9700462 569.024000
   5175   5187  10439     1   107.9700462 569.024000
   5178   5184  10410     1   107.9700462 569.024000
   5184  10410  10401     1   112.4800480 524.673600
   5187  10439  10430     1   112.4800480 524.673600
   5191   5192   5204     1   111.0400475 552.288000
   5191   5195   5207     1   111.0400475 552.288000
   5191   5198   5201     1   111.0400475 552.288000
   5192   5191   5195     1   112.3500484 533.878400
   5192   5191   5198     1   112.3500484 533.878400
   5192   5204   5216     1   111.5100476 526.347200
   5195   5191   5198     1   112.3500484 533.878400
   5195   5207   5213     1   111.5100476 526.347200
   5198   5201   5210     1   111.5100476 526.347200
   5201   5210   5219     1   107.9700462 569.024000
   5204   5216  10497     1   107.9700462 569.024000
   5207   5213  10468     1   107.9700462 569.024000
   5213  10468  10459     1   112.4800480 524.673600
   5216  10497  10488     1   112.4800480 524.673600
   5220   5221   5233     1   111.0400475 552.288000
   5220   5224   5236     1   111.0400475 552.288000
   5220   5227   5230     1   111.0400475 552.288000
   5221   5220   5224     1   112.3500484 533.878400
   5221   5220   5227     1   112.3500484 533.878400
   5221   5233   5245     1   111.5100476 526.347200
   5224   5220   5227     1   112.3500484 533.878400
   5224   5236   5242     1   111.5100476 526.347200
   5227   5230   5239     1   111.5100476 526.347200
   5230   5239   5248     1   107.9700462 569.024000
   5233   5245  10555     1   107.9700462 569.024000
   5236   5242  10526     1   107.9700462 569.024000
   5242  10526  10517     1   112.4800480 524.673600
   5245  10555  10546     1   112.4800480 524.673600
   5249   5250   5262     1   111.0400475 552.288000
   5249   5253   5265     1   111.0400475 552.288000
   5249   5256   5259     1   111.0400475 552.288000
   5250   5249   5253     1   112.3500484 533.878400
   5250   5249   5256     1   112.3500484 533.878400
   5250   5262   5274     1   111.5100476 526.347200
   5253   5249   5256     1   112.3500484 533.878400
   5253   5265   5271     1   111.5100476 526.347200
   5256   5259   5268     1   111.5100476 526.347200
   5259   5268   5277     1   107.9700462 569.024000
   5262   5274  10613     1   107.9700462 569.024000
   5265   5271  10584     1   107.9700462 569.024000
   5271  10584  10575     1   112.4800480 524.673600
   5274  10613  10604     1   112.4800480 524.673600
   5278   5279   5291     1   111.0400475 552.288000
   5278   5282   5294     1   111.0400475 552.288000
   5278   5285   5288     1   111.0400475 552.288000
   5279   5278   5282     1   112.3500484 533.878400
   5279   5278   5285     1   112.3500484 533.878400
   5279   5291   5303     1   111.5100476 526.347200
   5282   5278   5285     1   112.3500484 533.878400
   5282   5294   5300     1   111.5100476 526.347200
   5285   5288   5297     1   111.5100476 526.347200
   5288   5297   5306     1   107.9700462 569.024000
   5291   5303  10671     1   107.9700462 569.024000
   5294   5300  10642     1   107.9700462 569.024000
   5300  10642  10633     1   112.4800480 524.673600
   5303  10671  10662     1   112.4800480 524.673600
   5307   5308   5320     1   111.0400475 552.288000
   5307   5311   5323     1   111.0400475 552.288000
   5307   5314   5317     1   111.0400475 552.288000
   5308   5307   5311     1   112.3500484 533.878400
   5308   5307   5314     1   112.3500484 533.878400
   5308   5320   5332     1   111.5100476 526.347200
   5311   5307   5314     1   112.3500484 533.878400
   5311   5323   5329     1   111.5100476 526.347200
   5314   5317   5326     1   111.5100476 526.347200
   5317   5326   5335     1   107.9700462 569.024000
   5320   5332  10729     1   107.9700462 569.024000
   5323   5329  10700     1   107.9700462 569.024000
   5329  10700  10691     1   112.4800480 524.673600
   5332  10729  10720     1   112.4800480 524.673600
   5336   5337   5349     1   111.0400475 552.288000
   5336   5340   5352     1   111.0400475 552.288000
   5336   5343   5346     1   111.0400475 552.288000
   5337   5336   5340     1   112.3500484 533.878400
   5337   5336   5343     1   112.3500484 533.878400
   5337   5349   5361     1   111.5100476 526.347200
   5340   5336   5343     1   112.3500484 533.878400
   5340   5352   5358     1   111.5100476 526.347200
   5343   5346   5355     1   111.5100476 526.347200
   5346   5355   5364     1   107.9700462 569.024000
   5349   5361  10787     1   107.9700462 569.024000
   5352   5358  10758     1   107.9700462 569.024000
   5358  10758  10749     1   112.4800480 524.673600
   5361  10787  10778     1   112.4800480 524.673600
   5365   5366   5378     1   111.0400475 552.288000
   5365   5369   5381     1   111.0400475 552.288000
   5365   5372   5375     1   111.0400475 552.288000
   5366   5365   5369     1   112.3500484 533.878400
   5366   5365   5372     1   112.3500484 533.878400
   5366   5378   5390     1   111.5100476 526.347200
   5369   5365   5372     1   112.3500484 533.878400
   5369   5381   5387     1   111.5100476 526.347200
   5372   5375   5384     1   111.5100476 526.347200
   5375   5384   5393     1   107.9700462 569.024000
   5378   5390  10845     1   107.9700462 569.024000
   5381   5387  10816     1   107.9700462 569.024000
   5387  10816  10807     1   112.4800480 524.673600
   5390  10845  10836     1   112.4800480 524.673600
   5394   5395   5407     1   111.0400475 552.288000
   5394   5398   5410     1   111.0400475 552.288000
   5394   5401   5404     1   111.0400475 552.288000
   5395   5394   5398     1   112.3500484 533.878400
   5395   5394   5401     1   112.3500484 533.878400
   5395   5407   5419     1   111.5100476 526.347200
   5398   5394   5401     1   112.3500484 533.878400
   5398   5410   5416     1   111.5100476 526.347200
   5401   5404   5413     1   111.5100476 526.347200
   5404   5413   5422     1   107.9700462 569.024000
   5407   5419  10903     1   107.9700462 569.024000
   5410   5416  10874     1   107.9700462 569.024000
   5416  10874  10865     1   112.4800480 524.673600
   5419  10903  10894     1   112.4800480 524.673600
   5423   5424   5436     1   111.0400475 552.288000
   5423   5427   5439     1   111.0400475 552.288000
   5423   5430   5433     1   111.0400475 552.288000
   5424   5423   5427     1   112.3500484 533.878400
   5424   5423   5430     1   112.3500484 533.878400
   5424   5436   5448     1   111.5100476 526.347200
   5427   5423   5430     1   112.3500484 533.878400
   5427   5439   5445     1   111.5100476 526.347200
   5430   5433   5442     1   111.5100476 526.347200
   5433   5442   5451     1   107.9700462 569.024000
   5436   5448  10961     1   107.9700462 569.024000
   5439   5445  10932     1   107.9700462 569.024000
   5445  10932  10923     1   112.4800480 524.673600
   5448  10961  10952     1   112.4800480 524.673600
   5452   5453   5465     1   111.0400475 552.288000
   5452   5456   5468     1   111.0400475 552.288000
   5452   5459   5462     1   111.0400475 552.288000
   5453   5452   5456     1   112.3500484 533.878400
   5453   5452   5459     1   112.3500484 533.878400
   5453   5465   5477     1   111.5100476 526.347200
   5456   5452   5459     1   112.3500484 533.878400
   5456   5468   5474     1   111.5100476 526.347200
   5459   5462   5471     1   111.5100476 526.347200
   5462   5471   5480     1   107.9700462 569.024000
   5465   5477  11019     1   107.9700462 569.024000
   5468   5474  10990     1   107.9700462 569.024000
   5474  10990  10981     1   112.4800480 524.673600
   5477  11019  11010     1   112.4800480 524.673600
   5481   5482   5494     1   111.0400475 552.288000
   5481   5485   5497     1   111.0400475 552.288000
   5481   5488   5491     1   111.0400475 552.288000
   5482   5481   5485     1   112.3500484 533.878400
   5482   5481   5488     1   112.3500484 533.878400
   5482   5494   5506     1   111.5100476 526.347200
   5485   5481   5488     1   112.3500484 533.878400
   5485   5497   5503     1   111.5100476 526.347200
   5488   5491   5500     1   111.5100476 526.347200
   5491   5500   5509     1   107.9700462 569.024000
   5494   5506  11077     1   107.9700462 569.024000
   5497   5503  11048     1   107.9700462 569.024000
   5503  11048  11039     1   112.4800480 524.673600
   5506  11077  11068     1   112.4800480 524.673600
   5510   5511   5523     1   111.0400475 552.288000
   5510   5514   5526     1   111.0400475 552.288000
   5510   5517   5520     1   111.0400475 552.288000
   5511   5510   5514     1   112.3500484 533.878400
   5511   5510   5517     1   112.3500484 533.878400
   5511   5523   5535     1   111.5100476 526.347200
   5514   5510   5517     1   112.3500484 533.878400
   5514   5526   5532     1   111.5100476 526.347200
   5517   5520   5529     1   111.5100476 526.347200
   5520   5529   5538     1   107.9700462 569.024000
   5523   5535  11111     1   107.9700462 569.024000
   5526   5532  11088     1   107.9700462 569.024000
   5532  11088  11084     1   112.4800480 524.673600
   5535  11111  11107     1   112.4800480 524.673600
   5539   5540   5552     1   111.0400475 552.288000
   5539   5543   5555     1   111.0400475 552.288000
   5539   5546   5549     1   111.0400475 552.288000
   5540   5539   5543     1   112.3500484 533.878400
   5540   5539   5546     1   112.3500484 533.878400
   5540   5552   5564     1   111.5100476 526.347200
   5543   5539   5546     1   112.3500484 533.878400
   5543   5555   5561     1   111.5100476 526.347200
   5546   5549   5558     1   111.5100476 526.347200
   5549   5558   5567     1   107.9700462 569.024000
   5552   5564  11157     1   107.9700462 569.024000
   5555   5561  11134     1   107.9700462 569.024000
   5561  11134  11130     1   112.4800480 524.673600
   5564  11157  11153     1   112.4800480 524.673600
   5568   5569   5581     1   111.0400475 552.288000
   5568   5572   5584     1   111.0400475 552.288000
   5568   5575   5578     1   111.0400475 552.288000
   5569   5568   5572     1   112.3500484 533.878400
   5569   5568   5575     1   112.3500484 533.878400
   5569   5581   5593     1   111.5100476 526.347200
   5572   5568   5575     1   112.3500484 533.878400
   5572   5584   5590     1   111.5100476 526.347200
   5575   5578   5587     1   111.5100476 526.347200
   5578   5587   5596     1   107.9700462 569.024000
   5581   5593  11203     1   107.9700462 569.024000
   5584   5590  11180     1   107.9700462 569.024000
   5590  11180  11176     1   112.4800480 524.673600
   5593  11203  11199     1   112.4800480 524.673600
   5597   5598   5610     1   111.0400475 552.288000
   5597   5601   5613     1   111.0400475 552.288000
   5597   5604   5607     1   111.0400475 552.288000
   5598   5597   5601     1   112.3500484 533.878400
   5598   5597   5604     1   112.3500484 533.878400
   5598   5610   5622     1   111.5100476 526.347200
   5601   5597   5604     1   112.3500484 533.878400
   5601   5613   5619     1   111.5100476 526.347200
   5604   5607   5616     1   111.5100476 526.347200
   5607   5616   5625     1   107.9700462 569.024000
   5610   5622  11249     1   107.9700462 569.024000
   5613   5619  11226     1   107.9700462 569.024000
   5619  11226  11222     1   112.4800480 524.673600
   5622  11249  11245     1   112.4800480 524.673600
   5626   5627   5639     1   111.0400475 552.288000
   5626   5630   5642     1   111.0400475 552.288000
   5626   5633   5636     1   111.0400475 552.288000
   5627   5626   5630     1   112.3500484 533.878400
   5627   5626   5633     1   112.3500484 533.878400
   5627   5639   5651     1   111.5100476 526.347200
   5630   5626   5633     1   112.3500484 533.878400
   5630   5642   5648     1   111.5100476 526.347200
   5633   5636   5645     1   111.5100476 526.347200
   5636   5645   5654     1   107.9700462 569.024000
   5639   5651  11295     1   107.9700462 569.024000
   5642   5648  11272     1   107.9700462 569.024000
   5648  11272  11268     1   112.4800480 524.673600
   5651  11295  11291     1   112.4800480 524.673600
   5655   5656   5668     1   111.0400475 552.288000
   5655   5659   5671     1   111.0400475 552.288000
   5655   5662   5665     1   111.0400475 552.288000
   5656   5655   5659     1   112.3500484 533.878400
   5656   5655   5662     1   112.3500484 533.878400
   5656   5668   5680     1   111.5100476 526.347200
   5659   5655   5662     1   112.3500484 533.878400
   5659   5671   5677     1   111.5100476 526.347200
   5662   5665   5674     1   111.5100476 526.347200
   5665   5674   5683     1   107.9700462 569.024000
   5668   5680  11341     1   107.9700462 569.024000
   5671   5677  11318     1   107.9700462 569.024000
   5677  11318  11314     1   112.4800480 524.673600
   5680  11341  11337     1   112.4800480 524.673600
   5684   5685   5697     1   111.0400475 552.288000
   5684   5688   5700     1   111.0400475 552.288000
   5684   5691   5694     1   111.0400475 552.288000
   5685   5684   5688     1   112.3500484 533.878400
   5685   5684   5691     1   112.3500484 533.878400
   5685   5697   5709     1   111.5100476 526.347200
   5688   5684   5691     1   112.3500484 533.878400
   5688   5700   5706     1   111.5100476 526.347200
   5691   5694   5703     1   111.5100476 526.347200
   5694   5703   5712     1   107.9700462 569.024000
   5697   5709  11387     1   107.9700462 569.024000
   5700   5706  11364     1   107.9700462 569.024000
   5706  11364  11360     1   112.4800480 524.673600
   5709  11387  11383     1   112.4800480 524.673600
   5713   5714   5726     1   111.0400475 552.288000
   5713   5717   5729     1   111.0400475 552.288000
   5713   5720   5723     1   111.0400475 552.288000
   5714   5713   5717     1   112.3500484 533.878400
   5714   5713   5720     1   112.3500484 533.878400
   5714   5726   5738     1   111.5100476 526.347200
   5717   5713   5720     1   112.3500484 533.878400
   5717   5729   5735     1   111.5100476 526.347200
   5720   5723   5732     1   111.5100476 526.347200
   5723   5732   5741     1   107.9700462 569.024000
   5726   5738  11433     1   107.9700462 569.024000
   5729   5735  11410     1   107.9700462 569.024000
   5735  11410  11406     1   112.4800480 524.673600
   5738  11433  11429     1   112.4800480 524.673600
   5742   5743   5755     1   111.0400475 552.288000
   5742   5746   5758     1   111.0400475 552.288000
   5742   5749   5752     1   111.0400475 552.288000
   5743   5742   5746     1   112.3500484 533.878400
   5743   5742   5749     1   112.3500484 533.878400
   5743   5755   5767     1   111.5100476 526.347200
   5746   5742   5749     1   112.3500484 533.878400
   5746   5758   5764     1   111.5100476 526.347200
   5749   5752   5761     1   111.5100476 526.347200
   5752   5761   5770     1   107.9700462 569.024000
   5755   5767  11479     1   107.9700462 569.024000
   5758   5764  11456     1   107.9700462 569.024000
   5764  11456  11452     1   112.4800480 524.673600
   5767  11479  11475     1   112.4800480 524.673600
   5771   5772   5784     1   111.0400475 552.288000
   5771   5775   5787     1   111.0400475 552.288000
   5771   5778   5781     1   111.0400475 552.288000
   5772   5771   5775     1   112.3500484 533.878400
   5772   5771   5778     1   112.3500484 533.878400
   5772   5784   5796     1   111.5100476 526.347200
   5775   5771   5778     1   112.3500484 533.878400
   5775   5787   5793     1   111.5100476 526.347200
   5778   5781   5790     1   111.5100476 526.347200
   5781   5790   5799     1   107.9700462 569.024000
   5784   5796  11525     1   107.9700462 569.024000
   5787   5793  11502     1   107.9700462 569.024000
   5793  11502  11498     1   112.4800480 524.673600
   5796  11525  11521     1   112.4800480 524.673600
   5800   5801   5813     1   111.0400475 552.288000
   5800   5804   5816     1   111.0400475 552.288000
   5800   5807   5810     1   111.0400475 552.288000
   5801   5800   5804     1   112.3500484 533.878400
   5801   5800   5807     1   112.3500484 533.878400
   5801   5813   5825     1   111.5100476 526.347200
   5804   5800   5807     1   112.3500484 533.878400
   5804   5816   5822     1   111.5100476 526.347200
   5807   5810   5819     1   111.5100476 526.347200
   5810   5819   5828     1   107.9700462 569.024000
   5813   5825  11571     1   107.9700462 569.024000
   5816   5822  11548     1   107.9700462 569.024000
   5822  11548  11544     1   112.4800480 524.673600
   5825  11571  11567     1   112.4800480 524.673600
   5829   5830   5842     1   111.0400475 552.288000
   5829   5833   5845     1   111.0400475 552.288000
   5829   5836   5839     1   111.0400475 552.288000
   5830   5829   5833     1   112.3500484 533.878400
   5830   5829   5836     1   112.3500484 533.878400
   5830   5842   5854     1   111.5100476 526.347200
   5833   5829   5836     1   112.3500484 533.878400
   5833   5845   5851     1   111.5100476 526.347200
   5836   5839   5848     1   111.5100476 526.347200
   5839   5848   5857     1   107.9700462 569.024000
   5842   5854  11617     1   107.9700462 569.024000
   5845   5851  11594     1   107.9700462 569.024000
   5851  11594  11590     1   112.4800480 524.673600
   5854  11617  11613     1   112.4800480 524.673600
   5858   5859   5871     1   111.0400475 552.288000
   5858   5862   5874     1   111.0400475 552.288000
   5858   5865   5868     1   111.0400475 552.288000
   5859   5858   5862     1   112.3500484 533.878400
   5859   5858   5865     1   112.3500484 533.878400
   5859   5871   5883     1   111.5100476 526.347200
   5862   5858   5865     1   112.3500484 533.878400
   5862   5874   5880     1   111.5100476 526.347200
   5865   5868   5877     1   111.5100476 526.347200
   5868   5877   5886     1   107.9700462 569.024000
   5871   5883  11663     1   107.9700462 569.024000
   5874   5880  11640     1   107.9700462 569.024000
   5880  11640  11636     1   112.4800480 524.673600
   5883  11663  11659     1   112.4800480 524.673600
   5887   5888   5900     1   111.0400475 552.288000
   5887   5891   5903     1   111.0400475 552.288000
   5887   5894   5897     1   111.0400475 552.288000
   5888   5887   5891     1   112.3500484 533.878400
   5888   5887   5894     1   112.3500484 533.878400
   5888   5900   5912     1   111.5100476 526.347200
   5891   5887   5894     1   112.3500484 533.878400
   5891   5903   5909     1   111.5100476 526.347200
   5894   5897   5906     1   111.5100476 526.347200
   5897   5906   5915     1   107.9700462 569.024000
   5900   5912  11709     1   107.9700462 569.024000
   5903   5909  11686     1   107.9700462 569.024000
   5909  11686  11682     1   112.4800480 524.673600
   5912  11709  11705     1   112.4800480 524.673600
   5916   5917   5929     1   111.0400475 552.288000
   5916   5920   5932     1   111.0400475 552.288000
   5916   5923   5926     1   111.0400475 552.288000
   5917   5916   5920     1   112.3500484 533.878400
   5917   5916   5923     1   112.3500484 533.878400
   5917   5929   5941     1   111.5100476 526.347200
   5920   5916   5923     1   112.3500484 533.878400
   5920   5932   5938     1   111.5100476 526.347200
   5923   5926   5935     1   111.5100476 526.347200
   5926   5935   5944     1   107.9700462 569.024000
   5929   5941  11755     1   107.9700462 569.024000
   5932   5938  11732     1   107.9700462 569.024000
   5938  11732  11728     1   112.4800480 524.673600
   5941  11755  11751     1   112.4800480 524.673600
   5945   5946   5958     1   111.0400475 552.288000
   5945   5949   5961     1   111.0400475 552.288000
   5945   5952   5955     1   111.0400475 552.288000
   5946   5945   5949     1   112.3500484 533.878400
   5946   5945   5952     1   112.3500484 533.878400
   5946   5958   5970     1   111.5100476 526.347200
   5949   5945   5952     1   112.3500484 533.878400
   5949   5961   5967     1   111.5100476 526.347200
   5952   5955   5964     1   111.5100476 526.347200
   5955   5964   5973     1   107.9700462 569.024000
   5958   5970  11801     1   107.9700462 569.024000
   5961   5967  11778     1   107.9700462 569.024000
   5967  11778  11774     1   112.4800480 524.673600
   5970  11801  11797     1   112.4800480 524.673600
   5974   5975   5987     1   111.0400475 552.288000
   5974   5978   5990     1   111.0400475 552.288000
   5974   5981   5984     1   111.0400475 552.288000
   5975   5974   5978     1   112.3500484 533.878400
   5975   5974   5981     1   112.3500484 533.878400
   5975   5987   5999     1   111.5100476 526.347200
   5978   5974   5981     1   112.3500484 533.878400
   5978   5990   5996     1   111.5100476 526.347200
   5981   5984   5993     1   111.5100476 526.347200
   5984   5993   6002     1   107.9700462 569.024000
   5987   5999  11847     1   107.9700462 569.024000
   5990   5996  11824     1   107.9700462 569.024000
   5996  11824  11820     1   112.4800480 524.673600
   5999  11847  11843     1   112.4800480 524.673600
   6003   6004   6016     1   111.0400475 552.288000
   6003   6007   6019     1   111.0400475 552.288000
   6003   6010   6013     1   111.0400475 552.288000
   6004   6003   6007     1   112.3500484 533.878400
   6004   6003   6010     1   112.3500484 533.878400
   6004   6016   6028     1   111.5100476 526.347200
   6007   6003   6010     1   112.3500484 533.878400
   6007   6019   6025     1   111.5100476 526.347200
   6010   6013   6022     1   111.5100476 526.347200
   6013   6022   6031     1   107.9700462 569.024000
   6016   6028  11893     1   107.9700462 569.024000
   6019   6025  11870     1   107.9700462 569.024000
   6025  11870  11866     1   112.4800480 524.673600
   6028  11893  11889     1   112.4800480 524.673600
   6032   6033   6045     1   111.0400475 552.288000
   6032   6036   6048     1   111.0400475 552.288000
   6032   6039   6042     1   111.0400475 552.288000
   6033   6032   6036     1   112.3500484 533.878400
   6033   6032   6039     1   112.3500484 533.878400
   6033   6045   6057     1   111.5100476 526.347200
   6036   6032   6039     1   112.3500484 533.878400
   6036   6048   6054     1   111.5100476 526.347200
   6039   6042   6051     1   111.5100476 526.347200
   6042   6051   6060     1   107.9700462 569.024000
   6045   6057  11939     1   107.9700462 569.024000
   6048   6054  11916     1   107.9700462 569.024000
   6054  11916  11912     1   112.4800480 524.673600
   6057  11939  11935     1   112.4800480 524.673600
   6061   6062   6074     1   111.0400475 552.288000
   6061   6065   6077     1   111.0400475 552.288000
   6061   6068   6071     1   111.0400475 552.288000
   6062   6061   6065     1   112.3500484 533.878400
   6062   6061   6068     1   112.3500484 533.878400
   6062   6074   6086     1   111.5100476 526.347200
   6065   6061   6068     1   112.3500484 533.878400
   6065   6077   6083     1   111.5100476 526.347200
   6068   6071   6080     1   111.5100476 526.347200
   6071   6080   6089     1   107.9700462 569.024000
   6074   6086  11985     1   107.9700462 569.024000
   6077   6083  11962     1   107.9700462 569.024000
   6083  11962  11958     1   112.4800480 524.673600
   6086  11985  11981     1   112.4800480 524.673600
   6090   6091   6103     1   111.0400475 552.288000
   6090   6094   6106     1   111.0400475 552.288000
   6090   6097   6100     1   111.0400475 552.288000
   6091   6090   6094     1   112.3500484 533.878400
   6091   6090   6097     1   112.3500484 533.878400
   6091   6103   6115     1   111.5100476 526.347200
   6094   6090   6097     1   112.3500484 533.878400
   6094   6106   6112     1   111.5100476 526.347200
   6097   6100   6109     1   111.5100476 526.347200
   6100   6109   6118     1   107.9700462 569.024000
   6103   6115  12031     1   107.9700462 569.024000
   6106   6112  12008     1   107.9700462 569.024000
   6112  12008  12004     1   112.4800480 524.673600
   6115  12031  12027     1   112.4800480 524.673600
   6119   6120   6132     1   111.0400475 552.288000
   6119   6123   6135     1   111.0400475 552.288000
   6119   6126   6129     1   111.0400475 552.288000
   6120   6119   6123     1   112.3500484 533.878400
   6120   6119   6126     1   112.3500484 533.878400
   6120   6132   6144     1   111.5100476 526.347200
   6123   6119   6126     1   112.3500484 533.878400
   6123   6135   6141     1   111.5100476 526.347200
   6126   6129   6138     1   111.5100476 526.347200
   6129   6138   6147     1   107.9700462 569.024000
   6132   6144  12077     1   107.9700462 569.024000
   6135   6141  12054     1   107.9700462 569.024000
   6141  12054  12050     1   112.4800480 524.673600
   6144  12077  12073     1   112.4800480 524.673600
   6148   6149   6161     1   111.0400475 552.288000
   6148   6152   6164     1   111.0400475 552.288000
   6148   6155   6158     1   111.0400475 552.288000
   6149   6148   6152     1   112.3500484 533.878400
   6149   6148   6155     1   112.3500484 533.878400
   6149   6161   6173     1   111.5100476 526.347200
   6152   6148   6155     1   112.3500484 533.878400
   6152   6164   6170     1   111.5100476 526.347200
   6155   6158   6167     1   111.5100476 526.347200
   6158   6167   6176     1   107.9700462 569.024000
   6161   6173  12123     1   107.9700462 569.024000
   6164   6170  12100     1   107.9700462 569.024000
   6170  12100  12096     1   112.4800480 524.673600
   6173  12123  12119     1   112.4800480 524.673600
   6177   6178   6190     1   111.0400475 552.288000
   6177   6181   6193     1   111.0400475 552.288000
   6177   6184   6187     1   111.0400475 552.288000
   6178   6177   6181     1   112.3500484 533.878400
   6178   6177   6184     1   112.3500484 533.878400
   6178   6190   6202     1   111.5100476 526.347200
   6181   6177   6184     1   112.3500484 533.878400
   6181   6193   6199     1   111.5100476 526.347200
   6184   6187   6196     1   111.5100476 526.347200
   6187   6196   6205     1   107.9700462 569.024000
   6190   6202  12169     1   107.9700462 569.024000
   6193   6199  12146     1   107.9700462 569.024000
   6199  12146  12142     1   112.4800480 524.673600
   6202  12169  12165     1   112.4800480 524.673600
   6206   6207   6219     1   111.0400475 552.288000
   6206   6210   6222     1   111.0400475 552.288000
   6206   6213   6216     1   111.0400475 552.288000
   6207   6206   6210     1   112.3500484 533.878400
   6207   6206   6213     1   112.3500484 533.878400
   6207   6219   6231     1   111.5100476 526.347200
   6210   6206   6213     1   112.3500484 533.878400
   6210   6222   6228     1   111.5100476 526.347200
   6213   6216   6225     1   111.5100476 526.347200
   6216   6225   6234     1   107.9700462 569.024000
   6219   6231  12215     1   107.9700462 569.024000
   6222   6228  12192     1   107.9700462 569.024000
   6228  12192  12188     1   112.4800480 524.673600
   6231  12215  12211     1   112.4800480 524.673600
   6235   6236   6248     1   111.0400475 552.288000
   6235   6239   6251     1   111.0400475 552.288000
   6235   6242   6245     1   111.0400475 552.288000
   6236   6235   6239     1   112.3500484 533.878400
   6236   6235   6242     1   112.3500484 533.878400
   6236   6248   6260     1   111.5100476 526.347200
   6239   6235   6242     1   112.3500484 533.878400
   6239   6251   6257     1   111.5100476 526.347200
   6242   6245   6254     1   111.5100476 526.347200
   6245   6254   6263     1   107.9700462 569.024000
   6248   6260  12261     1   107.9700462 569.024000
   6251   6257  12238     1   107.9700462 569.024000
   6257  12238  12234     1   112.4800480 524.673600
   6260  12261  12257     1   112.4800480 524.673600
   6264   6265   6277     1   111.0400475 552.288000
   6264   6268   6280     1   111.0400475 552.288000
   6264   6271   6274     1   111.0400475 552.288000
   6265   6264   6268     1   112.3500484 533.878400
   6265   6264   6271     1   112.3500484 533.878400
   6265   6277   6289     1   111.5100476 526.347200
   6268   6264   6271     1   112.3500484 533.878400
   6268   6280   6286     1   111.5100476 526.347200
   6271   6274   6283     1   111.5100476 526.347200
   6274   6283   6292     1   107.9700462 569.024000
   6277   6289  12307     1   107.9700462 569.024000
   6280   6286  12284     1   107.9700462 569.024000
   6286  12284  12280     1   112.4800480 524.673600
   6289  12307  12303     1   112.4800480 524.673600
   6293   6294   6306     1   111.0400475 552.288000
   6293   6297   6309     1   111.0400475 552.288000
   6293   6300   6303     1   111.0400475 552.288000
   6294   6293   6297     1   112.3500484 533.878400
   6294   6293   6300     1   112.3500484 533.878400
   6294   6306   6318     1   111.5100476 526.347200
   6297   6293   6300     1   112.3500484 533.878400
   6297   6309   6315     1   111.5100476 526.347200
   6300   6303   6312     1   111.5100476 526.347200
   6303   6312   6321     1   107.9700462 569.024000
   6306   6318  12353     1   107.9700462 569.024000
   6309   6315  12330     1   107.9700462 569.024000
   6315  12330  12326     1   112.4800480 524.673600
   6318  12353  12349     1   112.4800480 524.673600
   6322   6323   6335     1   111.0400475 552.288000
   6322   6326   6338     1   111.0400475 552.288000
   6322   6329   6332     1   111.0400475 552.288000
   6323   6322   6326     1   112.3500484 533.878400
   6323   6322   6329     1   112.3500484 533.878400
   6323   6335   6347     1   111.5100476 526.347200
   6326   6322   6329     1   112.3500484 533.878400
   6326   6338   6344     1   111.5100476 526.347200
   6329   6332   6341     1   111.5100476 526.347200
   6332   6341   6350     1   107.9700462 569.024000
   6335   6347  12399     1   107.9700462 569.024000
   6338   6344  12376     1   107.9700462 569.024000
   6344  12376  12372     1   112.4800480 524.673600
   6347  12399  12395     1   112.4800480 524.673600
   6351   6352   6364     1   111.0400475 552.288000
   6351   6355   6367     1   111.0400475 552.288000
   6351   6358   6361     1   111.0400475 552.288000
   6352   6351   6355     1   112.3500484 533.878400
   6352   6351   6358     1   112.3500484 533.878400
   6352   6364   6376     1   111.5100476 526.347200
   6355   6351   6358     1   112.3500484 533.878400
   6355   6367   6373     1   111.5100476 526.347200
   6358   6361   6370     1   111.5100476 526.347200
   6361   6370   6379     1   107.9700462 569.024000
   6364   6376  12445     1   107.9700462 569.024000
   6367   6373  12422     1   107.9700462 569.024000
   6373  12422  12418     1   112.4800480 524.673600
   6376  12445  12441     1   112.4800480 524.673600
   6380   6381   6393     1   111.0400475 552.288000
   6380   6384   6396     1   111.0400475 552.288000
   6380   6387   6390     1   111.0400475 552.288000
   6381   6380   6384     1   112.3500484 533.878400
   6381   6380   6387     1   112.3500484 533.878400
   6381   6393   6405     1   111.5100476 526.347200
   6384   6380   6387     1   112.3500484 533.878400
   6384   6396   6402     1   111.5100476 526.347200
   6387   6390   6399     1   111.5100476 526.347200
   6390   6399   6408     1   107.9700462 569.024000
   6393   6405  12491     1   107.9700462 569.024000
   6396   6402  12468     1   107.9700462 569.024000
   6402  12468  12464     1   112.4800480 524.673600
   6405  12491  12487     1   112.4800480 524.673600
   6409   6410   6422     1   111.0400475 552.288000
   6409   6413   6425     1   111.0400475 552.288000
   6409   6416   6419     1   111.0400475 552.288000
   6410   6409   6413     1   112.3500484 533.878400
   6410   6409   6416     1   112.3500484 533.878400
   6410   6422   6434     1   111.5100476 526.347200
   6413   6409   6416     1   112.3500484 533.878400
   6413   6425   6431     1   111.5100476 526.347200
   6416   6419   6428     1   111.5100476 526.347200
   6419   6428   6437     1   107.9700462 569.024000
   6422   6434  12537     1   107.9700462 569.024000
   6425   6431  12514     1   107.9700462 569.024000
   6431  12514  12510     1   112.4800480 524.673600
   6434  12537  12533     1   112.4800480 524.673600
   6438   6439   6451     1   111.0400475 552.288000
   6438   6442   6454     1   111.0400475 552.288000
   6438   6445   6448     1   111.0400475 552.288000
   6439   6438   6442     1   112.3500484 533.878400
   6439   6438   6445     1   112.3500484 533.878400
   6439   6451   6463     1   111.5100476 526.347200
   6442   6438   6445     1   112.3500484 533.878400
   6442   6454   6460     1   111.5100476 526.347200
   6445   6448   6457     1   111.5100476 526.347200
   6448   6457   6466     1   107.9700462 569.024000
   6451   6463  12583     1   107.9700462 569.024000
   6454   6460  12560     1   107.9700462 569.024000
   6460  12560  12556     1   112.4800480 524.673600
   6463  12583  12579     1   112.4800480 524.673600
   6467   6468   6480     1   111.0400475 552.288000
   6467   6471   6483     1   111.0400475 552.288000
   6467   6474   6477     1   111.0400475 552.288000
   6468   6467   6471     1   112.3500484 533.878400
   6468   6467   6474     1   112.3500484 533.878400
   6468   6480   6492     1   111.5100476 526.347200
   6471   6467   6474     1   112.3500484 533.878400
   6471   6483   6489     1   111.5100476 526.347200
   6474   6477   6486     1   111.5100476 526.347200
   6477   6486   6495     1   107.9700462 569.024000
   6480   6492  12629     1   107.9700462 569.024000
   6483   6489  12606     1   107.9700462 569.024000
   6489  12606  12602     1   112.4800480 524.673600
   6492  12629  12625     1   112.4800480 524.673600
   6496   6497   6509     1   111.0400475 552.288000
   6496   6500   6512     1   111.0400475 552.288000
   6496   6503   6506     1   111.0400475 552.288000
   6497   6496   6500     1   112.3500484 533.878400
   6497   6496   6503     1   112.3500484 533.878400
   6497   6509   6521     1   111.5100476 526.347200
   6500   6496   6503     1   112.3500484 533.878400
   6500   6512   6518     1   111.5100476 526.347200
   6503   6506   6515     1   111.5100476 526.347200
   6506   6515   6524     1   107.9700462 569.024000
   6509   6521  12675     1   107.9700462 569.024000
   6512   6518  12652     1   107.9700462 569.024000
   6518  12652  12648     1   112.4800480 524.673600
   6521  12675  12671     1   112.4800480 524.673600
   6525   6526   6538     1   111.0400475 552.288000
   6525   6529   6541     1   111.0400475 552.288000
   6525   6532   6535     1   111.0400475 552.288000
   6526   6525   6529     1   112.3500484 533.878400
   6526   6525   6532     1   112.3500484 533.878400
   6526   6538   6550     1   111.5100476 526.347200
   6529   6525   6532     1   112.3500484 533.878400
   6529   6541   6547     1   111.5100476 526.347200
   6532   6535   6544     1   111.5100476 526.347200
   6535   6544   6553     1   107.9700462 569.024000
   6538   6550  12721     1   107.9700462 569.024000
   6541   6547  12698     1   107.9700462 569.024000
   6547  12698  12694     1   112.4800480 524.673600
   6550  12721  12717     1   112.4800480 524.673600
   6554   6555   6567     1   111.0400475 552.288000
   6554   6558   6570     1   111.0400475 552.288000
   6554   6561   6564     1   111.0400475 552.288000
   6555   6554   6558     1   112.3500484 533.878400
   6555   6554   6561     1   112.3500484 533.878400
   6555   6567   6579     1   111.5100476 526.347200
   6558   6554   6561     1   112.3500484 533.878400
   6558   6570   6576     1   111.5100476 526.347200
   6561   6564   6573     1   111.5100476 526.347200
   6564   6573   6582     1   107.9700462 569.024000
   6567   6579  12767     1   107.9700462 569.024000
   6570   6576  12744     1   107.9700462 569.024000
   6576  12744  12740     1   112.4800480 524.673600
   6579  12767  12763     1   112.4800480 524.673600
   6583   6584   6596     1   111.0400475 552.288000
   6583   6587   6599     1   111.0400475 552.288000
   6583   6590   6593     1   111.0400475 552.288000
   6584   6583   6587     1   112.3500484 533.878400
   6584   6583   6590     1   112.3500484 533.878400
   6584   6596   6608     1   111.5100476 526.347200
   6587   6583   6590     1   112.3500484 533.878400
   6587   6599   6605     1   111.5100476 526.347200
   6590   6593   6602     1   111.5100476 526.347200
   6593   6602   6611     1   107.9700462 569.024000
   6596   6608  12813     1   107.9700462 569.024000
   6599   6605  12790     1   107.9700462 569.024000
   6605  12790  12786     1   112.4800480 524.673600
   6608  12813  12809     1   112.4800480 524.673600
   6612   6613   6625     1   111.0400475 552.288000
   6612   6616   6628     1   111.0400475 552.288000
   6612   6619   6622     1   111.0400475 552.288000
   6613   6612   6616     1   112.3500484 533.878400
   6613   6612   6619     1   112.3500484 533.878400
   6613   6625   6637     1   111.5100476 526.347200
   6616   6612   6619     1   112.3500484 533.878400
   6616   6628   6634     1   111.5100476 526.347200
   6619   6622   6631     1   111.5100476 526.347200
   6622   6631   6640     1   107.9700462 569.024000
   6625   6637  12859     1   107.9700462 569.024000
   6628   6634  12836     1   107.9700462 569.024000
   6634  12836  12832     1   112.4800480 524.673600
   6637  12859  12855     1   112.4800480 524.673600
   6641   6642   6654     1   111.0400475 552.288000
   6641   6645   6657     1   111.0400475 552.288000
   6641   6648   6651     1   111.0400475 552.288000
   6642   6641   6645     1   112.3500484 533.878400
   6642   6641   6648     1   112.3500484 533.878400
   6642   6654   6666     1   111.5100476 526.347200
   6645   6641   6648     1   112.3500484 533.878400
   6645   6657   6663     1   111.5100476 526.347200
   6648   6651   6660     1   111.5100476 526.347200
   6651   6660   6669     1   107.9700462 569.024000
   6654   6666  12905     1   107.9700462 569.024000
   6657   6663  12882     1   107.9700462 569.024000
   6663  12882  12878     1   112.4800480 524.673600
   6666  12905  12901     1   112.4800480 524.673600
   6670   6671   6683     1   111.0400475 552.288000
   6670   6674   6686     1   111.0400475 552.288000
   6670   6677   6680     1   111.0400475 552.288000
   6671   6670   6674     1   112.3500484 533.878400
   6671   6670   6677     1   112.3500484 533.878400
   6671   6683   6695     1   111.5100476 526.347200
   6674   6670   6677     1   112.3500484 533.878400
   6674   6686   6692     1   111.5100476 526.347200
   6677   6680   6689     1   111.5100476 526.347200
   6680   6689   6698     1   107.9700462 569.024000
   6683   6695  12951     1   107.9700462 569.024000
   6686   6692  12928     1   107.9700462 569.024000
   6692  12928  12924     1   112.4800480 524.673600
   6695  12951  12947     1   112.4800480 524.673600
   6699   6700   6712     1   111.0400475 552.288000
   6699   6703   6715     1   111.0400475 552.288000
   6699   6706   6709     1   111.0400475 552.288000
   6700   6699   6703     1   112.3500484 533.878400
   6700   6699   6706     1   112.3500484 533.878400
   6700   6712   6724     1   111.5100476 526.347200
   6703   6699   6706     1   112.3500484 533.878400
   6703   6715   6721     1   111.5100476 526.347200
   6706   6709   6718     1   111.5100476 526.347200
   6709   6718   6727     1   107.9700462 569.024000
   6712   6724  12997     1   107.9700462 569.024000
   6715   6721  12974     1   107.9700462 569.024000
   6721  12974  12970     1   112.4800480 524.673600
   6724  12997  12993     1   112.4800480 524.673600
   6728   6729   6741     1   111.0400475 552.288000
   6728   6732   6744     1   111.0400475 552.288000
   6728   6735   6738     1   111.0400475 552.288000
   6729   6728   6732     1   112.3500484 533.878400
   6729   6728   6735     1   112.3500484 533.878400
   6729   6741   6753     1   111.5100476 526.347200
   6732   6728   6735     1   112.3500484 533.878400
   6732   6744   6750     1   111.5100476 526.347200
   6735   6738   6747     1   111.5100476 526.347200
   6738   6747   6756     1   107.9700462 569.024000
   6741   6753  13043     1   107.9700462 569.024000
   6744   6750  13020     1   107.9700462 569.024000
   6750  13020  13016     1   112.4800480 524.673600
   6753  13043  13039     1   112.4800480 524.673600
   6757   6758   6770     1   111.0400475 552.288000
   6757   6761   6773     1   111.0400475 552.288000
   6757   6764   6767     1   111.0400475 552.288000
   6758   6757   6761     1   112.3500484 533.878400
   6758   6757   6764     1   112.3500484 533.878400
   6758   6770   6782     1   111.5100476 526.347200
   6761   6757   6764     1   112.3500484 533.878400
   6761   6773   6779     1   111.5100476 526.347200
   6764   6767   6776     1   111.5100476 526.347200
   6767   6776   6785     1   107.9700462 569.024000
   6770   6782  13089     1   107.9700462 569.024000
   6773   6779  13066     1   107.9700462 569.024000
   6779  13066  13062     1   112.4800480 524.673600
   6782  13089  13085     1   112.4800480 524.673600
   6786   6787   6799     1   111.0400475 552.288000
   6786   6790   6802     1   111.0400475 552.288000
   6786   6793   6796     1   111.0400475 552.288000
   6787   6786   6790     1   112.3500484 533.878400
   6787   6786   6793     1   112.3500484 533.878400
   6787   6799   6811     1   111.5100476 526.347200
   6790   6786   6793     1   112.3500484 533.878400
   6790   6802   6808     1   111.5100476 526.347200
   6793   6796   6805     1   111.5100476 526.347200
   6796   6805   6814     1   107.9700462 569.024000
   6799   6811  13135     1   107.9700462 569.024000
   6802   6808  13112     1   107.9700462 569.024000
   6808  13112  13108     1   112.4800480 524.673600
   6811  13135  13131     1   112.4800480 524.673600
   6815   6816   6828     1   111.0400475 552.288000
   6815   6819   6831     1   111.0400475 552.288000
   6815   6822   6825     1   111.0400475 552.288000
   6816   6815   6819     1   112.3500484 533.878400
   6816   6815   6822     1   112.3500484 533.878400
   6816   6828   6840     1   111.5100476 526.347200
   6819   6815   6822     1   112.3500484 533.878400
   6819   6831   6837     1   111.5100476 526.347200
   6822   6825   6834     1   111.5100476 526.347200
   6825   6834   6843     1   107.9700462 569.024000
   6828   6840  13181     1   107.9700462 569.024000
   6831   6837  13158     1   107.9700462 569.024000
   6837  13158  13154     1   112.4800480 524.673600
   6840  13181  13177     1   112.4800480 524.673600
   6844   6845   6857     1   111.0400475 552.288000
   6844   6848   6860     1   111.0400475 552.288000
   6844   6851   6854     1   111.0400475 552.288000
   6845   6844   6848     1   112.3500484 533.878400
   6845   6844   6851     1   112.3500484 533.878400
   6845   6857   6869     1   111.5100476 526.347200
   6848   6844   6851     1   112.3500484 533.878400
   6848   6860   6866     1   111.5100476 526.347200
   6851   6854   6863     1   111.5100476 526.347200
   6854   6863   6872     1   107.9700462 569.024000
   6857   6869  13227     1   107.9700462 569.024000
   6860   6866  13204     1   107.9700462 569.024000
   6866  13204  13200     1   112.4800480 524.673600
   6869  13227  13223     1   112.4800480 524.673600
   6873   6874   6886     1   111.0400475 552.288000
   6873   6877   6889     1   111.0400475 552.288000
   6873   6880   6883     1   111.0400475 552.288000
   6874   6873   6877     1   112.3500484 533.878400
   6874   6873   6880     1   112.3500484 533.878400
   6874   6886   6898     1   111.5100476 526.347200
   6877   6873   6880     1   112.3500484 533.878400
   6877   6889   6895     1   111.5100476 526.347200
   6880   6883   6892     1   111.5100476 526.347200
   6883   6892   6901     1   107.9700462 569.024000
   6886   6898  13273     1   107.9700462 569.024000
   6889   6895  13250     1   107.9700462 569.024000
   6895  13250  13246     1   112.4800480 524.673600
   6898  13273  13269     1   112.4800480 524.673600
   6902   6903   6915     1   111.0400475 552.288000
   6902   6906   6918     1   111.0400475 552.288000
   6902   6909   6912     1   111.0400475 552.288000
   6903   6902   6906     1   112.3500484 533.878400
   6903   6902   6909     1   112.3500484 533.878400
   6903   6915   6927     1   111.5100476 526.347200
   6906   6902   6909     1   112.3500484 533.878400
   6906   6918   6924     1   111.5100476 526.347200
   6909   6912   6921     1   111.5100476 526.347200
   6912   6921   6930     1   107.9700462 569.024000
   6915   6927  13319     1   107.9700462 569.024000
   6918   6924  13296     1   107.9700462 569.024000
   6924  13296  13292     1   112.4800480 524.673600
   6927  13319  13315     1   112.4800480 524.673600
   6931   6932   6944     1   111.0400475 552.288000
   6931   6935   6947     1   111.0400475 552.288000
   6931   6938   6941     1   111.0400475 552.288000
   6932   6931   6935     1   112.3500484 533.878400
   6932   6931   6938     1   112.3500484 533.878400
   6932   6944   6956     1   111.5100476 526.347200
   6935   6931   6938     1   112.3500484 533.878400
   6935   6947   6953     1   111.5100476 526.347200
   6938   6941   6950     1   111.5100476 526.347200
   6941   6950   6959     1   107.9700462 569.024000
   6944   6956  13365     1   107.9700462 569.024000
   6947   6953  13342     1   107.9700462 569.024000
   6953  13342  13338     1   112.4800480 524.673600
   6956  13365  13361     1   112.4800480 524.673600
   6960   6961   6973     1   111.0400475 552.288000
   6960   6964   6976     1   111.0400475 552.288000
   6960   6967   6970     1   111.0400475 552.288000
   6961   6960   6964     1   112.3500484 533.878400
   6961   6960   6967     1   112.3500484 533.878400
   6961   6973   6985     1   111.5100476 526.347200
   6964   6960   6967     1   112.3500484 533.878400
   6964   6976   6982     1   111.5100476 526.347200
   6967   6970   6979     1   111.5100476 526.347200
   6970   6979   6988     1   107.9700462 569.024000
   6973   6985  13411     1   107.9700462 569.024000
   6976   6982  13388     1   107.9700462 569.024000
   6982  13388  13384     1   112.4800480 524.673600
   6985  13411  13407     1   112.4800480 524.673600
   6989   6990   7002     1   111.0400475 552.288000
   6989   6993   7005     1   111.0400475 552.288000
   6989   6996   6999     1   111.0400475 552.288000
   6990   6989   6993     1   112.3500484 533.878400
   6990   6989   6996     1   112.3500484 533.878400
   6990   7002   7014     1   111.5100476 526.347200
   6993   6989   6996     1   112.3500484 533.878400
   6993   7005   7011     1   111.5100476 526.347200
   6996   6999   7008     1   111.5100476 526.347200
   6999   7008   7017     1   107.9700462 569.024000
   7002   7014  13457     1   107.9700462 569.024000
   7005   7011  13434     1   107.9700462 569.024000
   7011  13434  13430     1   112.4800480 524.673600
   7014  13457  13453     1   112.4800480 524.673600
   7018   7019   7031     1   111.0400475 552.288000
   7018   7022   7034     1   111.0400475 552.288000
   7018   7025   7028     1   111.0400475 552.288000
   7019   7018   7022     1   112.3500484 533.878400
   7019   7018   7025     1   112.3500484 533.878400
   7019   7031   7043     1   111.5100476 526.347200
   7022   7018   7025     1   112.3500484 533.878400
   7022   7034   7040     1   111.5100476 526.347200
   7025   7028   7037     1   111.5100476 526.347200
   7028   7037   7046     1   107.9700462 569.024000
   7031   7043  13503     1   107.9700462 569.024000
   7034   7040  13480     1   107.9700462 569.024000
   7040  13480  13476     1   112.4800480 524.673600
   7043  13503  13499     1   112.4800480 524.673600
   7047   7048   7060     1   111.0400475 552.288000
   7047   7051   7063     1   111.0400475 552.288000
   7047   7054   7057     1   111.0400475 552.288000
   7048   7047   7051     1   112.3500484 533.878400
   7048   7047   7054     1   112.3500484 533.878400
   7048   7060   7072     1   111.5100476 526.347200
   7051   7047   7054     1   112.3500484 533.878400
   7051   7063   7069     1   111.5100476 526.347200
   7054   7057   7066     1   111.5100476 526.347200
   7057   7066   7075     1   107.9700462 569.024000
   7060   7072  13549     1   107.9700462 569.024000
   7063   7069  13526     1   107.9700462 569.024000
   7069  13526  13522     1   112.4800480 524.673600
   7072  13549  13545     1   112.4800480 524.673600
   7076   7077   7089     1   111.0400475 552.288000
   7076   7080   7092     1   111.0400475 552.288000
   7076   7083   7086     1   111.0400475 552.288000
   7077   7076   7080     1   112.3500484 533.878400
   7077   7076   7083     1   112.3500484 533.878400
   7077   7089   7101     1   111.5100476 526.347200
   7080   7076   7083     1   112.3500484 533.878400
   7080   7092   7098     1   111.5100476 526.347200
   7083   7086   7095     1   111.5100476 526.347200
   7086   7095   7104     1   107.9700462 569.024000
   7089   7101  13595     1   107.9700462 569.024000
   7092   7098  13572     1   107.9700462 569.024000
   7098  13572  13568     1   112.4800480 524.673600
   7101  13595  13591     1   112.4800480 524.673600
   7105   7106   7118     1   111.0400475 552.288000
   7105   7109   7121     1   111.0400475 552.288000
   7105   7112   7115     1   111.0400475 552.288000
   7106   7105   7109     1   112.3500484 533.878400
   7106   7105   7112     1   112.3500484 533.878400
   7106   7118   7130     1   111.5100476 526.347200
   7109   7105   7112     1   112.3500484 533.878400
   7109   7121   7127     1   111.5100476 526.347200
   7112   7115   7124     1   111.5100476 526.347200
   7115   7124   7133     1   107.9700462 569.024000
   7118   7130  13641     1   107.9700462 569.024000
   7121   7127  13618     1   107.9700462 569.024000
   7127  13618  13614     1   112.4800480 524.673600
   7130  13641  13637     1   112.4800480 524.673600
   7134   7135   7147     1   111.0400475 552.288000
   7134   7138   7150     1   111.0400475 552.288000
   7134   7141   7144     1   111.0400475 552.288000
   7135   7134   7138     1   112.3500484 533.878400
   7135   7134   7141     1   112.3500484 533.878400
   7135   7147   7159     1   111.5100476 526.347200
   7138   7134   7141     1   112.3500484 533.878400
   7138   7150   7156     1   111.5100476 526.347200
   7141   7144   7153     1   111.5100476 526.347200
   7144   7153   7162     1   107.9700462 569.024000
   7147   7159  13687     1   107.9700462 569.024000
   7150   7156  13664     1   107.9700462 569.024000
   7156  13664  13660     1   112.4800480 524.673600
   7159  13687  13683     1   112.4800480 524.673600
   7163   7164   7176     1   111.0400475 552.288000
   7163   7167   7179     1   111.0400475 552.288000
   7163   7170   7173     1   111.0400475 552.288000
   7164   7163   7167     1   112.3500484 533.878400
   7164   7163   7170     1   112.3500484 533.878400
   7164   7176   7188     1   111.5100476 526.347200
   7167   7163   7170     1   112.3500484 533.878400
   7167   7179   7185     1   111.5100476 526.347200
   7170   7173   7182     1   111.5100476 526.347200
   7173   7182   7191     1   107.9700462 569.024000
   7176   7188  13733     1   107.9700462 569.024000
   7179   7185  13710     1   107.9700462 569.024000
   7185  13710  13706     1   112.4800480 524.673600
   7188  13733  13729     1   112.4800480 524.673600
   7192   7193   7205     1   111.0400475 552.288000
   7192   7196   7208     1   111.0400475 552.288000
   7192   7199   7202     1   111.0400475 552.288000
   7193   7192   7196     1   112.3500484 533.878400
   7193   7192   7199     1   112.3500484 533.878400
   7193   7205   7217     1   111.5100476 526.347200
   7196   7192   7199     1   112.3500484 533.878400
   7196   7208   7214     1   111.5100476 526.347200
   7199   7202   7211     1   111.5100476 526.347200
   7202   7211   7220     1   107.9700462 569.024000
   7205   7217  13779     1   107.9700462 569.024000
   7208   7214  13756     1   107.9700462 569.024000
   7214  13756  13752     1   112.4800480 524.673600
   7217  13779  13775     1   112.4800480 524.673600
   7221   7222   7234     1   111.0400475 552.288000
   7221   7225   7237     1   111.0400475 552.288000
   7221   7228   7231     1   111.0400475 552.288000
   7222   7221   7225     1   112.3500484 533.878400
   7222   7221   7228     1   112.3500484 533.878400
   7222   7234   7246     1   111.5100476 526.347200
   7225   7221   7228     1   112.3500484 533.878400
   7225   7237   7243     1   111.5100476 526.347200
   7228   7231   7240     1   111.5100476 526.347200
   7231   7240   7249     1   107.9700462 569.024000
   7234   7246  13825     1   107.9700462 569.024000
   7237   7243  13802     1   107.9700462 569.024000
   7243  13802  13798     1   112.4800480 524.673600
   7246  13825  13821     1   112.4800480 524.673600
   7250   7251   7263     1   111.0400475 552.288000
   7250   7254   7266     1   111.0400475 552.288000
   7250   7257   7260     1   111.0400475 552.288000
   7251   7250   7254     1   112.3500484 533.878400
   7251   7250   7257     1   112.3500484 533.878400
   7251   7263   7275     1   111.5100476 526.347200
   7254   7250   7257     1   112.3500484 533.878400
   7254   7266   7272     1   111.5100476 526.347200
   7257   7260   7269     1   111.5100476 526.347200
   7260   7269   7278     1   107.9700462 569.024000
   7263   7275  13871     1   107.9700462 569.024000
   7266   7272  13848     1   107.9700462 569.024000
   7272  13848  13844     1   112.4800480 524.673600
   7275  13871  13867     1   112.4800480 524.673600
   7279   7280   7292     1   111.0400475 552.288000
   7279   7283   7295     1   111.0400475 552.288000
   7279   7286   7289     1   111.0400475 552.288000
   7280   7279   7283     1   112.3500484 533.878400
   7280   7279   7286     1   112.3500484 533.878400
   7280   7292   7304     1   111.5100476 526.347200
   7283   7279   7286     1   112.3500484 533.878400
   7283   7295   7301     1   111.5100476 526.347200
   7286   7289   7298     1   111.5100476 526.347200
   7289   7298   7307     1   107.9700462 569.024000
   7292   7304  13917     1   107.9700462 569.024000
   7295   7301  13894     1   107.9700462 569.024000
   7301  13894  13890     1   112.4800480 524.673600
   7304  13917  13913     1   112.4800480 524.673600
   7308   7309   7321     1   111.0400475 552.288000
   7308   7312   7324     1   111.0400475 552.288000
   7308   7315   7318     1   111.0400475 552.288000
   7309   7308   7312     1   112.3500484 533.878400
   7309   7308   7315     1   112.3500484 533.878400
   7309   7321   7333     1   111.5100476 526.347200
   7312   7308   7315     1   112.3500484 533.878400
   7312   7324   7330     1   111.5100476 526.347200
   7315   7318   7327     1   111.5100476 526.347200
   7318   7327   7336     1   107.9700462 569.024000
   7321   7333  13963     1   107.9700462 569.024000
   7324   7330  13940     1   107.9700462 569.024000
   7330  13940  13936     1   112.4800480 524.673600
   7333  13963  13959     1   112.4800480 524.673600
   7337   7338   7350     1   111.0400475 552.288000
   7337   7341   7353     1   111.0400475 552.288000
   7337   7344   7347     1   111.0400475 552.288000
   7338   7337   7341     1   112.3500484 533.878400
   7338   7337   7344     1   112.3500484 533.878400
   7338   7350   7362     1   111.5100476 526.347200
   7341   7337   7344     1   112.3500484 533.878400
   7341   7353   7359     1   111.5100476 526.347200
   7344   7347   7356     1   111.5100476 526.347200
   7347   7356   7365     1   107.9700462 569.024000
   7350   7362  14009     1   107.9700462 569.024000
   7353   7359  13986     1   107.9700462 569.024000
   7359  13986  13982     1   112.4800480 524.673600
   7362  14009  14005     1   112.4800480 524.673600
   7366   7367   7379     1   111.0400475 552.288000
   7366   7370   7382     1   111.0400475 552.288000
   7366   7373   7376     1   111.0400475 552.288000
   7367   7366   7370     1   112.3500484 533.878400
   7367   7366   7373     1   112.3500484 533.878400
   7367   7379   7391     1   111.5100476 526.347200
   7370   7366   7373     1   112.3500484 533.878400
   7370   7382   7388     1   111.5100476 526.347200
   7373   7376   7385     1   111.5100476 526.347200
   7376   7385   7394     1   107.9700462 569.024000
   7379   7391  14055     1   107.9700462 569.024000
   7382   7388  14032     1   107.9700462 569.024000
   7388  14032  14028     1   112.4800480 524.673600
   7391  14055  14051     1   112.4800480 524.673600
   7395   7396   7408     1   111.0400475 552.288000
   7395   7399   7411     1   111.0400475 552.288000
   7395   7402   7405     1   111.0400475 552.288000
   7396   7395   7399     1   112.3500484 533.878400
   7396   7395   7402     1   112.3500484 533.878400
   7396   7408   7420     1   111.5100476 526.347200
   7399   7395   7402     1   112.3500484 533.878400
   7399   7411   7417     1   111.5100476 526.347200
   7402   7405   7414     1   111.5100476 526.347200
   7405   7414   7423     1   107.9700462 569.024000
   7408   7420  14101     1   107.9700462 569.024000
   7411   7417  14078     1   107.9700462 569.024000
   7417  14078  14074     1   112.4800480 524.673600
   7420  14101  14097     1   112.4800480 524.673600
   7424   7425   7437     1   111.0400475 552.288000
   7424   7428   7440     1   111.0400475 552.288000
   7424   7431   7434     1   111.0400475 552.288000
   7425   7424   7428     1   112.3500484 533.878400
   7425   7424   7431     1   112.3500484 533.878400
   7425   7437   7449     1   111.5100476 526.347200
   7428   7424   7431     1   112.3500484 533.878400
   7428   7440   7446     1   111.5100476 526.347200
   7431   7434   7443     1   111.5100476 526.347200
   7434   7443   7452     1   107.9700462 569.024000
   7437   7449  14147     1   107.9700462 569.024000
   7440   7446  14124     1   107.9700462 569.024000
   7446  14124  14120     1   112.4800480 524.673600
   7449  14147  14143     1   112.4800480 524.673600
   7453   7454   7466     1   111.0400475 552.288000
   7453   7457   7469     1   111.0400475 552.288000
   7453   7460   7463     1   111.0400475 552.288000
   7454   7453   7457     1   112.3500484 533.878400
   7454   7453   7460     1   112.3500484 533.878400
   7454   7466   7478     1   111.5100476 526.347200
   7457   7453   7460     1   112.3500484 533.878400
   7457   7469   7475     1   111.5100476 526.347200
   7460   7463   7472     1   111.5100476 526.347200
   7463   7472   7481     1   107.9700462 569.024000
   7466   7478  14193     1   107.9700462 569.024000
   7469   7475  14170     1   107.9700462 569.024000
   7475  14170  14166     1   112.4800480 524.673600
   7478  14193  14189     1   112.4800480 524.673600
   7482   7483   7495     1   111.0400475 552.288000
   7482   7486   7498     1   111.0400475 552.288000
   7482   7489   7492     1   111.0400475 552.288000
   7483   7482   7486     1   112.3500484 533.878400
   7483   7482   7489     1   112.3500484 533.878400
   7483   7495   7507     1   111.5100476 526.347200
   7486   7482   7489     1   112.3500484 533.878400
   7486   7498   7504     1   111.5100476 526.347200
   7489   7492   7501     1   111.5100476 526.347200
   7492   7501   7510     1   107.9700462 569.024000
   7495   7507  14239     1   107.9700462 569.024000
   7498   7504  14216     1   107.9700462 569.024000
   7504  14216  14212     1   112.4800480 524.673600
   7507  14239  14235     1   112.4800480 524.673600
   7511   7512   7524     1   111.0400475 552.288000
   7511   7515   7527     1   111.0400475 552.288000
   7511   7518   7521     1   111.0400475 552.288000
   7512   7511   7515     1   112.3500484 533.878400
   7512   7511   7518     1   112.3500484 533.878400
   7512   7524   7536     1   111.5100476 526.347200
   7515   7511   7518     1   112.3500484 533.878400
   7515   7527   7533     1   111.5100476 526.347200
   7518   7521   7530     1   111.5100476 526.347200
   7521   7530   7539     1   107.9700462 569.024000
   7524   7536  14285     1   107.9700462 569.024000
   7527   7533  14262     1   107.9700462 569.024000
   7533  14262  14258     1   112.4800480 524.673600
   7536  14285  14281     1   112.4800480 524.673600
   7540   7541   7553     1   111.0400475 552.288000
   7540   7544   7556     1   111.0400475 552.288000
   7540   7547   7550     1   111.0400475 552.288000
   7541   7540   7544     1   112.3500484 533.878400
   7541   7540   7547     1   112.3500484 533.878400
   7541   7553   7565     1   111.5100476 526.347200
   7544   7540   7547     1   112.3500484 533.878400
   7544   7556   7562     1   111.5100476 526.347200
   7547   7550   7559     1   111.5100476 526.347200
   7550   7559   7568     1   107.9700462 569.024000
   7553   7565  14331     1   107.9700462 569.024000
   7556   7562  14308     1   107.9700462 569.024000
   7562  14308  14304     1   112.4800480 524.673600
   7565  14331  14327     1   112.4800480 524.673600
   7569   7570   7582     1   111.0400475 552.288000
   7569   7573   7585     1   111.0400475 552.288000
   7569   7576   7579     1   111.0400475 552.288000
   7570   7569   7573     1   112.3500484 533.878400
   7570   7569   7576     1   112.3500484 533.878400
   7570   7582   7594     1   111.5100476 526.347200
   7573   7569   7576     1   112.3500484 533.878400
   7573   7585   7591     1   111.5100476 526.347200
   7576   7579   7588     1   111.5100476 526.347200
   7579   7588   7597     1   107.9700462 569.024000
   7582   7594  14377     1   107.9700462 569.024000
   7585   7591  14354     1   107.9700462 569.024000
   7591  14354  14350     1   112.4800480 524.673600
   7594  14377  14373     1   112.4800480 524.673600
   7598   7599   7611     1   111.0400475 552.288000
   7598   7602   7614     1   111.0400475 552.288000
   7598   7605   7608     1   111.0400475 552.288000
   7599   7598   7602     1   112.3500484 533.878400
   7599   7598   7605     1   112.3500484 533.878400
   7599   7611   7623     1   111.5100476 526.347200
   7602   7598   7605     1   112.3500484 533.878400
   7602   7614   7620     1   111.5100476 526.347200
   7605   7608   7617     1   111.5100476 526.347200
   7608   7617   7626     1   107.9700462 569.024000
   7611   7623  14423     1   107.9700462 569.024000
   7614   7620  14400     1   107.9700462 569.024000
   7620  14400  14396     1   112.4800480 524.673600
   7623  14423  14419     1   112.4800480 524.673600
   7627   7628   7640     1   111.0400475 552.288000
   7627   7631   7643     1   111.0400475 552.288000
   7627   7634   7637     1   111.0400475 552.288000
   7628   7627   7631     1   112.3500484 533.878400
   7628   7627   7634     1   112.3500484 533.878400
   7628   7640   7652     1   111.5100476 526.347200
   7631   7627   7634     1   112.3500484 533.878400
   7631   7643   7649     1   111.5100476 526.347200
   7634   7637   7646     1   111.5100476 526.347200
   7637   7646   7655     1   107.9700462 569.024000
   7640   7652  14469     1   107.9700462 569.024000
   7643   7649  14446     1   107.9700462 569.024000
   7649  14446  14442     1   112.4800480 524.673600
   7652  14469  14465     1   112.4800480 524.673600
   7656   7657   7669     1   111.0400475 552.288000
   7656   7660   7672     1   111.0400475 552.288000
   7656   7663   7666     1   111.0400475 552.288000
   7657   7656   7660     1   112.3500484 533.878400
   7657   7656   7663     1   112.3500484 533.878400
   7657   7669   7681     1   111.5100476 526.347200
   7660   7656   7663     1   112.3500484 533.878400
   7660   7672   7678     1   111.5100476 526.347200
   7663   7666   7675     1   111.5100476 526.347200
   7666   7675   7684     1   107.9700462 569.024000
   7669   7681  14515     1   107.9700462 569.024000
   7672   7678  14492     1   107.9700462 569.024000
   7678  14492  14488     1   112.4800480 524.673600
   7681  14515  14511     1   112.4800480 524.673600
   7685   7686   7698     1   111.0400475 552.288000
   7685   7689   7701     1   111.0400475 552.288000
   7685   7692   7695     1   111.0400475 552.288000
   7686   7685   7689     1   112.3500484 533.878400
   7686   7685   7692     1   112.3500484 533.878400
   7686   7698   7710     1   111.5100476 526.347200
   7689   7685   7692     1   112.3500484 533.878400
   7689   7701   7707     1   111.5100476 526.347200
   7692   7695   7704     1   111.5100476 526.347200
   7695   7704   7713     1   107.9700462 569.024000
   7698   7710  14561     1   107.9700462 569.024000
   7701   7707  14538     1   107.9700462 569.024000
   7707  14538  14534     1   112.4800480 524.673600
   7710  14561  14557     1   112.4800480 524.673600
   7714   7715   7727     1   111.0400475 552.288000
   7714   7718   7730     1   111.0400475 552.288000
   7714   7721   7724     1   111.0400475 552.288000
   7715   7714   7718     1   112.3500484 533.878400
   7715   7714   7721     1   112.3500484 533.878400
   7715   7727   7739     1   111.5100476 526.347200
   7718   7714   7721     1   112.3500484 533.878400
   7718   7730   7736     1   111.5100476 526.347200
   7721   7724   7733     1   111.5100476 526.347200
   7724   7733   7742     1   107.9700462 569.024000
   7727   7739  14607     1   107.9700462 569.024000
   7730   7736  14584     1   107.9700462 569.024000
   7736  14584  14580     1   112.4800480 524.673600
   7739  14607  14603     1   112.4800480 524.673600
   7743   7744   7756     1   111.0400475 552.288000
   7743   7747   7759     1   111.0400475 552.288000
   7743   7750   7753     1   111.0400475 552.288000
   7744   7743   7747     1   112.3500484 533.878400
   7744   7743   7750     1   112.3500484 533.878400
   7744   7756   7768     1   111.5100476 526.347200
   7747   7743   7750     1   112.3500484 533.878400
   7747   7759   7765     1   111.5100476 526.347200
   7750   7753   7762     1   111.5100476 526.347200
   7753   7762   7771     1   107.9700462 569.024000
   7756   7768  14653     1   107.9700462 569.024000
   7759   7765  14630     1   107.9700462 569.024000
   7765  14630  14626     1   112.4800480 524.673600
   7768  14653  14649     1   112.4800480 524.673600
   7772   7773   7785     1   111.0400475 552.288000
   7772   7776   7788     1   111.0400475 552.288000
   7772   7779   7782     1   111.0400475 552.288000
   7773   7772   7776     1   112.3500484 533.878400
   7773   7772   7779     1   112.3500484 533.878400
   7773   7785   7797     1   111.5100476 526.347200
   7776   7772   7779     1   112.3500484 533.878400
   7776   7788   7794     1   111.5100476 526.347200
   7779   7782   7791     1   111.5100476 526.347200
   7782   7791   7800     1   107.9700462 569.024000
   7785   7797  14699     1   107.9700462 569.024000
   7788   7794  14676     1   107.9700462 569.024000
   7794  14676  14672     1   112.4800480 524.673600
   7797  14699  14695     1   112.4800480 524.673600
   7801   7802   7814     1   111.0400475 552.288000
   7801   7805   7817     1   111.0400475 552.288000
   7801   7808   7811     1   111.0400475 552.288000
   7802   7801   7805     1   112.3500484 533.878400
   7802   7801   7808     1   112.3500484 533.878400
   7802   7814   7826     1   111.5100476 526.347200
   7805   7801   7808     1   112.3500484 533.878400
   7805   7817   7823     1   111.5100476 526.347200
   7808   7811   7820     1   111.5100476 526.347200
   7811   7820   7829     1   107.9700462 569.024000
   7814   7826  14745     1   107.9700462 569.024000
   7817   7823  14722     1   107.9700462 569.024000
   7823  14722  14718     1   112.4800480 524.673600
   7826  14745  14741     1   112.4800480 524.673600
   7830   7831   7843     1   111.0400475 552.288000
   7830   7834   7846     1   111.0400475 552.288000
   7830   7837   7840     1   111.0400475 552.288000
   7831   7830   7834     1   112.3500484 533.878400
   7831   7830   7837     1   112.3500484 533.878400
   7831   7843   7855     1   111.5100476 526.347200
   7834   7830   7837     1   112.3500484 533.878400
   7834   7846   7852     1   111.5100476 526.347200
   7837   7840   7849     1   111.5100476 526.347200
   7840   7849   7858     1   107.9700462 569.024000
   7843   7855  14791     1   107.9700462 569.024000
   7846   7852  14768     1   107.9700462 569.024000
   7852  14768  14764     1   112.4800480 524.673600
   7855  14791  14787     1   112.4800480 524.673600
   7859   7860   7872     1   111.0400475 552.288000
   7859   7863   7875     1   111.0400475 552.288000
   7859   7866   7869     1   111.0400475 552.288000
   7860   7859   7863     1   112.3500484 533.878400
   7860   7859   7866     1   112.3500484 533.878400
   7860   7872   7884     1   111.5100476 526.347200
   7863   7859   7866     1   112.3500484 533.878400
   7863   7875   7881     1   111.5100476 526.347200
   7866   7869   7878     1   111.5100476 526.347200
   7869   7878   7887     1   107.9700462 569.024000
   7872   7884  14837     1   107.9700462 569.024000
   7875   7881  14814     1   107.9700462 569.024000
   7881  14814  14810     1   112.4800480 524.673600
   7884  14837  14833     1   112.4800480 524.673600
   7888   7889   7901     1   111.0400475 552.288000
   7888   7892   7904     1   111.0400475 552.288000
   7888   7895   7898     1   111.0400475 552.288000
   7889   7888   7892     1   112.3500484 533.878400
   7889   7888   7895     1   112.3500484 533.878400
   7889   7901   7913     1   111.5100476 526.347200
   7892   7888   7895     1   112.3500484 533.878400
   7892   7904   7910     1   111.5100476 526.347200
   7895   7898   7907     1   111.5100476 526.347200
   7898   7907   7916     1   107.9700462 569.024000
   7901   7913  14883     1   107.9700462 569.024000
   7904   7910  14860     1   107.9700462 569.024000
   7910  14860  14856     1   112.4800480 524.673600
   7913  14883  14879     1   112.4800480 524.673600
   7917   7918   7930     1   111.0400475 552.288000
   7917   7921   7933     1   111.0400475 552.288000
   7917   7924   7927     1   111.0400475 552.288000
   7918   7917   7921     1   112.3500484 533.878400
   7918   7917   7924     1   112.3500484 533.878400
   7918   7930   7942     1   111.5100476 526.347200
   7921   7917   7924     1   112.3500484 533.878400
   7921   7933   7939     1   111.5100476 526.347200
   7924   7927   7936     1   111.5100476 526.347200
   7927   7936   7945     1   107.9700462 569.024000
   7930   7942  14929     1   107.9700462 569.024000
   7933   7939  14906     1   107.9700462 569.024000
   7939  14906  14902     1   112.4800480 524.673600
   7942  14929  14925     1   112.4800480 524.673600
   7946   7947   7959     1   111.0400475 552.288000
   7946   7950   7962     1   111.0400475 552.288000
   7946   7953   7956     1   111.0400475 552.288000
   7947   7946   7950     1   112.3500484 533.878400
   7947   7946   7953     1   112.3500484 533.878400
   7947   7959   7971     1   111.5100476 526.347200
   7950   7946   7953     1   112.3500484 533.878400
   7950   7962   7968     1   111.5100476 526.347200
   7953   7956   7965     1   111.5100476 526.347200
   7956   7965   7974     1   107.9700462 569.024000
   7959   7971  14975     1   107.9700462 569.024000
   7962   7968  14952     1   107.9700462 569.024000
   7968  14952  14948     1   112.4800480 524.673600
   7971  14975  14971     1   112.4800480 524.673600
   7975   7976   7988     1   111.0400475 552.288000
   7975   7979   7991     1   111.0400475 552.288000
   7975   7982   7985     1   111.0400475 552.288000
   7976   7975   7979     1   112.3500484 533.878400
   7976   7975   7982     1   112.3500484 533.878400
   7976   7988   8000     1   111.5100476 526.347200
   7979   7975   7982     1   112.3500484 533.878400
   7979   7991   7997     1   111.5100476 526.347200
   7982   7985   7994     1   111.5100476 526.347200
   7985   7994   8003     1   107.9700462 569.024000
   7988   8000  15021     1   107.9700462 569.024000
   7991   7997  14998     1   107.9700462 569.024000
   7997  14998  14994     1   112.4800480 524.673600
   8000  15021  15017     1   112.4800480 524.673600
   8004   8005   8017     1   111.0400475 552.288000
   8004   8008   8020     1   111.0400475 552.288000
   8004   8011   8014     1   111.0400475 552.288000
   8005   8004   8008     1   112.3500484 533.878400
   8005   8004   8011     1   112.3500484 533.878400
   8005   8017   8029     1   111.5100476 526.347200
   8008   8004   8011     1   112.3500484 533.878400
   8008   8020   8026     1   111.5100476 526.347200
   8011   8014   8023     1   111.5100476 526.347200
   8014   8023   8032     1   107.9700462 569.024000
   8017   8029  15067     1   107.9700462 569.024000
   8020   8026  15044     1   107.9700462 569.024000
   8026  15044  15040     1   112.4800480 524.673600
   8029  15067  15063     1   112.4800480 524.673600
   8033   8034   8046     1   111.0400475 552.288000
   8033   8037   8049     1   111.0400475 552.288000
   8033   8040   8043     1   111.0400475 552.288000
   8034   8033   8037     1   112.3500484 533.878400
   8034   8033   8040     1   112.3500484 533.878400
   8034   8046   8058     1   111.5100476 526.347200
   8037   8033   8040     1   112.3500484 533.878400
   8037   8049   8055     1   111.5100476 526.347200
   8040   8043   8052     1   111.5100476 526.347200
   8043   8052   8061     1   107.9700462 569.024000
   8046   8058  15113     1   107.9700462 569.024000
   8049   8055  15090     1   107.9700462 569.024000
   8055  15090  15086     1   112.4800480 524.673600
   8058  15113  15109     1   112.4800480 524.673600
   8062   8063   8075     1   111.0400475 552.288000
   8062   8066   8078     1   111.0400475 552.288000
   8062   8069   8072     1   111.0400475 552.288000
   8063   8062   8066     1   112.3500484 533.878400
   8063   8062   8069     1   112.3500484 533.878400
   8063   8075   8087     1   111.5100476 526.347200
   8066   8062   8069     1   112.3500484 533.878400
   8066   8078   8084     1   111.5100476 526.347200
   8069   8072   8081     1   111.5100476 526.347200
   8072   8081   8090     1   107.9700462 569.024000
   8075   8087  15159     1   107.9700462 569.024000
   8078   8084  15136     1   107.9700462 569.024000
   8084  15136  15132     1   112.4800480 524.673600
   8087  15159  15155     1   112.4800480 524.673600
   8091   8092   8104     1   111.0400475 552.288000
   8091   8095   8107     1   111.0400475 552.288000
   8091   8098   8101     1   111.0400475 552.288000
   8092   8091   8095     1   112.3500484 533.878400
   8092   8091   8098     1   112.3500484 533.878400
   8092   8104   8116     1   111.5100476 526.347200
   8095   8091   8098     1   112.3500484 533.878400
   8095   8107   8113     1   111.5100476 526.347200
   8098   8101   8110     1   111.5100476 526.347200
   8101   8110   8119     1   107.9700462 569.024000
   8104   8116  15205     1   107.9700462 569.024000
   8107   8113  15182     1   107.9700462 569.024000
   8113  15182  15178     1   112.4800480 524.673600
   8116  15205  15201     1   112.4800480 524.673600
   8120   8121   8133     1   111.0400475 552.288000
   8120   8124   8136     1   111.0400475 552.288000
   8120   8127   8130     1   111.0400475 552.288000
   8121   8120   8124     1   112.3500484 533.878400
   8121   8120   8127     1   112.3500484 533.878400
   8121   8133   8145     1   111.5100476 526.347200
   8124   8120   8127     1   112.3500484 533.878400
   8124   8136   8142     1   111.5100476 526.347200
   8127   8130   8139     1   111.5100476 526.347200
   8130   8139   8148     1   107.9700462 569.024000
   8133   8145  15251     1   107.9700462 569.024000
   8136   8142  15228     1   107.9700462 569.024000
   8142  15228  15224     1   112.4800480 524.673600
   8145  15251  15247     1   112.4800480 524.673600
   8149   8150   8162     1   111.0400475 552.288000
   8149   8153   8165     1   111.0400475 552.288000
   8149   8156   8159     1   111.0400475 552.288000
   8150   8149   8153     1   112.3500484 533.878400
   8150   8149   8156     1   112.3500484 533.878400
   8150   8162   8174     1   111.5100476 526.347200
   8153   8149   8156     1   112.3500484 533.878400
   8153   8165   8171     1   111.5100476 526.347200
   8156   8159   8168     1   111.5100476 526.347200
   8159   8168   8177     1   107.9700462 569.024000
   8162   8174  15297     1   107.9700462 569.024000
   8165   8171  15274     1   107.9700462 569.024000
   8171  15274  15270     1   112.4800480 524.673600
   8174  15297  15293     1   112.4800480 524.673600
   8178   8179   8191     1   111.0400475 552.288000
   8178   8182   8194     1   111.0400475 552.288000
   8178   8185   8188     1   111.0400475 552.288000
   8179   8178   8182     1   112.3500484 533.878400
   8179   8178   8185     1   112.3500484 533.878400
   8179   8191   8203     1   111.5100476 526.347200
   8182   8178   8185     1   112.3500484 533.878400
   8182   8194   8200     1   111.5100476 526.347200
   8185   8188   8197     1   111.5100476 526.347200
   8188   8197   8206     1   107.9700462 569.024000
   8191   8203  15343     1   107.9700462 569.024000
   8194   8200  15320     1   107.9700462 569.024000
   8200  15320  15316     1   112.4800480 524.673600
   8203  15343  15339     1   112.4800480 524.673600
   8207   8208   8220     1   111.0400475 552.288000
   8207   8211   8223     1   111.0400475 552.288000
   8207   8214   8217     1   111.0400475 552.288000
   8208   8207   8211     1   112.3500484 533.878400
   8208   8207   8214     1   112.3500484 533.878400
   8208   8220   8232     1   111.5100476 526.347200
   8211   8207   8214     1   112.3500484 533.878400
   8211   8223   8229     1   111.5100476 526.347200
   8214   8217   8226     1   111.5100476 526.347200
   8217   8226   8235     1   107.9700462 569.024000
   8220   8232  15389     1   107.9700462 569.024000
   8223   8229  15366     1   107.9700462 569.024000
   8229  15366  15362     1   112.4800480 524.673600
   8232  15389  15385     1   112.4800480 524.673600
   8236   8237   8249     1   111.0400475 552.288000
   8236   8240   8252     1   111.0400475 552.288000
   8236   8243   8246     1   111.0400475 552.288000
   8237   8236   8240     1   112.3500484 533.878400
   8237   8236   8243     1   112.3500484 533.878400
   8237   8249   8261     1   111.5100476 526.347200
   8240   8236   8243     1   112.3500484 533.878400
   8240   8252   8258     1   111.5100476 526.347200
   8243   8246   8255     1   111.5100476 526.347200
   8246   8255   8264     1   107.9700462 569.024000
   8249   8261  15435     1   107.9700462 569.024000
   8252   8258  15412     1   107.9700462 569.024000
   8258  15412  15408     1   112.4800480 524.673600
   8261  15435  15431     1   112.4800480 524.673600
   8265   8266   8278     1   111.0400475 552.288000
   8265   8269   8281     1   111.0400475 552.288000
   8265   8272   8275     1   111.0400475 552.288000
   8266   8265   8269     1   112.3500484 533.878400
   8266   8265   8272     1   112.3500484 533.878400
   8266   8278   8290     1   111.5100476 526.347200
   8269   8265   8272     1   112.3500484 533.878400
   8269   8281   8287     1   111.5100476 526.347200
   8272   8275   8284     1   111.5100476 526.347200
   8275   8284   8293     1   107.9700462 569.024000
   8278   8290  15481     1   107.9700462 569.024000
   8281   8287  15458     1   107.9700462 569.024000
   8287  15458  15454     1   112.4800480 524.673600
   8290  15481  15477     1   112.4800480 524.673600
   8294   8295   8307     1   111.0400475 552.288000
   8294   8298   8310     1   111.0400475 552.288000
   8294   8301   8304     1   111.0400475 552.288000
   8295   8294   8298     1   112.3500484 533.878400
   8295   8294   8301     1   112.3500484 533.878400
   8295   8307   8319     1   111.5100476 526.347200
   8298   8294   8301     1   112.3500484 533.878400
   8298   8310   8316     1   111.5100476 526.347200
   8301   8304   8313     1   111.5100476 526.347200
   8304   8313   8322     1   107.9700462 569.024000
   8307   8319  15527     1   107.9700462 569.024000
   8310   8316  15504     1   107.9700462 569.024000
   8316  15504  15500     1   112.4800480 524.673600
   8319  15527  15523     1   112.4800480 524.673600
   8323   8324   8336     1   111.0400475 552.288000
   8323   8327   8339     1   111.0400475 552.288000
   8323   8330   8333     1   111.0400475 552.288000
   8324   8323   8327     1   112.3500484 533.878400
   8324   8323   8330     1   112.3500484 533.878400
   8324   8336   8348     1   111.5100476 526.347200
   8327   8323   8330     1   112.3500484 533.878400
   8327   8339   8345     1   111.5100476 526.347200
   8330   8333   8342     1   111.5100476 526.347200
   8333   8342   8351     1   107.9700462 569.024000
   8336   8348  15573     1   107.9700462 569.024000
   8339   8345  15550     1   107.9700462 569.024000
   8345  15550  15546     1   112.4800480 524.673600
   8348  15573  15569     1   112.4800480 524.673600
   8352   8353   8365     1   111.0400475 552.288000
   8352   8356   8368     1   111.0400475 552.288000
   8352   8359   8362     1   111.0400475 552.288000
   8353   8352   8356     1   112.3500484 533.878400
   8353   8352   8359     1   112.3500484 533.878400
   8353   8365   8377     1   111.5100476 526.347200
   8356   8352   8359     1   112.3500484 533.878400
   8356   8368   8374     1   111.5100476 526.347200
   8359   8362   8371     1   111.5100476 526.347200
   8362   8371   8380     1   107.9700462 569.024000
   8365   8377  15619     1   107.9700462 569.024000
   8368   8374  15596     1   107.9700462 569.024000
   8374  15596  15592     1   112.4800480 524.673600
   8377  15619  15615     1   112.4800480 524.673600
   8381   8382   8394     1   111.0400475 552.288000
   8381   8385   8397     1   111.0400475 552.288000
   8381   8388   8391     1   111.0400475 552.288000
   8382   8381   8385     1   112.3500484 533.878400
   8382   8381   8388     1   112.3500484 533.878400
   8382   8394   8406     1   111.5100476 526.347200
   8385   8381   8388     1   112.3500484 533.878400
   8385   8397   8403     1   111.5100476 526.347200
   8388   8391   8400     1   111.5100476 526.347200
   8391   8400   8409     1   107.9700462 569.024000
   8394   8406  15665     1   107.9700462 569.024000
   8397   8403  15642     1   107.9700462 569.024000
   8403  15642  15638     1   112.4800480 524.673600
   8406  15665  15661     1   112.4800480 524.673600
   8410   8411   8423     1   111.0400475 552.288000
   8410   8414   8426     1   111.0400475 552.288000
   8410   8417   8420     1   111.0400475 552.288000
   8411   8410   8414     1   112.3500484 533.878400
   8411   8410   8417     1   112.3500484 533.878400
   8411   8423   8435     1   111.5100476 526.347200
   8414   8410   8417     1   112.3500484 533.878400
   8414   8426   8432     1   111.5100476 526.347200
   8417   8420   8429     1   111.5100476 526.347200
   8420   8429   8438     1   107.9700462 569.024000
   8423   8435  15711     1   107.9700462 569.024000
   8426   8432  15688     1   107.9700462 569.024000
   8432  15688  15684     1   112.4800480 524.673600
   8435  15711  15707     1   112.4800480 524.673600
   8439   8440   8452     1   111.0400475 552.288000
   8439   8443   8455     1   111.0400475 552.288000
   8439   8446   8449     1   111.0400475 552.288000
   8440   8439   8443     1   112.3500484 533.878400
   8440   8439   8446     1   112.3500484 533.878400
   8440   8452   8464     1   111.5100476 526.347200
   8443   8439   8446     1   112.3500484 533.878400
   8443   8455   8461     1   111.5100476 526.347200
   8446   8449   8458     1   111.5100476 526.347200
   8449   8458   8467     1   107.9700462 569.024000
   8452   8464  15757     1   107.9700462 569.024000
   8455   8461  15734     1   107.9700462 569.024000
   8461  15734  15730     1   112.4800480 524.673600
   8464  15757  15753     1   112.4800480 524.673600
   8468   8469   8481     1   111.0400475 552.288000
   8468   8472   8484     1   111.0400475 552.288000
   8468   8475   8478     1   111.0400475 552.288000
   8469   8468   8472     1   112.3500484 533.878400
   8469   8468   8475     1   112.3500484 533.878400
   8469   8481   8493     1   111.5100476 526.347200
   8472   8468   8475     1   112.3500484 533.878400
   8472   8484   8490     1   111.5100476 526.347200
   8475   8478   8487     1   111.5100476 526.347200
   8478   8487   8496     1   107.9700462 569.024000
   8481   8493  15803     1   107.9700462 569.024000
   8484   8490  15780     1   107.9700462 569.024000
   8490  15780  15776     1   112.4800480 524.673600
   8493  15803  15799     1   112.4800480 524.673600
   8497   8498   8510     1   111.0400475 552.288000
   8497   8501   8513     1   111.0400475 552.288000
   8497   8504   8507     1   111.0400475 552.288000
   8498   8497   8501     1   112.3500484 533.878400
   8498   8497   8504     1   112.3500484 533.878400
   8498   8510   8522     1   111.5100476 526.347200
   8501   8497   8504     1   112.3500484 533.878400
   8501   8513   8519     1   111.5100476 526.347200
   8504   8507   8516     1   111.5100476 526.347200
   8507   8516   8525     1   107.9700462 569.024000
   8510   8522  15849     1   107.9700462 569.024000
   8513   8519  15826     1   107.9700462 569.024000
   8519  15826  15822     1   112.4800480 524.673600
   8522  15849  15845     1   112.4800480 524.673600
   8526   8527   8539     1   111.0400475 552.288000
   8526   8530   8542     1   111.0400475 552.288000
   8526   8533   8536     1   111.0400475 552.288000
   8527   8526   8530     1   112.3500484 533.878400
   8527   8526   8533     1   112.3500484 533.878400
   8527   8539   8551     1   111.5100476 526.347200
   8530   8526   8533     1   112.3500484 533.878400
   8530   8542   8548     1   111.5100476 526.347200
   8533   8536   8545     1   111.5100476 526.347200
   8536   8545   8554     1   107.9700462 569.024000
   8539   8551  15895     1   107.9700462 569.024000
   8542   8548  15872     1   107.9700462 569.024000
   8548  15872  15868     1   112.4800480 524.673600
   8551  15895  15891     1   112.4800480 524.673600
   8555   8556   8568     1   111.0400475 552.288000
   8555   8559   8571     1   111.0400475 552.288000
   8555   8562   8565     1   111.0400475 552.288000
   8556   8555   8559     1   112.3500484 533.878400
   8556   8555   8562     1   112.3500484 533.878400
   8556   8568   8580     1   111.5100476 526.347200
   8559   8555   8562     1   112.3500484 533.878400
   8559   8571   8577     1   111.5100476 526.347200
   8562   8565   8574     1   111.5100476 526.347200
   8565   8574   8583     1   107.9700462 569.024000
   8568   8580  15941     1   107.9700462 569.024000
   8571   8577  15918     1   107.9700462 569.024000
   8577  15918  15914     1   112.4800480 524.673600
   8580  15941  15937     1   112.4800480 524.673600
   8584   8585   8597     1   111.0400475 552.288000
   8584   8588   8600     1   111.0400475 552.288000
   8584   8591   8594     1   111.0400475 552.288000
   8585   8584   8588     1   112.3500484 533.878400
   8585   8584   8591     1   112.3500484 533.878400
   8585   8597   8609     1   111.5100476 526.347200
   8588   8584   8591     1   112.3500484 533.878400
   8588   8600   8606     1   111.5100476 526.347200
   8591   8594   8603     1   111.5100476 526.347200
   8594   8603   8612     1   107.9700462 569.024000
   8597   8609  15987     1   107.9700462 569.024000
   8600   8606  15964     1   107.9700462 569.024000
   8606  15964  15960     1   112.4800480 524.673600
   8609  15987  15983     1   112.4800480 524.673600
   8613   8614   8626     1   111.0400475 552.288000
   8613   8617   8629     1   111.0400475 552.288000
   8613   8620   8623     1   111.0400475 552.288000
   8614   8613   8617     1   112.3500484 533.878400
   8614   8613   8620     1   112.3500484 533.878400
   8614   8626   8638     1   111.5100476 526.347200
   8617   8613   8620     1   112.3500484 533.878400
   8617   8629   8635     1   111.5100476 526.347200
   8620   8623   8632     1   111.5100476 526.347200
   8623   8632   8641     1   107.9700462 569.024000
   8626   8638  16033     1   107.9700462 569.024000
   8629   8635  16010     1   107.9700462 569.024000
   8635  16010  16006     1   112.4800480 524.673600
   8638  16033  16029     1   112.4800480 524.673600
   8642   8643   8655     1   111.0400475 552.288000
   8642   8646   8658     1   111.0400475 552.288000
   8642   8649   8652     1   111.0400475 552.288000
   8643   8642   8646     1   112.3500484 533.878400
   8643   8642   8649     1   112.3500484 533.878400
   8643   8655   8667     1   111.5100476 526.347200
   8646   8642   8649     1   112.3500484 533.878400
   8646   8658   8664     1   111.5100476 526.347200
   8649   8652   8661     1   111.5100476 526.347200
   8652   8661   8670     1   107.9700462 569.024000
   8655   8667  16079     1   107.9700462 569.024000
   8658   8664  16056     1   107.9700462 569.024000
   8664  16056  16052     1   112.4800480 524.673600
   8667  16079  16075     1   112.4800480 524.673600
   8671   8672   8684     1   111.0400475 552.288000
   8671   8675   8687     1   111.0400475 552.288000
   8671   8678   8681     1   111.0400475 552.288000
   8672   8671   8675     1   112.3500484 533.878400
   8672   8671   8678     1   112.3500484 533.878400
   8672   8684   8696     1   111.5100476 526.347200
   8675   8671   8678     1   112.3500484 533.878400
   8675   8687   8693     1   111.5100476 526.347200
   8678   8681   8690     1   111.5100476 526.347200
   8681   8690   8699     1   107.9700462 569.024000
   8684   8696  16125     1   107.9700462 569.024000
   8687   8693  16102     1   107.9700462 569.024000
   8693  16102  16098     1   112.4800480 524.673600
   8696  16125  16121     1   112.4800480 524.673600
   8700   8701   8713     1   111.0400475 552.288000
   8700   8704   8716     1   111.0400475 552.288000
   8700   8707   8710     1   111.0400475 552.288000
   8701   8700   8704     1   112.3500484 533.878400
   8701   8700   8707     1   112.3500484 533.878400
   8701   8713   8725     1   111.5100476 526.347200
   8704   8700   8707     1   112.3500484 533.878400
   8704   8716   8722     1   111.5100476 526.347200
   8707   8710   8719     1   111.5100476 526.347200
   8710   8719   8728     1   107.9700462 569.024000
   8713   8725  16171     1   107.9700462 569.024000
   8716   8722  16148     1   107.9700462 569.024000
   8722  16148  16144     1   112.4800480 524.673600
   8725  16171  16167     1   112.4800480 524.673600
   8729   8730   8742     1   111.0400475 552.288000
   8729   8733   8745     1   111.0400475 552.288000
   8729   8736   8739     1   111.0400475 552.288000
   8730   8729   8733     1   112.3500484 533.878400
   8730   8729   8736     1   112.3500484 533.878400
   8730   8742   8754     1   111.5100476 526.347200
   8733   8729   8736     1   112.3500484 533.878400
   8733   8745   8751     1   111.5100476 526.347200
   8736   8739   8748     1   111.5100476 526.347200
   8739   8748   8757     1   107.9700462 569.024000
   8742   8754  16217     1   107.9700462 569.024000
   8745   8751  16194     1   107.9700462 569.024000
   8751  16194  16190     1   112.4800480 524.673600
   8754  16217  16213     1   112.4800480 524.673600
   8758   8759   8771     1   111.0400475 552.288000
   8758   8762   8774     1   111.0400475 552.288000
   8758   8765   8768     1   111.0400475 552.288000
   8759   8758   8762     1   112.3500484 533.878400
   8759   8758   8765     1   112.3500484 533.878400
   8759   8771   8783     1   111.5100476 526.347200
   8762   8758   8765     1   112.3500484 533.878400
   8762   8774   8780     1   111.5100476 526.347200
   8765   8768   8777     1   111.5100476 526.347200
   8768   8777   8786     1   107.9700462 569.024000
   8771   8783  16263     1   107.9700462 569.024000
   8774   8780  16240     1   107.9700462 569.024000
   8780  16240  16236     1   112.4800480 524.673600
   8783  16263  16259     1   112.4800480 524.673600
   8787   8788   8800     1   111.0400475 552.288000
   8787   8791   8803     1   111.0400475 552.288000
   8787   8794   8797     1   111.0400475 552.288000
   8788   8787   8791     1   112.3500484 533.878400
   8788   8787   8794     1   112.3500484 533.878400
   8788   8800   8812     1   111.5100476 526.347200
   8791   8787   8794     1   112.3500484 533.878400
   8791   8803   8809     1   111.5100476 526.347200
   8794   8797   8806     1   111.5100476 526.347200
   8797   8806   8815     1   107.9700462 569.024000
   8800   8812  16309     1   107.9700462 569.024000
   8803   8809  16286     1   107.9700462 569.024000
   8809  16286  16282     1   112.4800480 524.673600
   8812  16309  16305     1   112.4800480 524.673600
   8816   8817   8829     1   111.0400475 552.288000
   8816   8820   8832     1   111.0400475 552.288000
   8816   8823   8826     1   111.0400475 552.288000
   8817   8816   8820     1   112.3500484 533.878400
   8817   8816   8823     1   112.3500484 533.878400
   8817   8829   8841     1   111.5100476 526.347200
   8820   8816   8823     1   112.3500484 533.878400
   8820   8832   8838     1   111.5100476 526.347200
   8823   8826   8835     1   111.5100476 526.347200
   8826   8835   8844     1   107.9700462 569.024000
   8829   8841  16355     1   107.9700462 569.024000
   8832   8838  16332     1   107.9700462 569.024000
   8838  16332  16328     1   112.4800480 524.673600
   8841  16355  16351     1   112.4800480 524.673600
   8845   8846   8858     1   111.0400475 552.288000
   8845   8849   8861     1   111.0400475 552.288000
   8845   8852   8855     1   111.0400475 552.288000
   8846   8845   8849     1   112.3500484 533.878400
   8846   8845   8852     1   112.3500484 533.878400
   8846   8858   8870     1   111.5100476 526.347200
   8849   8845   8852     1   112.3500484 533.878400
   8849   8861   8867     1   111.5100476 526.347200
   8852   8855   8864     1   111.5100476 526.347200
   8855   8864   8873     1   107.9700462 569.024000
   8858   8870  16401     1   107.9700462 569.024000
   8861   8867  16378     1   107.9700462 569.024000
   8867  16378  16374     1   112.4800480 524.673600
   8870  16401  16397     1   112.4800480 524.673600
   8874   8875   8887     1   111.0400475 552.288000
   8874   8878   8890     1   111.0400475 552.288000
   8874   8881   8884     1   111.0400475 552.288000
   8875   8874   8878     1   112.3500484 533.878400
   8875   8874   8881     1   112.3500484 533.878400
   8875   8887   8899     1   111.5100476 526.347200
   8878   8874   8881     1   112.3500484 533.878400
   8878   8890   8896     1   111.5100476 526.347200
   8881   8884   8893     1   111.5100476 526.347200
   8884   8893   8902     1   107.9700462 569.024000
   8887   8899  16447     1   107.9700462 569.024000
   8890   8896  16424     1   107.9700462 569.024000
   8896  16424  16420     1   112.4800480 524.673600
   8899  16447  16443     1   112.4800480 524.673600
   8903   8904   8916     1   111.0400475 552.288000
   8903   8907   8919     1   111.0400475 552.288000
   8903   8910   8913     1   111.0400475 552.288000
   8904   8903   8907     1   112.3500484 533.878400
   8904   8903   8910     1   112.3500484 533.878400
   8904   8916   8928     1   111.5100476 526.347200
   8907   8903   8910     1   112.3500484 533.878400
   8907   8919   8925     1   111.5100476 526.347200
   8910   8913   8922     1   111.5100476 526.347200
   8913   8922   8931     1   107.9700462 569.024000
   8916   8928  16493     1   107.9700462 569.024000
   8919   8925  16470     1   107.9700462 569.024000
   8925  16470  16466     1   112.4800480 524.673600
   8928  16493  16489     1   112.4800480 524.673600
   8932   8933   8945     1   111.0400475 552.288000
   8932   8936   8948     1   111.0400475 552.288000
   8932   8939   8942     1   111.0400475 552.288000
   8933   8932   8936     1   112.3500484 533.878400
   8933   8932   8939     1   112.3500484 533.878400
   8933   8945   8957     1   111.5100476 526.347200
   8936   8932   8939     1   112.3500484 533.878400
   8936   8948   8954     1   111.5100476 526.347200
   8939   8942   8951     1   111.5100476 526.347200
   8942   8951   8960     1   107.9700462 569.024000
   8945   8957  16539     1   107.9700462 569.024000
   8948   8954  16516     1   107.9700462 569.024000
   8954  16516  16512     1   112.4800480 524.673600
   8957  16539  16535     1   112.4800480 524.673600
   8961   8962   8974     1   111.0400475 552.288000
   8961   8965   8977     1   111.0400475 552.288000
   8961   8968   8971     1   111.0400475 552.288000
   8962   8961   8965     1   112.3500484 533.878400
   8962   8961   8968     1   112.3500484 533.878400
   8962   8974   8986     1   111.5100476 526.347200
   8965   8961   8968     1   112.3500484 533.878400
   8965   8977   8983     1   111.5100476 526.347200
   8968   8971   8980     1   111.5100476 526.347200
   8971   8980   8989     1   107.9700462 569.024000
   8974   8986  16585     1   107.9700462 569.024000
   8977   8983  16562     1   107.9700462 569.024000
   8983  16562  16558     1   112.4800480 524.673600
   8986  16585  16581     1   112.4800480 524.673600
   8990   8991   9003     1   111.0400475 552.288000
   8990   8994   9006     1   111.0400475 552.288000
   8990   8997   9000     1   111.0400475 552.288000
   8991   8990   8994     1   112.3500484 533.878400
   8991   8990   8997     1   112.3500484 533.878400
   8991   9003   9015     1   111.5100476 526.347200
   8994   8990   8997     1   112.3500484 533.878400
   8994   9006   9012     1   111.5100476 526.347200
   8997   9000   9009     1   111.5100476 526.347200
   9000   9009   9018     1   107.9700462 569.024000
   9003   9015  16631     1   107.9700462 569.024000
   9006   9012  16608     1   107.9700462 569.024000
   9012  16608  16604     1   112.4800480 524.673600
   9015  16631  16627     1   112.4800480 524.673600
   9019   9020   9032     1   111.0400475 552.288000
   9019   9023   9035     1   111.0400475 552.288000
   9019   9026   9029     1   111.0400475 552.288000
   9020   9019   9023     1   112.3500484 533.878400
   9020   9019   9026     1   112.3500484 533.878400
   9020   9032   9044     1   111.5100476 526.347200
   9023   9019   9026     1   112.3500484 533.878400
   9023   9035   9041     1   111.5100476 526.347200
   9026   9029   9038     1   111.5100476 526.347200
   9029   9038   9047     1   107.9700462 569.024000
   9032   9044  16677     1   107.9700462 569.024000
   9035   9041  16654     1   107.9700462 569.024000
   9041  16654  16650     1   112.4800480 524.673600
   9044  16677  16673     1   112.4800480 524.673600
   9048   9049   9061     1   111.0400475 552.288000
   9048   9052   9064     1   111.0400475 552.288000
   9048   9055   9058     1   111.0400475 552.288000
   9049   9048   9052     1   112.3500484 533.878400
   9049   9048   9055     1   112.3500484 533.878400
   9049   9061   9073     1   111.5100476 526.347200
   9052   9048   9055     1   112.3500484 533.878400
   9052   9064   9070     1   111.5100476 526.347200
   9055   9058   9067     1   111.5100476 526.347200
   9058   9067   9076     1   107.9700462 569.024000
   9061   9073  16723     1   107.9700462 569.024000
   9064   9070  16700     1   107.9700462 569.024000
   9070  16700  16696     1   112.4800480 524.673600
   9073  16723  16719     1   112.4800480 524.673600
   9077   9078   9090     1   111.0400475 552.288000
   9077   9081   9093     1   111.0400475 552.288000
   9077   9084   9087     1   111.0400475 552.288000
   9078   9077   9081     1   112.3500484 533.878400
   9078   9077   9084     1   112.3500484 533.878400
   9078   9090   9102     1   111.5100476 526.347200
   9081   9077   9084     1   112.3500484 533.878400
   9081   9093   9099     1   111.5100476 526.347200
   9084   9087   9096     1   111.5100476 526.347200
   9087   9096   9105     1   107.9700462 569.024000
   9090   9102  16769     1   107.9700462 569.024000
   9093   9099  16746     1   107.9700462 569.024000
   9099  16746  16742     1   112.4800480 524.673600
   9102  16769  16765     1   112.4800480 524.673600
   9106   9107   9119     1   111.0400475 552.288000
   9106   9110   9122     1   111.0400475 552.288000
   9106   9113   9116     1   111.0400475 552.288000
   9107   9106   9110     1   112.3500484 533.878400
   9107   9106   9113     1   112.3500484 533.878400
   9107   9119   9131     1   111.5100476 526.347200
   9110   9106   9113     1   112.3500484 533.878400
   9110   9122   9128     1   111.5100476 526.347200
   9113   9116   9125     1   111.5100476 526.347200
   9116   9125   9134     1   107.9700462 569.024000
   9119   9131  16815     1   107.9700462 569.024000
   9122   9128  16792     1   107.9700462 569.024000
   9128  16792  16788     1   112.4800480 524.673600
   9131  16815  16811     1   112.4800480 524.673600
   9135   9136   9148     1   111.0400475 552.288000
   9135   9139   9151     1   111.0400475 552.288000
   9135   9142   9145     1   111.0400475 552.288000
   9136   9135   9139     1   112.3500484 533.878400
   9136   9135   9142     1   112.3500484 533.878400
   9136   9148   9160     1   111.5100476 526.347200
   9139   9135   9142     1   112.3500484 533.878400
   9139   9151   9157     1   111.5100476 526.347200
   9142   9145   9154     1   111.5100476 526.347200
   9145   9154   9163     1   107.9700462 569.024000
   9148   9160  16861     1   107.9700462 569.024000
   9151   9157  16838     1   107.9700462 569.024000
   9157  16838  16834     1   112.4800480 524.673600
   9160  16861  16857     1   112.4800480 524.673600
   9164   9165   9177     1   111.0400475 552.288000
   9164   9168   9180     1   111.0400475 552.288000
   9164   9171   9174     1   111.0400475 552.288000
   9165   9164   9168     1   112.3500484 533.878400
   9165   9164   9171     1   112.3500484 533.878400
   9165   9177   9189     1   111.5100476 526.347200
   9168   9164   9171     1   112.3500484 533.878400
   9168   9180   9186     1   111.5100476 526.347200
   9171   9174   9183     1   111.5100476 526.347200
   9174   9183   9192     1   107.9700462 569.024000
   9177   9189  16907     1   107.9700462 569.024000
   9180   9186  16884     1   107.9700462 569.024000
   9186  16884  16880     1   112.4800480 524.673600
   9189  16907  16903     1   112.4800480 524.673600
   9193   9194   9206     1   111.0400475 552.288000
   9193   9197   9209     1   111.0400475 552.288000
   9193   9200   9203     1   111.0400475 552.288000
   9194   9193   9197     1   112.3500484 533.878400
   9194   9193   9200     1   112.3500484 533.878400
   9194   9206   9218     1   111.5100476 526.347200
   9197   9193   9200     1   112.3500484 533.878400
   9197   9209   9215     1   111.5100476 526.347200
   9200   9203   9212     1   111.5100476 526.347200
   9203   9212   9221     1   107.9700462 569.024000
   9206   9218  16953     1   107.9700462 569.024000
   9209   9215  16930     1   107.9700462 569.024000
   9215  16930  16926     1   112.4800480 524.673600
   9218  16953  16949     1   112.4800480 524.673600
   9222   9223   9235     1   111.0400475 552.288000
   9222   9226   9238     1   111.0400475 552.288000
   9222   9229   9232     1   111.0400475 552.288000
   9223   9222   9226     1   112.3500484 533.878400
   9223   9222   9229     1   112.3500484 533.878400
   9223   9235   9247     1   111.5100476 526.347200
   9226   9222   9229     1   112.3500484 533.878400
   9226   9238   9244     1   111.5100476 526.347200
   9229   9232   9241     1   111.5100476 526.347200
   9232   9241   9250     1   107.9700462 569.024000
   9235   9247  16999     1   107.9700462 569.024000
   9238   9244  16976     1   107.9700462 569.024000
   9244  16976  16972     1   112.4800480 524.673600
   9247  16999  16995     1   112.4800480 524.673600
   9251   9252   9264     1   111.0400475 552.288000
   9251   9255   9267     1   111.0400475 552.288000
   9251   9258   9261     1   111.0400475 552.288000
   9252   9251   9255     1   112.3500484 533.878400
   9252   9251   9258     1   112.3500484 533.878400
   9252   9264   9276     1   111.5100476 526.347200
   9255   9251   9258     1   112.3500484 533.878400
   9255   9267   9273     1   111.5100476 526.347200
   9258   9261   9270     1   111.5100476 526.347200
   9261   9270   9279     1   107.9700462 569.024000
   9264   9276  17045     1   107.9700462 569.024000
   9267   9273  17022     1   107.9700462 569.024000
   9273  17022  17018     1   112.4800480 524.673600
   9276  17045  17041     1   112.4800480 524.673600
   9280   9281   9293     1   111.0400475 552.288000
   9280   9284   9296     1   111.0400475 552.288000
   9280   9287   9290     1   111.0400475 552.288000
   9281   9280   9284     1   112.3500484 533.878400
   9281   9280   9287     1   112.3500484 533.878400
   9281   9293   9305     1   111.5100476 526.347200
   9284   9280   9287     1   112.3500484 533.878400
   9284   9296   9302     1   111.5100476 526.347200
   9287   9290   9299     1   111.5100476 526.347200
   9290   9299   9308     1   107.9700462 569.024000
   9293   9305  17091     1   107.9700462 569.024000
   9296   9302  17068     1   107.9700462 569.024000
   9302  17068  17064     1   112.4800480 524.673600
   9305  17091  17087     1   112.4800480 524.673600
   9309   9310   9322     1   111.0400475 552.288000
   9309   9313   9325     1   111.0400475 552.288000
   9309   9316   9319     1   111.0400475 552.288000
   9310   9309   9313     1   112.3500484 533.878400
   9310   9309   9316     1   112.3500484 533.878400
   9310   9322   9334     1   111.5100476 526.347200
   9313   9309   9316     1   112.3500484 533.878400
   9313   9325   9331     1   111.5100476 526.347200
   9316   9319   9328     1   111.5100476 526.347200
   9319   9328   9337     1   107.9700462 569.024000
   9322   9334  17137     1   107.9700462 569.024000
   9325   9331  17114     1   107.9700462 569.024000
   9331  17114  17110     1   112.4800480 524.673600
   9334  17137  17133     1   112.4800480 524.673600
   9338   9339   9351     1   111.0400475 552.288000
   9338   9342   9354     1   111.0400475 552.288000
   9338   9345   9348     1   111.0400475 552.288000
   9339   9338   9342     1   112.3500484 533.878400
   9339   9338   9345     1   112.3500484 533.878400
   9339   9351   9363     1   111.5100476 526.347200
   9342   9338   9345     1   112.3500484 533.878400
   9342   9354   9360     1   111.5100476 526.347200
   9345   9348   9357     1   111.5100476 526.347200
   9348   9357   9366     1   107.9700462 569.024000
   9351   9363  17183     1   107.9700462 569.024000
   9354   9360  17160     1   107.9700462 569.024000
   9360  17160  17156     1   112.4800480 524.673600
   9363  17183  17179     1   112.4800480 524.673600
   9367   9368   9380     1   111.0400475 552.288000
   9367   9371   9383     1   111.0400475 552.288000
   9367   9374   9377     1   111.0400475 552.288000
   9368   9367   9371     1   112.3500484 533.878400
   9368   9367   9374     1   112.3500484 533.878400
   9368   9380   9392     1   111.5100476 526.347200
   9371   9367   9374     1   112.3500484 533.878400
   9371   9383   9389     1   111.5100476 526.347200
   9374   9377   9386     1   111.5100476 526.347200
   9377   9386   9395     1   107.9700462 569.024000
   9380   9392  17229     1   107.9700462 569.024000
   9383   9389  17206     1   107.9700462 569.024000
   9389  17206  17202     1   112.4800480 524.673600
   9392  17229  17225     1   112.4800480 524.673600
   9396   9397   9409     1   111.0400475 552.288000
   9396   9400   9412     1   111.0400475 552.288000
   9396   9403   9406     1   111.0400475 552.288000
   9397   9396   9400     1   112.3500484 533.878400
   9397   9396   9403     1   112.3500484 533.878400
   9397   9409   9421     1   111.5100476 526.347200
   9400   9396   9403     1   112.3500484 533.878400
   9400   9412   9418     1   111.5100476 526.347200
   9403   9406   9415     1   111.5100476 526.347200
   9406   9415   9424     1   107.9700462 569.024000
   9409   9421  17275     1   107.9700462 569.024000
   9412   9418  17252     1   107.9700462 569.024000
   9418  17252  17248     1   112.4800480 524.673600
   9421  17275  17271     1   112.4800480 524.673600
   9425   9426   9438     1   111.0400475 552.288000
   9425   9429   9441     1   111.0400475 552.288000
   9425   9432   9435     1   111.0400475 552.288000
   9426   9425   9429     1   112.3500484 533.878400
   9426   9425   9432     1   112.3500484 533.878400
   9426   9438   9450     1   111.5100476 526.347200
   9429   9425   9432     1   112.3500484 533.878400
   9429   9441   9447     1   111.5100476 526.347200
   9432   9435   9444     1   111.5100476 526.347200
   9435   9444   9453     1   107.9700462 569.024000
   9438   9450  17321     1   107.9700462 569.024000
   9441   9447  17298     1   107.9700462 569.024000
   9447  17298  17294     1   112.4800480 524.673600
   9450  17321  17317     1   112.4800480 524.673600
   9454   9455   9467     1   111.0400475 552.288000
   9454   9458   9470     1   111.0400475 552.288000
   9454   9461   9464     1   111.0400475 552.288000
   9455   9454   9458     1   112.3500484 533.878400
   9455   9454   9461     1   112.3500484 533.878400
   9455   9467   9479     1   111.5100476 526.347200
   9458   9454   9461     1   112.3500484 533.878400
   9458   9470   9476     1   111.5100476 526.347200
   9461   9464   9473     1   111.5100476 526.347200
   9464   9473   9482     1   107.9700462 569.024000
   9467   9479  17367     1   107.9700462 569.024000
   9470   9476  17344     1   107.9700462 569.024000
   9476  17344  17340     1   112.4800480 524.673600
   9479  17367  17363     1   112.4800480 524.673600
   9483   9484   9496     1   111.0400475 552.288000
   9483   9487   9499     1   111.0400475 552.288000
   9483   9490   9493     1   111.0400475 552.288000
   9484   9483   9487     1   112.3500484 533.878400
   9484   9483   9490     1   112.3500484 533.878400
   9484   9496   9508     1   111.5100476 526.347200
   9487   9483   9490     1   112.3500484 533.878400
   9487   9499   9505     1   111.5100476 526.347200
   9490   9493   9502     1   111.5100476 526.347200
   9493   9502   9511     1   107.9700462 569.024000
   9496   9508  17413     1   107.9700462 569.024000
   9499   9505  17390     1   107.9700462 569.024000
   9505  17390  17386     1   112.4800480 524.673600
   9508  17413  17409     1   112.4800480 524.673600
   9512   9513   9525     1   111.0400475 552.288000
   9512   9516   9528     1   111.0400475 552.288000
   9512   9519   9522     1   111.0400475 552.288000
   9513   9512   9516     1   112.3500484 533.878400
   9513   9512   9519     1   112.3500484 533.878400
   9513   9525   9537     1   111.5100476 526.347200
   9516   9512   9519     1   112.3500484 533.878400
   9516   9528   9534     1   111.5100476 526.347200
   9519   9522   9531     1   111.5100476 526.347200
   9522   9531   9540     1   107.9700462 569.024000
   9525   9537  17459     1   107.9700462 569.024000
   9528   9534  17436     1   107.9700462 569.024000
   9534  17436  17432     1   112.4800480 524.673600
   9537  17459  17455     1   112.4800480 524.673600
   9541   9542   9554     1   111.0400475 552.288000
   9541   9545   9557     1   111.0400475 552.288000
   9541   9548   9551     1   111.0400475 552.288000
   9542   9541   9545     1   112.3500484 533.878400
   9542   9541   9548     1   112.3500484 533.878400
   9542   9554   9566     1   111.5100476 526.347200
   9545   9541   9548     1   112.3500484 533.878400
   9545   9557   9563     1   111.5100476 526.347200
   9548   9551   9560     1   111.5100476 526.347200
   9551   9560   9569     1   107.9700462 569.024000
   9554   9566  17505     1   107.9700462 569.024000
   9557   9563  17482     1   107.9700462 569.024000
   9563  17482  17478     1   112.4800480 524.673600
   9566  17505  17501     1   112.4800480 524.673600
   9570   9571   9583     1   111.0400475 552.288000
   9570   9574   9586     1   111.0400475 552.288000
   9570   9577   9580     1   111.0400475 552.288000
   9571   9570   9574     1   112.3500484 533.878400
   9571   9570   9577     1   112.3500484 533.878400
   9571   9583   9595     1   111.5100476 526.347200
   9574   9570   9577     1   112.3500484 533.878400
   9574   9586   9592     1   111.5100476 526.347200
   9577   9580   9589     1   111.5100476 526.347200
   9580   9589   9598     1   107.9700462 569.024000
   9583   9595  17551     1   107.9700462 569.024000
   9586   9592  17528     1   107.9700462 569.024000
   9592  17528  17524     1   112.4800480 524.673600
   9595  17551  17547     1   112.4800480 524.673600
   9599   9600   9612     1   111.0400475 552.288000
   9599   9603   9615     1   111.0400475 552.288000
   9599   9606   9609     1   111.0400475 552.288000
   9600   9599   9603     1   112.3500484 533.878400
   9600   9599   9606     1   112.3500484 533.878400
   9600   9612   9624     1   111.5100476 526.347200
   9603   9599   9606     1   112.3500484 533.878400
   9603   9615   9621     1   111.5100476 526.347200
   9606   9609   9618     1   111.5100476 526.347200
   9609   9618   9627     1   107.9700462 569.024000
   9612   9624  17597     1   107.9700462 569.024000
   9615   9621  17574     1   107.9700462 569.024000
   9621  17574  17570     1   112.4800480 524.673600
   9624  17597  17593     1   112.4800480 524.673600
   9628   9629   9641     1   111.0400475 552.288000
   9628   9632   9644     1   111.0400475 552.288000
   9628   9635   9638     1   111.0400475 552.288000
   9629   9628   9632     1   112.3500484 533.878400
   9629   9628   9635     1   112.3500484 533.878400
   9629   9641   9653     1   111.5100476 526.347200
   9632   9628   9635     1   112.3500484 533.878400
   9632   9644   9650     1   111.5100476 526.347200
   9635   9638   9647     1   111.5100476 526.347200
   9638   9647   9656     1   107.9700462 569.024000
   9641   9653  17643     1   107.9700462 569.024000
   9644   9650  17620     1   107.9700462 569.024000
   9650  17620  17616     1   112.4800480 524.673600
   9653  17643  17639     1   112.4800480 524.673600
   9657   9658   9670     1   111.0400475 552.288000
   9657   9661   9673     1   111.0400475 552.288000
   9657   9664   9667     1   111.0400475 552.288000
   9658   9657   9661     1   112.3500484 533.878400
   9658   9657   9664     1   112.3500484 533.878400
   9658   9670   9682     1   111.5100476 526.347200
   9661   9657   9664     1   112.3500484 533.878400
   9661   9673   9679     1   111.5100476 526.347200
   9664   9667   9676     1   111.5100476 526.347200
   9667   9676   9685     1   107.9700462 569.024000
   9670   9682  17689     1   107.9700462 569.024000
   9673   9679  17666     1   107.9700462 569.024000
   9679  17666  17662     1   112.4800480 524.673600
   9682  17689  17685     1   112.4800480 524.673600
   9686   9687   9699     1   111.0400475 552.288000
   9686   9690   9702     1   111.0400475 552.288000
   9686   9693   9696     1   111.0400475 552.288000
   9687   9686   9690     1   112.3500484 533.878400
   9687   9686   9693     1   112.3500484 533.878400
   9687   9699   9711     1   111.5100476 526.347200
   9690   9686   9693     1   112.3500484 533.878400
   9690   9702   9708     1   111.5100476 526.347200
   9693   9696   9705     1   111.5100476 526.347200
   9696   9705   9714     1   107.9700462 569.024000
   9699   9711  17735     1   107.9700462 569.024000
   9702   9708  17712     1   107.9700462 569.024000
   9708  17712  17708     1   112.4800480 524.673600
   9711  17735  17731     1   112.4800480 524.673600
   9715   9716   9728     1   111.0400475 552.288000
   9715   9719   9731     1   111.0400475 552.288000
   9715   9722   9725     1   111.0400475 552.288000
   9716   9715   9719     1   112.3500484 533.878400
   9716   9715   9722     1   112.3500484 533.878400
   9716   9728   9740     1   111.5100476 526.347200
   9719   9715   9722     1   112.3500484 533.878400
   9719   9731   9737     1   111.5100476 526.347200
   9722   9725   9734     1   111.5100476 526.347200
   9725   9734   9743     1   107.9700462 569.024000
   9728   9740  17781     1   107.9700462 569.024000
   9731   9737  17758     1   107.9700462 569.024000
   9737  17758  17754     1   112.4800480 524.673600
   9740  17781  17777     1   112.4800480 524.673600
   9744   9745   9757     1   111.0400475 552.288000
   9744   9748   9760     1   111.0400475 552.288000
   9744   9751   9754     1   111.0400475 552.288000
   9745   9744   9748     1   112.3500484 533.878400
   9745   9744   9751     1   112.3500484 533.878400
   9745   9757   9769     1   111.5100476 526.347200
   9748   9744   9751     1   112.3500484 533.878400
   9748   9760   9766     1   111.5100476 526.347200
   9751   9754   9763     1   111.5100476 526.347200
   9754   9763   9772     1   107.9700462 569.024000
   9757   9769  17827     1   107.9700462 569.024000
   9760   9766  17804     1   107.9700462 569.024000
   9766  17804  17800     1   112.4800480 524.673600
   9769  17827  17823     1   112.4800480 524.673600
   9773   9774   9786     1   111.0400475 552.288000
   9773   9777   9789     1   111.0400475 552.288000
   9773   9780   9783     1   111.0400475 552.288000
   9774   9773   9777     1   112.3500484 533.878400
   9774   9773   9780     1   112.3500484 533.878400
   9774   9786   9798     1   111.5100476 526.347200
   9777   9773   9780     1   112.3500484 533.878400
   9777   9789   9795     1   111.5100476 526.347200
   9780   9783   9792     1   111.5100476 526.347200
   9783   9792   9801     1   107.9700462 569.024000
   9786   9798  17873     1   107.9700462 569.024000
   9789   9795  17850     1   107.9700462 569.024000
   9795  17850  17846     1   112.4800480 524.673600
   9798  17873  17869     1   112.4800480 524.673600
   9802   9803   9815     1   111.0400475 552.288000
   9802   9806   9818     1   111.0400475 552.288000
   9802   9809   9812     1   111.0400475 552.288000
   9803   9802   9806     1   112.3500484 533.878400
   9803   9802   9809     1   112.3500484 533.878400
   9803   9815   9827     1   111.5100476 526.347200
   9806   9802   9809     1   112.3500484 533.878400
   9806   9818   9824     1   111.5100476 526.347200
   9809   9812   9821     1   111.5100476 526.347200
   9812   9821   9830     1   107.9700462 569.024000
   9815   9827  17919     1   107.9700462 569.024000
   9818   9824  17896     1   107.9700462 569.024000
   9824  17896  17892     1   112.4800480 524.673600
   9827  17919  17915     1   112.4800480 524.673600
   9831   9832   9844     1   111.0400475 552.288000
   9831   9835   9847     1   111.0400475 552.288000
   9831   9838   9841     1   111.0400475 552.288000
   9832   9831   9835     1   112.3500484 533.878400
   9832   9831   9838     1   112.3500484 533.878400
   9832   9844   9856     1   111.5100476 526.347200
   9835   9831   9838     1   112.3500484 533.878400
   9835   9847   9853     1   111.5100476 526.347200
   9838   9841   9850     1   111.5100476 526.347200
   9841   9850   9859     1   107.9700462 569.024000
   9844   9856  17965     1   107.9700462 569.024000
   9847   9853  17942     1   107.9700462 569.024000
   9853  17942  17938     1   112.4800480 524.673600
   9856  17965  17961     1   112.4800480 524.673600
   9860   9861   9873     1   111.0400475 552.288000
   9860   9864   9876     1   111.0400475 552.288000
   9860   9867   9870     1   111.0400475 552.288000
   9861   9860   9864     1   112.3500484 533.878400
   9861   9860   9867     1   112.3500484 533.878400
   9861   9873   9885     1   111.5100476 526.347200
   9864   9860   9867     1   112.3500484 533.878400
   9864   9876   9882     1   111.5100476 526.347200
   9867   9870   9879     1   111.5100476 526.347200
   9870   9879   9888     1   107.9700462 569.024000
   9873   9885  18011     1   107.9700462 569.024000
   9876   9882  17988     1   107.9700462 569.024000
   9882  17988  17984     1   112.4800480 524.673600
   9885  18011  18007     1   112.4800480 524.673600
   9889   9890   9902     1   111.0400475 552.288000
   9889   9893   9905     1   111.0400475 552.288000
   9889   9896   9899     1   111.0400475 552.288000
   9890   9889   9893     1   112.3500484 533.878400
   9890   9889   9896     1   112.3500484 533.878400
   9890   9902   9914     1   111.5100476 526.347200
   9893   9889   9896     1   112.3500484 533.878400
   9893   9905   9911     1   111.5100476 526.347200
   9896   9899   9908     1   111.5100476 526.347200
   9899   9908   9917     1   107.9700462 569.024000
   9902   9914  18057     1   107.9700462 569.024000
   9905   9911  18034     1   107.9700462 569.024000
   9911  18034  18030     1   112.4800480 524.673600
   9914  18057  18053     1   112.4800480 524.673600
   9918   9919   9931     1   111.0400475 552.288000
   9918   9922   9934     1   111.0400475 552.288000
   9918   9925   9928     1   111.0400475 552.288000
   9919   9918   9922     1   112.3500484 533.878400
   9919   9918   9925     1   112.3500484 533.878400
   9919   9931   9943     1   111.5100476 526.347200
   9922   9918   9925     1   112.3500484 533.878400
   9922   9934   9940     1   111.5100476 526.347200
   9925   9928   9937     1   111.5100476 526.347200
   9928   9937   9946     1   107.9700462 569.024000
   9931   9943  18103     1   107.9700462 569.024000
   9934   9940  18080     1   107.9700462 569.024000
   9940  18080  18076     1   112.4800480 524.673600
   9943  18103  18099     1   112.4800480 524.673600
   9947   9948   9960     1   111.0400475 552.288000
   9947   9951   9963     1   111.0400475 552.288000
   9947   9954   9957     1   111.0400475 552.288000
   9948   9947   9951     1   112.3500484 533.878400
   9948   9947   9954     1   112.3500484 533.878400
   9948   9960   9972     1   111.5100476 526.347200
   9951   9947   9954     1   112.3500484 533.878400
   9951   9963   9969     1   111.5100476 526.347200
   9954   9957   9966     1   111.5100476 526.347200
   9957   9966   9975     1   107.9700462 569.024000
   9960   9972  18149     1   107.9700462 569.024000
   9963   9969  18126     1   107.9700462 569.024000
   9969  18126  18122     1   112.4800480 524.673600
   9972  18149  18145     1   112.4800480 524.673600
   9976   9977   9989     1   111.0400475 552.288000
   9976   9980   9992     1   111.0400475 552.288000
   9976   9983   9986     1   111.0400475 552.288000
   9977   9976   9980     1   112.3500484 533.878400
   9977   9976   9983     1   112.3500484 533.878400
   9977   9989  10001     1   111.5100476 526.347200
   9980   9976   9983     1   112.3500484 533.878400
   9980   9992   9998     1   111.5100476 526.347200
   9983   9986   9995     1   111.5100476 526.347200
   9986   9995  10004     1   107.9700462 569.024000
   9989  10001  18195     1   107.9700462 569.024000
   9992   9998  18172     1   107.9700462 569.024000
   9998  18172  18168     1   112.4800480 524.673600
  10001  18195  18191     1   112.4800480 524.673600
  10005  10006  10018     1   111.0400475 552.288000
  10005  10009  10021     1   111.0400475 552.288000
  10005  10012  10015     1   111.0400475 552.288000
  10006  10005  10009     1   112.3500484 533.878400
  10006  10005  10012     1   112.3500484 533.878400
  10006  10018  10030     1   111.5100476 526.347200
  10009  10005  10012     1   112.3500484 533.878400
  10009  10021  10027     1   111.5100476 526.347200
  10012  10015  10024     1   111.5100476 526.347200
  10015  10024  10033     1   107.9700462 569.024000
  10018  10030  18241     1   107.9700462 569.024000
  10021  10027  18218     1   107.9700462 569.024000
  10027  18218  18214     1   112.4800480 524.673600
  10030  18241  18237     1   112.4800480 524.673600
  10034  10035  10047     1   111.0400475 552.288000
  10034  10038  10050     1   111.0400475 552.288000
  10034  10041  10044     1   111.0400475 552.288000
  10035  10034  10038     1   112.3500484 533.878400
  10035  10034  10041     1   112.3500484 533.878400
  10035  10047  10059     1   111.5100476 526.347200
  10038  10034  10041     1   112.3500484 533.878400
  10038  10050  10056     1   111.5100476 526.347200
  10041  10044  10053     1   111.5100476 526.347200
  10044  10053  10062     1   107.9700462 569.024000
  10047  10059  18287     1   107.9700462 569.024000
  10050  10056  18264     1   107.9700462 569.024000
  10056  18264  18260     1   112.4800480 524.673600
  10059  18287  18283     1   112.4800480 524.673600
  10063  10064  10076     1   111.0400475 552.288000
  10063  10067  10079     1   111.0400475 552.288000
  10063  10070  10073     1   111.0400475 552.288000
  10064  10063  10067     1   112.3500484 533.878400
  10064  10063  10070     1   112.3500484 533.878400
  10064  10076  10088     1   111.5100476 526.347200
  10067  10063  10070     1   112.3500484 533.878400
  10067  10079  10085     1   111.5100476 526.347200
  10070  10073  10082     1   111.5100476 526.347200
  10073  10082  10091     1   107.9700462 569.024000
  10076  10088  18333     1   107.9700462 569.024000
  10079  10085  18310     1   107.9700462 569.024000
  10085  18310  18306     1   112.4800480 524.673600
  10088  18333  18329     1   112.4800480 524.673600
  10092  10093  10105     1   111.0400475 552.288000
  10092  10096  10108     1   111.0400475 552.288000
  10092  10099  10102     1   111.0400475 552.288000
  10093  10092  10096     1   112.3500484 533.878400
  10093  10092  10099     1   112.3500484 533.878400
  10093  10105  10117     1   111.5100476 526.347200
  10096  10092  10099     1   112.3500484 533.878400
  10096  10108  10114     1   111.5100476 526.347200
  10099  10102  10111     1   111.5100476 526.347200
  10102  10111  10120     1   107.9700462 569.024000
  10105  10117  18379     1   107.9700462 569.024000
  10108  10114  18356     1   107.9700462 569.024000
  10114  18356  18352     1   112.4800480 524.673600
  10117  18379  18375     1   112.4800480 524.673600
  10121  10122  10134     1   111.0400475 552.288000
  10121  10125  10137     1   111.0400475 552.288000
  10121  10128  10131     1   111.0400475 552.288000
  10122  10121  10125     1   112.3500484 533.878400
  10122  10121  10128     1   112.3500484 533.878400
  10122  10134  10146     1   111.5100476 526.347200
  10125  10121  10128     1   112.3500484 533.878400
  10125  10137  10143     1   111.5100476 526.347200
  10128  10131  10140     1   111.5100476 526.347200
  10131  10140  10149     1   107.9700462 569.024000
  10134  10146  18425     1   107.9700462 569.024000
  10137  10143  18402     1   107.9700462 569.024000
  10143  18402  18398     1   112.4800480 524.673600
  10146  18425  18421     1   112.4800480 524.673600
  10150  10151  10163     1   111.0400475 552.288000
  10150  10154  10166     1   111.0400475 552.288000
  10150  10157  10160     1   111.0400475 552.288000
  10151  10150  10154     1   112.3500484 533.878400
  10151  10150  10157     1   112.3500484 533.878400
  10151  10163  10175     1   111.5100476 526.347200
  10154  10150  10157     1   112.3500484 533.878400
  10154  10166  10172     1   111.5100476 526.347200
  10157  10160  10169     1   111.5100476 526.347200
  10160  10169  10178     1   107.9700462 569.024000
  10163  10175  18471     1   107.9700462 569.024000
  10166  10172  18448     1   107.9700462 569.024000
  10172  18448  18444     1   112.4800480 524.673600
  10175  18471  18467     1   112.4800480 524.673600
  10179  10180  10192     1   111.0400475 552.288000
  10179  10183  10195     1   111.0400475 552.288000
  10179  10186  10189     1   111.0400475 552.288000
  10180  10179  10183     1   112.3500484 533.878400
  10180  10179  10186     1   112.3500484 533.878400
  10180  10192  10204     1   111.5100476 526.347200
  10183  10179  10186     1   112.3500484 533.878400
  10183  10195  10201     1   111.5100476 526.347200
  10186  10189  10198     1   111.5100476 526.347200
  10189  10198  10207     1   107.9700462 569.024000
  10192  10204  18517     1   107.9700462 569.024000
  10195  10201  18494     1   107.9700462 569.024000
  10201  18494  18490     1   112.4800480 524.673600
  10204  18517  18513     1   112.4800480 524.673600
  10208  10209  10221     1   111.0400475 552.288000
  10208  10212  10224     1   111.0400475 552.288000
  10208  10215  10218     1   111.0400475 552.288000
  10209  10208  10212     1   112.3500484 533.878400
  10209  10208  10215     1   112.3500484 533.878400
  10209  10221  10233     1   111.5100476 526.347200
  10212  10208  10215     1   112.3500484 533.878400
  10212  10224  10230     1   111.5100476 526.347200
  10215  10218  10227     1   111.5100476 526.347200
  10218  10227  10236     1   107.9700462 569.024000
  10221  10233  18563     1   107.9700462 569.024000
  10224  10230  18540     1   107.9700462 569.024000
  10230  18540  18536     1   112.4800480 524.673600
  10233  18563  18559     1   112.4800480 524.673600
  10237  10238  10250     1   111.0400475 552.288000
  10237  10241  10253     1   111.0400475 552.288000
  10237  10244  10247     1   111.0400475 552.288000
  10238  10237  10241     1   112.3500484 533.878400
  10238  10237  10244     1   112.3500484 533.878400
  10238  10250  10262     1   111.5100476 526.347200
  10241  10237  10244     1   112.3500484 533.878400
  10241  10253  10259     1   111.5100476 526.347200
  10244  10247  10256     1   111.5100476 526.347200
  10247  10256  10265     1   107.9700462 569.024000
  10250  10262  18609     1   107.9700462 569.024000
  10253  10259  18586     1   107.9700462 569.024000
  10259  18586  18582     1   112.4800480 524.673600
  10262  18609  18605     1   112.4800480 524.673600
  10266  10267  10279     1   111.0400475 552.288000
  10266  10270  10282     1   111.0400475 552.288000
  10266  10273  10276     1   111.0400475 552.288000
  10267  10266  10270     1   112.3500484 533.878400
  10267  10266  10273     1   112.3500484 533.878400
  10267  10279  10291     1   111.5100476 526.347200
  10270  10266  10273     1   112.3500484 533.878400
  10270  10282  10288     1   111.5100476 526.347200
  10273  10276  10285     1   111.5100476 526.347200
  10276  10285  10294     1   107.9700462 569.024000
  10279  10291  18655     1   107.9700462 569.024000
  10282  10288  18632     1   107.9700462 569.024000
  10288  18632  18628     1   112.4800480 524.673600
  10291  18655  18651     1   112.4800480 524.673600
  10295  10296  10308     1   111.0400475 552.288000
  10295  10299  10311     1   111.0400475 552.288000
  10295  10302  10305     1   111.0400475 552.288000
  10296  10295  10299     1   112.3500484 533.878400
  10296  10295  10302     1   112.3500484 533.878400
  10296  10308  10320     1   111.5100476 526.347200
  10299  10295  10302     1   112.3500484 533.878400
  10299  10311  10317     1   111.5100476 526.347200
  10302  10305  10314     1   111.5100476 526.347200
  10305  10314  10323     1   107.9700462 569.024000
  10308  10320  18701     1   107.9700462 569.024000
  10311  10317  18678     1   107.9700462 569.024000
  10317  18678  18674     1   112.4800480 524.673600
  10320  18701  18697     1   112.4800480 524.673600
  10324  10325  10337     1   111.0400475 552.288000
  10324  10328  10340     1   111.0400475 552.288000
  10324  10331  10334     1   111.0400475 552.288000
  10325  10324  10328     1   112.3500484 533.878400
  10325  10324  10331     1   112.3500484 533.878400
  10325  10337  10349     1   111.5100476 526.347200
  10328  10324  10331     1   112.3500484 533.878400
  10328  10340  10346     1   111.5100476 526.347200
  10331  10334  10343     1   111.5100476 526.347200
  10334  10343  10352     1   107.9700462 569.024000
  10337  10349  18747     1   107.9700462 569.024000
  10340  10346  18724     1   107.9700462 569.024000
  10346  18724  18720     1   112.4800480 524.673600
  10349  18747  18743     1   112.4800480 524.673600
  10353  10354  10366     1   111.0400475 552.288000
  10353  10357  10369     1   111.0400475 552.288000
  10353  10360  10363     1   111.0400475 552.288000
  10354  10353  10357     1   112.3500484 533.878400
  10354  10353  10360     1   112.3500484 533.878400
  10354  10366  10378     1   111.5100476 526.347200
  10357  10353  10360     1   112.3500484 533.878400
  10357  10369  10375     1   111.5100476 526.347200
  10360  10363  10372     1   111.5100476 526.347200
  10363  10372  10381     1   107.9700462 569.024000
  10366  10378  18793     1   107.9700462 569.024000
  10369  10375  18770     1   107.9700462 569.024000
  10375  18770  18766     1   112.4800480 524.673600
  10378  18793  18789     1   112.4800480 524.673600
  10382  10383  10395     1   111.0400475 552.288000
  10382  10386  10398     1   111.0400475 552.288000
  10382  10389  10392     1   111.0400475 552.288000
  10383  10382  10386     1   112.3500484 533.878400
  10383  10382  10389     1   112.3500484 533.878400
  10383  10395  10407     1   111.5100476 526.347200
  10386  10382  10389     1   112.3500484 533.878400
  10386  10398  10404     1   111.5100476 526.347200
  10389  10392  10401     1   111.5100476 526.347200
  10392  10401  10410     1   107.9700462 569.024000
  10395  10407  18839     1   107.9700462 569.024000
  10398  10404  18816     1   107.9700462 569.024000
  10404  18816  18812     1   112.4800480 524.673600
  10407  18839  18835     1   112.4800480 524.673600
  10411  10412  10424     1   111.0400475 552.288000
  10411  10415  10427     1   111.0400475 552.288000
  10411  10418  10421     1   111.0400475 552.288000
  10412  10411  10415     1   112.3500484 533.878400
  10412  10411  10418     1   112.3500484 533.878400
  10412  10424  10436     1   111.5100476 526.347200
  10415  10411  10418     1   112.3500484 533.878400
  10415  10427  10433     1   111.5100476 526.347200
  10418  10421  10430     1   111.5100476 526.347200
  10421  10430  10439     1   107.9700462 569.024000
  10424  10436  18885     1   107.9700462 569.024000
  10427  10433  18862     1   107.9700462 569.024000
  10433  18862  18858     1   112.4800480 524.673600
  10436  18885  18881     1   112.4800480 524.673600
  10440  10441  10453     1   111.0400475 552.288000
  10440  10444  10456     1   111.0400475 552.288000
  10440  10447  10450     1   111.0400475 552.288000
  10441  10440  10444     1   112.3500484 533.878400
  10441  10440  10447     1   112.3500484 533.878400
  10441  10453  10465     1   111.5100476 526.347200
  10444  10440  10447     1   112.3500484 533.878400
  10444  10456  10462     1   111.5100476 526.347200
  10447  10450  10459     1   111.5100476 526.347200
  10450  10459  10468     1   107.9700462 569.024000
  10453  10465  18931     1   107.9700462 569.024000
  10456  10462  18908     1   107.9700462 569.024000
  10462  18908  18904     1   112.4800480 524.673600
  10465  18931  18927     1   112.4800480 524.673600
  10469  10470  10482     1   111.0400475 552.288000
  10469  10473  10485     1   111.0400475 552.288000
  10469  10476  10479     1   111.0400475 552.288000
  10470  10469  10473     1   112.3500484 533.878400
  10470  10469  10476     1   112.3500484 533.878400
  10470  10482  10494     1   111.5100476 526.347200
  10473  10469  10476     1   112.3500484 533.878400
  10473  10485  10491     1   111.5100476 526.347200
  10476  10479  10488     1   111.5100476 526.347200
  10479  10488  10497     1   107.9700462 569.024000
  10482  10494  18977     1   107.9700462 569.024000
  10485  10491  18954     1   107.9700462 569.024000
  10491  18954  18950     1   112.4800480 524.673600
  10494  18977  18973     1   112.4800480 524.673600
  10498  10499  10511     1   111.0400475 552.288000
  10498  10502  10514     1   111.0400475 552.288000
  10498  10505  10508     1   111.0400475 552.288000
  10499  10498  10502     1   112.3500484 533.878400
  10499  10498  10505     1   112.3500484 533.878400
  10499  10511  10523     1   111.5100476 526.347200
  10502  10498  10505     1   112.3500484 533.878400
  10502  10514  10520     1   111.5100476 526.347200
  10505  10508  10517     1   111.5100476 526.347200
  10508  10517  10526     1   107.9700462 569.024000
  10511  10523  19023     1   107.9700462 569.024000
  10514  10520  19000     1   107.9700462 569.024000
  10520  19000  18996     1   112.4800480 524.673600
  10523  19023  19019     1   112.4800480 524.673600
  10527  10528  10540     1   111.0400475 552.288000
  10527  10531  10543     1   111.0400475 552.288000
  10527  10534  10537     1   111.0400475 552.288000
  10528  10527  10531     1   112.3500484 533.878400
  10528  10527  10534     1   112.3500484 533.878400
  10528  10540  10552     1   111.5100476 526.347200
  10531  10527  10534     1   112.3500484 533.878400
  10531  10543  10549     1   111.5100476 526.347200
  10534  10537  10546     1   111.5100476 526.347200
  10537  10546  10555     1   107.9700462 569.024000
  10540  10552  19069     1   107.9700462 569.024000
  10543  10549  19046     1   107.9700462 569.024000
  10549  19046  19042     1   112.4800480 524.673600
  10552  19069  19065     1   112.4800480 524.673600
  10556  10557  10569     1   111.0400475 552.288000
  10556  10560  10572     1   111.0400475 552.288000
  10556  10563  10566     1   111.0400475 552.288000
  10557  10556  10560     1   112.3500484 533.878400
  10557  10556  10563     1   112.3500484 533.878400
  10557  10569  10581     1   111.5100476 526.347200
  10560  10556  10563     1   112.3500484 533.878400
  10560  10572  10578     1   111.5100476 526.347200
  10563  10566  10575     1   111.5100476 526.347200
  10566  10575  10584     1   107.9700462 569.024000
  10569  10581  19115     1   107.9700462 569.024000
  10572  10578  19092     1   107.9700462 569.024000
  10578  19092  19088     1   112.4800480 524.673600
  10581  19115  19111     1   112.4800480 524.673600
  10585  10586  10598     1   111.0400475 552.288000
  10585  10589  10601     1   111.0400475 552.288000
  10585  10592  10595     1   111.0400475 552.288000
  10586  10585  10589     1   112.3500484 533.878400
  10586  10585  10592     1   112.3500484 533.878400
  10586  10598  10610     1   111.5100476 526.347200
  10589  10585  10592     1   112.3500484 533.878400
  10589  10601  10607     1   111.5100476 526.347200
  10592  10595  10604     1   111.5100476 526.347200
  10595  10604  10613     1   107.9700462 569.024000
  10598  10610  19161     1   107.9700462 569.024000
  10601  10607  19138     1   107.9700462 569.024000
  10607  19138  19134     1   112.4800480 524.673600
  10610  19161  19157     1   112.4800480 524.673600
  10614  10615  10627     1   111.0400475 552.288000
  10614  10618  10630     1   111.0400475 552.288000
  10614  10621  10624     1   111.0400475 552.288000
  10615  10614  10618     1   112.3500484 533.878400
  10615  10614  10621     1   112.3500484 533.878400
  10615  10627  10639     1   111.5100476 526.347200
  10618  10614  10621     1   112.3500484 533.878400
  10618  10630  10636     1   111.5100476 526.347200
  10621  10624  10633     1   111.5100476 526.347200
  10624  10633  10642     1   107.9700462 569.024000
  10627  10639  19207     1   107.9700462 569.024000
  10630  10636  19184     1   107.9700462 569.024000
  10636  19184  19180     1   112.4800480 524.673600
  10639  19207  19203     1   112.4800480 524.673600
  10643  10644  10656     1   111.0400475 552.288000
  10643  10647  10659     1   111.0400475 552.288000
  10643  10650  10653     1   111.0400475 552.288000
  10644  10643  10647     1   112.3500484 533.878400
  10644  10643  10650     1   112.3500484 533.878400
  10644  10656  10668     1   111.5100476 526.347200
  10647  10643  10650     1   112.3500484 533.878400
  10647  10659  10665     1   111.5100476 526.347200
  10650  10653  10662     1   111.5100476 526.347200
  10653  10662  10671     1   107.9700462 569.024000
  10656  10668  19253     1   107.9700462 569.024000
  10659  10665  19230     1   107.9700462 569.024000
  10665  19230  19226     1   112.4800480 524.673600
  10668  19253  19249     1   112.4800480 524.673600
  10672  10673  10685     1   111.0400475 552.288000
  10672  10676  10688     1   111.0400475 552.288000
  10672  10679  10682     1   111.0400475 552.288000
  10673  10672  10676     1   112.3500484 533.878400
  10673  10672  10679     1   112.3500484 533.878400
  10673  10685  10697     1   111.5100476 526.347200
  10676  10672  10679     1   112.3500484 533.878400
  10676  10688  10694     1   111.5100476 526.347200
  10679  10682  10691     1   111.5100476 526.347200
  10682  10691  10700     1   107.9700462 569.024000
  10685  10697  19299     1   107.9700462 569.024000
  10688  10694  19276     1   107.9700462 569.024000
  10694  19276  19272     1   112.4800480 524.673600
  10697  19299  19295     1   112.4800480 524.673600
  10701  10702  10714     1   111.0400475 552.288000
  10701  10705  10717     1   111.0400475 552.288000
  10701  10708  10711     1   111.0400475 552.288000
  10702  10701  10705     1   112.3500484 533.878400
  10702  10701  10708     1   112.3500484 533.878400
  10702  10714  10726     1   111.5100476 526.347200
  10705  10701  10708     1   112.3500484 533.878400
  10705  10717  10723     1   111.5100476 526.347200
  10708  10711  10720     1   111.5100476 526.347200
  10711  10720  10729     1   107.9700462 569.024000
  10714  10726  19345     1   107.9700462 569.024000
  10717  10723  19322     1   107.9700462 569.024000
  10723  19322  19318     1   112.4800480 524.673600
  10726  19345  19341     1   112.4800480 524.673600
  10730  10731  10743     1   111.0400475 552.288000
  10730  10734  10746     1   111.0400475 552.288000
  10730  10737  10740     1   111.0400475 552.288000
  10731  10730  10734     1   112.3500484 533.878400
  10731  10730  10737     1   112.3500484 533.878400
  10731  10743  10755     1   111.5100476 526.347200
  10734  10730  10737     1   112.3500484 533.878400
  10734  10746  10752     1   111.5100476 526.347200
  10737  10740  10749     1   111.5100476 526.347200
  10740  10749  10758     1   107.9700462 569.024000
  10743  10755  19391     1   107.9700462 569.024000
  10746  10752  19368     1   107.9700462 569.024000
  10752  19368  19364     1   112.4800480 524.673600
  10755  19391  19387     1   112.4800480 524.673600
  10759  10760  10772     1   111.0400475 552.288000
  10759  10763  10775     1   111.0400475 552.288000
  10759  10766  10769     1   111.0400475 552.288000
  10760  10759  10763     1   112.3500484 533.878400
  10760  10759  10766     1   112.3500484 533.878400
  10760  10772  10784     1   111.5100476 526.347200
  10763  10759  10766     1   112.3500484 533.878400
  10763  10775  10781     1   111.5100476 526.347200
  10766  10769  10778     1   111.5100476 526.347200
  10769  10778  10787     1   107.9700462 569.024000
  10772  10784  19437     1   107.9700462 569.024000
  10775  10781  19414     1   107.9700462 569.024000
  10781  19414  19410     1   112.4800480 524.673600
  10784  19437  19433     1   112.4800480 524.673600
  10788  10789  10801     1   111.0400475 552.288000
  10788  10792  10804     1   111.0400475 552.288000
  10788  10795  10798     1   111.0400475 552.288000
  10789  10788  10792     1   112.3500484 533.878400
  10789  10788  10795     1   112.3500484 533.878400
  10789  10801  10813     1   111.5100476 526.347200
  10792  10788  10795     1   112.3500484 533.878400
  10792  10804  10810     1   111.5100476 526.347200
  10795  10798  10807     1   111.5100476 526.347200
  10798  10807  10816     1   107.9700462 569.024000
  10801  10813  19483     1   107.9700462 569.024000
  10804  10810  19460     1   107.9700462 569.024000
  10810  19460  19456     1   112.4800480 524.673600
  10813  19483  19479     1   112.4800480 524.673600
  10817  10818  10830     1   111.0400475 552.288000
  10817  10821  10833     1   111.0400475 552.288000
  10817  10824  10827     1   111.0400475 552.288000
  10818  10817  10821     1   112.3500484 533.878400
  10818  10817  10824     1   112.3500484 533.878400
  10818  10830  10842     1   111.5100476 526.347200
  10821  10817  10824     1   112.3500484 533.878400
  10821  10833  10839     1   111.5100476 526.347200
  10824  10827  10836     1   111.5100476 526.347200
  10827  10836  10845     1   107.9700462 569.024000
  10830  10842  19529     1   107.9700462 569.024000
  10833  10839  19506     1   107.9700462 569.024000
  10839  19506  19502     1   112.4800480 524.673600
  10842  19529  19525     1   112.4800480 524.673600
  10846  10847  10859     1   111.0400475 552.288000
  10846  10850  10862     1   111.0400475 552.288000
  10846  10853  10856     1   111.0400475 552.288000
  10847  10846  10850     1   112.3500484 533.878400
  10847  10846  10853     1   112.3500484 533.878400
  10847  10859  10871     1   111.5100476 526.347200
  10850  10846  10853     1   112.3500484 533.878400
  10850  10862  10868     1   111.5100476 526.347200
  10853  10856  10865     1   111.5100476 526.347200
  10856  10865  10874     1   107.9700462 569.024000
  10859  10871  19575     1   107.9700462 569.024000
  10862  10868  19552     1   107.9700462 569.024000
  10868  19552  19548     1   112.4800480 524.673600
  10871  19575  19571     1   112.4800480 524.673600
  10875  10876  10888     1   111.0400475 552.288000
  10875  10879  10891     1   111.0400475 552.288000
  10875  10882  10885     1   111.0400475 552.288000
  10876  10875  10879     1   112.3500484 533.878400
  10876  10875  10882     1   112.3500484 533.878400
  10876  10888  10900     1   111.5100476 526.347200
  10879  10875  10882     1   112.3500484 533.878400
  10879  10891  10897     1   111.5100476 526.347200
  10882  10885  10894     1   111.5100476 526.347200
  10885  10894  10903     1   107.9700462 569.024000
  10888  10900  19621     1   107.9700462 569.024000
  10891  10897  19598     1   107.9700462 569.024000
  10897  19598  19594     1   112.4800480 524.673600
  10900  19621  19617     1   112.4800480 524.673600
  10904  10905  10917     1   111.0400475 552.288000
  10904  10908  10920     1   111.0400475 552.288000
  10904  10911  10914     1   111.0400475 552.288000
  10905  10904  10908     1   112.3500484 533.878400
  10905  10904  10911     1   112.3500484 533.878400
  10905  10917  10929     1   111.5100476 526.347200
  10908  10904  10911     1   112.3500484 533.878400
  10908  10920  10926     1   111.5100476 526.347200
  10911  10914  10923     1   111.5100476 526.347200
  10914  10923  10932     1   107.9700462 569.024000
  10917  10929  19667     1   107.9700462 569.024000
  10920  10926  19644     1   107.9700462 569.024000
  10926  19644  19640     1   112.4800480 524.673600
  10929  19667  19663     1   112.4800480 524.673600
  10933  10934  10946     1   111.0400475 552.288000
  10933  10937  10949     1   111.0400475 552.288000
  10933  10940  10943     1   111.0400475 552.288000
  10934  10933  10937     1   112.3500484 533.878400
  10934  10933  10940     1   112.3500484 533.878400
  10934  10946  10958     1   111.5100476 526.347200
  10937  10933  10940     1   112.3500484 533.878400
  10937  10949  10955     1   111.5100476 526.347200
  10940  10943  10952     1   111.5100476 526.347200
  10943  10952  10961     1   107.9700462 569.024000
  10946  10958  19713     1   107.9700462 569.024000
  10949  10955  19690     1   107.9700462 569.024000
  10955  19690  19686     1   112.4800480 524.673600
  10958  19713  19709     1   112.4800480 524.673600
  10962  10963  10975     1   111.0400475 552.288000
  10962  10966  10978     1   111.0400475 552.288000
  10962  10969  10972     1   111.0400475 552.288000
  10963  10962  10966     1   112.3500484 533.878400
  10963  10962  10969     1   112.3500484 533.878400
  10963  10975  10987     1   111.5100476 526.347200
  10966  10962  10969     1   112.3500484 533.878400
  10966  10978  10984     1   111.5100476 526.347200
  10969  10972  10981     1   111.5100476 526.347200
  10972  10981  10990     1   107.9700462 569.024000
  10975  10987  19759     1   107.9700462 569.024000
  10978  10984  19736     1   107.9700462 569.024000
  10984  19736  19732     1   112.4800480 524.673600
  10987  19759  19755     1   112.4800480 524.673600
  10991  10992  11004     1   111.0400475 552.288000
  10991  10995  11007     1   111.0400475 552.288000
  10991  10998  11001     1   111.0400475 552.288000
  10992  10991  10995     1   112.3500484 533.878400
  10992  10991  10998     1   112.3500484 533.878400
  10992  11004  11016     1   111.5100476 526.347200
  10995  10991  10998     1   112.3500484 533.878400
  10995  11007  11013     1   111.5100476 526.347200
  10998  11001  11010     1   111.5100476 526.347200
  11001  11010  11019     1   107.9700462 569.024000
  11004  11016  19805     1   107.9700462 569.024000
  11007  11013  19782     1   107.9700462 569.024000
  11013  19782  19778     1   112.4800480 524.673600
  11016  19805  19801     1   112.4800480 524.673600
  11020  11021  11033     1   111.0400475 552.288000
  11020  11024  11036     1   111.0400475 552.288000
  11020  11027  11030     1   111.0400475 552.288000
  11021  11020  11024     1   112.3500484 533.878400
  11021  11020  11027     1   112.3500484 533.878400
  11021  11033  11045     1   111.5100476 526.347200
  11024  11020  11027     1   112.3500484 533.878400
  11024  11036  11042     1   111.5100476 526.347200
  11027  11030  11039     1   111.5100476 526.347200
  11030  11039  11048     1   107.9700462 569.024000
  11033  11045  19851     1   107.9700462 569.024000
  11036  11042  19828     1   107.9700462 569.024000
  11042  19828  19824     1   112.4800480 524.673600
  11045  19851  19847     1   112.4800480 524.673600
  11049  11050  11062     1   111.0400475 552.288000
  11049  11053  11065     1   111.0400475 552.288000
  11049  11056  11059     1   111.0400475 552.288000
  11050  11049  11053     1   112.3500484 533.878400
  11050  11049  11056     1   112.3500484 533.878400
  11050  11062  11074     1   111.5100476 526.347200
  11053  11049  11056     1   112.3500484 533.878400
  11053  11065  11071     1   111.5100476 526.347200
  11056  11059  11068     1   111.5100476 526.347200
  11059  11068  11077     1   107.9700462 569.024000
  11062  11074  19897     1   107.9700462 569.024000
  11065  11071  19874     1   107.9700462 569.024000
  11071  19874  19870     1   112.4800480 524.673600
  11074  19897  19893     1   112.4800480 524.673600
  11078  11079  11082     1   111.5100476 526.347200
  11078  11079  11091     1   110.1900474 564.840000
  11078  11092  11098     1   110.1900474 564.840000
  11078  11100  11084     1   112.4800480 524.673600
  11079  11078  11092     1   111.5100476 526.347200
  11079  11078  11100     1   107.9700462 569.024000
  11079  11082  11083     1   111.5100476 526.347200
  11079  11082  11090     1   110.1900474 564.840000
  11082  11079  11091     1   110.1900474 564.840000
  11082  11083  11084     1   111.5100476 526.347200
  11082  11083  11089     1   110.1900474 564.840000
  11083  11082  11090     1   110.1900474 564.840000
  11083  11084  11088     1   107.9700462 569.024000
  11083  11084  11100     1   107.9700462 569.024000
  11084  11083  11089     1   110.1900474 564.840000
  11088  11084  11100     1   108.2900466 608.353600
  11092  11078  11100     1   107.9700462 569.024000
  11101  11102  11105     1   111.5100476 526.347200
  11101  11102  11114     1   110.1900474 564.840000
  11101  11115  11121     1   110.1900474 564.840000
  11101  11123  11107     1   112.4800480 524.673600
  11102  11105  11106     1   111.5100476 526.347200
  11102  11105  11113     1   110.1900474 564.840000
  11102  11101  11115     1   111.5100476 526.347200
  11102  11101  11123     1   107.9700462 569.024000
  11105  11106  11107     1   111.5100476 526.347200
  11105  11106  11112     1   110.1900474 564.840000
  11105  11102  11114     1   110.1900474 564.840000
  11106  11107  11111     1   107.9700462 569.024000
  11106  11107  11123     1   107.9700462 569.024000
  11106  11105  11113     1   110.1900474 564.840000
  11107  11106  11112     1   110.1900474 564.840000
  11111  11107  11123     1   108.2900466 608.353600
  11115  11101  11123     1   107.9700462 569.024000
  11124  11125  11128     1   111.5100476 526.347200
  11124  11125  11137     1   110.1900474 564.840000
  11124  11138  11144     1   110.1900474 564.840000
  11124  11146  11130     1   112.4800480 524.673600
  11125  11124  11138     1   111.5100476 526.347200
  11125  11124  11146     1   107.9700462 569.024000
  11125  11128  11129     1   111.5100476 526.347200
  11125  11128  11136     1   110.1900474 564.840000
  11128  11125  11137     1   110.1900474 564.840000
  11128  11129  11130     1   111.5100476 526.347200
  11128  11129  11135     1   110.1900474 564.840000
  11129  11128  11136     1   110.1900474 564.840000
  11129  11130  11134     1   107.9700462 569.024000
  11129  11130  11146     1   107.9700462 569.024000
  11130  11129  11135     1   110.1900474 564.840000
  11134  11130  11146     1   108.2900466 608.353600
  11138  11124  11146     1   107.9700462 569.024000
  11147  11148  11151     1   111.5100476 526.347200
  11147  11148  11160     1   110.1900474 564.840000
  11147  11161  11167     1   110.1900474 564.840000
  11147  11169  11153     1   112.4800480 524.673600
  11148  11151  11152     1   111.5100476 526.347200
  11148  11151  11159     1   110.1900474 564.840000
  11148  11147  11161     1   111.5100476 526.347200
  11148  11147  11169     1   107.9700462 569.024000
  11151  11152  11153     1   111.5100476 526.347200
  11151  11152  11158     1   110.1900474 564.840000
  11151  11148  11160     1   110.1900474 564.840000
  11152  11153  11157     1   107.9700462 569.024000
  11152  11153  11169     1   107.9700462 569.024000
  11152  11151  11159     1   110.1900474 564.840000
  11153  11152  11158     1   110.1900474 564.840000
  11157  11153  11169     1   108.2900466 608.353600
  11161  11147  11169     1   107.9700462 569.024000
  11170  11171  11174     1   111.5100476 526.347200
  11170  11171  11183     1   110.1900474 564.840000
  11170  11184  11190     1   110.1900474 564.840000
  11170  11192  11176     1   112.4800480 524.673600
  11171  11170  11184     1   111.5100476 526.347200
  11171  11170  11192     1   107.9700462 569.024000
  11171  11174  11175     1   111.5100476 526.347200
  11171  11174  11182     1   110.1900474 564.840000
  11174  11171  11183     1   110.1900474 564.840000
  11174  11175  11176     1   111.5100476 526.347200
  11174  11175  11181     1   110.1900474 564.840000
  11175  11174  11182     1   110.1900474 564.840000
  11175  11176  11180     1   107.9700462 569.024000
  11175  11176  11192     1   107.9700462 569.024000
  11176  11175  11181     1   110.1900474 564.840000
  11180  11176  11192     1   108.2900466 608.353600
  11184  11170  11192     1   107.9700462 569.024000
  11193  11194  11197     1   111.5100476 526.347200
  11193  11194  11206     1   110.1900474 564.840000
  11193  11207  11213     1   110.1900474 564.840000
  11193  11215  11199     1   112.4800480 524.673600
  11194  11197  11198     1   111.5100476 526.347200
  11194  11197  11205     1   110.1900474 564.840000
  11194  11193  11207     1   111.5100476 526.347200
  11194  11193  11215     1   107.9700462 569.024000
  11197  11198  11199     1   111.5100476 526.347200
  11197  11198  11204     1   110.1900474 564.840000
  11197  11194  11206     1   110.1900474 564.840000
  11198  11199  11203     1   107.9700462 569.024000
  11198  11199  11215     1   107.9700462 569.024000
  11198  11197  11205     1   110.1900474 564.840000
  11199  11198  11204     1   110.1900474 564.840000
  11203  11199  11215     1   108.2900466 608.353600
  11207  11193  11215     1   107.9700462 569.024000
  11216  11217  11220     1   111.5100476 526.347200
  11216  11217  11229     1   110.1900474 564.840000
  11216  11230  11236     1   110.1900474 564.840000
  11216  11238  11222     1   112.4800480 524.673600
  11217  11216  11230     1   111.5100476 526.347200
  11217  11216  11238     1   107.9700462 569.024000
  11217  11220  11221     1   111.5100476 526.347200
  11217  11220  11228     1   110.1900474 564.840000
  11220  11217  11229     1   110.1900474 564.840000
  11220  11221  11222     1   111.5100476 526.347200
  11220  11221  11227     1   110.1900474 564.840000
  11221  11220  11228     1   110.1900474 564.840000
  11221  11222  11226     1   107.9700462 569.024000
  11221  11222  11238     1   107.9700462 569.024000
  11222  11221  11227     1   110.1900474 564.840000
  11226  11222  11238     1   108.2900466 608.353600
  11230  11216  11238     1   107.9700462 569.024000
  11239  11240  11243     1   111.5100476 526.347200
  11239  11240  11252     1   110.1900474 564.840000
  11239  11253  11259     1   110.1900474 564.840000
  11239  11261  11245     1   112.4800480 524.673600
  11240  11243  11244     1   111.5100476 526.347200
  11240  11243  11251     1   110.1900474 564.840000
  11240  11239  11253     1   111.5100476 526.347200
  11240  11239  11261     1   107.9700462 569.024000
  11243  11244  11245     1   111.5100476 526.347200
  11243  11244  11250     1   110.1900474 564.840000
  11243  11240  11252     1   110.1900474 564.840000
  11244  11245  11249     1   107.9700462 569.024000
  11244  11245  11261     1   107.9700462 569.024000
  11244  11243  11251     1   110.1900474 564.840000
  11245  11244  11250     1   110.1900474 564.840000
  11249  11245  11261     1   108.2900466 608.353600
  11253  11239  11261     1   107.9700462 569.024000
  11262  11263  11266     1   111.5100476 526.347200
  11262  11263  11275     1   110.1900474 564.840000
  11262  11276  11282     1   110.1900474 564.840000
  11262  11284  11268     1   112.4800480 524.673600
  11263  11262  11276     1   111.5100476 526.347200
  11263  11262  11284     1   107.9700462 569.024000
  11263  11266  11267     1   111.5100476 526.347200
  11263  11266  11274     1   110.1900474 564.840000
  11266  11263  11275     1   110.1900474 564.840000
  11266  11267  11268     1   111.5100476 526.347200
  11266  11267  11273     1   110.1900474 564.840000
  11267  11266  11274     1   110.1900474 564.840000
  11267  11268  11272     1   107.9700462 569.024000
  11267  11268  11284     1   107.9700462 569.024000
  11268  11267  11273     1   110.1900474 564.840000
  11272  11268  11284     1   108.2900466 608.353600
  11276  11262  11284     1   107.9700462 569.024000
  11285  11286  11289     1   111.5100476 526.347200
  11285  11286  11298     1   110.1900474 564.840000
  11285  11299  11305     1   110.1900474 564.840000
  11285  11307  11291     1   112.4800480 524.673600
  11286  11289  11290     1   111.5100476 526.347200
  11286  11289  11297     1   110.1900474 564.840000
  11286  11285  11299     1   111.5100476 526.347200
  11286  11285  11307     1   107.9700462 569.024000
  11289  11290  11291     1   111.5100476 526.347200
  11289  11290  11296     1   110.1900474 564.840000
  11289  11286  11298     1   110.1900474 564.840000
  11290  11291  11295     1   107.9700462 569.024000
  11290  11291  11307     1   107.9700462 569.024000
  11290  11289  11297     1   110.1900474 564.840000
  11291  11290  11296     1   110.1900474 564.840000
  11295  11291  11307     1   108.2900466 608.353600
  11299  11285  11307     1   107.9700462 569.024000
  11308  11309  11312     1   111.5100476 526.347200
  11308  11309  11321     1   110.1900474 564.840000
  11308  11322  11328     1   110.1900474 564.840000
  11308  11330  11314     1   112.4800480 524.673600
  11309  11308  11322     1   111.5100476 526.347200
  11309  11308  11330     1   107.9700462 569.024000
  11309  11312  11313     1   111.5100476 526.347200
  11309  11312  11320     1   110.1900474 564.840000
  11312  11309  11321     1   110.1900474 564.840000
  11312  11313  11314     1   111.5100476 526.347200
  11312  11313  11319     1   110.1900474 564.840000
  11313  11312  11320     1   110.1900474 564.840000
  11313  11314  11318     1   107.9700462 569.024000
  11313  11314  11330     1   107.9700462 569.024000
  11314  11313  11319     1   110.1900474 564.840000
  11318  11314  11330     1   108.2900466 608.353600
  11322  11308  11330     1   107.9700462 569.024000
  11331  11332  11335     1   111.5100476 526.347200
  11331  11332  11344     1   110.1900474 564.840000
  11331  11345  11351     1   110.1900474 564.840000
  11331  11353  11337     1   112.4800480 524.673600
  11332  11335  11336     1   111.5100476 526.347200
  11332  11335  11343     1   110.1900474 564.840000
  11332  11331  11345     1   111.5100476 526.347200
  11332  11331  11353     1   107.9700462 569.024000
  11335  11336  11337     1   111.5100476 526.347200
  11335  11336  11342     1   110.1900474 564.840000
  11335  11332  11344     1   110.1900474 564.840000
  11336  11337  11341     1   107.9700462 569.024000
  11336  11337  11353     1   107.9700462 569.024000
  11336  11335  11343     1   110.1900474 564.840000
  11337  11336  11342     1   110.1900474 564.840000
  11341  11337  11353     1   108.2900466 608.353600
  11345  11331  11353     1   107.9700462 569.024000
  11354  11355  11358     1   111.5100476 526.347200
  11354  11355  11367     1   110.1900474 564.840000
  11354  11368  11374     1   110.1900474 564.840000
  11354  11376  11360     1   112.4800480 524.673600
  11355  11354  11368     1   111.5100476 526.347200
  11355  11354  11376     1   107.9700462 569.024000
  11355  11358  11359     1   111.5100476 526.347200
  11355  11358  11366     1   110.1900474 564.840000
  11358  11355  11367     1   110.1900474 564.840000
  11358  11359  11360     1   111.5100476 526.347200
  11358  11359  11365     1   110.1900474 564.840000
  11359  11358  11366     1   110.1900474 564.840000
  11359  11360  11364     1   107.9700462 569.024000
  11359  11360  11376     1   107.9700462 569.024000
  11360  11359  11365     1   110.1900474 564.840000
  11364  11360  11376     1   108.2900466 608.353600
  11368  11354  11376     1   107.9700462 569.024000
  11377  11378  11381     1   111.5100476 526.347200
  11377  11378  11390     1   110.1900474 564.840000
  11377  11391  11397     1   110.1900474 564.840000
  11377  11399  11383     1   112.4800480 524.673600
  11378  11381  11382     1   111.5100476 526.347200
  11378  11381  11389     1   110.1900474 564.840000
  11378  11377  11391     1   111.5100476 526.347200
  11378  11377  11399     1   107.9700462 569.024000
  11381  11382  11383     1   111.5100476 526.347200
  11381  11382  11388     1   110.1900474 564.840000
  11381  11378  11390     1   110.1900474 564.840000
  11382  11383  11387     1   107.9700462 569.024000
  11382  11383  11399     1   107.9700462 569.024000
  11382  11381  11389     1   110.1900474 564.840000
  11383  11382  11388     1   110.1900474 564.840000
  11387  11383  11399     1   108.2900466 608.353600
  11391  11377  11399     1   107.9700462 569.024000
  11400  11401  11404     1   111.5100476 526.347200
  11400  11401  11413     1   110.1900474 564.840000
  11400  11414  11420     1   110.1900474 564.840000
  11400  11422  11406     1   112.4800480 524.673600
  11401  11400  11414     1   111.5100476 526.347200
  11401  11400  11422     1   107.9700462 569.024000
  11401  11404  11405     1   111.5100476 526.347200
  11401  11404  11412     1   110.1900474 564.840000
  11404  11401  11413     1   110.1900474 564.840000
  11404  11405  11406     1   111.5100476 526.347200
  11404  11405  11411     1   110.1900474 564.840000
  11405  11404  11412     1   110.1900474 564.840000
  11405  11406  11410     1   107.9700462 569.024000
  11405  11406  11422     1   107.9700462 569.024000
  11406  11405  11411     1   110.1900474 564.840000
  11410  11406  11422     1   108.2900466 608.353600
  11414  11400  11422     1   107.9700462 569.024000
  11423  11424  11427     1   111.5100476 526.347200
  11423  11424  11436     1   110.1900474 564.840000
  11423  11437  11443     1   110.1900474 564.840000
  11423  11445  11429     1   112.4800480 524.673600
  11424  11427  11428     1   111.5100476 526.347200
  11424  11427  11435     1   110.1900474 564.840000
  11424  11423  11437     1   111.5100476 526.347200
  11424  11423  11445     1   107.9700462 569.024000
  11427  11428  11429     1   111.5100476 526.347200
  11427  11428  11434     1   110.1900474 564.840000
  11427  11424  11436     1   110.1900474 564.840000
  11428  11429  11433     1   107.9700462 569.024000
  11428  11429  11445     1   107.9700462 569.024000
  11428  11427  11435     1   110.1900474 564.840000
  11429  11428  11434     1   110.1900474 564.840000
  11433  11429  11445     1   108.2900466 608.353600
  11437  11423  11445     1   107.9700462 569.024000
  11446  11447  11450     1   111.5100476 526.347200
  11446  11447  11459     1   110.1900474 564.840000
  11446  11460  11466     1   110.1900474 564.840000
  11446  11468  11452     1   112.4800480 524.673600
  11447  11446  11460     1   111.5100476 526.347200
  11447  11446  11468     1   107.9700462 569.024000
  11447  11450  11451     1   111.5100476 526.347200
  11447  11450  11458     1   110.1900474 564.840000
  11450  11447  11459     1   110.1900474 564.840000
  11450  11451  11452     1   111.5100476 526.347200
  11450  11451  11457     1   110.1900474 564.840000
  11451  11450  11458     1   110.1900474 564.840000
  11451  11452  11456     1   107.9700462 569.024000
  11451  11452  11468     1   107.9700462 569.024000
  11452  11451  11457     1   110.1900474 564.840000
  11456  11452  11468     1   108.2900466 608.353600
  11460  11446  11468     1   107.9700462 569.024000
  11469  11470  11473     1   111.5100476 526.347200
  11469  11470  11482     1   110.1900474 564.840000
  11469  11483  11489     1   110.1900474 564.840000
  11469  11491  11475     1   112.4800480 524.673600
  11470  11473  11474     1   111.5100476 526.347200
  11470  11473  11481     1   110.1900474 564.840000
  11470  11469  11483     1   111.5100476 526.347200
  11470  11469  11491     1   107.9700462 569.024000
  11473  11474  11475     1   111.5100476 526.347200
  11473  11474  11480     1   110.1900474 564.840000
  11473  11470  11482     1   110.1900474 564.840000
  11474  11475  11479     1   107.9700462 569.024000
  11474  11475  11491     1   107.9700462 569.024000
  11474  11473  11481     1   110.1900474 564.840000
  11475  11474  11480     1   110.1900474 564.840000
  11479  11475  11491     1   108.2900466 608.353600
  11483  11469  11491     1   107.9700462 569.024000
  11492  11493  11496     1   111.5100476 526.347200
  11492  11493  11505     1   110.1900474 564.840000
  11492  11506  11512     1   110.1900474 564.840000
  11492  11514  11498     1   112.4800480 524.673600
  11493  11492  11506     1   111.5100476 526.347200
  11493  11492  11514     1   107.9700462 569.024000
  11493  11496  11497     1   111.5100476 526.347200
  11493  11496  11504     1   110.1900474 564.840000
  11496  11493  11505     1   110.1900474 564.840000
  11496  11497  11498     1   111.5100476 526.347200
  11496  11497  11503     1   110.1900474 564.840000
  11497  11496  11504     1   110.1900474 564.840000
  11497  11498  11502     1   107.9700462 569.024000
  11497  11498  11514     1   107.9700462 569.024000
  11498  11497  11503     1   110.1900474 564.840000
  11502  11498  11514     1   108.2900466 608.353600
  11506  11492  11514     1   107.9700462 569.024000
  11515  11516  11519     1   111.5100476 526.347200
  11515  11516  11528     1   110.1900474 564.840000
  11515  11529  11535     1   110.1900474 564.840000
  11515  11537  11521     1   112.4800480 524.673600
  11516  11519  11520     1   111.5100476 526.347200
  11516  11519  11527     1   110.1900474 564.840000
  11516  11515  11529     1   111.5100476 526.347200
  11516  11515  11537     1   107.9700462 569.024000
  11519  11520  11521     1   111.5100476 526.347200
  11519  11520  11526     1   110.1900474 564.840000
  11519  11516  11528     1   110.1900474 564.840000
  11520  11521  11525     1   107.9700462 569.024000
  11520  11521  11537     1   107.9700462 569.024000
  11520  11519  11527     1   110.1900474 564.840000
  11521  11520  11526     1   110.1900474 564.840000
  11525  11521  11537     1   108.2900466 608.353600
  11529  11515  11537     1   107.9700462 569.024000
  11538  11539  11542     1   111.5100476 526.347200
  11538  11539  11551     1   110.1900474 564.840000
  11538  11552  11558     1   110.1900474 564.840000
  11538  11560  11544     1   112.4800480 524.673600
  11539  11538  11552     1   111.5100476 526.347200
  11539  11538  11560     1   107.9700462 569.024000
  11539  11542  11543     1   111.5100476 526.347200
  11539  11542  11550     1   110.1900474 564.840000
  11542  11539  11551     1   110.1900474 564.840000
  11542  11543  11544     1   111.5100476 526.347200
  11542  11543  11549     1   110.1900474 564.840000
  11543  11542  11550     1   110.1900474 564.840000
  11543  11544  11548     1   107.9700462 569.024000
  11543  11544  11560     1   107.9700462 569.024000
  11544  11543  11549     1   110.1900474 564.840000
  11548  11544  11560     1   108.2900466 608.353600
  11552  11538  11560     1   107.9700462 569.024000
  11561  11562  11565     1   111.5100476 526.347200
  11561  11562  11574     1   110.1900474 564.840000
  11561  11575  11581     1   110.1900474 564.840000
  11561  11583  11567     1   112.4800480 524.673600
  11562  11565  11566     1   111.5100476 526.347200
  11562  11565  11573     1   110.1900474 564.840000
  11562  11561  11575     1   111.5100476 526.347200
  11562  11561  11583     1   107.9700462 569.024000
  11565  11566  11567     1   111.5100476 526.347200
  11565  11566  11572     1   110.1900474 564.840000
  11565  11562  11574     1   110.1900474 564.840000
  11566  11567  11571     1   107.9700462 569.024000
  11566  11567  11583     1   107.9700462 569.024000
  11566  11565  11573     1   110.1900474 564.840000
  11567  11566  11572     1   110.1900474 564.840000
  11571  11567  11583     1   108.2900466 608.353600
  11575  11561  11583     1   107.9700462 569.024000
  11584  11585  11588     1   111.5100476 526.347200
  11584  11585  11597     1   110.1900474 564.840000
  11584  11598  11604     1   110.1900474 564.840000
  11584  11606  11590     1   112.4800480 524.673600
  11585  11584  11598     1   111.5100476 526.347200
  11585  11584  11606     1   107.9700462 569.024000
  11585  11588  11589     1   111.5100476 526.347200
  11585  11588  11596     1   110.1900474 564.840000
  11588  11585  11597     1   110.1900474 564.840000
  11588  11589  11590     1   111.5100476 526.347200
  11588  11589  11595     1   110.1900474 564.840000
  11589  11588  11596     1   110.1900474 564.840000
  11589  11590  11594     1   107.9700462 569.024000
  11589  11590  11606     1   107.9700462 569.024000
  11590  11589  11595     1   110.1900474 564.840000
  11594  11590  11606     1   108.2900466 608.353600
  11598  11584  11606     1   107.9700462 569.024000
  11607  11608  11611     1   111.5100476 526.347200
  11607  11608  11620     1   110.1900474 564.840000
  11607  11621  11627     1   110.1900474 564.840000
  11607  11629  11613     1   112.4800480 524.673600
  11608  11611  11612     1   111.5100476 526.347200
  11608  11611  11619     1   110.1900474 564.840000
  11608  11607  11621     1   111.5100476 526.347200
  11608  11607  11629     1   107.9700462 569.024000
  11611  11612  11613     1   111.5100476 526.347200
  11611  11612  11618     1   110.1900474 564.840000
  11611  11608  11620     1   110.1900474 564.840000
  11612  11613  11617     1   107.9700462 569.024000
  11612  11613  11629     1   107.9700462 569.024000
  11612  11611  11619     1   110.1900474 564.840000
  11613  11612  11618     1   110.1900474 564.840000
  11617  11613  11629     1   108.2900466 608.353600
  11621  11607  11629     1   107.9700462 569.024000
  11630  11631  11634     1   111.5100476 526.347200
  11630  11631  11643     1   110.1900474 564.840000
  11630  11644  11650     1   110.1900474 564.840000
  11630  11652  11636     1   112.4800480 524.673600
  11631  11630  11644     1   111.5100476 526.347200
  11631  11630  11652     1   107.9700462 569.024000
  11631  11634  11635     1   111.5100476 526.347200
  11631  11634  11642     1   110.1900474 564.840000
  11634  11631  11643     1   110.1900474 564.840000
  11634  11635  11636     1   111.5100476 526.347200
  11634  11635  11641     1   110.1900474 564.840000
  11635  11634  11642     1   110.1900474 564.840000
  11635  11636  11640     1   107.9700462 569.024000
  11635  11636  11652     1   107.9700462 569.024000
  11636  11635  11641     1   110.1900474 564.840000
  11640  11636  11652     1   108.2900466 608.353600
  11644  11630  11652     1   107.9700462 569.024000
  11653  11654  11657     1   111.5100476 526.347200
  11653  11654  11666     1   110.1900474 564.840000
  11653  11667  11673     1   110.1900474 564.840000
  11653  11675  11659     1   112.4800480 524.673600
  11654  11657  11658     1   111.5100476 526.347200
  11654  11657  11665     1   110.1900474 564.840000
  11654  11653  11667     1   111.5100476 526.347200
  11654  11653  11675     1   107.9700462 569.024000
  11657  11658  11659     1   111.5100476 526.347200
  11657  11658  11664     1   110.1900474 564.840000
  11657  11654  11666     1   110.1900474 564.840000
  11658  11659  11663     1   107.9700462 569.024000
  11658  11659  11675     1   107.9700462 569.024000
  11658  11657  11665     1   110.1900474 564.840000
  11659  11658  11664     1   110.1900474 564.840000
  11663  11659  11675     1   108.2900466 608.353600
  11667  11653  11675     1   107.9700462 569.024000
  11676  11677  11680     1   111.5100476 526.347200
  11676  11677  11689     1   110.1900474 564.840000
  11676  11690  11696     1   110.1900474 564.840000
  11676  11698  11682     1   112.4800480 524.673600
  11677  11676  11690     1   111.5100476 526.347200
  11677  11676  11698     1   107.9700462 569.024000
  11677  11680  11681     1   111.5100476 526.347200
  11677  11680  11688     1   110.1900474 564.840000
  11680  11677  11689     1   110.1900474 564.840000
  11680  11681  11682     1   111.5100476 526.347200
  11680  11681  11687     1   110.1900474 564.840000
  11681  11680  11688     1   110.1900474 564.840000
  11681  11682  11686     1   107.9700462 569.024000
  11681  11682  11698     1   107.9700462 569.024000
  11682  11681  11687     1   110.1900474 564.840000
  11686  11682  11698     1   108.2900466 608.353600
  11690  11676  11698     1   107.9700462 569.024000
  11699  11700  11703     1   111.5100476 526.347200
  11699  11700  11712     1   110.1900474 564.840000
  11699  11713  11719     1   110.1900474 564.840000
  11699  11721  11705     1   112.4800480 524.673600
  11700  11703  11704     1   111.5100476 526.347200
  11700  11703  11711     1   110.1900474 564.840000
  11700  11699  11713     1   111.5100476 526.347200
  11700  11699  11721     1   107.9700462 569.024000
  11703  11704  11705     1   111.5100476 526.347200
  11703  11704  11710     1   110.1900474 564.840000
  11703  11700  11712     1   110.1900474 564.840000
  11704  11705  11709     1   107.9700462 569.024000
  11704  11705  11721     1   107.9700462 569.024000
  11704  11703  11711     1   110.1900474 564.840000
  11705  11704  11710     1   110.1900474 564.840000
  11709  11705  11721     1   108.2900466 608.353600
  11713  11699  11721     1   107.9700462 569.024000
  11722  11723  11726     1   111.5100476 526.347200
  11722  11723  11735     1   110.1900474 564.840000
  11722  11736  11742     1   110.1900474 564.840000
  11722  11744  11728     1   112.4800480 524.673600
  11723  11722  11736     1   111.5100476 526.347200
  11723  11722  11744     1   107.9700462 569.024000
  11723  11726  11727     1   111.5100476 526.347200
  11723  11726  11734     1   110.1900474 564.840000
  11726  11723  11735     1   110.1900474 564.840000
  11726  11727  11728     1   111.5100476 526.347200
  11726  11727  11733     1   110.1900474 564.840000
  11727  11726  11734     1   110.1900474 564.840000
  11727  11728  11732     1   107.9700462 569.024000
  11727  11728  11744     1   107.9700462 569.024000
  11728  11727  11733     1   110.1900474 564.840000
  11732  11728  11744     1   108.2900466 608.353600
  11736  11722  11744     1   107.9700462 569.024000
  11745  11746  11749     1   111.5100476 526.347200
  11745  11746  11758     1   110.1900474 564.840000
  11745  11759  11765     1   110.1900474 564.840000
  11745  11767  11751     1   112.4800480 524.673600
  11746  11749  11750     1   111.5100476 526.347200
  11746  11749  11757     1   110.1900474 564.840000
  11746  11745  11759     1   111.5100476 526.347200
  11746  11745  11767     1   107.9700462 569.024000
  11749  11750  11751     1   111.5100476 526.347200
  11749  11750  11756     1   110.1900474 564.840000
  11749  11746  11758     1   110.1900474 564.840000
  11750  11751  11755     1   107.9700462 569.024000
  11750  11751  11767     1   107.9700462 569.024000
  11750  11749  11757     1   110.1900474 564.840000
  11751  11750  11756     1   110.1900474 564.840000
  11755  11751  11767     1   108.2900466 608.353600
  11759  11745  11767     1   107.9700462 569.024000
  11768  11769  11772     1   111.5100476 526.347200
  11768  11769  11781     1   110.1900474 564.840000
  11768  11782  11788     1   110.1900474 564.840000
  11768  11790  11774     1   112.4800480 524.673600
  11769  11768  11782     1   111.5100476 526.347200
  11769  11768  11790     1   107.9700462 569.024000
  11769  11772  11773     1   111.5100476 526.347200
  11769  11772  11780     1   110.1900474 564.840000
  11772  11769  11781     1   110.1900474 564.840000
  11772  11773  11774     1   111.5100476 526.347200
  11772  11773  11779     1   110.1900474 564.840000
  11773  11772  11780     1   110.1900474 564.840000
  11773  11774  11778     1   107.9700462 569.024000
  11773  11774  11790     1   107.9700462 569.024000
  11774  11773  11779     1   110.1900474 564.840000
  11778  11774  11790     1   108.2900466 608.353600
  11782  11768  11790     1   107.9700462 569.024000
  11791  11792  11795     1   111.5100476 526.347200
  11791  11792  11804     1   110.1900474 564.840000
  11791  11805  11811     1   110.1900474 564.840000
  11791  11813  11797     1   112.4800480 524.673600
  11792  11795  11796     1   111.5100476 526.347200
  11792  11795  11803     1   110.1900474 564.840000
  11792  11791  11805     1   111.5100476 526.347200
  11792  11791  11813     1   107.9700462 569.024000
  11795  11796  11797     1   111.5100476 526.347200
  11795  11796  11802     1   110.1900474 564.840000
  11795  11792  11804     1   110.1900474 564.840000
  11796  11797  11801     1   107.9700462 569.024000
  11796  11797  11813     1   107.9700462 569.024000
  11796  11795  11803     1   110.1900474 564.840000
  11797  11796  11802     1   110.1900474 564.840000
  11801  11797  11813     1   108.2900466 608.353600
  11805  11791  11813     1   107.9700462 569.024000
  11814  11815  11818     1   111.5100476 526.347200
  11814  11815  11827     1   110.1900474 564.840000
  11814  11828  11834     1   110.1900474 564.840000
  11814  11836  11820     1   112.4800480 524.673600
  11815  11814  11828     1   111.5100476 526.347200
  11815  11814  11836     1   107.9700462 569.024000
  11815  11818  11819     1   111.5100476 526.347200
  11815  11818  11826     1   110.1900474 564.840000
  11818  11815  11827     1   110.1900474 564.840000
  11818  11819  11820     1   111.5100476 526.347200
  11818  11819  11825     1   110.1900474 564.840000
  11819  11818  11826     1   110.1900474 564.840000
  11819  11820  11824     1   107.9700462 569.024000
  11819  11820  11836     1   107.9700462 569.024000
  11820  11819  11825     1   110.1900474 564.840000
  11824  11820  11836     1   108.2900466 608.353600
  11828  11814  11836     1   107.9700462 569.024000
  11837  11838  11841     1   111.5100476 526.347200
  11837  11838  11850     1   110.1900474 564.840000
  11837  11851  11857     1   110.1900474 564.840000
  11837  11859  11843     1   112.4800480 524.673600
  11838  11841  11842     1   111.5100476 526.347200
  11838  11841  11849     1   110.1900474 564.840000
  11838  11837  11851     1   111.5100476 526.347200
  11838  11837  11859     1   107.9700462 569.024000
  11841  11842  11843     1   111.5100476 526.347200
  11841  11842  11848     1   110.1900474 564.840000
  11841  11838  11850     1   110.1900474 564.840000
  11842  11843  11847     1   107.9700462 569.024000
  11842  11843  11859     1   107.9700462 569.024000
  11842  11841  11849     1   110.1900474 564.840000
  11843  11842  11848     1   110.1900474 564.840000
  11847  11843  11859     1   108.2900466 608.353600
  11851  11837  11859     1   107.9700462 569.024000
  11860  11861  11864     1   111.5100476 526.347200
  11860  11861  11873     1   110.1900474 564.840000
  11860  11874  11880     1   110.1900474 564.840000
  11860  11882  11866     1   112.4800480 524.673600
  11861  11860  11874     1   111.5100476 526.347200
  11861  11860  11882     1   107.9700462 569.024000
  11861  11864  11865     1   111.5100476 526.347200
  11861  11864  11872     1   110.1900474 564.840000
  11864  11861  11873     1   110.1900474 564.840000
  11864  11865  11866     1   111.5100476 526.347200
  11864  11865  11871     1   110.1900474 564.840000
  11865  11864  11872     1   110.1900474 564.840000
  11865  11866  11870     1   107.9700462 569.024000
  11865  11866  11882     1   107.9700462 569.024000
  11866  11865  11871     1   110.1900474 564.840000
  11870  11866  11882     1   108.2900466 608.353600
  11874  11860  11882     1   107.9700462 569.024000
  11883  11884  11887     1   111.5100476 526.347200
  11883  11884  11896     1   110.1900474 564.840000
  11883  11897  11903     1   110.1900474 564.840000
  11883  11905  11889     1   112.4800480 524.673600
  11884  11887  11888     1   111.5100476 526.347200
  11884  11887  11895     1   110.1900474 564.840000
  11884  11883  11897     1   111.5100476 526.347200
  11884  11883  11905     1   107.9700462 569.024000
  11887  11888  11889     1   111.5100476 526.347200
  11887  11888  11894     1   110.1900474 564.840000
  11887  11884  11896     1   110.1900474 564.840000
  11888  11889  11893     1   107.9700462 569.024000
  11888  11889  11905     1   107.9700462 569.024000
  11888  11887  11895     1   110.1900474 564.840000
  11889  11888  11894     1   110.1900474 564.840000
  11893  11889  11905     1   108.2900466 608.353600
  11897  11883  11905     1   107.9700462 569.024000
  11906  11907  11910     1   111.5100476 526.347200
  11906  11907  11919     1   110.1900474 564.840000
  11906  11920  11926     1   110.1900474 564.840000
  11906  11928  11912     1   112.4800480 524.673600
  11907  11906  11920     1   111.5100476 526.347200
  11907  11906  11928     1   107.9700462 569.024000
  11907  11910  11911     1   111.5100476 526.347200
  11907  11910  11918     1   110.1900474 564.840000
  11910  11907  11919     1   110.1900474 564.840000
  11910  11911  11912     1   111.5100476 526.347200
  11910  11911  11917     1   110.1900474 564.840000
  11911  11910  11918     1   110.1900474 564.840000
  11911  11912  11916     1   107.9700462 569.024000
  11911  11912  11928     1   107.9700462 569.024000
  11912  11911  11917     1   110.1900474 564.840000
  11916  11912  11928     1   108.2900466 608.353600
  11920  11906  11928     1   107.9700462 569.024000
  11929  11930  11933     1   111.5100476 526.347200
  11929  11930  11942     1   110.1900474 564.840000
  11929  11943  11949     1   110.1900474 564.840000
  11929  11951  11935     1   112.4800480 524.673600
  11930  11933  11934     1   111.5100476 526.347200
  11930  11933  11941     1   110.1900474 564.840000
  11930  11929  11943     1   111.5100476 526.347200
  11930  11929  11951     1   107.9700462 569.024000
  11933  11934  11935     1   111.5100476 526.347200
  11933  11934  11940     1   110.1900474 564.840000
  11933  11930  11942     1   110.1900474 564.840000
  11934  11935  11939     1   107.9700462 569.024000
  11934  11935  11951     1   107.9700462 569.024000
  11934  11933  11941     1   110.1900474 564.840000
  11935  11934  11940     1   110.1900474 564.840000
  11939  11935  11951     1   108.2900466 608.353600
  11943  11929  11951     1   107.9700462 569.024000
  11952  11953  11956     1   111.5100476 526.347200
  11952  11953  11965     1   110.1900474 564.840000
  11952  11966  11972     1   110.1900474 564.840000
  11952  11974  11958     1   112.4800480 524.673600
  11953  11952  11966     1   111.5100476 526.347200
  11953  11952  11974     1   107.9700462 569.024000
  11953  11956  11957     1   111.5100476 526.347200
  11953  11956  11964     1   110.1900474 564.840000
  11956  11953  11965     1   110.1900474 564.840000
  11956  11957  11958     1   111.5100476 526.347200
  11956  11957  11963     1   110.1900474 564.840000
  11957  11956  11964     1   110.1900474 564.840000
  11957  11958  11962     1   107.9700462 569.024000
  11957  11958  11974     1   107.9700462 569.024000
  11958  11957  11963     1   110.1900474 564.840000
  11962  11958  11974     1   108.2900466 608.353600
  11966  11952  11974     1   107.9700462 569.024000
  11975  11976  11979     1   111.5100476 526.347200
  11975  11976  11988     1   110.1900474 564.840000
  11975  11989  11995     1   110.1900474 564.840000
  11975  11997  11981     1   112.4800480 524.673600
  11976  11979  11980     1   111.5100476 526.347200
  11976  11979  11987     1   110.1900474 564.840000
  11976  11975  11989     1   111.5100476 526.347200
  11976  11975  11997     1   107.9700462 569.024000
  11979  11980  11981     1   111.5100476 526.347200
  11979  11980  11986     1   110.1900474 564.840000
  11979  11976  11988     1   110.1900474 564.840000
  11980  11981  11985     1   107.9700462 569.024000
  11980  11981  11997     1   107.9700462 569.024000
  11980  11979  11987     1   110.1900474 564.840000
  11981  11980  11986     1   110.1900474 564.840000
  11985  11981  11997     1   108.2900466 608.353600
  11989  11975  11997     1   107.9700462 569.024000
  11998  11999  12002     1   111.5100476 526.347200
  11998  11999  12011     1   110.1900474 564.840000
  11998  12012  12018     1   110.1900474 564.840000
  11998  12020  12004     1   112.4800480 524.673600
  11999  11998  12012     1   111.5100476 526.347200
  11999  11998  12020     1   107.9700462 569.024000
  11999  12002  12003     1   111.5100476 526.347200
  11999  12002  12010     1   110.1900474 564.840000
  12002  11999  12011     1   110.1900474 564.840000
  12002  12003  12004     1   111.5100476 526.347200
  12002  12003  12009     1   110.1900474 564.840000
  12003  12002  12010     1   110.1900474 564.840000
  12003  12004  12008     1   107.9700462 569.024000
  12003  12004  12020     1   107.9700462 569.024000
  12004  12003  12009     1   110.1900474 564.840000
  12008  12004  12020     1   108.2900466 608.353600
  12012  11998  12020     1   107.9700462 569.024000
  12021  12022  12025     1   111.5100476 526.347200
  12021  12022  12034     1   110.1900474 564.840000
  12021  12035  12041     1   110.1900474 564.840000
  12021  12043  12027     1   112.4800480 524.673600
  12022  12025  12026     1   111.5100476 526.347200
  12022  12025  12033     1   110.1900474 564.840000
  12022  12021  12035     1   111.5100476 526.347200
  12022  12021  12043     1   107.9700462 569.024000
  12025  12026  12027     1   111.5100476 526.347200
  12025  12026  12032     1   110.1900474 564.840000
  12025  12022  12034     1   110.1900474 564.840000
  12026  12027  12031     1   107.9700462 569.024000
  12026  12027  12043     1   107.9700462 569.024000
  12026  12025  12033     1   110.1900474 564.840000
  12027  12026  12032     1   110.1900474 564.840000
  12031  12027  12043     1   108.2900466 608.353600
  12035  12021  12043     1   107.9700462 569.024000
  12044  12045  12048     1   111.5100476 526.347200
  12044  12045  12057     1   110.1900474 564.840000
  12044  12058  12064     1   110.1900474 564.840000
  12044  12066  12050     1   112.4800480 524.673600
  12045  12044  12058     1   111.5100476 526.347200
  12045  12044  12066     1   107.9700462 569.024000
  12045  12048  12049     1   111.5100476 526.347200
  12045  12048  12056     1   110.1900474 564.840000
  12048  12045  12057     1   110.1900474 564.840000
  12048  12049  12050     1   111.5100476 526.347200
  12048  12049  12055     1   110.1900474 564.840000
  12049  12048  12056     1   110.1900474 564.840000
  12049  12050  12054     1   107.9700462 569.024000
  12049  12050  12066     1   107.9700462 569.024000
  12050  12049  12055     1   110.1900474 564.840000
  12054  12050  12066     1   108.2900466 608.353600
  12058  12044  12066     1   107.9700462 569.024000
  12067  12068  12071     1   111.5100476 526.347200
  12067  12068  12080     1   110.1900474 564.840000
  12067  12081  12087     1   110.1900474 564.840000
  12067  12089  12073     1   112.4800480 524.673600
  12068  12071  12072     1   111.5100476 526.347200
  12068  12071  12079     1   110.1900474 564.840000
  12068  12067  12081     1   111.5100476 526.347200
  12068  12067  12089     1   107.9700462 569.024000
  12071  12072  12073     1   111.5100476 526.347200
  12071  12072  12078     1   110.1900474 564.840000
  12071  12068  12080     1   110.1900474 564.840000
  12072  12073  12077     1   107.9700462 569.024000
  12072  12073  12089     1   107.9700462 569.024000
  12072  12071  12079     1   110.1900474 564.840000
  12073  12072  12078     1   110.1900474 564.840000
  12077  12073  12089     1   108.2900466 608.353600
  12081  12067  12089     1   107.9700462 569.024000
  12090  12091  12094     1   111.5100476 526.347200
  12090  12091  12103     1   110.1900474 564.840000
  12090  12104  12110     1   110.1900474 564.840000
  12090  12112  12096     1   112.4800480 524.673600
  12091  12090  12104     1   111.5100476 526.347200
  12091  12090  12112     1   107.9700462 569.024000
  12091  12094  12095     1   111.5100476 526.347200
  12091  12094  12102     1   110.1900474 564.840000
  12094  12091  12103     1   110.1900474 564.840000
  12094  12095  12096     1   111.5100476 526.347200
  12094  12095  12101     1   110.1900474 564.840000
  12095  12094  12102     1   110.1900474 564.840000
  12095  12096  12100     1   107.9700462 569.024000
  12095  12096  12112     1   107.9700462 569.024000
  12096  12095  12101     1   110.1900474 564.840000
  12100  12096  12112     1   108.2900466 608.353600
  12104  12090  12112     1   107.9700462 569.024000
  12113  12114  12117     1   111.5100476 526.347200
  12113  12114  12126     1   110.1900474 564.840000
  12113  12127  12133     1   110.1900474 564.840000
  12113  12135  12119     1   112.4800480 524.673600
  12114  12117  12118     1   111.5100476 526.347200
  12114  12117  12125     1   110.1900474 564.840000
  12114  12113  12127     1   111.5100476 526.347200
  12114  12113  12135     1   107.9700462 569.024000
  12117  12118  12119     1   111.5100476 526.347200
  12117  12118  12124     1   110.1900474 564.840000
  12117  12114  12126     1   110.1900474 564.840000
  12118  12119  12123     1   107.9700462 569.024000
  12118  12119  12135     1   107.9700462 569.024000
  12118  12117  12125     1   110.1900474 564.840000
  12119  12118  12124     1   110.1900474 564.840000
  12123  12119  12135     1   108.2900466 608.353600
  12127  12113  12135     1   107.9700462 569.024000
  12136  12137  12140     1   111.5100476 526.347200
  12136  12137  12149     1   110.1900474 564.840000
  12136  12150  12156     1   110.1900474 564.840000
  12136  12158  12142     1   112.4800480 524.673600
  12137  12136  12150     1   111.5100476 526.347200
  12137  12136  12158     1   107.9700462 569.024000
  12137  12140  12141     1   111.5100476 526.347200
  12137  12140  12148     1   110.1900474 564.840000
  12140  12137  12149     1   110.1900474 564.840000
  12140  12141  12142     1   111.5100476 526.347200
  12140  12141  12147     1   110.1900474 564.840000
  12141  12140  12148     1   110.1900474 564.840000
  12141  12142  12146     1   107.9700462 569.024000
  12141  12142  12158     1   107.9700462 569.024000
  12142  12141  12147     1   110.1900474 564.840000
  12146  12142  12158     1   108.2900466 608.353600
  12150  12136  12158     1   107.9700462 569.024000
  12159  12160  12163     1   111.5100476 526.347200
  12159  12160  12172     1   110.1900474 564.840000
  12159  12173  12179     1   110.1900474 564.840000
  12159  12181  12165     1   112.4800480 524.673600
  12160  12163  12164     1   111.5100476 526.347200
  12160  12163  12171     1   110.1900474 564.840000
  12160  12159  12173     1   111.5100476 526.347200
  12160  12159  12181     1   107.9700462 569.024000
  12163  12164  12165     1   111.5100476 526.347200
  12163  12164  12170     1   110.1900474 564.840000
  12163  12160  12172     1   110.1900474 564.840000
  12164  12165  12169     1   107.9700462 569.024000
  12164  12165  12181     1   107.9700462 569.024000
  12164  12163  12171     1   110.1900474 564.840000
  12165  12164  12170     1   110.1900474 564.840000
  12169  12165  12181     1   108.2900466 608.353600
  12173  12159  12181     1   107.9700462 569.024000
  12182  12183  12186     1   111.5100476 526.347200
  12182  12183  12195     1   110.1900474 564.840000
  12182  12196  12202     1   110.1900474 564.840000
  12182  12204  12188     1   112.4800480 524.673600
  12183  12182  12196     1   111.5100476 526.347200
  12183  12182  12204     1   107.9700462 569.024000
  12183  12186  12187     1   111.5100476 526.347200
  12183  12186  12194     1   110.1900474 564.840000
  12186  12183  12195     1   110.1900474 564.840000
  12186  12187  12188     1   111.5100476 526.347200
  12186  12187  12193     1   110.1900474 564.840000
  12187  12186  12194     1   110.1900474 564.840000
  12187  12188  12192     1   107.9700462 569.024000
  12187  12188  12204     1   107.9700462 569.024000
  12188  12187  12193     1   110.1900474 564.840000
  12192  12188  12204     1   108.2900466 608.353600
  12196  12182  12204     1   107.9700462 569.024000
  12205  12206  12209     1   111.5100476 526.347200
  12205  12206  12218     1   110.1900474 564.840000
  12205  12219  12225     1   110.1900474 564.840000
  12205  12227  12211     1   112.4800480 524.673600
  12206  12209  12210     1   111.5100476 526.347200
  12206  12209  12217     1   110.1900474 564.840000
  12206  12205  12219     1   111.5100476 526.347200
  12206  12205  12227     1   107.9700462 569.024000
  12209  12210  12211     1   111.5100476 526.347200
  12209  12210  12216     1   110.1900474 564.840000
  12209  12206  12218     1   110.1900474 564.840000
  12210  12211  12215     1   107.9700462 569.024000
  12210  12211  12227     1   107.9700462 569.024000
  12210  12209  12217     1   110.1900474 564.840000
  12211  12210  12216     1   110.1900474 564.840000
  12215  12211  12227     1   108.2900466 608.353600
  12219  12205  12227     1   107.9700462 569.024000
  12228  12229  12232     1   111.5100476 526.347200
  12228  12229  12241     1   110.1900474 564.840000
  12228  12242  12248     1   110.1900474 564.840000
  12228  12250  12234     1   112.4800480 524.673600
  12229  12228  12242     1   111.5100476 526.347200
  12229  12228  12250     1   107.9700462 569.024000
  12229  12232  12233     1   111.5100476 526.347200
  12229  12232  12240     1   110.1900474 564.840000
  12232  12229  12241     1   110.1900474 564.840000
  12232  12233  12234     1   111.5100476 526.347200
  12232  12233  12239     1   110.1900474 564.840000
  12233  12232  12240     1   110.1900474 564.840000
  12233  12234  12238     1   107.9700462 569.024000
  12233  12234  12250     1   107.9700462 569.024000
  12234  12233  12239     1   110.1900474 564.840000
  12238  12234  12250     1   108.2900466 608.353600
  12242  12228  12250     1   107.9700462 569.024000
  12251  12252  12255     1   111.5100476 526.347200
  12251  12252  12264     1   110.1900474 564.840000
  12251  12265  12271     1   110.1900474 564.840000
  12251  12273  12257     1   112.4800480 524.673600
  12252  12255  12256     1   111.5100476 526.347200
  12252  12255  12263     1   110.1900474 564.840000
  12252  12251  12265     1   111.5100476 526.347200
  12252  12251  12273     1   107.9700462 569.024000
  12255  12256  12257     1   111.5100476 526.347200
  12255  12256  12262     1   110.1900474 564.840000
  12255  12252  12264     1   110.1900474 564.840000
  12256  12257  12261     1   107.9700462 569.024000
  12256  12257  12273     1   107.9700462 569.024000
  12256  12255  12263     1   110.1900474 564.840000
  12257  12256  12262     1   110.1900474 564.840000
  12261  12257  12273     1   108.2900466 608.353600
  12265  12251  12273     1   107.9700462 569.024000
  12274  12275  12278     1   111.5100476 526.347200
  12274  12275  12287     1   110.1900474 564.840000
  12274  12288  12294     1   110.1900474 564.840000
  12274  12296  12280     1   112.4800480 524.673600
  12275  12274  12288     1   111.5100476 526.347200
  12275  12274  12296     1   107.9700462 569.024000
  12275  12278  12279     1   111.5100476 526.347200
  12275  12278  12286     1   110.1900474 564.840000
  12278  12275  12287     1   110.1900474 564.840000
  12278  12279  12280     1   111.5100476 526.347200
  12278  12279  12285     1   110.1900474 564.840000
  12279  12278  12286     1   110.1900474 564.840000
  12279  12280  12284     1   107.9700462 569.024000
  12279  12280  12296     1   107.9700462 569.024000
  12280  12279  12285     1   110.1900474 564.840000
  12284  12280  12296     1   108.2900466 608.353600
  12288  12274  12296     1   107.9700462 569.024000
  12297  12298  12301     1   111.5100476 526.347200
  12297  12298  12310     1   110.1900474 564.840000
  12297  12311  12317     1   110.1900474 564.840000
  12297  12319  12303     1   112.4800480 524.673600
  12298  12301  12302     1   111.5100476 526.347200
  12298  12301  12309     1   110.1900474 564.840000
  12298  12297  12311     1   111.5100476 526.347200
  12298  12297  12319     1   107.9700462 569.024000
  12301  12302  12303     1   111.5100476 526.347200
  12301  12302  12308     1   110.1900474 564.840000
  12301  12298  12310     1   110.1900474 564.840000
  12302  12303  12307     1   107.9700462 569.024000
  12302  12303  12319     1   107.9700462 569.024000
  12302  12301  12309     1   110.1900474 564.840000
  12303  12302  12308     1   110.1900474 564.840000
  12307  12303  12319     1   108.2900466 608.353600
  12311  12297  12319     1   107.9700462 569.024000
  12320  12321  12324     1   111.5100476 526.347200
  12320  12321  12333     1   110.1900474 564.840000
  12320  12334  12340     1   110.1900474 564.840000
  12320  12342  12326     1   112.4800480 524.673600
  12321  12320  12334     1   111.5100476 526.347200
  12321  12320  12342     1   107.9700462 569.024000
  12321  12324  12325     1   111.5100476 526.347200
  12321  12324  12332     1   110.1900474 564.840000
  12324  12321  12333     1   110.1900474 564.840000
  12324  12325  12326     1   111.5100476 526.347200
  12324  12325  12331     1   110.1900474 564.840000
  12325  12324  12332     1   110.1900474 564.840000
  12325  12326  12330     1   107.9700462 569.024000
  12325  12326  12342     1   107.9700462 569.024000
  12326  12325  12331     1   110.1900474 564.840000
  12330  12326  12342     1   108.2900466 608.353600
  12334  12320  12342     1   107.9700462 569.024000
  12343  12344  12347     1   111.5100476 526.347200
  12343  12344  12356     1   110.1900474 564.840000
  12343  12357  12363     1   110.1900474 564.840000
  12343  12365  12349     1   112.4800480 524.673600
  12344  12347  12348     1   111.5100476 526.347200
  12344  12347  12355     1   110.1900474 564.840000
  12344  12343  12357     1   111.5100476 526.347200
  12344  12343  12365     1   107.9700462 569.024000
  12347  12348  12349     1   111.5100476 526.347200
  12347  12348  12354     1   110.1900474 564.840000
  12347  12344  12356     1   110.1900474 564.840000
  12348  12349  12353     1   107.9700462 569.024000
  12348  12349  12365     1   107.9700462 569.024000
  12348  12347  12355     1   110.1900474 564.840000
  12349  12348  12354     1   110.1900474 564.840000
  12353  12349  12365     1   108.2900466 608.353600
  12357  12343  12365     1   107.9700462 569.024000
  12366  12367  12370     1   111.5100476 526.347200
  12366  12367  12379     1   110.1900474 564.840000
  12366  12380  12386     1   110.1900474 564.840000
  12366  12388  12372     1   112.4800480 524.673600
  12367  12366  12380     1   111.5100476 526.347200
  12367  12366  12388     1   107.9700462 569.024000
  12367  12370  12371     1   111.5100476 526.347200
  12367  12370  12378     1   110.1900474 564.840000
  12370  12367  12379     1   110.1900474 564.840000
  12370  12371  12372     1   111.5100476 526.347200
  12370  12371  12377     1   110.1900474 564.840000
  12371  12370  12378     1   110.1900474 564.840000
  12371  12372  12376     1   107.9700462 569.024000
  12371  12372  12388     1   107.9700462 569.024000
  12372  12371  12377     1   110.1900474 564.840000
  12376  12372  12388     1   108.2900466 608.353600
  12380  12366  12388     1   107.9700462 569.024000
  12389  12390  12393     1   111.5100476 526.347200
  12389  12390  12402     1   110.1900474 564.840000
  12389  12403  12409     1   110.1900474 564.840000
  12389  12411  12395     1   112.4800480 524.673600
  12390  12393  12394     1   111.5100476 526.347200
  12390  12393  12401     1   110.1900474 564.840000
  12390  12389  12403     1   111.5100476 526.347200
  12390  12389  12411     1   107.9700462 569.024000
  12393  12394  12395     1   111.5100476 526.347200
  12393  12394  12400     1   110.1900474 564.840000
  12393  12390  12402     1   110.1900474 564.840000
  12394  12395  12399     1   107.9700462 569.024000
  12394  12395  12411     1   107.9700462 569.024000
  12394  12393  12401     1   110.1900474 564.840000
  12395  12394  12400     1   110.1900474 564.840000
  12399  12395  12411     1   108.2900466 608.353600
  12403  12389  12411     1   107.9700462 569.024000
  12412  12413  12416     1   111.5100476 526.347200
  12412  12413  12425     1   110.1900474 564.840000
  12412  12426  12432     1   110.1900474 564.840000
  12412  12434  12418     1   112.4800480 524.673600
  12413  12412  12426     1   111.5100476 526.347200
  12413  12412  12434     1   107.9700462 569.024000
  12413  12416  12417     1   111.5100476 526.347200
  12413  12416  12424     1   110.1900474 564.840000
  12416  12413  12425     1   110.1900474 564.840000
  12416  12417  12418     1   111.5100476 526.347200
  12416  12417  12423     1   110.1900474 564.840000
  12417  12416  12424     1   110.1900474 564.840000
  12417  12418  12422     1   107.9700462 569.024000
  12417  12418  12434     1   107.9700462 569.024000
  12418  12417  12423     1   110.1900474 564.840000
  12422  12418  12434     1   108.2900466 608.353600
  12426  12412  12434     1   107.9700462 569.024000
  12435  12436  12439     1   111.5100476 526.347200
  12435  12436  12448     1   110.1900474 564.840000
  12435  12449  12455     1   110.1900474 564.840000
  12435  12457  12441     1   112.4800480 524.673600
  12436  12439  12440     1   111.5100476 526.347200
  12436  12439  12447     1   110.1900474 564.840000
  12436  12435  12449     1   111.5100476 526.347200
  12436  12435  12457     1   107.9700462 569.024000
  12439  12440  12441     1   111.5100476 526.347200
  12439  12440  12446     1   110.1900474 564.840000
  12439  12436  12448     1   110.1900474 564.840000
  12440  12441  12445     1   107.9700462 569.024000
  12440  12441  12457     1   107.9700462 569.024000
  12440  12439  12447     1   110.1900474 564.840000
  12441  12440  12446     1   110.1900474 564.840000
  12445  12441  12457     1   108.2900466 608.353600
  12449  12435  12457     1   107.9700462 569.024000
  12458  12459  12462     1   111.5100476 526.347200
  12458  12459  12471     1   110.1900474 564.840000
  12458  12472  12478     1   110.1900474 564.840000
  12458  12480  12464     1   112.4800480 524.673600
  12459  12458  12472     1   111.5100476 526.347200
  12459  12458  12480     1   107.9700462 569.024000
  12459  12462  12463     1   111.5100476 526.347200
  12459  12462  12470     1   110.1900474 564.840000
  12462  12459  12471     1   110.1900474 564.840000
  12462  12463  12464     1   111.5100476 526.347200
  12462  12463  12469     1   110.1900474 564.840000
  12463  12462  12470     1   110.1900474 564.840000
  12463  12464  12468     1   107.9700462 569.024000
  12463  12464  12480     1   107.9700462 569.024000
  12464  12463  12469     1   110.1900474 564.840000
  12468  12464  12480     1   108.2900466 608.353600
  12472  12458  12480     1   107.9700462 569.024000
  12481  12482  12485     1   111.5100476 526.347200
  12481  12482  12494     1   110.1900474 564.840000
  12481  12495  12501     1   110.1900474 564.840000
  12481  12503  12487     1   112.4800480 524.673600
  12482  12485  12486     1   111.5100476 526.347200
  12482  12485  12493     1   110.1900474 564.840000
  12482  12481  12495     1   111.5100476 526.347200
  12482  12481  12503     1   107.9700462 569.024000
  12485  12486  12487     1   111.5100476 526.347200
  12485  12486  12492     1   110.1900474 564.840000
  12485  12482  12494     1   110.1900474 564.840000
  12486  12487  12491     1   107.9700462 569.024000
  12486  12487  12503     1   107.9700462 569.024000
  12486  12485  12493     1   110.1900474 564.840000
  12487  12486  12492     1   110.1900474 564.840000
  12491  12487  12503     1   108.2900466 608.353600
  12495  12481  12503     1   107.9700462 569.024000
  12504  12505  12508     1   111.5100476 526.347200
  12504  12505  12517     1   110.1900474 564.840000
  12504  12518  12524     1   110.1900474 564.840000
  12504  12526  12510     1   112.4800480 524.673600
  12505  12504  12518     1   111.5100476 526.347200
  12505  12504  12526     1   107.9700462 569.024000
  12505  12508  12509     1   111.5100476 526.347200
  12505  12508  12516     1   110.1900474 564.840000
  12508  12505  12517     1   110.1900474 564.840000
  12508  12509  12510     1   111.5100476 526.347200
  12508  12509  12515     1   110.1900474 564.840000
  12509  12508  12516     1   110.1900474 564.840000
  12509  12510  12514     1   107.9700462 569.024000
  12509  12510  12526     1   107.9700462 569.024000
  12510  12509  12515     1   110.1900474 564.840000
  12514  12510  12526     1   108.2900466 608.353600
  12518  12504  12526     1   107.9700462 569.024000
  12527  12528  12531     1   111.5100476 526.347200
  12527  12528  12540     1   110.1900474 564.840000
  12527  12541  12547     1   110.1900474 564.840000
  12527  12549  12533     1   112.4800480 524.673600
  12528  12531  12532     1   111.5100476 526.347200
  12528  12531  12539     1   110.1900474 564.840000
  12528  12527  12541     1   111.5100476 526.347200
  12528  12527  12549     1   107.9700462 569.024000
  12531  12532  12533     1   111.5100476 526.347200
  12531  12532  12538     1   110.1900474 564.840000
  12531  12528  12540     1   110.1900474 564.840000
  12532  12533  12537     1   107.9700462 569.024000
  12532  12533  12549     1   107.9700462 569.024000
  12532  12531  12539     1   110.1900474 564.840000
  12533  12532  12538     1   110.1900474 564.840000
  12537  12533  12549     1   108.2900466 608.353600
  12541  12527  12549     1   107.9700462 569.024000
  12550  12551  12554     1   111.5100476 526.347200
  12550  12551  12563     1   110.1900474 564.840000
  12550  12564  12570     1   110.1900474 564.840000
  12550  12572  12556     1   112.4800480 524.673600
  12551  12550  12564     1   111.5100476 526.347200
  12551  12550  12572     1   107.9700462 569.024000
  12551  12554  12555     1   111.5100476 526.347200
  12551  12554  12562     1   110.1900474 564.840000
  12554  12551  12563     1   110.1900474 564.840000
  12554  12555  12556     1   111.5100476 526.347200
  12554  12555  12561     1   110.1900474 564.840000
  12555  12554  12562     1   110.1900474 564.840000
  12555  12556  12560     1   107.9700462 569.024000
  12555  12556  12572     1   107.9700462 569.024000
  12556  12555  12561     1   110.1900474 564.840000
  12560  12556  12572     1   108.2900466 608.353600
  12564  12550  12572     1   107.9700462 569.024000
  12573  12574  12577     1   111.5100476 526.347200
  12573  12574  12586     1   110.1900474 564.840000
  12573  12587  12593     1   110.1900474 564.840000
  12573  12595  12579     1   112.4800480 524.673600
  12574  12577  12578     1   111.5100476 526.347200
  12574  12577  12585     1   110.1900474 564.840000
  12574  12573  12587     1   111.5100476 526.347200
  12574  12573  12595     1   107.9700462 569.024000
  12577  12578  12579     1   111.5100476 526.347200
  12577  12578  12584     1   110.1900474 564.840000
  12577  12574  12586     1   110.1900474 564.840000
  12578  12579  12583     1   107.9700462 569.024000
  12578  12579  12595     1   107.9700462 569.024000
  12578  12577  12585     1   110.1900474 564.840000
  12579  12578  12584     1   110.1900474 564.840000
  12583  12579  12595     1   108.2900466 608.353600
  12587  12573  12595     1   107.9700462 569.024000
  12596  12597  12600     1   111.5100476 526.347200
  12596  12597  12609     1   110.1900474 564.840000
  12596  12610  12616     1   110.1900474 564.840000
  12596  12618  12602     1   112.4800480 524.673600
  12597  12596  12610     1   111.5100476 526.347200
  12597  12596  12618     1   107.9700462 569.024000
  12597  12600  12601     1   111.5100476 526.347200
  12597  12600  12608     1   110.1900474 564.840000
  12600  12597  12609     1   110.1900474 564.840000
  12600  12601  12602     1   111.5100476 526.347200
  12600  12601  12607     1   110.1900474 564.840000
  12601  12600  12608     1   110.1900474 564.840000
  12601  12602  12606     1   107.9700462 569.024000
  12601  12602  12618     1   107.9700462 569.024000
  12602  12601  12607     1   110.1900474 564.840000
  12606  12602  12618     1   108.2900466 608.353600
  12610  12596  12618     1   107.9700462 569.024000
  12619  12620  12623     1   111.5100476 526.347200
  12619  12620  12632     1   110.1900474 564.840000
  12619  12633  12639     1   110.1900474 564.840000
  12619  12641  12625     1   112.4800480 524.673600
  12620  12623  12624     1   111.5100476 526.347200
  12620  12623  12631     1   110.1900474 564.840000
  12620  12619  12633     1   111.5100476 526.347200
  12620  12619  12641     1   107.9700462 569.024000
  12623  12624  12625     1   111.5100476 526.347200
  12623  12624  12630     1   110.1900474 564.840000
  12623  12620  12632     1   110.1900474 564.840000
  12624  12625  12629     1   107.9700462 569.024000
  12624  12625  12641     1   107.9700462 569.024000
  12624  12623  12631     1   110.1900474 564.840000
  12625  12624  12630     1   110.1900474 564.840000
  12629  12625  12641     1   108.2900466 608.353600
  12633  12619  12641     1   107.9700462 569.024000
  12642  12643  12646     1   111.5100476 526.347200
  12642  12643  12655     1   110.1900474 564.840000
  12642  12656  12662     1   110.1900474 564.840000
  12642  12664  12648     1   112.4800480 524.673600
  12643  12642  12656     1   111.5100476 526.347200
  12643  12642  12664     1   107.9700462 569.024000
  12643  12646  12647     1   111.5100476 526.347200
  12643  12646  12654     1   110.1900474 564.840000
  12646  12643  12655     1   110.1900474 564.840000
  12646  12647  12648     1   111.5100476 526.347200
  12646  12647  12653     1   110.1900474 564.840000
  12647  12646  12654     1   110.1900474 564.840000
  12647  12648  12652     1   107.9700462 569.024000
  12647  12648  12664     1   107.9700462 569.024000
  12648  12647  12653     1   110.1900474 564.840000
  12652  12648  12664     1   108.2900466 608.353600
  12656  12642  12664     1   107.9700462 569.024000
  12665  12666  12669     1   111.5100476 526.347200
  12665  12666  12678     1   110.1900474 564.840000
  12665  12679  12685     1   110.1900474 564.840000
  12665  12687  12671     1   112.4800480 524.673600
  12666  12669  12670     1   111.5100476 526.347200
  12666  12669  12677     1   110.1900474 564.840000
  12666  12665  12679     1   111.5100476 526.347200
  12666  12665  12687     1   107.9700462 569.024000
  12669  12670  12671     1   111.5100476 526.347200
  12669  12670  12676     1   110.1900474 564.840000
  12669  12666  12678     1   110.1900474 564.840000
  12670  12671  12675     1   107.9700462 569.024000
  12670  12671  12687     1   107.9700462 569.024000
  12670  12669  12677     1   110.1900474 564.840000
  12671  12670  12676     1   110.1900474 564.840000
  12675  12671  12687     1   108.2900466 608.353600
  12679  12665  12687     1   107.9700462 569.024000
  12688  12689  12692     1   111.5100476 526.347200
  12688  12689  12701     1   110.1900474 564.840000
  12688  12702  12708     1   110.1900474 564.840000
  12688  12710  12694     1   112.4800480 524.673600
  12689  12688  12702     1   111.5100476 526.347200
  12689  12688  12710     1   107.9700462 569.024000
  12689  12692  12693     1   111.5100476 526.347200
  12689  12692  12700     1   110.1900474 564.840000
  12692  12689  12701     1   110.1900474 564.840000
  12692  12693  12694     1   111.5100476 526.347200
  12692  12693  12699     1   110.1900474 564.840000
  12693  12692  12700     1   110.1900474 564.840000
  12693  12694  12698     1   107.9700462 569.024000
  12693  12694  12710     1   107.9700462 569.024000
  12694  12693  12699     1   110.1900474 564.840000
  12698  12694  12710     1   108.2900466 608.353600
  12702  12688  12710     1   107.9700462 569.024000
  12711  12712  12715     1   111.5100476 526.347200
  12711  12712  12724     1   110.1900474 564.840000
  12711  12725  12731     1   110.1900474 564.840000
  12711  12733  12717     1   112.4800480 524.673600
  12712  12715  12716     1   111.5100476 526.347200
  12712  12715  12723     1   110.1900474 564.840000
  12712  12711  12725     1   111.5100476 526.347200
  12712  12711  12733     1   107.9700462 569.024000
  12715  12716  12717     1   111.5100476 526.347200
  12715  12716  12722     1   110.1900474 564.840000
  12715  12712  12724     1   110.1900474 564.840000
  12716  12717  12721     1   107.9700462 569.024000
  12716  12717  12733     1   107.9700462 569.024000
  12716  12715  12723     1   110.1900474 564.840000
  12717  12716  12722     1   110.1900474 564.840000
  12721  12717  12733     1   108.2900466 608.353600
  12725  12711  12733     1   107.9700462 569.024000
  12734  12735  12738     1   111.5100476 526.347200
  12734  12735  12747     1   110.1900474 564.840000
  12734  12748  12754     1   110.1900474 564.840000
  12734  12756  12740     1   112.4800480 524.673600
  12735  12734  12748     1   111.5100476 526.347200
  12735  12734  12756     1   107.9700462 569.024000
  12735  12738  12739     1   111.5100476 526.347200
  12735  12738  12746     1   110.1900474 564.840000
  12738  12735  12747     1   110.1900474 564.840000
  12738  12739  12740     1   111.5100476 526.347200
  12738  12739  12745     1   110.1900474 564.840000
  12739  12738  12746     1   110.1900474 564.840000
  12739  12740  12744     1   107.9700462 569.024000
  12739  12740  12756     1   107.9700462 569.024000
  12740  12739  12745     1   110.1900474 564.840000
  12744  12740  12756     1   108.2900466 608.353600
  12748  12734  12756     1   107.9700462 569.024000
  12757  12758  12761     1   111.5100476 526.347200
  12757  12758  12770     1   110.1900474 564.840000
  12757  12771  12777     1   110.1900474 564.840000
  12757  12779  12763     1   112.4800480 524.673600
  12758  12761  12762     1   111.5100476 526.347200
  12758  12761  12769     1   110.1900474 564.840000
  12758  12757  12771     1   111.5100476 526.347200
  12758  12757  12779     1   107.9700462 569.024000
  12761  12762  12763     1   111.5100476 526.347200
  12761  12762  12768     1   110.1900474 564.840000
  12761  12758  12770     1   110.1900474 564.840000
  12762  12763  12767     1   107.9700462 569.024000
  12762  12763  12779     1   107.9700462 569.024000
  12762  12761  12769     1   110.1900474 564.840000
  12763  12762  12768     1   110.1900474 564.840000
  12767  12763  12779     1   108.2900466 608.353600
  12771  12757  12779     1   107.9700462 569.024000
  12780  12781  12784     1   111.5100476 526.347200
  12780  12781  12793     1   110.1900474 564.840000
  12780  12794  12800     1   110.1900474 564.840000
  12780  12802  12786     1   112.4800480 524.673600
  12781  12780  12794     1   111.5100476 526.347200
  12781  12780  12802     1   107.9700462 569.024000
  12781  12784  12785     1   111.5100476 526.347200
  12781  12784  12792     1   110.1900474 564.840000
  12784  12781  12793     1   110.1900474 564.840000
  12784  12785  12786     1   111.5100476 526.347200
  12784  12785  12791     1   110.1900474 564.840000
  12785  12784  12792     1   110.1900474 564.840000
  12785  12786  12790     1   107.9700462 569.024000
  12785  12786  12802     1   107.9700462 569.024000
  12786  12785  12791     1   110.1900474 564.840000
  12790  12786  12802     1   108.2900466 608.353600
  12794  12780  12802     1   107.9700462 569.024000
  12803  12804  12807     1   111.5100476 526.347200
  12803  12804  12816     1   110.1900474 564.840000
  12803  12817  12823     1   110.1900474 564.840000
  12803  12825  12809     1   112.4800480 524.673600
  12804  12807  12808     1   111.5100476 526.347200
  12804  12807  12815     1   110.1900474 564.840000
  12804  12803  12817     1   111.5100476 526.347200
  12804  12803  12825     1   107.9700462 569.024000
  12807  12808  12809     1   111.5100476 526.347200
  12807  12808  12814     1   110.1900474 564.840000
  12807  12804  12816     1   110.1900474 564.840000
  12808  12809  12813     1   107.9700462 569.024000
  12808  12809  12825     1   107.9700462 569.024000
  12808  12807  12815     1   110.1900474 564.840000
  12809  12808  12814     1   110.1900474 564.840000
  12813  12809  12825     1   108.2900466 608.353600
  12817  12803  12825     1   107.9700462 569.024000
  12826  12827  12830     1   111.5100476 526.347200
  12826  12827  12839     1   110.1900474 564.840000
  12826  12840  12846     1   110.1900474 564.840000
  12826  12848  12832     1   112.4800480 524.673600
  12827  12826  12840     1   111.5100476 526.347200
  12827  12826  12848     1   107.9700462 569.024000
  12827  12830  12831     1   111.5100476 526.347200
  12827  12830  12838     1   110.1900474 564.840000
  12830  12827  12839     1   110.1900474 564.840000
  12830  12831  12832     1   111.5100476 526.347200
  12830  12831  12837     1   110.1900474 564.840000
  12831  12830  12838     1   110.1900474 564.840000
  12831  12832  12836     1   107.9700462 569.024000
  12831  12832  12848     1   107.9700462 569.024000
  12832  12831  12837     1   110.1900474 564.840000
  12836  12832  12848     1   108.2900466 608.353600
  12840  12826  12848     1   107.9700462 569.024000
  12849  12850  12853     1   111.5100476 526.347200
  12849  12850  12862     1   110.1900474 564.840000
  12849  12863  12869     1   110.1900474 564.840000
  12849  12871  12855     1   112.4800480 524.673600
  12850  12853  12854     1   111.5100476 526.347200
  12850  12853  12861     1   110.1900474 564.840000
  12850  12849  12863     1   111.5100476 526.347200
  12850  12849  12871     1   107.9700462 569.024000
  12853  12854  12855     1   111.5100476 526.347200
  12853  12854  12860     1   110.1900474 564.840000
  12853  12850  12862     1   110.1900474 564.840000
  12854  12855  12859     1   107.9700462 569.024000
  12854  12855  12871     1   107.9700462 569.024000
  12854  12853  12861     1   110.1900474 564.840000
  12855  12854  12860     1   110.1900474 564.840000
  12859  12855  12871     1   108.2900466 608.353600
  12863  12849  12871     1   107.9700462 569.024000
  12872  12873  12876     1   111.5100476 526.347200
  12872  12873  12885     1   110.1900474 564.840000
  12872  12886  12892     1   110.1900474 564.840000
  12872  12894  12878     1   112.4800480 524.673600
  12873  12872  12886     1   111.5100476 526.347200
  12873  12872  12894     1   107.9700462 569.024000
  12873  12876  12877     1   111.5100476 526.347200
  12873  12876  12884     1   110.1900474 564.840000
  12876  12873  12885     1   110.1900474 564.840000
  12876  12877  12878     1   111.5100476 526.347200
  12876  12877  12883     1   110.1900474 564.840000
  12877  12876  12884     1   110.1900474 564.840000
  12877  12878  12882     1   107.9700462 569.024000
  12877  12878  12894     1   107.9700462 569.024000
  12878  12877  12883     1   110.1900474 564.840000
  12882  12878  12894     1   108.2900466 608.353600
  12886  12872  12894     1   107.9700462 569.024000
  12895  12896  12899     1   111.5100476 526.347200
  12895  12896  12908     1   110.1900474 564.840000
  12895  12909  12915     1   110.1900474 564.840000
  12895  12917  12901     1   112.4800480 524.673600
  12896  12899  12900     1   111.5100476 526.347200
  12896  12899  12907     1   110.1900474 564.840000
  12896  12895  12909     1   111.5100476 526.347200
  12896  12895  12917     1   107.9700462 569.024000
  12899  12900  12901     1   111.5100476 526.347200
  12899  12900  12906     1   110.1900474 564.840000
  12899  12896  12908     1   110.1900474 564.840000
  12900  12901  12905     1   107.9700462 569.024000
  12900  12901  12917     1   107.9700462 569.024000
  12900  12899  12907     1   110.1900474 564.840000
  12901  12900  12906     1   110.1900474 564.840000
  12905  12901  12917     1   108.2900466 608.353600
  12909  12895  12917     1   107.9700462 569.024000
  12918  12919  12922     1   111.5100476 526.347200
  12918  12919  12931     1   110.1900474 564.840000
  12918  12932  12938     1   110.1900474 564.840000
  12918  12940  12924     1   112.4800480 524.673600
  12919  12918  12932     1   111.5100476 526.347200
  12919  12918  12940     1   107.9700462 569.024000
  12919  12922  12923     1   111.5100476 526.347200
  12919  12922  12930     1   110.1900474 564.840000
  12922  12919  12931     1   110.1900474 564.840000
  12922  12923  12924     1   111.5100476 526.347200
  12922  12923  12929     1   110.1900474 564.840000
  12923  12922  12930     1   110.1900474 564.840000
  12923  12924  12928     1   107.9700462 569.024000
  12923  12924  12940     1   107.9700462 569.024000
  12924  12923  12929     1   110.1900474 564.840000
  12928  12924  12940     1   108.2900466 608.353600
  12932  12918  12940     1   107.9700462 569.024000
  12941  12942  12945     1   111.5100476 526.347200
  12941  12942  12954     1   110.1900474 564.840000
  12941  12955  12961     1   110.1900474 564.840000
  12941  12963  12947     1   112.4800480 524.673600
  12942  12945  12946     1   111.5100476 526.347200
  12942  12945  12953     1   110.1900474 564.840000
  12942  12941  12955     1   111.5100476 526.347200
  12942  12941  12963     1   107.9700462 569.024000
  12945  12946  12947     1   111.5100476 526.347200
  12945  12946  12952     1   110.1900474 564.840000
  12945  12942  12954     1   110.1900474 564.840000
  12946  12947  12951     1   107.9700462 569.024000
  12946  12947  12963     1   107.9700462 569.024000
  12946  12945  12953     1   110.1900474 564.840000
  12947  12946  12952     1   110.1900474 564.840000
  12951  12947  12963     1   108.2900466 608.353600
  12955  12941  12963     1   107.9700462 569.024000
  12964  12965  12968     1   111.5100476 526.347200
  12964  12965  12977     1   110.1900474 564.840000
  12964  12978  12984     1   110.1900474 564.840000
  12964  12986  12970     1   112.4800480 524.673600
  12965  12964  12978     1   111.5100476 526.347200
  12965  12964  12986     1   107.9700462 569.024000
  12965  12968  12969     1   111.5100476 526.347200
  12965  12968  12976     1   110.1900474 564.840000
  12968  12965  12977     1   110.1900474 564.840000
  12968  12969  12970     1   111.5100476 526.347200
  12968  12969  12975     1   110.1900474 564.840000
  12969  12968  12976     1   110.1900474 564.840000
  12969  12970  12974     1   107.9700462 569.024000
  12969  12970  12986     1   107.9700462 569.024000
  12970  12969  12975     1   110.1900474 564.840000
  12974  12970  12986     1   108.2900466 608.353600
  12978  12964  12986     1   107.9700462 569.024000
  12987  12988  12991     1   111.5100476 526.347200
  12987  12988  13000     1   110.1900474 564.840000
  12987  13001  13007     1   110.1900474 564.840000
  12987  13009  12993     1   112.4800480 524.673600
  12988  12991  12992     1   111.5100476 526.347200
  12988  12991  12999     1   110.1900474 564.840000
  12988  12987  13001     1   111.5100476 526.347200
  12988  12987  13009     1   107.9700462 569.024000
  12991  12992  12993     1   111.5100476 526.347200
  12991  12992  12998     1   110.1900474 564.840000
  12991  12988  13000     1   110.1900474 564.840000
  12992  12993  12997     1   107.9700462 569.024000
  12992  12993  13009     1   107.9700462 569.024000
  12992  12991  12999     1   110.1900474 564.840000
  12993  12992  12998     1   110.1900474 564.840000
  12997  12993  13009     1   108.2900466 608.353600
  13001  12987  13009     1   107.9700462 569.024000
  13010  13011  13014     1   111.5100476 526.347200
  13010  13011  13023     1   110.1900474 564.840000
  13010  13024  13030     1   110.1900474 564.840000
  13010  13032  13016     1   112.4800480 524.673600
  13011  13010  13024     1   111.5100476 526.347200
  13011  13010  13032     1   107.9700462 569.024000
  13011  13014  13015     1   111.5100476 526.347200
  13011  13014  13022     1   110.1900474 564.840000
  13014  13011  13023     1   110.1900474 564.840000
  13014  13015  13016     1   111.5100476 526.347200
  13014  13015  13021     1   110.1900474 564.840000
  13015  13014  13022     1   110.1900474 564.840000
  13015  13016  13020     1   107.9700462 569.024000
  13015  13016  13032     1   107.9700462 569.024000
  13016  13015  13021     1   110.1900474 564.840000
  13020  13016  13032     1   108.2900466 608.353600
  13024  13010  13032     1   107.9700462 569.024000
  13033  13034  13037     1   111.5100476 526.347200
  13033  13034  13046     1   110.1900474 564.840000
  13033  13047  13053     1   110.1900474 564.840000
  13033  13055  13039     1   112.4800480 524.673600
  13034  13037  13038     1   111.5100476 526.347200
  13034  13037  13045     1   110.1900474 564.840000
  13034  13033  13047     1   111.5100476 526.347200
  13034  13033  13055     1   107.9700462 569.024000
  13037  13038  13039     1   111.5100476 526.347200
  13037  13038  13044     1   110.1900474 564.840000
  13037  13034  13046     1   110.1900474 564.840000
  13038  13039  13043     1   107.9700462 569.024000
  13038  13039  13055     1   107.9700462 569.024000
  13038  13037  13045     1   110.1900474 564.840000
  13039  13038  13044     1   110.1900474 564.840000
  13043  13039  13055     1   108.2900466 608.353600
  13047  13033  13055     1   107.9700462 569.024000
  13056  13057  13060     1   111.5100476 526.347200
  13056  13057  13069     1   110.1900474 564.840000
  13056  13070  13076     1   110.1900474 564.840000
  13056  13078  13062     1   112.4800480 524.673600
  13057  13056  13070     1   111.5100476 526.347200
  13057  13056  13078     1   107.9700462 569.024000
  13057  13060  13061     1   111.5100476 526.347200
  13057  13060  13068     1   110.1900474 564.840000
  13060  13057  13069     1   110.1900474 564.840000
  13060  13061  13062     1   111.5100476 526.347200
  13060  13061  13067     1   110.1900474 564.840000
  13061  13060  13068     1   110.1900474 564.840000
  13061  13062  13066     1   107.9700462 569.024000
  13061  13062  13078     1   107.9700462 569.024000
  13062  13061  13067     1   110.1900474 564.840000
  13066  13062  13078     1   108.2900466 608.353600
  13070  13056  13078     1   107.9700462 569.024000
  13079  13080  13083     1   111.5100476 526.347200
  13079  13080  13092     1   110.1900474 564.840000
  13079  13093  13099     1   110.1900474 564.840000
  13079  13101  13085     1   112.4800480 524.673600
  13080  13083  13084     1   111.5100476 526.347200
  13080  13083  13091     1   110.1900474 564.840000
  13080  13079  13093     1   111.5100476 526.347200
  13080  13079  13101     1   107.9700462 569.024000
  13083  13084  13085     1   111.5100476 526.347200
  13083  13084  13090     1   110.1900474 564.840000
  13083  13080  13092     1   110.1900474 564.840000
  13084  13085  13089     1   107.9700462 569.024000
  13084  13085  13101     1   107.9700462 569.024000
  13084  13083  13091     1   110.1900474 564.840000
  13085  13084  13090     1   110.1900474 564.840000
  13089  13085  13101     1   108.2900466 608.353600
  13093  13079  13101     1   107.9700462 569.024000
  13102  13103  13106     1   111.5100476 526.347200
  13102  13103  13115     1   110.1900474 564.840000
  13102  13116  13122     1   110.1900474 564.840000
  13102  13124  13108     1   112.4800480 524.673600
  13103  13102  13116     1   111.5100476 526.347200
  13103  13102  13124     1   107.9700462 569.024000
  13103  13106  13107     1   111.5100476 526.347200
  13103  13106  13114     1   110.1900474 564.840000
  13106  13103  13115     1   110.1900474 564.840000
  13106  13107  13108     1   111.5100476 526.347200
  13106  13107  13113     1   110.1900474 564.840000
  13107  13106  13114     1   110.1900474 564.840000
  13107  13108  13112     1   107.9700462 569.024000
  13107  13108  13124     1   107.9700462 569.024000
  13108  13107  13113     1   110.1900474 564.840000
  13112  13108  13124     1   108.2900466 608.353600
  13116  13102  13124     1   107.9700462 569.024000
  13125  13126  13129     1   111.5100476 526.347200
  13125  13126  13138     1   110.1900474 564.840000
  13125  13139  13145     1   110.1900474 564.840000
  13125  13147  13131     1   112.4800480 524.673600
  13126  13129  13130     1   111.5100476 526.347200
  13126  13129  13137     1   110.1900474 564.840000
  13126  13125  13139     1   111.5100476 526.347200
  13126  13125  13147     1   107.9700462 569.024000
  13129  13130  13131     1   111.5100476 526.347200
  13129  13130  13136     1   110.1900474 564.840000
  13129  13126  13138     1   110.1900474 564.840000
  13130  13131  13135     1   107.9700462 569.024000
  13130  13131  13147     1   107.9700462 569.024000
  13130  13129  13137     1   110.1900474 564.840000
  13131  13130  13136     1   110.1900474 564.840000
  13135  13131  13147     1   108.2900466 608.353600
  13139  13125  13147     1   107.9700462 569.024000
  13148  13149  13152     1   111.5100476 526.347200
  13148  13149  13161     1   110.1900474 564.840000
  13148  13162  13168     1   110.1900474 564.840000
  13148  13170  13154     1   112.4800480 524.673600
  13149  13148  13162     1   111.5100476 526.347200
  13149  13148  13170     1   107.9700462 569.024000
  13149  13152  13153     1   111.5100476 526.347200
  13149  13152  13160     1   110.1900474 564.840000
  13152  13149  13161     1   110.1900474 564.840000
  13152  13153  13154     1   111.5100476 526.347200
  13152  13153  13159     1   110.1900474 564.840000
  13153  13152  13160     1   110.1900474 564.840000
  13153  13154  13158     1   107.9700462 569.024000
  13153  13154  13170     1   107.9700462 569.024000
  13154  13153  13159     1   110.1900474 564.840000
  13158  13154  13170     1   108.2900466 608.353600
  13162  13148  13170     1   107.9700462 569.024000
  13171  13172  13175     1   111.5100476 526.347200
  13171  13172  13184     1   110.1900474 564.840000
  13171  13185  13191     1   110.1900474 564.840000
  13171  13193  13177     1   112.4800480 524.673600
  13172  13175  13176     1   111.5100476 526.347200
  13172  13175  13183     1   110.1900474 564.840000
  13172  13171  13185     1   111.5100476 526.347200
  13172  13171  13193     1   107.9700462 569.024000
  13175  13176  13177     1   111.5100476 526.347200
  13175  13176  13182     1   110.1900474 564.840000
  13175  13172  13184     1   110.1900474 564.840000
  13176  13177  13181     1   107.9700462 569.024000
  13176  13177  13193     1   107.9700462 569.024000
  13176  13175  13183     1   110.1900474 564.840000
  13177  13176  13182     1   110.1900474 564.840000
  13181  13177  13193     1   108.2900466 608.353600
  13185  13171  13193     1   107.9700462 569.024000
  13194  13195  13198     1   111.5100476 526.347200
  13194  13195  13207     1   110.1900474 564.840000
  13194  13208  13214     1   110.1900474 564.840000
  13194  13216  13200     1   112.4800480 524.673600
  13195  13194  13208     1   111.5100476 526.347200
  13195  13194  13216     1   107.9700462 569.024000
  13195  13198  13199     1   111.5100476 526.347200
  13195  13198  13206     1   110.1900474 564.840000
  13198  13195  13207     1   110.1900474 564.840000
  13198  13199  13200     1   111.5100476 526.347200
  13198  13199  13205     1   110.1900474 564.840000
  13199  13198  13206     1   110.1900474 564.840000
  13199  13200  13204     1   107.9700462 569.024000
  13199  13200  13216     1   107.9700462 569.024000
  13200  13199  13205     1   110.1900474 564.840000
  13204  13200  13216     1   108.2900466 608.353600
  13208  13194  13216     1   107.9700462 569.024000
  13217  13218  13221     1   111.5100476 526.347200
  13217  13218  13230     1   110.1900474 564.840000
  13217  13231  13237     1   110.1900474 564.840000
  13217  13239  13223     1   112.4800480 524.673600
  13218  13221  13222     1   111.5100476 526.347200
  13218  13221  13229     1   110.1900474 564.840000
  13218  13217  13231     1   111.5100476 526.347200
  13218  13217  13239     1   107.9700462 569.024000
  13221  13222  13223     1   111.5100476 526.347200
  13221  13222  13228     1   110.1900474 564.840000
  13221  13218  13230     1   110.1900474 564.840000
  13222  13223  13227     1   107.9700462 569.024000
  13222  13223  13239     1   107.9700462 569.024000
  13222  13221  13229     1   110.1900474 564.840000
  13223  13222  13228     1   110.1900474 564.840000
  13227  13223  13239     1   108.2900466 608.353600
  13231  13217  13239     1   107.9700462 569.024000
  13240  13241  13244     1   111.5100476 526.347200
  13240  13241  13253     1   110.1900474 564.840000
  13240  13254  13260     1   110.1900474 564.840000
  13240  13262  13246     1   112.4800480 524.673600
  13241  13240  13254     1   111.5100476 526.347200
  13241  13240  13262     1   107.9700462 569.024000
  13241  13244  13245     1   111.5100476 526.347200
  13241  13244  13252     1   110.1900474 564.840000
  13244  13241  13253     1   110.1900474 564.840000
  13244  13245  13246     1   111.5100476 526.347200
  13244  13245  13251     1   110.1900474 564.840000
  13245  13244  13252     1   110.1900474 564.840000
  13245  13246  13250     1   107.9700462 569.024000
  13245  13246  13262     1   107.9700462 569.024000
  13246  13245  13251     1   110.1900474 564.840000
  13250  13246  13262     1   108.2900466 608.353600
  13254  13240  13262     1   107.9700462 569.024000
  13263  13264  13267     1   111.5100476 526.347200
  13263  13264  13276     1   110.1900474 564.840000
  13263  13277  13283     1   110.1900474 564.840000
  13263  13285  13269     1   112.4800480 524.673600
  13264  13267  13268     1   111.5100476 526.347200
  13264  13267  13275     1   110.1900474 564.840000
  13264  13263  13277     1   111.5100476 526.347200
  13264  13263  13285     1   107.9700462 569.024000
  13267  13268  13269     1   111.5100476 526.347200
  13267  13268  13274     1   110.1900474 564.840000
  13267  13264  13276     1   110.1900474 564.840000
  13268  13269  13273     1   107.9700462 569.024000
  13268  13269  13285     1   107.9700462 569.024000
  13268  13267  13275     1   110.1900474 564.840000
  13269  13268  13274     1   110.1900474 564.840000
  13273  13269  13285     1   108.2900466 608.353600
  13277  13263  13285     1   107.9700462 569.024000
  13286  13287  13290     1   111.5100476 526.347200
  13286  13287  13299     1   110.1900474 564.840000
  13286  13300  13306     1   110.1900474 564.840000
  13286  13308  13292     1   112.4800480 524.673600
  13287  13286  13300     1   111.5100476 526.347200
  13287  13286  13308     1   107.9700462 569.024000
  13287  13290  13291     1   111.5100476 526.347200
  13287  13290  13298     1   110.1900474 564.840000
  13290  13287  13299     1   110.1900474 564.840000
  13290  13291  13292     1   111.5100476 526.347200
  13290  13291  13297     1   110.1900474 564.840000
  13291  13290  13298     1   110.1900474 564.840000
  13291  13292  13296     1   107.9700462 569.024000
  13291  13292  13308     1   107.9700462 569.024000
  13292  13291  13297     1   110.1900474 564.840000
  13296  13292  13308     1   108.2900466 608.353600
  13300  13286  13308     1   107.9700462 569.024000
  13309  13310  13313     1   111.5100476 526.347200
  13309  13310  13322     1   110.1900474 564.840000
  13309  13323  13329     1   110.1900474 564.840000
  13309  13331  13315     1   112.4800480 524.673600
  13310  13313  13314     1   111.5100476 526.347200
  13310  13313  13321     1   110.1900474 564.840000
  13310  13309  13323     1   111.5100476 526.347200
  13310  13309  13331     1   107.9700462 569.024000
  13313  13314  13315     1   111.5100476 526.347200
  13313  13314  13320     1   110.1900474 564.840000
  13313  13310  13322     1   110.1900474 564.840000
  13314  13315  13319     1   107.9700462 569.024000
  13314  13315  13331     1   107.9700462 569.024000
  13314  13313  13321     1   110.1900474 564.840000
  13315  13314  13320     1   110.1900474 564.840000
  13319  13315  13331     1   108.2900466 608.353600
  13323  13309  13331     1   107.9700462 569.024000
  13332  13333  13336     1   111.5100476 526.347200
  13332  13333  13345     1   110.1900474 564.840000
  13332  13346  13352     1   110.1900474 564.840000
  13332  13354  13338     1   112.4800480 524.673600
  13333  13332  13346     1   111.5100476 526.347200
  13333  13332  13354     1   107.9700462 569.024000
  13333  13336  13337     1   111.5100476 526.347200
  13333  13336  13344     1   110.1900474 564.840000
  13336  13333  13345     1   110.1900474 564.840000
  13336  13337  13338     1   111.5100476 526.347200
  13336  13337  13343     1   110.1900474 564.840000
  13337  13336  13344     1   110.1900474 564.840000
  13337  13338  13342     1   107.9700462 569.024000
  13337  13338  13354     1   107.9700462 569.024000
  13338  13337  13343     1   110.1900474 564.840000
  13342  13338  13354     1   108.2900466 608.353600
  13346  13332  13354     1   107.9700462 569.024000
  13355  13356  13359     1   111.5100476 526.347200
  13355  13356  13368     1   110.1900474 564.840000
  13355  13369  13375     1   110.1900474 564.840000
  13355  13377  13361     1   112.4800480 524.673600
  13356  13359  13360     1   111.5100476 526.347200
  13356  13359  13367     1   110.1900474 564.840000
  13356  13355  13369     1   111.5100476 526.347200
  13356  13355  13377     1   107.9700462 569.024000
  13359  13360  13361     1   111.5100476 526.347200
  13359  13360  13366     1   110.1900474 564.840000
  13359  13356  13368     1   110.1900474 564.840000
  13360  13361  13365     1   107.9700462 569.024000
  13360  13361  13377     1   107.9700462 569.024000
  13360  13359  13367     1   110.1900474 564.840000
  13361  13360  13366     1   110.1900474 564.840000
  13365  13361  13377     1   108.2900466 608.353600
  13369  13355  13377     1   107.9700462 569.024000
  13378  13379  13382     1   111.5100476 526.347200
  13378  13379  13391     1   110.1900474 564.840000
  13378  13392  13398     1   110.1900474 564.840000
  13378  13400  13384     1   112.4800480 524.673600
  13379  13378  13392     1   111.5100476 526.347200
  13379  13378  13400     1   107.9700462 569.024000
  13379  13382  13383     1   111.5100476 526.347200
  13379  13382  13390     1   110.1900474 564.840000
  13382  13379  13391     1   110.1900474 564.840000
  13382  13383  13384     1   111.5100476 526.347200
  13382  13383  13389     1   110.1900474 564.840000
  13383  13382  13390     1   110.1900474 564.840000
  13383  13384  13388     1   107.9700462 569.024000
  13383  13384  13400     1   107.9700462 569.024000
  13384  13383  13389     1   110.1900474 564.840000
  13388  13384  13400     1   108.2900466 608.353600
  13392  13378  13400     1   107.9700462 569.024000
  13401  13402  13405     1   111.5100476 526.347200
  13401  13402  13414     1   110.1900474 564.840000
  13401  13415  13421     1   110.1900474 564.840000
  13401  13423  13407     1   112.4800480 524.673600
  13402  13405  13406     1   111.5100476 526.347200
  13402  13405  13413     1   110.1900474 564.840000
  13402  13401  13415     1   111.5100476 526.347200
  13402  13401  13423     1   107.9700462 569.024000
  13405  13406  13407     1   111.5100476 526.347200
  13405  13406  13412     1   110.1900474 564.840000
  13405  13402  13414     1   110.1900474 564.840000
  13406  13407  13411     1   107.9700462 569.024000
  13406  13407  13423     1   107.9700462 569.024000
  13406  13405  13413     1   110.1900474 564.840000
  13407  13406  13412     1   110.1900474 564.840000
  13411  13407  13423     1   108.2900466 608.353600
  13415  13401  13423     1   107.9700462 569.024000
  13424  13425  13428     1   111.5100476 526.347200
  13424  13425  13437     1   110.1900474 564.840000
  13424  13438  13444     1   110.1900474 564.840000
  13424  13446  13430     1   112.4800480 524.673600
  13425  13424  13438     1   111.5100476 526.347200
  13425  13424  13446     1   107.9700462 569.024000
  13425  13428  13429     1   111.5100476 526.347200
  13425  13428  13436     1   110.1900474 564.840000
  13428  13425  13437     1   110.1900474 564.840000
  13428  13429  13430     1   111.5100476 526.347200
  13428  13429  13435     1   110.1900474 564.840000
  13429  13428  13436     1   110.1900474 564.840000
  13429  13430  13434     1   107.9700462 569.024000
  13429  13430  13446     1   107.9700462 569.024000
  13430  13429  13435     1   110.1900474 564.840000
  13434  13430  13446     1   108.2900466 608.353600
  13438  13424  13446     1   107.9700462 569.024000
  13447  13448  13451     1   111.5100476 526.347200
  13447  13448  13460     1   110.1900474 564.840000
  13447  13461  13467     1   110.1900474 564.840000
  13447  13469  13453     1   112.4800480 524.673600
  13448  13451  13452     1   111.5100476 526.347200
  13448  13451  13459     1   110.1900474 564.840000
  13448  13447  13461     1   111.5100476 526.347200
  13448  13447  13469     1   107.9700462 569.024000
  13451  13452  13453     1   111.5100476 526.347200
  13451  13452  13458     1   110.1900474 564.840000
  13451  13448  13460     1   110.1900474 564.840000
  13452  13453  13457     1   107.9700462 569.024000
  13452  13453  13469     1   107.9700462 569.024000
  13452  13451  13459     1   110.1900474 564.840000
  13453  13452  13458     1   110.1900474 564.840000
  13457  13453  13469     1   108.2900466 608.353600
  13461  13447  13469     1   107.9700462 569.024000
  13470  13471  13474     1   111.5100476 526.347200
  13470  13471  13483     1   110.1900474 564.840000
  13470  13484  13490     1   110.1900474 564.840000
  13470  13492  13476     1   112.4800480 524.673600
  13471  13470  13484     1   111.5100476 526.347200
  13471  13470  13492     1   107.9700462 569.024000
  13471  13474  13475     1   111.5100476 526.347200
  13471  13474  13482     1   110.1900474 564.840000
  13474  13471  13483     1   110.1900474 564.840000
  13474  13475  13476     1   111.5100476 526.347200
  13474  13475  13481     1   110.1900474 564.840000
  13475  13474  13482     1   110.1900474 564.840000
  13475  13476  13480     1   107.9700462 569.024000
  13475  13476  13492     1   107.9700462 569.024000
  13476  13475  13481     1   110.1900474 564.840000
  13480  13476  13492     1   108.2900466 608.353600
  13484  13470  13492     1   107.9700462 569.024000
  13493  13494  13497     1   111.5100476 526.347200
  13493  13494  13506     1   110.1900474 564.840000
  13493  13507  13513     1   110.1900474 564.840000
  13493  13515  13499     1   112.4800480 524.673600
  13494  13497  13498     1   111.5100476 526.347200
  13494  13497  13505     1   110.1900474 564.840000
  13494  13493  13507     1   111.5100476 526.347200
  13494  13493  13515     1   107.9700462 569.024000
  13497  13498  13499     1   111.5100476 526.347200
  13497  13498  13504     1   110.1900474 564.840000
  13497  13494  13506     1   110.1900474 564.840000
  13498  13499  13503     1   107.9700462 569.024000
  13498  13499  13515     1   107.9700462 569.024000
  13498  13497  13505     1   110.1900474 564.840000
  13499  13498  13504     1   110.1900474 564.840000
  13503  13499  13515     1   108.2900466 608.353600
  13507  13493  13515     1   107.9700462 569.024000
  13516  13517  13520     1   111.5100476 526.347200
  13516  13517  13529     1   110.1900474 564.840000
  13516  13530  13536     1   110.1900474 564.840000
  13516  13538  13522     1   112.4800480 524.673600
  13517  13516  13530     1   111.5100476 526.347200
  13517  13516  13538     1   107.9700462 569.024000
  13517  13520  13521     1   111.5100476 526.347200
  13517  13520  13528     1   110.1900474 564.840000
  13520  13517  13529     1   110.1900474 564.840000
  13520  13521  13522     1   111.5100476 526.347200
  13520  13521  13527     1   110.1900474 564.840000
  13521  13520  13528     1   110.1900474 564.840000
  13521  13522  13526     1   107.9700462 569.024000
  13521  13522  13538     1   107.9700462 569.024000
  13522  13521  13527     1   110.1900474 564.840000
  13526  13522  13538     1   108.2900466 608.353600
  13530  13516  13538     1   107.9700462 569.024000
  13539  13540  13543     1   111.5100476 526.347200
  13539  13540  13552     1   110.1900474 564.840000
  13539  13553  13559     1   110.1900474 564.840000
  13539  13561  13545     1   112.4800480 524.673600
  13540  13543  13544     1   111.5100476 526.347200
  13540  13543  13551     1   110.1900474 564.840000
  13540  13539  13553     1   111.5100476 526.347200
  13540  13539  13561     1   107.9700462 569.024000
  13543  13544  13545     1   111.5100476 526.347200
  13543  13544  13550     1   110.1900474 564.840000
  13543  13540  13552     1   110.1900474 564.840000
  13544  13545  13549     1   107.9700462 569.024000
  13544  13545  13561     1   107.9700462 569.024000
  13544  13543  13551     1   110.1900474 564.840000
  13545  13544  13550     1   110.1900474 564.840000
  13549  13545  13561     1   108.2900466 608.353600
  13553  13539  13561     1   107.9700462 569.024000
  13562  13563  13566     1   111.5100476 526.347200
  13562  13563  13575     1   110.1900474 564.840000
  13562  13576  13582     1   110.1900474 564.840000
  13562  13584  13568     1   112.4800480 524.673600
  13563  13562  13576     1   111.5100476 526.347200
  13563  13562  13584     1   107.9700462 569.024000
  13563  13566  13567     1   111.5100476 526.347200
  13563  13566  13574     1   110.1900474 564.840000
  13566  13563  13575     1   110.1900474 564.840000
  13566  13567  13568     1   111.5100476 526.347200
  13566  13567  13573     1   110.1900474 564.840000
  13567  13566  13574     1   110.1900474 564.840000
  13567  13568  13572     1   107.9700462 569.024000
  13567  13568  13584     1   107.9700462 569.024000
  13568  13567  13573     1   110.1900474 564.840000
  13572  13568  13584     1   108.2900466 608.353600
  13576  13562  13584     1   107.9700462 569.024000
  13585  13586  13589     1   111.5100476 526.347200
  13585  13586  13598     1   110.1900474 564.840000
  13585  13599  13605     1   110.1900474 564.840000
  13585  13607  13591     1   112.4800480 524.673600
  13586  13589  13590     1   111.5100476 526.347200
  13586  13589  13597     1   110.1900474 564.840000
  13586  13585  13599     1   111.5100476 526.347200
  13586  13585  13607     1   107.9700462 569.024000
  13589  13590  13591     1   111.5100476 526.347200
  13589  13590  13596     1   110.1900474 564.840000
  13589  13586  13598     1   110.1900474 564.840000
  13590  13591  13595     1   107.9700462 569.024000
  13590  13591  13607     1   107.9700462 569.024000
  13590  13589  13597     1   110.1900474 564.840000
  13591  13590  13596     1   110.1900474 564.840000
  13595  13591  13607     1   108.2900466 608.353600
  13599  13585  13607     1   107.9700462 569.024000
  13608  13609  13612     1   111.5100476 526.347200
  13608  13609  13621     1   110.1900474 564.840000
  13608  13622  13628     1   110.1900474 564.840000
  13608  13630  13614     1   112.4800480 524.673600
  13609  13608  13622     1   111.5100476 526.347200
  13609  13608  13630     1   107.9700462 569.024000
  13609  13612  13613     1   111.5100476 526.347200
  13609  13612  13620     1   110.1900474 564.840000
  13612  13609  13621     1   110.1900474 564.840000
  13612  13613  13614     1   111.5100476 526.347200
  13612  13613  13619     1   110.1900474 564.840000
  13613  13612  13620     1   110.1900474 564.840000
  13613  13614  13618     1   107.9700462 569.024000
  13613  13614  13630     1   107.9700462 569.024000
  13614  13613  13619     1   110.1900474 564.840000
  13618  13614  13630     1   108.2900466 608.353600
  13622  13608  13630     1   107.9700462 569.024000
  13631  13632  13635     1   111.5100476 526.347200
  13631  13632  13644     1   110.1900474 564.840000
  13631  13645  13651     1   110.1900474 564.840000
  13631  13653  13637     1   112.4800480 524.673600
  13632  13635  13636     1   111.5100476 526.347200
  13632  13635  13643     1   110.1900474 564.840000
  13632  13631  13645     1   111.5100476 526.347200
  13632  13631  13653     1   107.9700462 569.024000
  13635  13636  13637     1   111.5100476 526.347200
  13635  13636  13642     1   110.1900474 564.840000
  13635  13632  13644     1   110.1900474 564.840000
  13636  13637  13641     1   107.9700462 569.024000
  13636  13637  13653     1   107.9700462 569.024000
  13636  13635  13643     1   110.1900474 564.840000
  13637  13636  13642     1   110.1900474 564.840000
  13641  13637  13653     1   108.2900466 608.353600
  13645  13631  13653     1   107.9700462 569.024000
  13654  13655  13658     1   111.5100476 526.347200
  13654  13655  13667     1   110.1900474 564.840000
  13654  13668  13674     1   110.1900474 564.840000
  13654  13676  13660     1   112.4800480 524.673600
  13655  13654  13668     1   111.5100476 526.347200
  13655  13654  13676     1   107.9700462 569.024000
  13655  13658  13659     1   111.5100476 526.347200
  13655  13658  13666     1   110.1900474 564.840000
  13658  13655  13667     1   110.1900474 564.840000
  13658  13659  13660     1   111.5100476 526.347200
  13658  13659  13665     1   110.1900474 564.840000
  13659  13658  13666     1   110.1900474 564.840000
  13659  13660  13664     1   107.9700462 569.024000
  13659  13660  13676     1   107.9700462 569.024000
  13660  13659  13665     1   110.1900474 564.840000
  13664  13660  13676     1   108.2900466 608.353600
  13668  13654  13676     1   107.9700462 569.024000
  13677  13678  13681     1   111.5100476 526.347200
  13677  13678  13690     1   110.1900474 564.840000
  13677  13691  13697     1   110.1900474 564.840000
  13677  13699  13683     1   112.4800480 524.673600
  13678  13681  13682     1   111.5100476 526.347200
  13678  13681  13689     1   110.1900474 564.840000
  13678  13677  13691     1   111.5100476 526.347200
  13678  13677  13699     1   107.9700462 569.024000
  13681  13682  13683     1   111.5100476 526.347200
  13681  13682  13688     1   110.1900474 564.840000
  13681  13678  13690     1   110.1900474 564.840000
  13682  13683  13687     1   107.9700462 569.024000
  13682  13683  13699     1   107.9700462 569.024000
  13682  13681  13689     1   110.1900474 564.840000
  13683  13682  13688     1   110.1900474 564.840000
  13687  13683  13699     1   108.2900466 608.353600
  13691  13677  13699     1   107.9700462 569.024000
  13700  13701  13704     1   111.5100476 526.347200
  13700  13701  13713     1   110.1900474 564.840000
  13700  13714  13720     1   110.1900474 564.840000
  13700  13722  13706     1   112.4800480 524.673600
  13701  13700  13714     1   111.5100476 526.347200
  13701  13700  13722     1   107.9700462 569.024000
  13701  13704  13705     1   111.5100476 526.347200
  13701  13704  13712     1   110.1900474 564.840000
  13704  13701  13713     1   110.1900474 564.840000
  13704  13705  13706     1   111.5100476 526.347200
  13704  13705  13711     1   110.1900474 564.840000
  13705  13704  13712     1   110.1900474 564.840000
  13705  13706  13710     1   107.9700462 569.024000
  13705  13706  13722     1   107.9700462 569.024000
  13706  13705  13711     1   110.1900474 564.840000
  13710  13706  13722     1   108.2900466 608.353600
  13714  13700  13722     1   107.9700462 569.024000
  13723  13724  13727     1   111.5100476 526.347200
  13723  13724  13736     1   110.1900474 564.840000
  13723  13737  13743     1   110.1900474 564.840000
  13723  13745  13729     1   112.4800480 524.673600
  13724  13727  13728     1   111.5100476 526.347200
  13724  13727  13735     1   110.1900474 564.840000
  13724  13723  13737     1   111.5100476 526.347200
  13724  13723  13745     1   107.9700462 569.024000
  13727  13728  13729     1   111.5100476 526.347200
  13727  13728  13734     1   110.1900474 564.840000
  13727  13724  13736     1   110.1900474 564.840000
  13728  13729  13733     1   107.9700462 569.024000
  13728  13729  13745     1   107.9700462 569.024000
  13728  13727  13735     1   110.1900474 564.840000
  13729  13728  13734     1   110.1900474 564.840000
  13733  13729  13745     1   108.2900466 608.353600
  13737  13723  13745     1   107.9700462 569.024000
  13746  13747  13750     1   111.5100476 526.347200
  13746  13747  13759     1   110.1900474 564.840000
  13746  13760  13766     1   110.1900474 564.840000
  13746  13768  13752     1   112.4800480 524.673600
  13747  13746  13760     1   111.5100476 526.347200
  13747  13746  13768     1   107.9700462 569.024000
  13747  13750  13751     1   111.5100476 526.347200
  13747  13750  13758     1   110.1900474 564.840000
  13750  13747  13759     1   110.1900474 564.840000
  13750  13751  13752     1   111.5100476 526.347200
  13750  13751  13757     1   110.1900474 564.840000
  13751  13750  13758     1   110.1900474 564.840000
  13751  13752  13756     1   107.9700462 569.024000
  13751  13752  13768     1   107.9700462 569.024000
  13752  13751  13757     1   110.1900474 564.840000
  13756  13752  13768     1   108.2900466 608.353600
  13760  13746  13768     1   107.9700462 569.024000
  13769  13770  13773     1   111.5100476 526.347200
  13769  13770  13782     1   110.1900474 564.840000
  13769  13783  13789     1   110.1900474 564.840000
  13769  13791  13775     1   112.4800480 524.673600
  13770  13773  13774     1   111.5100476 526.347200
  13770  13773  13781     1   110.1900474 564.840000
  13770  13769  13783     1   111.5100476 526.347200
  13770  13769  13791     1   107.9700462 569.024000
  13773  13774  13775     1   111.5100476 526.347200
  13773  13774  13780     1   110.1900474 564.840000
  13773  13770  13782     1   110.1900474 564.840000
  13774  13775  13779     1   107.9700462 569.024000
  13774  13775  13791     1   107.9700462 569.024000
  13774  13773  13781     1   110.1900474 564.840000
  13775  13774  13780     1   110.1900474 564.840000
  13779  13775  13791     1   108.2900466 608.353600
  13783  13769  13791     1   107.9700462 569.024000
  13792  13793  13796     1   111.5100476 526.347200
  13792  13793  13805     1   110.1900474 564.840000
  13792  13806  13812     1   110.1900474 564.840000
  13792  13814  13798     1   112.4800480 524.673600
  13793  13792  13806     1   111.5100476 526.347200
  13793  13792  13814     1   107.9700462 569.024000
  13793  13796  13797     1   111.5100476 526.347200
  13793  13796  13804     1   110.1900474 564.840000
  13796  13793  13805     1   110.1900474 564.840000
  13796  13797  13798     1   111.5100476 526.347200
  13796  13797  13803     1   110.1900474 564.840000
  13797  13796  13804     1   110.1900474 564.840000
  13797  13798  13802     1   107.9700462 569.024000
  13797  13798  13814     1   107.9700462 569.024000
  13798  13797  13803     1   110.1900474 564.840000
  13802  13798  13814     1   108.2900466 608.353600
  13806  13792  13814     1   107.9700462 569.024000
  13815  13816  13819     1   111.5100476 526.347200
  13815  13816  13828     1   110.1900474 564.840000
  13815  13829  13835     1   110.1900474 564.840000
  13815  13837  13821     1   112.4800480 524.673600
  13816  13819  13820     1   111.5100476 526.347200
  13816  13819  13827     1   110.1900474 564.840000
  13816  13815  13829     1   111.5100476 526.347200
  13816  13815  13837     1   107.9700462 569.024000
  13819  13820  13821     1   111.5100476 526.347200
  13819  13820  13826     1   110.1900474 564.840000
  13819  13816  13828     1   110.1900474 564.840000
  13820  13821  13825     1   107.9700462 569.024000
  13820  13821  13837     1   107.9700462 569.024000
  13820  13819  13827     1   110.1900474 564.840000
  13821  13820  13826     1   110.1900474 564.840000
  13825  13821  13837     1   108.2900466 608.353600
  13829  13815  13837     1   107.9700462 569.024000
  13838  13839  13842     1   111.5100476 526.347200
  13838  13839  13851     1   110.1900474 564.840000
  13838  13852  13858     1   110.1900474 564.840000
  13838  13860  13844     1   112.4800480 524.673600
  13839  13838  13852     1   111.5100476 526.347200
  13839  13838  13860     1   107.9700462 569.024000
  13839  13842  13843     1   111.5100476 526.347200
  13839  13842  13850     1   110.1900474 564.840000
  13842  13839  13851     1   110.1900474 564.840000
  13842  13843  13844     1   111.5100476 526.347200
  13842  13843  13849     1   110.1900474 564.840000
  13843  13842  13850     1   110.1900474 564.840000
  13843  13844  13848     1   107.9700462 569.024000
  13843  13844  13860     1   107.9700462 569.024000
  13844  13843  13849     1   110.1900474 564.840000
  13848  13844  13860     1   108.2900466 608.353600
  13852  13838  13860     1   107.9700462 569.024000
  13861  13862  13865     1   111.5100476 526.347200
  13861  13862  13874     1   110.1900474 564.840000
  13861  13875  13881     1   110.1900474 564.840000
  13861  13883  13867     1   112.4800480 524.673600
  13862  13865  13866     1   111.5100476 526.347200
  13862  13865  13873     1   110.1900474 564.840000
  13862  13861  13875     1   111.5100476 526.347200
  13862  13861  13883     1   107.9700462 569.024000
  13865  13866  13867     1   111.5100476 526.347200
  13865  13866  13872     1   110.1900474 564.840000
  13865  13862  13874     1   110.1900474 564.840000
  13866  13867  13871     1   107.9700462 569.024000
  13866  13867  13883     1   107.9700462 569.024000
  13866  13865  13873     1   110.1900474 564.840000
  13867  13866  13872     1   110.1900474 564.840000
  13871  13867  13883     1   108.2900466 608.353600
  13875  13861  13883     1   107.9700462 569.024000
  13884  13885  13888     1   111.5100476 526.347200
  13884  13885  13897     1   110.1900474 564.840000
  13884  13898  13904     1   110.1900474 564.840000
  13884  13906  13890     1   112.4800480 524.673600
  13885  13884  13898     1   111.5100476 526.347200
  13885  13884  13906     1   107.9700462 569.024000
  13885  13888  13889     1   111.5100476 526.347200
  13885  13888  13896     1   110.1900474 564.840000
  13888  13885  13897     1   110.1900474 564.840000
  13888  13889  13890     1   111.5100476 526.347200
  13888  13889  13895     1   110.1900474 564.840000
  13889  13888  13896     1   110.1900474 564.840000
  13889  13890  13894     1   107.9700462 569.024000
  13889  13890  13906     1   107.9700462 569.024000
  13890  13889  13895     1   110.1900474 564.840000
  13894  13890  13906     1   108.2900466 608.353600
  13898  13884  13906     1   107.9700462 569.024000
  13907  13908  13911     1   111.5100476 526.347200
  13907  13908  13920     1   110.1900474 564.840000
  13907  13921  13927     1   110.1900474 564.840000
  13907  13929  13913     1   112.4800480 524.673600
  13908  13911  13912     1   111.5100476 526.347200
  13908  13911  13919     1   110.1900474 564.840000
  13908  13907  13921     1   111.5100476 526.347200
  13908  13907  13929     1   107.9700462 569.024000
  13911  13912  13913     1   111.5100476 526.347200
  13911  13912  13918     1   110.1900474 564.840000
  13911  13908  13920     1   110.1900474 564.840000
  13912  13913  13917     1   107.9700462 569.024000
  13912  13913  13929     1   107.9700462 569.024000
  13912  13911  13919     1   110.1900474 564.840000
  13913  13912  13918     1   110.1900474 564.840000
  13917  13913  13929     1   108.2900466 608.353600
  13921  13907  13929     1   107.9700462 569.024000
  13930  13931  13934     1   111.5100476 526.347200
  13930  13931  13943     1   110.1900474 564.840000
  13930  13944  13950     1   110.1900474 564.840000
  13930  13952  13936     1   112.4800480 524.673600
  13931  13930  13944     1   111.5100476 526.347200
  13931  13930  13952     1   107.9700462 569.024000
  13931  13934  13935     1   111.5100476 526.347200
  13931  13934  13942     1   110.1900474 564.840000
  13934  13931  13943     1   110.1900474 564.840000
  13934  13935  13936     1   111.5100476 526.347200
  13934  13935  13941     1   110.1900474 564.840000
  13935  13934  13942     1   110.1900474 564.840000
  13935  13936  13940     1   107.9700462 569.024000
  13935  13936  13952     1   107.9700462 569.024000
  13936  13935  13941     1   110.1900474 564.840000
  13940  13936  13952     1   108.2900466 608.353600
  13944  13930  13952     1   107.9700462 569.024000
  13953  13954  13957     1   111.5100476 526.347200
  13953  13954  13966     1   110.1900474 564.840000
  13953  13967  13973     1   110.1900474 564.840000
  13953  13975  13959     1   112.4800480 524.673600
  13954  13957  13958     1   111.5100476 526.347200
  13954  13957  13965     1   110.1900474 564.840000
  13954  13953  13967     1   111.5100476 526.347200
  13954  13953  13975     1   107.9700462 569.024000
  13957  13958  13959     1   111.5100476 526.347200
  13957  13958  13964     1   110.1900474 564.840000
  13957  13954  13966     1   110.1900474 564.840000
  13958  13959  13963     1   107.9700462 569.024000
  13958  13959  13975     1   107.9700462 569.024000
  13958  13957  13965     1   110.1900474 564.840000
  13959  13958  13964     1   110.1900474 564.840000
  13963  13959  13975     1   108.2900466 608.353600
  13967  13953  13975     1   107.9700462 569.024000
  13976  13977  13980     1   111.5100476 526.347200
  13976  13977  13989     1   110.1900474 564.840000
  13976  13990  13996     1   110.1900474 564.840000
  13976  13998  13982     1   112.4800480 524.673600
  13977  13976  13990     1   111.5100476 526.347200
  13977  13976  13998     1   107.9700462 569.024000
  13977  13980  13981     1   111.5100476 526.347200
  13977  13980  13988     1   110.1900474 564.840000
  13980  13977  13989     1   110.1900474 564.840000
  13980  13981  13982     1   111.5100476 526.347200
  13980  13981  13987     1   110.1900474 564.840000
  13981  13980  13988     1   110.1900474 564.840000
  13981  13982  13986     1   107.9700462 569.024000
  13981  13982  13998     1   107.9700462 569.024000
  13982  13981  13987     1   110.1900474 564.840000
  13986  13982  13998     1   108.2900466 608.353600
  13990  13976  13998     1   107.9700462 569.024000
  13999  14000  14003     1   111.5100476 526.347200
  13999  14000  14012     1   110.1900474 564.840000
  13999  14013  14019     1   110.1900474 564.840000
  13999  14021  14005     1   112.4800480 524.673600
  14000  14003  14004     1   111.5100476 526.347200
  14000  14003  14011     1   110.1900474 564.840000
  14000  13999  14013     1   111.5100476 526.347200
  14000  13999  14021     1   107.9700462 569.024000
  14003  14004  14005     1   111.5100476 526.347200
  14003  14004  14010     1   110.1900474 564.840000
  14003  14000  14012     1   110.1900474 564.840000
  14004  14005  14009     1   107.9700462 569.024000
  14004  14005  14021     1   107.9700462 569.024000
  14004  14003  14011     1   110.1900474 564.840000
  14005  14004  14010     1   110.1900474 564.840000
  14009  14005  14021     1   108.2900466 608.353600
  14013  13999  14021     1   107.9700462 569.024000
  14022  14023  14026     1   111.5100476 526.347200
  14022  14023  14035     1   110.1900474 564.840000
  14022  14036  14042     1   110.1900474 564.840000
  14022  14044  14028     1   112.4800480 524.673600
  14023  14022  14036     1   111.5100476 526.347200
  14023  14022  14044     1   107.9700462 569.024000
  14023  14026  14027     1   111.5100476 526.347200
  14023  14026  14034     1   110.1900474 564.840000
  14026  14023  14035     1   110.1900474 564.840000
  14026  14027  14028     1   111.5100476 526.347200
  14026  14027  14033     1   110.1900474 564.840000
  14027  14026  14034     1   110.1900474 564.840000
  14027  14028  14032     1   107.9700462 569.024000
  14027  14028  14044     1   107.9700462 569.024000
  14028  14027  14033     1   110.1900474 564.840000
  14032  14028  14044     1   108.2900466 608.353600
  14036  14022  14044     1   107.9700462 569.024000
  14045  14046  14049     1   111.5100476 526.347200
  14045  14046  14058     1   110.1900474 564.840000
  14045  14059  14065     1   110.1900474 564.840000
  14045  14067  14051     1   112.4800480 524.673600
  14046  14049  14050     1   111.5100476 526.347200
  14046  14049  14057     1   110.1900474 564.840000
  14046  14045  14059     1   111.5100476 526.347200
  14046  14045  14067     1   107.9700462 569.024000
  14049  14050  14051     1   111.5100476 526.347200
  14049  14050  14056     1   110.1900474 564.840000
  14049  14046  14058     1   110.1900474 564.840000
  14050  14051  14055     1   107.9700462 569.024000
  14050  14051  14067     1   107.9700462 569.024000
  14050  14049  14057     1   110.1900474 564.840000
  14051  14050  14056     1   110.1900474 564.840000
  14055  14051  14067     1   108.2900466 608.353600
  14059  14045  14067     1   107.9700462 569.024000
  14068  14069  14072     1   111.5100476 526.347200
  14068  14069  14081     1   110.1900474 564.840000
  14068  14082  14088     1   110.1900474 564.840000
  14068  14090  14074     1   112.4800480 524.673600
  14069  14068  14082     1   111.5100476 526.347200
  14069  14068  14090     1   107.9700462 569.024000
  14069  14072  14073     1   111.5100476 526.347200
  14069  14072  14080     1   110.1900474 564.840000
  14072  14069  14081     1   110.1900474 564.840000
  14072  14073  14074     1   111.5100476 526.347200
  14072  14073  14079     1   110.1900474 564.840000
  14073  14072  14080     1   110.1900474 564.840000
  14073  14074  14078     1   107.9700462 569.024000
  14073  14074  14090     1   107.9700462 569.024000
  14074  14073  14079     1   110.1900474 564.840000
  14078  14074  14090     1   108.2900466 608.353600
  14082  14068  14090     1   107.9700462 569.024000
  14091  14092  14095     1   111.5100476 526.347200
  14091  14092  14104     1   110.1900474 564.840000
  14091  14105  14111     1   110.1900474 564.840000
  14091  14113  14097     1   112.4800480 524.673600
  14092  14095  14096     1   111.5100476 526.347200
  14092  14095  14103     1   110.1900474 564.840000
  14092  14091  14105     1   111.5100476 526.347200
  14092  14091  14113     1   107.9700462 569.024000
  14095  14096  14097     1   111.5100476 526.347200
  14095  14096  14102     1   110.1900474 564.840000
  14095  14092  14104     1   110.1900474 564.840000
  14096  14097  14101     1   107.9700462 569.024000
  14096  14097  14113     1   107.9700462 569.024000
  14096  14095  14103     1   110.1900474 564.840000
  14097  14096  14102     1   110.1900474 564.840000
  14101  14097  14113     1   108.2900466 608.353600
  14105  14091  14113     1   107.9700462 569.024000
  14114  14115  14118     1   111.5100476 526.347200
  14114  14115  14127     1   110.1900474 564.840000
  14114  14128  14134     1   110.1900474 564.840000
  14114  14136  14120     1   112.4800480 524.673600
  14115  14114  14128     1   111.5100476 526.347200
  14115  14114  14136     1   107.9700462 569.024000
  14115  14118  14119     1   111.5100476 526.347200
  14115  14118  14126     1   110.1900474 564.840000
  14118  14115  14127     1   110.1900474 564.840000
  14118  14119  14120     1   111.5100476 526.347200
  14118  14119  14125     1   110.1900474 564.840000
  14119  14118  14126     1   110.1900474 564.840000
  14119  14120  14124     1   107.9700462 569.024000
  14119  14120  14136     1   107.9700462 569.024000
  14120  14119  14125     1   110.1900474 564.840000
  14124  14120  14136     1   108.2900466 608.353600
  14128  14114  14136     1   107.9700462 569.024000
  14137  14138  14141     1   111.5100476 526.347200
  14137  14138  14150     1   110.1900474 564.840000
  14137  14151  14157     1   110.1900474 564.840000
  14137  14159  14143     1   112.4800480 524.673600
  14138  14141  14142     1   111.5100476 526.347200
  14138  14141  14149     1   110.1900474 564.840000
  14138  14137  14151     1   111.5100476 526.347200
  14138  14137  14159     1   107.9700462 569.024000
  14141  14142  14143     1   111.5100476 526.347200
  14141  14142  14148     1   110.1900474 564.840000
  14141  14138  14150     1   110.1900474 564.840000
  14142  14143  14147     1   107.9700462 569.024000
  14142  14143  14159     1   107.9700462 569.024000
  14142  14141  14149     1   110.1900474 564.840000
  14143  14142  14148     1   110.1900474 564.840000
  14147  14143  14159     1   108.2900466 608.353600
  14151  14137  14159     1   107.9700462 569.024000
  14160  14161  14164     1   111.5100476 526.347200
  14160  14161  14173     1   110.1900474 564.840000
  14160  14174  14180     1   110.1900474 564.840000
  14160  14182  14166     1   112.4800480 524.673600
  14161  14160  14174     1   111.5100476 526.347200
  14161  14160  14182     1   107.9700462 569.024000
  14161  14164  14165     1   111.5100476 526.347200
  14161  14164  14172     1   110.1900474 564.840000
  14164  14161  14173     1   110.1900474 564.840000
  14164  14165  14166     1   111.5100476 526.347200
  14164  14165  14171     1   110.1900474 564.840000
  14165  14164  14172     1   110.1900474 564.840000
  14165  14166  14170     1   107.9700462 569.024000
  14165  14166  14182     1   107.9700462 569.024000
  14166  14165  14171     1   110.1900474 564.840000
  14170  14166  14182     1   108.2900466 608.353600
  14174  14160  14182     1   107.9700462 569.024000
  14183  14184  14187     1   111.5100476 526.347200
  14183  14184  14196     1   110.1900474 564.840000
  14183  14197  14203     1   110.1900474 564.840000
  14183  14205  14189     1   112.4800480 524.673600
  14184  14187  14188     1   111.5100476 526.347200
  14184  14187  14195     1   110.1900474 564.840000
  14184  14183  14197     1   111.5100476 526.347200
  14184  14183  14205     1   107.9700462 569.024000
  14187  14188  14189     1   111.5100476 526.347200
  14187  14188  14194     1   110.1900474 564.840000
  14187  14184  14196     1   110.1900474 564.840000
  14188  14189  14193     1   107.9700462 569.024000
  14188  14189  14205     1   107.9700462 569.024000
  14188  14187  14195     1   110.1900474 564.840000
  14189  14188  14194     1   110.1900474 564.840000
  14193  14189  14205     1   108.2900466 608.353600
  14197  14183  14205     1   107.9700462 569.024000
  14206  14207  14210     1   111.5100476 526.347200
  14206  14207  14219     1   110.1900474 564.840000
  14206  14220  14226     1   110.1900474 564.840000
  14206  14228  14212     1   112.4800480 524.673600
  14207  14206  14220     1   111.5100476 526.347200
  14207  14206  14228     1   107.9700462 569.024000
  14207  14210  14211     1   111.5100476 526.347200
  14207  14210  14218     1   110.1900474 564.840000
  14210  14207  14219     1   110.1900474 564.840000
  14210  14211  14212     1   111.5100476 526.347200
  14210  14211  14217     1   110.1900474 564.840000
  14211  14210  14218     1   110.1900474 564.840000
  14211  14212  14216     1   107.9700462 569.024000
  14211  14212  14228     1   107.9700462 569.024000
  14212  14211  14217     1   110.1900474 564.840000
  14216  14212  14228     1   108.2900466 608.353600
  14220  14206  14228     1   107.9700462 569.024000
  14229  14230  14233     1   111.5100476 526.347200
  14229  14230  14242     1   110.1900474 564.840000
  14229  14243  14249     1   110.1900474 564.840000
  14229  14251  14235     1   112.4800480 524.673600
  14230  14233  14234     1   111.5100476 526.347200
  14230  14233  14241     1   110.1900474 564.840000
  14230  14229  14243     1   111.5100476 526.347200
  14230  14229  14251     1   107.9700462 569.024000
  14233  14234  14235     1   111.5100476 526.347200
  14233  14234  14240     1   110.1900474 564.840000
  14233  14230  14242     1   110.1900474 564.840000
  14234  14235  14239     1   107.9700462 569.024000
  14234  14235  14251     1   107.9700462 569.024000
  14234  14233  14241     1   110.1900474 564.840000
  14235  14234  14240     1   110.1900474 564.840000
  14239  14235  14251     1   108.2900466 608.353600
  14243  14229  14251     1   107.9700462 569.024000
  14252  14253  14256     1   111.5100476 526.347200
  14252  14253  14265     1   110.1900474 564.840000
  14252  14266  14272     1   110.1900474 564.840000
  14252  14274  14258     1   112.4800480 524.673600
  14253  14252  14266     1   111.5100476 526.347200
  14253  14252  14274     1   107.9700462 569.024000
  14253  14256  14257     1   111.5100476 526.347200
  14253  14256  14264     1   110.1900474 564.840000
  14256  14253  14265     1   110.1900474 564.840000
  14256  14257  14258     1   111.5100476 526.347200
  14256  14257  14263     1   110.1900474 564.840000
  14257  14256  14264     1   110.1900474 564.840000
  14257  14258  14262     1   107.9700462 569.024000
  14257  14258  14274     1   107.9700462 569.024000
  14258  14257  14263     1   110.1900474 564.840000
  14262  14258  14274     1   108.2900466 608.353600
  14266  14252  14274     1   107.9700462 569.024000
  14275  14276  14279     1   111.5100476 526.347200
  14275  14276  14288     1   110.1900474 564.840000
  14275  14289  14295     1   110.1900474 564.840000
  14275  14297  14281     1   112.4800480 524.673600
  14276  14279  14280     1   111.5100476 526.347200
  14276  14279  14287     1   110.1900474 564.840000
  14276  14275  14289     1   111.5100476 526.347200
  14276  14275  14297     1   107.9700462 569.024000
  14279  14280  14281     1   111.5100476 526.347200
  14279  14280  14286     1   110.1900474 564.840000
  14279  14276  14288     1   110.1900474 564.840000
  14280  14281  14285     1   107.9700462 569.024000
  14280  14281  14297     1   107.9700462 569.024000
  14280  14279  14287     1   110.1900474 564.840000
  14281  14280  14286     1   110.1900474 564.840000
  14285  14281  14297     1   108.2900466 608.353600
  14289  14275  14297     1   107.9700462 569.024000
  14298  14299  14302     1   111.5100476 526.347200
  14298  14299  14311     1   110.1900474 564.840000
  14298  14312  14318     1   110.1900474 564.840000
  14298  14320  14304     1   112.4800480 524.673600
  14299  14298  14312     1   111.5100476 526.347200
  14299  14298  14320     1   107.9700462 569.024000
  14299  14302  14303     1   111.5100476 526.347200
  14299  14302  14310     1   110.1900474 564.840000
  14302  14299  14311     1   110.1900474 564.840000
  14302  14303  14304     1   111.5100476 526.347200
  14302  14303  14309     1   110.1900474 564.840000
  14303  14302  14310     1   110.1900474 564.840000
  14303  14304  14308     1   107.9700462 569.024000
  14303  14304  14320     1   107.9700462 569.024000
  14304  14303  14309     1   110.1900474 564.840000
  14308  14304  14320     1   108.2900466 608.353600
  14312  14298  14320     1   107.9700462 569.024000
  14321  14322  14325     1   111.5100476 526.347200
  14321  14322  14334     1   110.1900474 564.840000
  14321  14335  14341     1   110.1900474 564.840000
  14321  14343  14327     1   112.4800480 524.673600
  14322  14325  14326     1   111.5100476 526.347200
  14322  14325  14333     1   110.1900474 564.840000
  14322  14321  14335     1   111.5100476 526.347200
  14322  14321  14343     1   107.9700462 569.024000
  14325  14326  14327     1   111.5100476 526.347200
  14325  14326  14332     1   110.1900474 564.840000
  14325  14322  14334     1   110.1900474 564.840000
  14326  14327  14331     1   107.9700462 569.024000
  14326  14327  14343     1   107.9700462 569.024000
  14326  14325  14333     1   110.1900474 564.840000
  14327  14326  14332     1   110.1900474 564.840000
  14331  14327  14343     1   108.2900466 608.353600
  14335  14321  14343     1   107.9700462 569.024000
  14344  14345  14348     1   111.5100476 526.347200
  14344  14345  14357     1   110.1900474 564.840000
  14344  14358  14364     1   110.1900474 564.840000
  14344  14366  14350     1   112.4800480 524.673600
  14345  14344  14358     1   111.5100476 526.347200
  14345  14344  14366     1   107.9700462 569.024000
  14345  14348  14349     1   111.5100476 526.347200
  14345  14348  14356     1   110.1900474 564.840000
  14348  14345  14357     1   110.1900474 564.840000
  14348  14349  14350     1   111.5100476 526.347200
  14348  14349  14355     1   110.1900474 564.840000
  14349  14348  14356     1   110.1900474 564.840000
  14349  14350  14354     1   107.9700462 569.024000
  14349  14350  14366     1   107.9700462 569.024000
  14350  14349  14355     1   110.1900474 564.840000
  14354  14350  14366     1   108.2900466 608.353600
  14358  14344  14366     1   107.9700462 569.024000
  14367  14368  14371     1   111.5100476 526.347200
  14367  14368  14380     1   110.1900474 564.840000
  14367  14381  14387     1   110.1900474 564.840000
  14367  14389  14373     1   112.4800480 524.673600
  14368  14371  14372     1   111.5100476 526.347200
  14368  14371  14379     1   110.1900474 564.840000
  14368  14367  14381     1   111.5100476 526.347200
  14368  14367  14389     1   107.9700462 569.024000
  14371  14372  14373     1   111.5100476 526.347200
  14371  14372  14378     1   110.1900474 564.840000
  14371  14368  14380     1   110.1900474 564.840000
  14372  14373  14377     1   107.9700462 569.024000
  14372  14373  14389     1   107.9700462 569.024000
  14372  14371  14379     1   110.1900474 564.840000
  14373  14372  14378     1   110.1900474 564.840000
  14377  14373  14389     1   108.2900466 608.353600
  14381  14367  14389     1   107.9700462 569.024000
  14390  14391  14394     1   111.5100476 526.347200
  14390  14391  14403     1   110.1900474 564.840000
  14390  14404  14410     1   110.1900474 564.840000
  14390  14412  14396     1   112.4800480 524.673600
  14391  14390  14404     1   111.5100476 526.347200
  14391  14390  14412     1   107.9700462 569.024000
  14391  14394  14395     1   111.5100476 526.347200
  14391  14394  14402     1   110.1900474 564.840000
  14394  14391  14403     1   110.1900474 564.840000
  14394  14395  14396     1   111.5100476 526.347200
  14394  14395  14401     1   110.1900474 564.840000
  14395  14394  14402     1   110.1900474 564.840000
  14395  14396  14400     1   107.9700462 569.024000
  14395  14396  14412     1   107.9700462 569.024000
  14396  14395  14401     1   110.1900474 564.840000
  14400  14396  14412     1   108.2900466 608.353600
  14404  14390  14412     1   107.9700462 569.024000
  14413  14414  14417     1   111.5100476 526.347200
  14413  14414  14426     1   110.1900474 564.840000
  14413  14427  14433     1   110.1900474 564.840000
  14413  14435  14419     1   112.4800480 524.673600
  14414  14417  14418     1   111.5100476 526.347200
  14414  14417  14425     1   110.1900474 564.840000
  14414  14413  14427     1   111.5100476 526.347200
  14414  14413  14435     1   107.9700462 569.024000
  14417  14418  14419     1   111.5100476 526.347200
  14417  14418  14424     1   110.1900474 564.840000
  14417  14414  14426     1   110.1900474 564.840000
  14418  14419  14423     1   107.9700462 569.024000
  14418  14419  14435     1   107.9700462 569.024000
  14418  14417  14425     1   110.1900474 564.840000
  14419  14418  14424     1   110.1900474 564.840000
  14423  14419  14435     1   108.2900466 608.353600
  14427  14413  14435     1   107.9700462 569.024000
  14436  14437  14440     1   111.5100476 526.347200
  14436  14437  14449     1   110.1900474 564.840000
  14436  14450  14456     1   110.1900474 564.840000
  14436  14458  14442     1   112.4800480 524.673600
  14437  14436  14450     1   111.5100476 526.347200
  14437  14436  14458     1   107.9700462 569.024000
  14437  14440  14441     1   111.5100476 526.347200
  14437  14440  14448     1   110.1900474 564.840000
  14440  14437  14449     1   110.1900474 564.840000
  14440  14441  14442     1   111.5100476 526.347200
  14440  14441  14447     1   110.1900474 564.840000
  14441  14440  14448     1   110.1900474 564.840000
  14441  14442  14446     1   107.9700462 569.024000
  14441  14442  14458     1   107.9700462 569.024000
  14442  14441  14447     1   110.1900474 564.840000
  14446  14442  14458     1   108.2900466 608.353600
  14450  14436  14458     1   107.9700462 569.024000
  14459  14460  14463     1   111.5100476 526.347200
  14459  14460  14472     1   110.1900474 564.840000
  14459  14473  14479     1   110.1900474 564.840000
  14459  14481  14465     1   112.4800480 524.673600
  14460  14463  14464     1   111.5100476 526.347200
  14460  14463  14471     1   110.1900474 564.840000
  14460  14459  14473     1   111.5100476 526.347200
  14460  14459  14481     1   107.9700462 569.024000
  14463  14464  14465     1   111.5100476 526.347200
  14463  14464  14470     1   110.1900474 564.840000
  14463  14460  14472     1   110.1900474 564.840000
  14464  14465  14469     1   107.9700462 569.024000
  14464  14465  14481     1   107.9700462 569.024000
  14464  14463  14471     1   110.1900474 564.840000
  14465  14464  14470     1   110.1900474 564.840000
  14469  14465  14481     1   108.2900466 608.353600
  14473  14459  14481     1   107.9700462 569.024000
  14482  14483  14486     1   111.5100476 526.347200
  14482  14483  14495     1   110.1900474 564.840000
  14482  14496  14502     1   110.1900474 564.840000
  14482  14504  14488     1   112.4800480 524.673600
  14483  14482  14496     1   111.5100476 526.347200
  14483  14482  14504     1   107.9700462 569.024000
  14483  14486  14487     1   111.5100476 526.347200
  14483  14486  14494     1   110.1900474 564.840000
  14486  14483  14495     1   110.1900474 564.840000
  14486  14487  14488     1   111.5100476 526.347200
  14486  14487  14493     1   110.1900474 564.840000
  14487  14486  14494     1   110.1900474 564.840000
  14487  14488  14492     1   107.9700462 569.024000
  14487  14488  14504     1   107.9700462 569.024000
  14488  14487  14493     1   110.1900474 564.840000
  14492  14488  14504     1   108.2900466 608.353600
  14496  14482  14504     1   107.9700462 569.024000
  14505  14506  14509     1   111.5100476 526.347200
  14505  14506  14518     1   110.1900474 564.840000
  14505  14519  14525     1   110.1900474 564.840000
  14505  14527  14511     1   112.4800480 524.673600
  14506  14509  14510     1   111.5100476 526.347200
  14506  14509  14517     1   110.1900474 564.840000
  14506  14505  14519     1   111.5100476 526.347200
  14506  14505  14527     1   107.9700462 569.024000
  14509  14510  14511     1   111.5100476 526.347200
  14509  14510  14516     1   110.1900474 564.840000
  14509  14506  14518     1   110.1900474 564.840000
  14510  14511  14515     1   107.9700462 569.024000
  14510  14511  14527     1   107.9700462 569.024000
  14510  14509  14517     1   110.1900474 564.840000
  14511  14510  14516     1   110.1900474 564.840000
  14515  14511  14527     1   108.2900466 608.353600
  14519  14505  14527     1   107.9700462 569.024000
  14528  14529  14532     1   111.5100476 526.347200
  14528  14529  14541     1   110.1900474 564.840000
  14528  14542  14548     1   110.1900474 564.840000
  14528  14550  14534     1   112.4800480 524.673600
  14529  14528  14542     1   111.5100476 526.347200
  14529  14528  14550     1   107.9700462 569.024000
  14529  14532  14533     1   111.5100476 526.347200
  14529  14532  14540     1   110.1900474 564.840000
  14532  14529  14541     1   110.1900474 564.840000
  14532  14533  14534     1   111.5100476 526.347200
  14532  14533  14539     1   110.1900474 564.840000
  14533  14532  14540     1   110.1900474 564.840000
  14533  14534  14538     1   107.9700462 569.024000
  14533  14534  14550     1   107.9700462 569.024000
  14534  14533  14539     1   110.1900474 564.840000
  14538  14534  14550     1   108.2900466 608.353600
  14542  14528  14550     1   107.9700462 569.024000
  14551  14552  14555     1   111.5100476 526.347200
  14551  14552  14564     1   110.1900474 564.840000
  14551  14565  14571     1   110.1900474 564.840000
  14551  14573  14557     1   112.4800480 524.673600
  14552  14555  14556     1   111.5100476 526.347200
  14552  14555  14563     1   110.1900474 564.840000
  14552  14551  14565     1   111.5100476 526.347200
  14552  14551  14573     1   107.9700462 569.024000
  14555  14556  14557     1   111.5100476 526.347200
  14555  14556  14562     1   110.1900474 564.840000
  14555  14552  14564     1   110.1900474 564.840000
  14556  14557  14561     1   107.9700462 569.024000
  14556  14557  14573     1   107.9700462 569.024000
  14556  14555  14563     1   110.1900474 564.840000
  14557  14556  14562     1   110.1900474 564.840000
  14561  14557  14573     1   108.2900466 608.353600
  14565  14551  14573     1   107.9700462 569.024000
  14574  14575  14578     1   111.5100476 526.347200
  14574  14575  14587     1   110.1900474 564.840000
  14574  14588  14594     1   110.1900474 564.840000
  14574  14596  14580     1   112.4800480 524.673600
  14575  14574  14588     1   111.5100476 526.347200
  14575  14574  14596     1   107.9700462 569.024000
  14575  14578  14579     1   111.5100476 526.347200
  14575  14578  14586     1   110.1900474 564.840000
  14578  14575  14587     1   110.1900474 564.840000
  14578  14579  14580     1   111.5100476 526.347200
  14578  14579  14585     1   110.1900474 564.840000
  14579  14578  14586     1   110.1900474 564.840000
  14579  14580  14584     1   107.9700462 569.024000
  14579  14580  14596     1   107.9700462 569.024000
  14580  14579  14585     1   110.1900474 564.840000
  14584  14580  14596     1   108.2900466 608.353600
  14588  14574  14596     1   107.9700462 569.024000
  14597  14598  14601     1   111.5100476 526.347200
  14597  14598  14610     1   110.1900474 564.840000
  14597  14611  14617     1   110.1900474 564.840000
  14597  14619  14603     1   112.4800480 524.673600
  14598  14601  14602     1   111.5100476 526.347200
  14598  14601  14609     1   110.1900474 564.840000
  14598  14597  14611     1   111.5100476 526.347200
  14598  14597  14619     1   107.9700462 569.024000
  14601  14602  14603     1   111.5100476 526.347200
  14601  14602  14608     1   110.1900474 564.840000
  14601  14598  14610     1   110.1900474 564.840000
  14602  14603  14607     1   107.9700462 569.024000
  14602  14603  14619     1   107.9700462 569.024000
  14602  14601  14609     1   110.1900474 564.840000
  14603  14602  14608     1   110.1900474 564.840000
  14607  14603  14619     1   108.2900466 608.353600
  14611  14597  14619     1   107.9700462 569.024000
  14620  14621  14624     1   111.5100476 526.347200
  14620  14621  14633     1   110.1900474 564.840000
  14620  14634  14640     1   110.1900474 564.840000
  14620  14642  14626     1   112.4800480 524.673600
  14621  14620  14634     1   111.5100476 526.347200
  14621  14620  14642     1   107.9700462 569.024000
  14621  14624  14625     1   111.5100476 526.347200
  14621  14624  14632     1   110.1900474 564.840000
  14624  14621  14633     1   110.1900474 564.840000
  14624  14625  14626     1   111.5100476 526.347200
  14624  14625  14631     1   110.1900474 564.840000
  14625  14624  14632     1   110.1900474 564.840000
  14625  14626  14630     1   107.9700462 569.024000
  14625  14626  14642     1   107.9700462 569.024000
  14626  14625  14631     1   110.1900474 564.840000
  14630  14626  14642     1   108.2900466 608.353600
  14634  14620  14642     1   107.9700462 569.024000
  14643  14644  14647     1   111.5100476 526.347200
  14643  14644  14656     1   110.1900474 564.840000
  14643  14657  14663     1   110.1900474 564.840000
  14643  14665  14649     1   112.4800480 524.673600
  14644  14647  14648     1   111.5100476 526.347200
  14644  14647  14655     1   110.1900474 564.840000
  14644  14643  14657     1   111.5100476 526.347200
  14644  14643  14665     1   107.9700462 569.024000
  14647  14648  14649     1   111.5100476 526.347200
  14647  14648  14654     1   110.1900474 564.840000
  14647  14644  14656     1   110.1900474 564.840000
  14648  14649  14653     1   107.9700462 569.024000
  14648  14649  14665     1   107.9700462 569.024000
  14648  14647  14655     1   110.1900474 564.840000
  14649  14648  14654     1   110.1900474 564.840000
  14653  14649  14665     1   108.2900466 608.353600
  14657  14643  14665     1   107.9700462 569.024000
  14666  14667  14670     1   111.5100476 526.347200
  14666  14667  14679     1   110.1900474 564.840000
  14666  14680  14686     1   110.1900474 564.840000
  14666  14688  14672     1   112.4800480 524.673600
  14667  14666  14680     1   111.5100476 526.347200
  14667  14666  14688     1   107.9700462 569.024000
  14667  14670  14671     1   111.5100476 526.347200
  14667  14670  14678     1   110.1900474 564.840000
  14670  14667  14679     1   110.1900474 564.840000
  14670  14671  14672     1   111.5100476 526.347200
  14670  14671  14677     1   110.1900474 564.840000
  14671  14670  14678     1   110.1900474 564.840000
  14671  14672  14676     1   107.9700462 569.024000
  14671  14672  14688     1   107.9700462 569.024000
  14672  14671  14677     1   110.1900474 564.840000
  14676  14672  14688     1   108.2900466 608.353600
  14680  14666  14688     1   107.9700462 569.024000
  14689  14690  14693     1   111.5100476 526.347200
  14689  14690  14702     1   110.1900474 564.840000
  14689  14703  14709     1   110.1900474 564.840000
  14689  14711  14695     1   112.4800480 524.673600
  14690  14693  14694     1   111.5100476 526.347200
  14690  14693  14701     1   110.1900474 564.840000
  14690  14689  14703     1   111.5100476 526.347200
  14690  14689  14711     1   107.9700462 569.024000
  14693  14694  14695     1   111.5100476 526.347200
  14693  14694  14700     1   110.1900474 564.840000
  14693  14690  14702     1   110.1900474 564.840000
  14694  14695  14699     1   107.9700462 569.024000
  14694  14695  14711     1   107.9700462 569.024000
  14694  14693  14701     1   110.1900474 564.840000
  14695  14694  14700     1   110.1900474 564.840000
  14699  14695  14711     1   108.2900466 608.353600
  14703  14689  14711     1   107.9700462 569.024000
  14712  14713  14716     1   111.5100476 526.347200
  14712  14713  14725     1   110.1900474 564.840000
  14712  14726  14732     1   110.1900474 564.840000
  14712  14734  14718     1   112.4800480 524.673600
  14713  14712  14726     1   111.5100476 526.347200
  14713  14712  14734     1   107.9700462 569.024000
  14713  14716  14717     1   111.5100476 526.347200
  14713  14716  14724     1   110.1900474 564.840000
  14716  14713  14725     1   110.1900474 564.840000
  14716  14717  14718     1   111.5100476 526.347200
  14716  14717  14723     1   110.1900474 564.840000
  14717  14716  14724     1   110.1900474 564.840000
  14717  14718  14722     1   107.9700462 569.024000
  14717  14718  14734     1   107.9700462 569.024000
  14718  14717  14723     1   110.1900474 564.840000
  14722  14718  14734     1   108.2900466 608.353600
  14726  14712  14734     1   107.9700462 569.024000
  14735  14736  14739     1   111.5100476 526.347200
  14735  14736  14748     1   110.1900474 564.840000
  14735  14749  14755     1   110.1900474 564.840000
  14735  14757  14741     1   112.4800480 524.673600
  14736  14739  14740     1   111.5100476 526.347200
  14736  14739  14747     1   110.1900474 564.840000
  14736  14735  14749     1   111.5100476 526.347200
  14736  14735  14757     1   107.9700462 569.024000
  14739  14740  14741     1   111.5100476 526.347200
  14739  14740  14746     1   110.1900474 564.840000
  14739  14736  14748     1   110.1900474 564.840000
  14740  14741  14745     1   107.9700462 569.024000
  14740  14741  14757     1   107.9700462 569.024000
  14740  14739  14747     1   110.1900474 564.840000
  14741  14740  14746     1   110.1900474 564.840000
  14745  14741  14757     1   108.2900466 608.353600
  14749  14735  14757     1   107.9700462 569.024000
  14758  14759  14762     1   111.5100476 526.347200
  14758  14759  14771     1   110.1900474 564.840000
  14758  14772  14778     1   110.1900474 564.840000
  14758  14780  14764     1   112.4800480 524.673600
  14759  14758  14772     1   111.5100476 526.347200
  14759  14758  14780     1   107.9700462 569.024000
  14759  14762  14763     1   111.5100476 526.347200
  14759  14762  14770     1   110.1900474 564.840000
  14762  14759  14771     1   110.1900474 564.840000
  14762  14763  14764     1   111.5100476 526.347200
  14762  14763  14769     1   110.1900474 564.840000
  14763  14762  14770     1   110.1900474 564.840000
  14763  14764  14768     1   107.9700462 569.024000
  14763  14764  14780     1   107.9700462 569.024000
  14764  14763  14769     1   110.1900474 564.840000
  14768  14764  14780     1   108.2900466 608.353600
  14772  14758  14780     1   107.9700462 569.024000
  14781  14782  14785     1   111.5100476 526.347200
  14781  14782  14794     1   110.1900474 564.840000
  14781  14795  14801     1   110.1900474 564.840000
  14781  14803  14787     1   112.4800480 524.673600
  14782  14785  14786     1   111.5100476 526.347200
  14782  14785  14793     1   110.1900474 564.840000
  14782  14781  14795     1   111.5100476 526.347200
  14782  14781  14803     1   107.9700462 569.024000
  14785  14786  14787     1   111.5100476 526.347200
  14785  14786  14792     1   110.1900474 564.840000
  14785  14782  14794     1   110.1900474 564.840000
  14786  14787  14791     1   107.9700462 569.024000
  14786  14787  14803     1   107.9700462 569.024000
  14786  14785  14793     1   110.1900474 564.840000
  14787  14786  14792     1   110.1900474 564.840000
  14791  14787  14803     1   108.2900466 608.353600
  14795  14781  14803     1   107.9700462 569.024000
  14804  14805  14808     1   111.5100476 526.347200
  14804  14805  14817     1   110.1900474 564.840000
  14804  14818  14824     1   110.1900474 564.840000
  14804  14826  14810     1   112.4800480 524.673600
  14805  14804  14818     1   111.5100476 526.347200
  14805  14804  14826     1   107.9700462 569.024000
  14805  14808  14809     1   111.5100476 526.347200
  14805  14808  14816     1   110.1900474 564.840000
  14808  14805  14817     1   110.1900474 564.840000
  14808  14809  14810     1   111.5100476 526.347200
  14808  14809  14815     1   110.1900474 564.840000
  14809  14808  14816     1   110.1900474 564.840000
  14809  14810  14814     1   107.9700462 569.024000
  14809  14810  14826     1   107.9700462 569.024000
  14810  14809  14815     1   110.1900474 564.840000
  14814  14810  14826     1   108.2900466 608.353600
  14818  14804  14826     1   107.9700462 569.024000
  14827  14828  14831     1   111.5100476 526.347200
  14827  14828  14840     1   110.1900474 564.840000
  14827  14841  14847     1   110.1900474 564.840000
  14827  14849  14833     1   112.4800480 524.673600
  14828  14831  14832     1   111.5100476 526.347200
  14828  14831  14839     1   110.1900474 564.840000
  14828  14827  14841     1   111.5100476 526.347200
  14828  14827  14849     1   107.9700462 569.024000
  14831  14832  14833     1   111.5100476 526.347200
  14831  14832  14838     1   110.1900474 564.840000
  14831  14828  14840     1   110.1900474 564.840000
  14832  14833  14837     1   107.9700462 569.024000
  14832  14833  14849     1   107.9700462 569.024000
  14832  14831  14839     1   110.1900474 564.840000
  14833  14832  14838     1   110.1900474 564.840000
  14837  14833  14849     1   108.2900466 608.353600
  14841  14827  14849     1   107.9700462 569.024000
  14850  14851  14854     1   111.5100476 526.347200
  14850  14851  14863     1   110.1900474 564.840000
  14850  14864  14870     1   110.1900474 564.840000
  14850  14872  14856     1   112.4800480 524.673600
  14851  14850  14864     1   111.5100476 526.347200
  14851  14850  14872     1   107.9700462 569.024000
  14851  14854  14855     1   111.5100476 526.347200
  14851  14854  14862     1   110.1900474 564.840000
  14854  14851  14863     1   110.1900474 564.840000
  14854  14855  14856     1   111.5100476 526.347200
  14854  14855  14861     1   110.1900474 564.840000
  14855  14854  14862     1   110.1900474 564.840000
  14855  14856  14860     1   107.9700462 569.024000
  14855  14856  14872     1   107.9700462 569.024000
  14856  14855  14861     1   110.1900474 564.840000
  14860  14856  14872     1   108.2900466 608.353600
  14864  14850  14872     1   107.9700462 569.024000
  14873  14874  14877     1   111.5100476 526.347200
  14873  14874  14886     1   110.1900474 564.840000
  14873  14887  14893     1   110.1900474 564.840000
  14873  14895  14879     1   112.4800480 524.673600
  14874  14877  14878     1   111.5100476 526.347200
  14874  14877  14885     1   110.1900474 564.840000
  14874  14873  14887     1   111.5100476 526.347200
  14874  14873  14895     1   107.9700462 569.024000
  14877  14878  14879     1   111.5100476 526.347200
  14877  14878  14884     1   110.1900474 564.840000
  14877  14874  14886     1   110.1900474 564.840000
  14878  14879  14883     1   107.9700462 569.024000
  14878  14879  14895     1   107.9700462 569.024000
  14878  14877  14885     1   110.1900474 564.840000
  14879  14878  14884     1   110.1900474 564.840000
  14883  14879  14895     1   108.2900466 608.353600
  14887  14873  14895     1   107.9700462 569.024000
  14896  14897  14900     1   111.5100476 526.347200
  14896  14897  14909     1   110.1900474 564.840000
  14896  14910  14916     1   110.1900474 564.840000
  14896  14918  14902     1   112.4800480 524.673600
  14897  14896  14910     1   111.5100476 526.347200
  14897  14896  14918     1   107.9700462 569.024000
  14897  14900  14901     1   111.5100476 526.347200
  14897  14900  14908     1   110.1900474 564.840000
  14900  14897  14909     1   110.1900474 564.840000
  14900  14901  14902     1   111.5100476 526.347200
  14900  14901  14907     1   110.1900474 564.840000
  14901  14900  14908     1   110.1900474 564.840000
  14901  14902  14906     1   107.9700462 569.024000
  14901  14902  14918     1   107.9700462 569.024000
  14902  14901  14907     1   110.1900474 564.840000
  14906  14902  14918     1   108.2900466 608.353600
  14910  14896  14918     1   107.9700462 569.024000
  14919  14920  14923     1   111.5100476 526.347200
  14919  14920  14932     1   110.1900474 564.840000
  14919  14933  14939     1   110.1900474 564.840000
  14919  14941  14925     1   112.4800480 524.673600
  14920  14923  14924     1   111.5100476 526.347200
  14920  14923  14931     1   110.1900474 564.840000
  14920  14919  14933     1   111.5100476 526.347200
  14920  14919  14941     1   107.9700462 569.024000
  14923  14924  14925     1   111.5100476 526.347200
  14923  14924  14930     1   110.1900474 564.840000
  14923  14920  14932     1   110.1900474 564.840000
  14924  14925  14929     1   107.9700462 569.024000
  14924  14925  14941     1   107.9700462 569.024000
  14924  14923  14931     1   110.1900474 564.840000
  14925  14924  14930     1   110.1900474 564.840000
  14929  14925  14941     1   108.2900466 608.353600
  14933  14919  14941     1   107.9700462 569.024000
  14942  14943  14946     1   111.5100476 526.347200
  14942  14943  14955     1   110.1900474 564.840000
  14942  14956  14962     1   110.1900474 564.840000
  14942  14964  14948     1   112.4800480 524.673600
  14943  14942  14956     1   111.5100476 526.347200
  14943  14942  14964     1   107.9700462 569.024000
  14943  14946  14947     1   111.5100476 526.347200
  14943  14946  14954     1   110.1900474 564.840000
  14946  14943  14955     1   110.1900474 564.840000
  14946  14947  14948     1   111.5100476 526.347200
  14946  14947  14953     1   110.1900474 564.840000
  14947  14946  14954     1   110.1900474 564.840000
  14947  14948  14952     1   107.9700462 569.024000
  14947  14948  14964     1   107.9700462 569.024000
  14948  14947  14953     1   110.1900474 564.840000
  14952  14948  14964     1   108.2900466 608.353600
  14956  14942  14964     1   107.9700462 569.024000
  14965  14966  14969     1   111.5100476 526.347200
  14965  14966  14978     1   110.1900474 564.840000
  14965  14979  14985     1   110.1900474 564.840000
  14965  14987  14971     1   112.4800480 524.673600
  14966  14969  14970     1   111.5100476 526.347200
  14966  14969  14977     1   110.1900474 564.840000
  14966  14965  14979     1   111.5100476 526.347200
  14966  14965  14987     1   107.9700462 569.024000
  14969  14970  14971     1   111.5100476 526.347200
  14969  14970  14976     1   110.1900474 564.840000
  14969  14966  14978     1   110.1900474 564.840000
  14970  14971  14975     1   107.9700462 569.024000
  14970  14971  14987     1   107.9700462 569.024000
  14970  14969  14977     1   110.1900474 564.840000
  14971  14970  14976     1   110.1900474 564.840000
  14975  14971  14987     1   108.2900466 608.353600
  14979  14965  14987     1   107.9700462 569.024000
  14988  14989  14992     1   111.5100476 526.347200
  14988  14989  15001     1   110.1900474 564.840000
  14988  15002  15008     1   110.1900474 564.840000
  14988  15010  14994     1   112.4800480 524.673600
  14989  14988  15002     1   111.5100476 526.347200
  14989  14988  15010     1   107.9700462 569.024000
  14989  14992  14993     1   111.5100476 526.347200
  14989  14992  15000     1   110.1900474 564.840000
  14992  14989  15001     1   110.1900474 564.840000
  14992  14993  14994     1   111.5100476 526.347200
  14992  14993  14999     1   110.1900474 564.840000
  14993  14992  15000     1   110.1900474 564.840000
  14993  14994  14998     1   107.9700462 569.024000
  14993  14994  15010     1   107.9700462 569.024000
  14994  14993  14999     1   110.1900474 564.840000
  14998  14994  15010     1   108.2900466 608.353600
  15002  14988  15010     1   107.9700462 569.024000
  15011  15012  15015     1   111.5100476 526.347200
  15011  15012  15024     1   110.1900474 564.840000
  15011  15025  15031     1   110.1900474 564.840000
  15011  15033  15017     1   112.4800480 524.673600
  15012  15015  15016     1   111.5100476 526.347200
  15012  15015  15023     1   110.1900474 564.840000
  15012  15011  15025     1   111.5100476 526.347200
  15012  15011  15033     1   107.9700462 569.024000
  15015  15016  15017     1   111.5100476 526.347200
  15015  15016  15022     1   110.1900474 564.840000
  15015  15012  15024     1   110.1900474 564.840000
  15016  15017  15021     1   107.9700462 569.024000
  15016  15017  15033     1   107.9700462 569.024000
  15016  15015  15023     1   110.1900474 564.840000
  15017  15016  15022     1   110.1900474 564.840000
  15021  15017  15033     1   108.2900466 608.353600
  15025  15011  15033     1   107.9700462 569.024000
  15034  15035  15038     1   111.5100476 526.347200
  15034  15035  15047     1   110.1900474 564.840000
  15034  15048  15054     1   110.1900474 564.840000
  15034  15056  15040     1   112.4800480 524.673600
  15035  15034  15048     1   111.5100476 526.347200
  15035  15034  15056     1   107.9700462 569.024000
  15035  15038  15039     1   111.5100476 526.347200
  15035  15038  15046     1   110.1900474 564.840000
  15038  15035  15047     1   110.1900474 564.840000
  15038  15039  15040     1   111.5100476 526.347200
  15038  15039  15045     1   110.1900474 564.840000
  15039  15038  15046     1   110.1900474 564.840000
  15039  15040  15044     1   107.9700462 569.024000
  15039  15040  15056     1   107.9700462 569.024000
  15040  15039  15045     1   110.1900474 564.840000
  15044  15040  15056     1   108.2900466 608.353600
  15048  15034  15056     1   107.9700462 569.024000
  15057  15058  15061     1   111.5100476 526.347200
  15057  15058  15070     1   110.1900474 564.840000
  15057  15071  15077     1   110.1900474 564.840000
  15057  15079  15063     1   112.4800480 524.673600
  15058  15061  15062     1   111.5100476 526.347200
  15058  15061  15069     1   110.1900474 564.840000
  15058  15057  15071     1   111.5100476 526.347200
  15058  15057  15079     1   107.9700462 569.024000
  15061  15062  15063     1   111.5100476 526.347200
  15061  15062  15068     1   110.1900474 564.840000
  15061  15058  15070     1   110.1900474 564.840000
  15062  15063  15067     1   107.9700462 569.024000
  15062  15063  15079     1   107.9700462 569.024000
  15062  15061  15069     1   110.1900474 564.840000
  15063  15062  15068     1   110.1900474 564.840000
  15067  15063  15079     1   108.2900466 608.353600
  15071  15057  15079     1   107.9700462 569.024000
  15080  15081  15084     1   111.5100476 526.347200
  15080  15081  15093     1   110.1900474 564.840000
  15080  15094  15100     1   110.1900474 564.840000
  15080  15102  15086     1   112.4800480 524.673600
  15081  15080  15094     1   111.5100476 526.347200
  15081  15080  15102     1   107.9700462 569.024000
  15081  15084  15085     1   111.5100476 526.347200
  15081  15084  15092     1   110.1900474 564.840000
  15084  15081  15093     1   110.1900474 564.840000
  15084  15085  15086     1   111.5100476 526.347200
  15084  15085  15091     1   110.1900474 564.840000
  15085  15084  15092     1   110.1900474 564.840000
  15085  15086  15090     1   107.9700462 569.024000
  15085  15086  15102     1   107.9700462 569.024000
  15086  15085  15091     1   110.1900474 564.840000
  15090  15086  15102     1   108.2900466 608.353600
  15094  15080  15102     1   107.9700462 569.024000
  15103  15104  15107     1   111.5100476 526.347200
  15103  15104  15116     1   110.1900474 564.840000
  15103  15117  15123     1   110.1900474 564.840000
  15103  15125  15109     1   112.4800480 524.673600
  15104  15107  15108     1   111.5100476 526.347200
  15104  15107  15115     1   110.1900474 564.840000
  15104  15103  15117     1   111.5100476 526.347200
  15104  15103  15125     1   107.9700462 569.024000
  15107  15108  15109     1   111.5100476 526.347200
  15107  15108  15114     1   110.1900474 564.840000
  15107  15104  15116     1   110.1900474 564.840000
  15108  15109  15113     1   107.9700462 569.024000
  15108  15109  15125     1   107.9700462 569.024000
  15108  15107  15115     1   110.1900474 564.840000
  15109  15108  15114     1   110.1900474 564.840000
  15113  15109  15125     1   108.2900466 608.353600
  15117  15103  15125     1   107.9700462 569.024000
  15126  15127  15130     1   111.5100476 526.347200
  15126  15127  15139     1   110.1900474 564.840000
  15126  15140  15146     1   110.1900474 564.840000
  15126  15148  15132     1   112.4800480 524.673600
  15127  15126  15140     1   111.5100476 526.347200
  15127  15126  15148     1   107.9700462 569.024000
  15127  15130  15131     1   111.5100476 526.347200
  15127  15130  15138     1   110.1900474 564.840000
  15130  15127  15139     1   110.1900474 564.840000
  15130  15131  15132     1   111.5100476 526.347200
  15130  15131  15137     1   110.1900474 564.840000
  15131  15130  15138     1   110.1900474 564.840000
  15131  15132  15136     1   107.9700462 569.024000
  15131  15132  15148     1   107.9700462 569.024000
  15132  15131  15137     1   110.1900474 564.840000
  15136  15132  15148     1   108.2900466 608.353600
  15140  15126  15148     1   107.9700462 569.024000
  15149  15150  15153     1   111.5100476 526.347200
  15149  15150  15162     1   110.1900474 564.840000
  15149  15163  15169     1   110.1900474 564.840000
  15149  15171  15155     1   112.4800480 524.673600
  15150  15153  15154     1   111.5100476 526.347200
  15150  15153  15161     1   110.1900474 564.840000
  15150  15149  15163     1   111.5100476 526.347200
  15150  15149  15171     1   107.9700462 569.024000
  15153  15154  15155     1   111.5100476 526.347200
  15153  15154  15160     1   110.1900474 564.840000
  15153  15150  15162     1   110.1900474 564.840000
  15154  15155  15159     1   107.9700462 569.024000
  15154  15155  15171     1   107.9700462 569.024000
  15154  15153  15161     1   110.1900474 564.840000
  15155  15154  15160     1   110.1900474 564.840000
  15159  15155  15171     1   108.2900466 608.353600
  15163  15149  15171     1   107.9700462 569.024000
  15172  15173  15176     1   111.5100476 526.347200
  15172  15173  15185     1   110.1900474 564.840000
  15172  15186  15192     1   110.1900474 564.840000
  15172  15194  15178     1   112.4800480 524.673600
  15173  15172  15186     1   111.5100476 526.347200
  15173  15172  15194     1   107.9700462 569.024000
  15173  15176  15177     1   111.5100476 526.347200
  15173  15176  15184     1   110.1900474 564.840000
  15176  15173  15185     1   110.1900474 564.840000
  15176  15177  15178     1   111.5100476 526.347200
  15176  15177  15183     1   110.1900474 564.840000
  15177  15176  15184     1   110.1900474 564.840000
  15177  15178  15182     1   107.9700462 569.024000
  15177  15178  15194     1   107.9700462 569.024000
  15178  15177  15183     1   110.1900474 564.840000
  15182  15178  15194     1   108.2900466 608.353600
  15186  15172  15194     1   107.9700462 569.024000
  15195  15196  15199     1   111.5100476 526.347200
  15195  15196  15208     1   110.1900474 564.840000
  15195  15209  15215     1   110.1900474 564.840000
  15195  15217  15201     1   112.4800480 524.673600
  15196  15199  15200     1   111.5100476 526.347200
  15196  15199  15207     1   110.1900474 564.840000
  15196  15195  15209     1   111.5100476 526.347200
  15196  15195  15217     1   107.9700462 569.024000
  15199  15200  15201     1   111.5100476 526.347200
  15199  15200  15206     1   110.1900474 564.840000
  15199  15196  15208     1   110.1900474 564.840000
  15200  15201  15205     1   107.9700462 569.024000
  15200  15201  15217     1   107.9700462 569.024000
  15200  15199  15207     1   110.1900474 564.840000
  15201  15200  15206     1   110.1900474 564.840000
  15205  15201  15217     1   108.2900466 608.353600
  15209  15195  15217     1   107.9700462 569.024000
  15218  15219  15222     1   111.5100476 526.347200
  15218  15219  15231     1   110.1900474 564.840000
  15218  15232  15238     1   110.1900474 564.840000
  15218  15240  15224     1   112.4800480 524.673600
  15219  15218  15232     1   111.5100476 526.347200
  15219  15218  15240     1   107.9700462 569.024000
  15219  15222  15223     1   111.5100476 526.347200
  15219  15222  15230     1   110.1900474 564.840000
  15222  15219  15231     1   110.1900474 564.840000
  15222  15223  15224     1   111.5100476 526.347200
  15222  15223  15229     1   110.1900474 564.840000
  15223  15222  15230     1   110.1900474 564.840000
  15223  15224  15228     1   107.9700462 569.024000
  15223  15224  15240     1   107.9700462 569.024000
  15224  15223  15229     1   110.1900474 564.840000
  15228  15224  15240     1   108.2900466 608.353600
  15232  15218  15240     1   107.9700462 569.024000
  15241  15242  15245     1   111.5100476 526.347200
  15241  15242  15254     1   110.1900474 564.840000
  15241  15255  15261     1   110.1900474 564.840000
  15241  15263  15247     1   112.4800480 524.673600
  15242  15245  15246     1   111.5100476 526.347200
  15242  15245  15253     1   110.1900474 564.840000
  15242  15241  15255     1   111.5100476 526.347200
  15242  15241  15263     1   107.9700462 569.024000
  15245  15246  15247     1   111.5100476 526.347200
  15245  15246  15252     1   110.1900474 564.840000
  15245  15242  15254     1   110.1900474 564.840000
  15246  15247  15251     1   107.9700462 569.024000
  15246  15247  15263     1   107.9700462 569.024000
  15246  15245  15253     1   110.1900474 564.840000
  15247  15246  15252     1   110.1900474 564.840000
  15251  15247  15263     1   108.2900466 608.353600
  15255  15241  15263     1   107.9700462 569.024000
  15264  15265  15268     1   111.5100476 526.347200
  15264  15265  15277     1   110.1900474 564.840000
  15264  15278  15284     1   110.1900474 564.840000
  15264  15286  15270     1   112.4800480 524.673600
  15265  15264  15278     1   111.5100476 526.347200
  15265  15264  15286     1   107.9700462 569.024000
  15265  15268  15269     1   111.5100476 526.347200
  15265  15268  15276     1   110.1900474 564.840000
  15268  15265  15277     1   110.1900474 564.840000
  15268  15269  15270     1   111.5100476 526.347200
  15268  15269  15275     1   110.1900474 564.840000
  15269  15268  15276     1   110.1900474 564.840000
  15269  15270  15274     1   107.9700462 569.024000
  15269  15270  15286     1   107.9700462 569.024000
  15270  15269  15275     1   110.1900474 564.840000
  15274  15270  15286     1   108.2900466 608.353600
  15278  15264  15286     1   107.9700462 569.024000
  15287  15288  15291     1   111.5100476 526.347200
  15287  15288  15300     1   110.1900474 564.840000
  15287  15301  15307     1   110.1900474 564.840000
  15287  15309  15293     1   112.4800480 524.673600
  15288  15291  15292     1   111.5100476 526.347200
  15288  15291  15299     1   110.1900474 564.840000
  15288  15287  15301     1   111.5100476 526.347200
  15288  15287  15309     1   107.9700462 569.024000
  15291  15292  15293     1   111.5100476 526.347200
  15291  15292  15298     1   110.1900474 564.840000
  15291  15288  15300     1   110.1900474 564.840000
  15292  15293  15297     1   107.9700462 569.024000
  15292  15293  15309     1   107.9700462 569.024000
  15292  15291  15299     1   110.1900474 564.840000
  15293  15292  15298     1   110.1900474 564.840000
  15297  15293  15309     1   108.2900466 608.353600
  15301  15287  15309     1   107.9700462 569.024000
  15310  15311  15314     1   111.5100476 526.347200
  15310  15311  15323     1   110.1900474 564.840000
  15310  15324  15330     1   110.1900474 564.840000
  15310  15332  15316     1   112.4800480 524.673600
  15311  15310  15324     1   111.5100476 526.347200
  15311  15310  15332     1   107.9700462 569.024000
  15311  15314  15315     1   111.5100476 526.347200
  15311  15314  15322     1   110.1900474 564.840000
  15314  15311  15323     1   110.1900474 564.840000
  15314  15315  15316     1   111.5100476 526.347200
  15314  15315  15321     1   110.1900474 564.840000
  15315  15314  15322     1   110.1900474 564.840000
  15315  15316  15320     1   107.9700462 569.024000
  15315  15316  15332     1   107.9700462 569.024000
  15316  15315  15321     1   110.1900474 564.840000
  15320  15316  15332     1   108.2900466 608.353600
  15324  15310  15332     1   107.9700462 569.024000
  15333  15334  15337     1   111.5100476 526.347200
  15333  15334  15346     1   110.1900474 564.840000
  15333  15347  15353     1   110.1900474 564.840000
  15333  15355  15339     1   112.4800480 524.673600
  15334  15337  15338     1   111.5100476 526.347200
  15334  15337  15345     1   110.1900474 564.840000
  15334  15333  15347     1   111.5100476 526.347200
  15334  15333  15355     1   107.9700462 569.024000
  15337  15338  15339     1   111.5100476 526.347200
  15337  15338  15344     1   110.1900474 564.840000
  15337  15334  15346     1   110.1900474 564.840000
  15338  15339  15343     1   107.9700462 569.024000
  15338  15339  15355     1   107.9700462 569.024000
  15338  15337  15345     1   110.1900474 564.840000
  15339  15338  15344     1   110.1900474 564.840000
  15343  15339  15355     1   108.2900466 608.353600
  15347  15333  15355     1   107.9700462 569.024000
  15356  15357  15360     1   111.5100476 526.347200
  15356  15357  15369     1   110.1900474 564.840000
  15356  15370  15376     1   110.1900474 564.840000
  15356  15378  15362     1   112.4800480 524.673600
  15357  15356  15370     1   111.5100476 526.347200
  15357  15356  15378     1   107.9700462 569.024000
  15357  15360  15361     1   111.5100476 526.347200
  15357  15360  15368     1   110.1900474 564.840000
  15360  15357  15369     1   110.1900474 564.840000
  15360  15361  15362     1   111.5100476 526.347200
  15360  15361  15367     1   110.1900474 564.840000
  15361  15360  15368     1   110.1900474 564.840000
  15361  15362  15366     1   107.9700462 569.024000
  15361  15362  15378     1   107.9700462 569.024000
  15362  15361  15367     1   110.1900474 564.840000
  15366  15362  15378     1   108.2900466 608.353600
  15370  15356  15378     1   107.9700462 569.024000
  15379  15380  15383     1   111.5100476 526.347200
  15379  15380  15392     1   110.1900474 564.840000
  15379  15393  15399     1   110.1900474 564.840000
  15379  15401  15385     1   112.4800480 524.673600
  15380  15383  15384     1   111.5100476 526.347200
  15380  15383  15391     1   110.1900474 564.840000
  15380  15379  15393     1   111.5100476 526.347200
  15380  15379  15401     1   107.9700462 569.024000
  15383  15384  15385     1   111.5100476 526.347200
  15383  15384  15390     1   110.1900474 564.840000
  15383  15380  15392     1   110.1900474 564.840000
  15384  15385  15389     1   107.9700462 569.024000
  15384  15385  15401     1   107.9700462 569.024000
  15384  15383  15391     1   110.1900474 564.840000
  15385  15384  15390     1   110.1900474 564.840000
  15389  15385  15401     1   108.2900466 608.353600
  15393  15379  15401     1   107.9700462 569.024000
  15402  15403  15406     1   111.5100476 526.347200
  15402  15403  15415     1   110.1900474 564.840000
  15402  15416  15422     1   110.1900474 564.840000
  15402  15424  15408     1   112.4800480 524.673600
  15403  15402  15416     1   111.5100476 526.347200
  15403  15402  15424     1   107.9700462 569.024000
  15403  15406  15407     1   111.5100476 526.347200
  15403  15406  15414     1   110.1900474 564.840000
  15406  15403  15415     1   110.1900474 564.840000
  15406  15407  15408     1   111.5100476 526.347200
  15406  15407  15413     1   110.1900474 564.840000
  15407  15406  15414     1   110.1900474 564.840000
  15407  15408  15412     1   107.9700462 569.024000
  15407  15408  15424     1   107.9700462 569.024000
  15408  15407  15413     1   110.1900474 564.840000
  15412  15408  15424     1   108.2900466 608.353600
  15416  15402  15424     1   107.9700462 569.024000
  15425  15426  15429     1   111.5100476 526.347200
  15425  15426  15438     1   110.1900474 564.840000
  15425  15439  15445     1   110.1900474 564.840000
  15425  15447  15431     1   112.4800480 524.673600
  15426  15429  15430     1   111.5100476 526.347200
  15426  15429  15437     1   110.1900474 564.840000
  15426  15425  15439     1   111.5100476 526.347200
  15426  15425  15447     1   107.9700462 569.024000
  15429  15430  15431     1   111.5100476 526.347200
  15429  15430  15436     1   110.1900474 564.840000
  15429  15426  15438     1   110.1900474 564.840000
  15430  15431  15435     1   107.9700462 569.024000
  15430  15431  15447     1   107.9700462 569.024000
  15430  15429  15437     1   110.1900474 564.840000
  15431  15430  15436     1   110.1900474 564.840000
  15435  15431  15447     1   108.2900466 608.353600
  15439  15425  15447     1   107.9700462 569.024000
  15448  15449  15452     1   111.5100476 526.347200
  15448  15449  15461     1   110.1900474 564.840000
  15448  15462  15468     1   110.1900474 564.840000
  15448  15470  15454     1   112.4800480 524.673600
  15449  15448  15462     1   111.5100476 526.347200
  15449  15448  15470     1   107.9700462 569.024000
  15449  15452  15453     1   111.5100476 526.347200
  15449  15452  15460     1   110.1900474 564.840000
  15452  15449  15461     1   110.1900474 564.840000
  15452  15453  15454     1   111.5100476 526.347200
  15452  15453  15459     1   110.1900474 564.840000
  15453  15452  15460     1   110.1900474 564.840000
  15453  15454  15458     1   107.9700462 569.024000
  15453  15454  15470     1   107.9700462 569.024000
  15454  15453  15459     1   110.1900474 564.840000
  15458  15454  15470     1   108.2900466 608.353600
  15462  15448  15470     1   107.9700462 569.024000
  15471  15472  15475     1   111.5100476 526.347200
  15471  15472  15484     1   110.1900474 564.840000
  15471  15485  15491     1   110.1900474 564.840000
  15471  15493  15477     1   112.4800480 524.673600
  15472  15475  15476     1   111.5100476 526.347200
  15472  15475  15483     1   110.1900474 564.840000
  15472  15471  15485     1   111.5100476 526.347200
  15472  15471  15493     1   107.9700462 569.024000
  15475  15476  15477     1   111.5100476 526.347200
  15475  15476  15482     1   110.1900474 564.840000
  15475  15472  15484     1   110.1900474 564.840000
  15476  15477  15481     1   107.9700462 569.024000
  15476  15477  15493     1   107.9700462 569.024000
  15476  15475  15483     1   110.1900474 564.840000
  15477  15476  15482     1   110.1900474 564.840000
  15481  15477  15493     1   108.2900466 608.353600
  15485  15471  15493     1   107.9700462 569.024000
  15494  15495  15498     1   111.5100476 526.347200
  15494  15495  15507     1   110.1900474 564.840000
  15494  15508  15514     1   110.1900474 564.840000
  15494  15516  15500     1   112.4800480 524.673600
  15495  15494  15508     1   111.5100476 526.347200
  15495  15494  15516     1   107.9700462 569.024000
  15495  15498  15499     1   111.5100476 526.347200
  15495  15498  15506     1   110.1900474 564.840000
  15498  15495  15507     1   110.1900474 564.840000
  15498  15499  15500     1   111.5100476 526.347200
  15498  15499  15505     1   110.1900474 564.840000
  15499  15498  15506     1   110.1900474 564.840000
  15499  15500  15504     1   107.9700462 569.024000
  15499  15500  15516     1   107.9700462 569.024000
  15500  15499  15505     1   110.1900474 564.840000
  15504  15500  15516     1   108.2900466 608.353600
  15508  15494  15516     1   107.9700462 569.024000
  15517  15518  15521     1   111.5100476 526.347200
  15517  15518  15530     1   110.1900474 564.840000
  15517  15531  15537     1   110.1900474 564.840000
  15517  15539  15523     1   112.4800480 524.673600
  15518  15521  15522     1   111.5100476 526.347200
  15518  15521  15529     1   110.1900474 564.840000
  15518  15517  15531     1   111.5100476 526.347200
  15518  15517  15539     1   107.9700462 569.024000
  15521  15522  15523     1   111.5100476 526.347200
  15521  15522  15528     1   110.1900474 564.840000
  15521  15518  15530     1   110.1900474 564.840000
  15522  15523  15527     1   107.9700462 569.024000
  15522  15523  15539     1   107.9700462 569.024000
  15522  15521  15529     1   110.1900474 564.840000
  15523  15522  15528     1   110.1900474 564.840000
  15527  15523  15539     1   108.2900466 608.353600
  15531  15517  15539     1   107.9700462 569.024000
  15540  15541  15544     1   111.5100476 526.347200
  15540  15541  15553     1   110.1900474 564.840000
  15540  15554  15560     1   110.1900474 564.840000
  15540  15562  15546     1   112.4800480 524.673600
  15541  15540  15554     1   111.5100476 526.347200
  15541  15540  15562     1   107.9700462 569.024000
  15541  15544  15545     1   111.5100476 526.347200
  15541  15544  15552     1   110.1900474 564.840000
  15544  15541  15553     1   110.1900474 564.840000
  15544  15545  15546     1   111.5100476 526.347200
  15544  15545  15551     1   110.1900474 564.840000
  15545  15544  15552     1   110.1900474 564.840000
  15545  15546  15550     1   107.9700462 569.024000
  15545  15546  15562     1   107.9700462 569.024000
  15546  15545  15551     1   110.1900474 564.840000
  15550  15546  15562     1   108.2900466 608.353600
  15554  15540  15562     1   107.9700462 569.024000
  15563  15564  15567     1   111.5100476 526.347200
  15563  15564  15576     1   110.1900474 564.840000
  15563  15577  15583     1   110.1900474 564.840000
  15563  15585  15569     1   112.4800480 524.673600
  15564  15567  15568     1   111.5100476 526.347200
  15564  15567  15575     1   110.1900474 564.840000
  15564  15563  15577     1   111.5100476 526.347200
  15564  15563  15585     1   107.9700462 569.024000
  15567  15568  15569     1   111.5100476 526.347200
  15567  15568  15574     1   110.1900474 564.840000
  15567  15564  15576     1   110.1900474 564.840000
  15568  15569  15573     1   107.9700462 569.024000
  15568  15569  15585     1   107.9700462 569.024000
  15568  15567  15575     1   110.1900474 564.840000
  15569  15568  15574     1   110.1900474 564.840000
  15573  15569  15585     1   108.2900466 608.353600
  15577  15563  15585     1   107.9700462 569.024000
  15586  15587  15590     1   111.5100476 526.347200
  15586  15587  15599     1   110.1900474 564.840000
  15586  15600  15606     1   110.1900474 564.840000
  15586  15608  15592     1   112.4800480 524.673600
  15587  15586  15600     1   111.5100476 526.347200
  15587  15586  15608     1   107.9700462 569.024000
  15587  15590  15591     1   111.5100476 526.347200
  15587  15590  15598     1   110.1900474 564.840000
  15590  15587  15599     1   110.1900474 564.840000
  15590  15591  15592     1   111.5100476 526.347200
  15590  15591  15597     1   110.1900474 564.840000
  15591  15590  15598     1   110.1900474 564.840000
  15591  15592  15596     1   107.9700462 569.024000
  15591  15592  15608     1   107.9700462 569.024000
  15592  15591  15597     1   110.1900474 564.840000
  15596  15592  15608     1   108.2900466 608.353600
  15600  15586  15608     1   107.9700462 569.024000
  15609  15610  15613     1   111.5100476 526.347200
  15609  15610  15622     1   110.1900474 564.840000
  15609  15623  15629     1   110.1900474 564.840000
  15609  15631  15615     1   112.4800480 524.673600
  15610  15613  15614     1   111.5100476 526.347200
  15610  15613  15621     1   110.1900474 564.840000
  15610  15609  15623     1   111.5100476 526.347200
  15610  15609  15631     1   107.9700462 569.024000
  15613  15614  15615     1   111.5100476 526.347200
  15613  15614  15620     1   110.1900474 564.840000
  15613  15610  15622     1   110.1900474 564.840000
  15614  15615  15619     1   107.9700462 569.024000
  15614  15615  15631     1   107.9700462 569.024000
  15614  15613  15621     1   110.1900474 564.840000
  15615  15614  15620     1   110.1900474 564.840000
  15619  15615  15631     1   108.2900466 608.353600
  15623  15609  15631     1   107.9700462 569.024000
  15632  15633  15636     1   111.5100476 526.347200
  15632  15633  15645     1   110.1900474 564.840000
  15632  15646  15652     1   110.1900474 564.840000
  15632  15654  15638     1   112.4800480 524.673600
  15633  15632  15646     1   111.5100476 526.347200
  15633  15632  15654     1   107.9700462 569.024000
  15633  15636  15637     1   111.5100476 526.347200
  15633  15636  15644     1   110.1900474 564.840000
  15636  15633  15645     1   110.1900474 564.840000
  15636  15637  15638     1   111.5100476 526.347200
  15636  15637  15643     1   110.1900474 564.840000
  15637  15636  15644     1   110.1900474 564.840000
  15637  15638  15642     1   107.9700462 569.024000
  15637  15638  15654     1   107.9700462 569.024000
  15638  15637  15643     1   110.1900474 564.840000
  15642  15638  15654     1   108.2900466 608.353600
  15646  15632  15654     1   107.9700462 569.024000
  15655  15656  15659     1   111.5100476 526.347200
  15655  15656  15668     1   110.1900474 564.840000
  15655  15669  15675     1   110.1900474 564.840000
  15655  15677  15661     1   112.4800480 524.673600
  15656  15659  15660     1   111.5100476 526.347200
  15656  15659  15667     1   110.1900474 564.840000
  15656  15655  15669     1   111.5100476 526.347200
  15656  15655  15677     1   107.9700462 569.024000
  15659  15660  15661     1   111.5100476 526.347200
  15659  15660  15666     1   110.1900474 564.840000
  15659  15656  15668     1   110.1900474 564.840000
  15660  15661  15665     1   107.9700462 569.024000
  15660  15661  15677     1   107.9700462 569.024000
  15660  15659  15667     1   110.1900474 564.840000
  15661  15660  15666     1   110.1900474 564.840000
  15665  15661  15677     1   108.2900466 608.353600
  15669  15655  15677     1   107.9700462 569.024000
  15678  15679  15682     1   111.5100476 526.347200
  15678  15679  15691     1   110.1900474 564.840000
  15678  15692  15698     1   110.1900474 564.840000
  15678  15700  15684     1   112.4800480 524.673600
  15679  15678  15692     1   111.5100476 526.347200
  15679  15678  15700     1   107.9700462 569.024000
  15679  15682  15683     1   111.5100476 526.347200
  15679  15682  15690     1   110.1900474 564.840000
  15682  15679  15691     1   110.1900474 564.840000
  15682  15683  15684     1   111.5100476 526.347200
  15682  15683  15689     1   110.1900474 564.840000
  15683  15682  15690     1   110.1900474 564.840000
  15683  15684  15688     1   107.9700462 569.024000
  15683  15684  15700     1   107.9700462 569.024000
  15684  15683  15689     1   110.1900474 564.840000
  15688  15684  15700     1   108.2900466 608.353600
  15692  15678  15700     1   107.9700462 569.024000
  15701  15702  15705     1   111.5100476 526.347200
  15701  15702  15714     1   110.1900474 564.840000
  15701  15715  15721     1   110.1900474 564.840000
  15701  15723  15707     1   112.4800480 524.673600
  15702  15705  15706     1   111.5100476 526.347200
  15702  15705  15713     1   110.1900474 564.840000
  15702  15701  15715     1   111.5100476 526.347200
  15702  15701  15723     1   107.9700462 569.024000
  15705  15706  15707     1   111.5100476 526.347200
  15705  15706  15712     1   110.1900474 564.840000
  15705  15702  15714     1   110.1900474 564.840000
  15706  15707  15711     1   107.9700462 569.024000
  15706  15707  15723     1   107.9700462 569.024000
  15706  15705  15713     1   110.1900474 564.840000
  15707  15706  15712     1   110.1900474 564.840000
  15711  15707  15723     1   108.2900466 608.353600
  15715  15701  15723     1   107.9700462 569.024000
  15724  15725  15728     1   111.5100476 526.347200
  15724  15725  15737     1   110.1900474 564.840000
  15724  15738  15744     1   110.1900474 564.840000
  15724  15746  15730     1   112.4800480 524.673600
  15725  15724  15738     1   111.5100476 526.347200
  15725  15724  15746     1   107.9700462 569.024000
  15725  15728  15729     1   111.5100476 526.347200
  15725  15728  15736     1   110.1900474 564.840000
  15728  15725  15737     1   110.1900474 564.840000
  15728  15729  15730     1   111.5100476 526.347200
  15728  15729  15735     1   110.1900474 564.840000
  15729  15728  15736     1   110.1900474 564.840000
  15729  15730  15734     1   107.9700462 569.024000
  15729  15730  15746     1   107.9700462 569.024000
  15730  15729  15735     1   110.1900474 564.840000
  15734  15730  15746     1   108.2900466 608.353600
  15738  15724  15746     1   107.9700462 569.024000
  15747  15748  15751     1   111.5100476 526.347200
  15747  15748  15760     1   110.1900474 564.840000
  15747  15761  15767     1   110.1900474 564.840000
  15747  15769  15753     1   112.4800480 524.673600
  15748  15751  15752     1   111.5100476 526.347200
  15748  15751  15759     1   110.1900474 564.840000
  15748  15747  15761     1   111.5100476 526.347200
  15748  15747  15769     1   107.9700462 569.024000
  15751  15752  15753     1   111.5100476 526.347200
  15751  15752  15758     1   110.1900474 564.840000
  15751  15748  15760     1   110.1900474 564.840000
  15752  15753  15757     1   107.9700462 569.024000
  15752  15753  15769     1   107.9700462 569.024000
  15752  15751  15759     1   110.1900474 564.840000
  15753  15752  15758     1   110.1900474 564.840000
  15757  15753  15769     1   108.2900466 608.353600
  15761  15747  15769     1   107.9700462 569.024000
  15770  15771  15774     1   111.5100476 526.347200
  15770  15771  15783     1   110.1900474 564.840000
  15770  15784  15790     1   110.1900474 564.840000
  15770  15792  15776     1   112.4800480 524.673600
  15771  15770  15784     1   111.5100476 526.347200
  15771  15770  15792     1   107.9700462 569.024000
  15771  15774  15775     1   111.5100476 526.347200
  15771  15774  15782     1   110.1900474 564.840000
  15774  15771  15783     1   110.1900474 564.840000
  15774  15775  15776     1   111.5100476 526.347200
  15774  15775  15781     1   110.1900474 564.840000
  15775  15774  15782     1   110.1900474 564.840000
  15775  15776  15780     1   107.9700462 569.024000
  15775  15776  15792     1   107.9700462 569.024000
  15776  15775  15781     1   110.1900474 564.840000
  15780  15776  15792     1   108.2900466 608.353600
  15784  15770  15792     1   107.9700462 569.024000
  15793  15794  15797     1   111.5100476 526.347200
  15793  15794  15806     1   110.1900474 564.840000
  15793  15807  15813     1   110.1900474 564.840000
  15793  15815  15799     1   112.4800480 524.673600
  15794  15797  15798     1   111.5100476 526.347200
  15794  15797  15805     1   110.1900474 564.840000
  15794  15793  15807     1   111.5100476 526.347200
  15794  15793  15815     1   107.9700462 569.024000
  15797  15798  15799     1   111.5100476 526.347200
  15797  15798  15804     1   110.1900474 564.840000
  15797  15794  15806     1   110.1900474 564.840000
  15798  15799  15803     1   107.9700462 569.024000
  15798  15799  15815     1   107.9700462 569.024000
  15798  15797  15805     1   110.1900474 564.840000
  15799  15798  15804     1   110.1900474 564.840000
  15803  15799  15815     1   108.2900466 608.353600
  15807  15793  15815     1   107.9700462 569.024000
  15816  15817  15820     1   111.5100476 526.347200
  15816  15817  15829     1   110.1900474 564.840000
  15816  15830  15836     1   110.1900474 564.840000
  15816  15838  15822     1   112.4800480 524.673600
  15817  15816  15830     1   111.5100476 526.347200
  15817  15816  15838     1   107.9700462 569.024000
  15817  15820  15821     1   111.5100476 526.347200
  15817  15820  15828     1   110.1900474 564.840000
  15820  15817  15829     1   110.1900474 564.840000
  15820  15821  15822     1   111.5100476 526.347200
  15820  15821  15827     1   110.1900474 564.840000
  15821  15820  15828     1   110.1900474 564.840000
  15821  15822  15826     1   107.9700462 569.024000
  15821  15822  15838     1   107.9700462 569.024000
  15822  15821  15827     1   110.1900474 564.840000
  15826  15822  15838     1   108.2900466 608.353600
  15830  15816  15838     1   107.9700462 569.024000
  15839  15840  15843     1   111.5100476 526.347200
  15839  15840  15852     1   110.1900474 564.840000
  15839  15853  15859     1   110.1900474 564.840000
  15839  15861  15845     1   112.4800480 524.673600
  15840  15843  15844     1   111.5100476 526.347200
  15840  15843  15851     1   110.1900474 564.840000
  15840  15839  15853     1   111.5100476 526.347200
  15840  15839  15861     1   107.9700462 569.024000
  15843  15844  15845     1   111.5100476 526.347200
  15843  15844  15850     1   110.1900474 564.840000
  15843  15840  15852     1   110.1900474 564.840000
  15844  15845  15849     1   107.9700462 569.024000
  15844  15845  15861     1   107.9700462 569.024000
  15844  15843  15851     1   110.1900474 564.840000
  15845  15844  15850     1   110.1900474 564.840000
  15849  15845  15861     1   108.2900466 608.353600
  15853  15839  15861     1   107.9700462 569.024000
  15862  15863  15866     1   111.5100476 526.347200
  15862  15863  15875     1   110.1900474 564.840000
  15862  15876  15882     1   110.1900474 564.840000
  15862  15884  15868     1   112.4800480 524.673600
  15863  15862  15876     1   111.5100476 526.347200
  15863  15862  15884     1   107.9700462 569.024000
  15863  15866  15867     1   111.5100476 526.347200
  15863  15866  15874     1   110.1900474 564.840000
  15866  15863  15875     1   110.1900474 564.840000
  15866  15867  15868     1   111.5100476 526.347200
  15866  15867  15873     1   110.1900474 564.840000
  15867  15866  15874     1   110.1900474 564.840000
  15867  15868  15872     1   107.9700462 569.024000
  15867  15868  15884     1   107.9700462 569.024000
  15868  15867  15873     1   110.1900474 564.840000
  15872  15868  15884     1   108.2900466 608.353600
  15876  15862  15884     1   107.9700462 569.024000
  15885  15886  15889     1   111.5100476 526.347200
  15885  15886  15898     1   110.1900474 564.840000
  15885  15899  15905     1   110.1900474 564.840000
  15885  15907  15891     1   112.4800480 524.673600
  15886  15889  15890     1   111.5100476 526.347200
  15886  15889  15897     1   110.1900474 564.840000
  15886  15885  15899     1   111.5100476 526.347200
  15886  15885  15907     1   107.9700462 569.024000
  15889  15890  15891     1   111.5100476 526.347200
  15889  15890  15896     1   110.1900474 564.840000
  15889  15886  15898     1   110.1900474 564.840000
  15890  15891  15895     1   107.9700462 569.024000
  15890  15891  15907     1   107.9700462 569.024000
  15890  15889  15897     1   110.1900474 564.840000
  15891  15890  15896     1   110.1900474 564.840000
  15895  15891  15907     1   108.2900466 608.353600
  15899  15885  15907     1   107.9700462 569.024000
  15908  15909  15912     1   111.5100476 526.347200
  15908  15909  15921     1   110.1900474 564.840000
  15908  15922  15928     1   110.1900474 564.840000
  15908  15930  15914     1   112.4800480 524.673600
  15909  15908  15922     1   111.5100476 526.347200
  15909  15908  15930     1   107.9700462 569.024000
  15909  15912  15913     1   111.5100476 526.347200
  15909  15912  15920     1   110.1900474 564.840000
  15912  15909  15921     1   110.1900474 564.840000
  15912  15913  15914     1   111.5100476 526.347200
  15912  15913  15919     1   110.1900474 564.840000
  15913  15912  15920     1   110.1900474 564.840000
  15913  15914  15918     1   107.9700462 569.024000
  15913  15914  15930     1   107.9700462 569.024000
  15914  15913  15919     1   110.1900474 564.840000
  15918  15914  15930     1   108.2900466 608.353600
  15922  15908  15930     1   107.9700462 569.024000
  15931  15932  15935     1   111.5100476 526.347200
  15931  15932  15944     1   110.1900474 564.840000
  15931  15945  15951     1   110.1900474 564.840000
  15931  15953  15937     1   112.4800480 524.673600
  15932  15935  15936     1   111.5100476 526.347200
  15932  15935  15943     1   110.1900474 564.840000
  15932  15931  15945     1   111.5100476 526.347200
  15932  15931  15953     1   107.9700462 569.024000
  15935  15936  15937     1   111.5100476 526.347200
  15935  15936  15942     1   110.1900474 564.840000
  15935  15932  15944     1   110.1900474 564.840000
  15936  15937  15941     1   107.9700462 569.024000
  15936  15937  15953     1   107.9700462 569.024000
  15936  15935  15943     1   110.1900474 564.840000
  15937  15936  15942     1   110.1900474 564.840000
  15941  15937  15953     1   108.2900466 608.353600
  15945  15931  15953     1   107.9700462 569.024000
  15954  15955  15958     1   111.5100476 526.347200
  15954  15955  15967     1   110.1900474 564.840000
  15954  15968  15974     1   110.1900474 564.840000
  15954  15976  15960     1   112.4800480 524.673600
  15955  15954  15968     1   111.5100476 526.347200
  15955  15954  15976     1   107.9700462 569.024000
  15955  15958  15959     1   111.5100476 526.347200
  15955  15958  15966     1   110.1900474 564.840000
  15958  15955  15967     1   110.1900474 564.840000
  15958  15959  15960     1   111.5100476 526.347200
  15958  15959  15965     1   110.1900474 564.840000
  15959  15958  15966     1   110.1900474 564.840000
  15959  15960  15964     1   107.9700462 569.024000
  15959  15960  15976     1   107.9700462 569.024000
  15960  15959  15965     1   110.1900474 564.840000
  15964  15960  15976     1   108.2900466 608.353600
  15968  15954  15976     1   107.9700462 569.024000
  15977  15978  15981     1   111.5100476 526.347200
  15977  15978  15990     1   110.1900474 564.840000
  15977  15991  15997     1   110.1900474 564.840000
  15977  15999  15983     1   112.4800480 524.673600
  15978  15981  15982     1   111.5100476 526.347200
  15978  15981  15989     1   110.1900474 564.840000
  15978  15977  15991     1   111.5100476 526.347200
  15978  15977  15999     1   107.9700462 569.024000
  15981  15982  15983     1   111.5100476 526.347200
  15981  15982  15988     1   110.1900474 564.840000
  15981  15978  15990     1   110.1900474 564.840000
  15982  15983  15987     1   107.9700462 569.024000
  15982  15983  15999     1   107.9700462 569.024000
  15982  15981  15989     1   110.1900474 564.840000
  15983  15982  15988     1   110.1900474 564.840000
  15987  15983  15999     1   108.2900466 608.353600
  15991  15977  15999     1   107.9700462 569.024000
  16000  16001  16004     1   111.5100476 526.347200
  16000  16001  16013     1   110.1900474 564.840000
  16000  16014  16020     1   110.1900474 564.840000
  16000  16022  16006     1   112.4800480 524.673600
  16001  16000  16014     1   111.5100476 526.347200
  16001  16000  16022     1   107.9700462 569.024000
  16001  16004  16005     1   111.5100476 526.347200
  16001  16004  16012     1   110.1900474 564.840000
  16004  16001  16013     1   110.1900474 564.840000
  16004  16005  16006     1   111.5100476 526.347200
  16004  16005  16011     1   110.1900474 564.840000
  16005  16004  16012     1   110.1900474 564.840000
  16005  16006  16010     1   107.9700462 569.024000
  16005  16006  16022     1   107.9700462 569.024000
  16006  16005  16011     1   110.1900474 564.840000
  16010  16006  16022     1   108.2900466 608.353600
  16014  16000  16022     1   107.9700462 569.024000
  16023  16024  16027     1   111.5100476 526.347200
  16023  16024  16036     1   110.1900474 564.840000
  16023  16037  16043     1   110.1900474 564.840000
  16023  16045  16029     1   112.4800480 524.673600
  16024  16027  16028     1   111.5100476 526.347200
  16024  16027  16035     1   110.1900474 564.840000
  16024  16023  16037     1   111.5100476 526.347200
  16024  16023  16045     1   107.9700462 569.024000
  16027  16028  16029     1   111.5100476 526.347200
  16027  16028  16034     1   110.1900474 564.840000
  16027  16024  16036     1   110.1900474 564.840000
  16028  16029  16033     1   107.9700462 569.024000
  16028  16029  16045     1   107.9700462 569.024000
  16028  16027  16035     1   110.1900474 564.840000
  16029  16028  16034     1   110.1900474 564.840000
  16033  16029  16045     1   108.2900466 608.353600
  16037  16023  16045     1   107.9700462 569.024000
  16046  16047  16050     1   111.5100476 526.347200
  16046  16047  16059     1   110.1900474 564.840000
  16046  16060  16066     1   110.1900474 564.840000
  16046  16068  16052     1   112.4800480 524.673600
  16047  16046  16060     1   111.5100476 526.347200
  16047  16046  16068     1   107.9700462 569.024000
  16047  16050  16051     1   111.5100476 526.347200
  16047  16050  16058     1   110.1900474 564.840000
  16050  16047  16059     1   110.1900474 564.840000
  16050  16051  16052     1   111.5100476 526.347200
  16050  16051  16057     1   110.1900474 564.840000
  16051  16050  16058     1   110.1900474 564.840000
  16051  16052  16056     1   107.9700462 569.024000
  16051  16052  16068     1   107.9700462 569.024000
  16052  16051  16057     1   110.1900474 564.840000
  16056  16052  16068     1   108.2900466 608.353600
  16060  16046  16068     1   107.9700462 569.024000
  16069  16070  16073     1   111.5100476 526.347200
  16069  16070  16082     1   110.1900474 564.840000
  16069  16083  16089     1   110.1900474 564.840000
  16069  16091  16075     1   112.4800480 524.673600
  16070  16073  16074     1   111.5100476 526.347200
  16070  16073  16081     1   110.1900474 564.840000
  16070  16069  16083     1   111.5100476 526.347200
  16070  16069  16091     1   107.9700462 569.024000
  16073  16074  16075     1   111.5100476 526.347200
  16073  16074  16080     1   110.1900474 564.840000
  16073  16070  16082     1   110.1900474 564.840000
  16074  16075  16079     1   107.9700462 569.024000
  16074  16075  16091     1   107.9700462 569.024000
  16074  16073  16081     1   110.1900474 564.840000
  16075  16074  16080     1   110.1900474 564.840000
  16079  16075  16091     1   108.2900466 608.353600
  16083  16069  16091     1   107.9700462 569.024000
  16092  16093  16096     1   111.5100476 526.347200
  16092  16093  16105     1   110.1900474 564.840000
  16092  16106  16112     1   110.1900474 564.840000
  16092  16114  16098     1   112.4800480 524.673600
  16093  16092  16106     1   111.5100476 526.347200
  16093  16092  16114     1   107.9700462 569.024000
  16093  16096  16097     1   111.5100476 526.347200
  16093  16096  16104     1   110.1900474 564.840000
  16096  16093  16105     1   110.1900474 564.840000
  16096  16097  16098     1   111.5100476 526.347200
  16096  16097  16103     1   110.1900474 564.840000
  16097  16096  16104     1   110.1900474 564.840000
  16097  16098  16102     1   107.9700462 569.024000
  16097  16098  16114     1   107.9700462 569.024000
  16098  16097  16103     1   110.1900474 564.840000
  16102  16098  16114     1   108.2900466 608.353600
  16106  16092  16114     1   107.9700462 569.024000
  16115  16116  16119     1   111.5100476 526.347200
  16115  16116  16128     1   110.1900474 564.840000
  16115  16129  16135     1   110.1900474 564.840000
  16115  16137  16121     1   112.4800480 524.673600
  16116  16119  16120     1   111.5100476 526.347200
  16116  16119  16127     1   110.1900474 564.840000
  16116  16115  16129     1   111.5100476 526.347200
  16116  16115  16137     1   107.9700462 569.024000
  16119  16120  16121     1   111.5100476 526.347200
  16119  16120  16126     1   110.1900474 564.840000
  16119  16116  16128     1   110.1900474 564.840000
  16120  16121  16125     1   107.9700462 569.024000
  16120  16121  16137     1   107.9700462 569.024000
  16120  16119  16127     1   110.1900474 564.840000
  16121  16120  16126     1   110.1900474 564.840000
  16125  16121  16137     1   108.2900466 608.353600
  16129  16115  16137     1   107.9700462 569.024000
  16138  16139  16142     1   111.5100476 526.347200
  16138  16139  16151     1   110.1900474 564.840000
  16138  16152  16158     1   110.1900474 564.840000
  16138  16160  16144     1   112.4800480 524.673600
  16139  16138  16152     1   111.5100476 526.347200
  16139  16138  16160     1   107.9700462 569.024000
  16139  16142  16143     1   111.5100476 526.347200
  16139  16142  16150     1   110.1900474 564.840000
  16142  16139  16151     1   110.1900474 564.840000
  16142  16143  16144     1   111.5100476 526.347200
  16142  16143  16149     1   110.1900474 564.840000
  16143  16142  16150     1   110.1900474 564.840000
  16143  16144  16148     1   107.9700462 569.024000
  16143  16144  16160     1   107.9700462 569.024000
  16144  16143  16149     1   110.1900474 564.840000
  16148  16144  16160     1   108.2900466 608.353600
  16152  16138  16160     1   107.9700462 569.024000
  16161  16162  16165     1   111.5100476 526.347200
  16161  16162  16174     1   110.1900474 564.840000
  16161  16175  16181     1   110.1900474 564.840000
  16161  16183  16167     1   112.4800480 524.673600
  16162  16165  16166     1   111.5100476 526.347200
  16162  16165  16173     1   110.1900474 564.840000
  16162  16161  16175     1   111.5100476 526.347200
  16162  16161  16183     1   107.9700462 569.024000
  16165  16166  16167     1   111.5100476 526.347200
  16165  16166  16172     1   110.1900474 564.840000
  16165  16162  16174     1   110.1900474 564.840000
  16166  16167  16171     1   107.9700462 569.024000
  16166  16167  16183     1   107.9700462 569.024000
  16166  16165  16173     1   110.1900474 564.840000
  16167  16166  16172     1   110.1900474 564.840000
  16171  16167  16183     1   108.2900466 608.353600
  16175  16161  16183     1   107.9700462 569.024000
  16184  16185  16188     1   111.5100476 526.347200
  16184  16185  16197     1   110.1900474 564.840000
  16184  16198  16204     1   110.1900474 564.840000
  16184  16206  16190     1   112.4800480 524.673600
  16185  16184  16198     1   111.5100476 526.347200
  16185  16184  16206     1   107.9700462 569.024000
  16185  16188  16189     1   111.5100476 526.347200
  16185  16188  16196     1   110.1900474 564.840000
  16188  16185  16197     1   110.1900474 564.840000
  16188  16189  16190     1   111.5100476 526.347200
  16188  16189  16195     1   110.1900474 564.840000
  16189  16188  16196     1   110.1900474 564.840000
  16189  16190  16194     1   107.9700462 569.024000
  16189  16190  16206     1   107.9700462 569.024000
  16190  16189  16195     1   110.1900474 564.840000
  16194  16190  16206     1   108.2900466 608.353600
  16198  16184  16206     1   107.9700462 569.024000
  16207  16208  16211     1   111.5100476 526.347200
  16207  16208  16220     1   110.1900474 564.840000
  16207  16221  16227     1   110.1900474 564.840000
  16207  16229  16213     1   112.4800480 524.673600
  16208  16211  16212     1   111.5100476 526.347200
  16208  16211  16219     1   110.1900474 564.840000
  16208  16207  16221     1   111.5100476 526.347200
  16208  16207  16229     1   107.9700462 569.024000
  16211  16212  16213     1   111.5100476 526.347200
  16211  16212  16218     1   110.1900474 564.840000
  16211  16208  16220     1   110.1900474 564.840000
  16212  16213  16217     1   107.9700462 569.024000
  16212  16213  16229     1   107.9700462 569.024000
  16212  16211  16219     1   110.1900474 564.840000
  16213  16212  16218     1   110.1900474 564.840000
  16217  16213  16229     1   108.2900466 608.353600
  16221  16207  16229     1   107.9700462 569.024000
  16230  16231  16234     1   111.5100476 526.347200
  16230  16231  16243     1   110.1900474 564.840000
  16230  16244  16250     1   110.1900474 564.840000
  16230  16252  16236     1   112.4800480 524.673600
  16231  16230  16244     1   111.5100476 526.347200
  16231  16230  16252     1   107.9700462 569.024000
  16231  16234  16235     1   111.5100476 526.347200
  16231  16234  16242     1   110.1900474 564.840000
  16234  16231  16243     1   110.1900474 564.840000
  16234  16235  16236     1   111.5100476 526.347200
  16234  16235  16241     1   110.1900474 564.840000
  16235  16234  16242     1   110.1900474 564.840000
  16235  16236  16240     1   107.9700462 569.024000
  16235  16236  16252     1   107.9700462 569.024000
  16236  16235  16241     1   110.1900474 564.840000
  16240  16236  16252     1   108.2900466 608.353600
  16244  16230  16252     1   107.9700462 569.024000
  16253  16254  16257     1   111.5100476 526.347200
  16253  16254  16266     1   110.1900474 564.840000
  16253  16267  16273     1   110.1900474 564.840000
  16253  16275  16259     1   112.4800480 524.673600
  16254  16257  16258     1   111.5100476 526.347200
  16254  16257  16265     1   110.1900474 564.840000
  16254  16253  16267     1   111.5100476 526.347200
  16254  16253  16275     1   107.9700462 569.024000
  16257  16258  16259     1   111.5100476 526.347200
  16257  16258  16264     1   110.1900474 564.840000
  16257  16254  16266     1   110.1900474 564.840000
  16258  16259  16263     1   107.9700462 569.024000
  16258  16259  16275     1   107.9700462 569.024000
  16258  16257  16265     1   110.1900474 564.840000
  16259  16258  16264     1   110.1900474 564.840000
  16263  16259  16275     1   108.2900466 608.353600
  16267  16253  16275     1   107.9700462 569.024000
  16276  16277  16280     1   111.5100476 526.347200
  16276  16277  16289     1   110.1900474 564.840000
  16276  16290  16296     1   110.1900474 564.840000
  16276  16298  16282     1   112.4800480 524.673600
  16277  16276  16290     1   111.5100476 526.347200
  16277  16276  16298     1   107.9700462 569.024000
  16277  16280  16281     1   111.5100476 526.347200
  16277  16280  16288     1   110.1900474 564.840000
  16280  16277  16289     1   110.1900474 564.840000
  16280  16281  16282     1   111.5100476 526.347200
  16280  16281  16287     1   110.1900474 564.840000
  16281  16280  16288     1   110.1900474 564.840000
  16281  16282  16286     1   107.9700462 569.024000
  16281  16282  16298     1   107.9700462 569.024000
  16282  16281  16287     1   110.1900474 564.840000
  16286  16282  16298     1   108.2900466 608.353600
  16290  16276  16298     1   107.9700462 569.024000
  16299  16300  16303     1   111.5100476 526.347200
  16299  16300  16312     1   110.1900474 564.840000
  16299  16313  16319     1   110.1900474 564.840000
  16299  16321  16305     1   112.4800480 524.673600
  16300  16303  16304     1   111.5100476 526.347200
  16300  16303  16311     1   110.1900474 564.840000
  16300  16299  16313     1   111.5100476 526.347200
  16300  16299  16321     1   107.9700462 569.024000
  16303  16304  16305     1   111.5100476 526.347200
  16303  16304  16310     1   110.1900474 564.840000
  16303  16300  16312     1   110.1900474 564.840000
  16304  16305  16309     1   107.9700462 569.024000
  16304  16305  16321     1   107.9700462 569.024000
  16304  16303  16311     1   110.1900474 564.840000
  16305  16304  16310     1   110.1900474 564.840000
  16309  16305  16321     1   108.2900466 608.353600
  16313  16299  16321     1   107.9700462 569.024000
  16322  16323  16326     1   111.5100476 526.347200
  16322  16323  16335     1   110.1900474 564.840000
  16322  16336  16342     1   110.1900474 564.840000
  16322  16344  16328     1   112.4800480 524.673600
  16323  16322  16336     1   111.5100476 526.347200
  16323  16322  16344     1   107.9700462 569.024000
  16323  16326  16327     1   111.5100476 526.347200
  16323  16326  16334     1   110.1900474 564.840000
  16326  16323  16335     1   110.1900474 564.840000
  16326  16327  16328     1   111.5100476 526.347200
  16326  16327  16333     1   110.1900474 564.840000
  16327  16326  16334     1   110.1900474 564.840000
  16327  16328  16332     1   107.9700462 569.024000
  16327  16328  16344     1   107.9700462 569.024000
  16328  16327  16333     1   110.1900474 564.840000
  16332  16328  16344     1   108.2900466 608.353600
  16336  16322  16344     1   107.9700462 569.024000
  16345  16346  16349     1   111.5100476 526.347200
  16345  16346  16358     1   110.1900474 564.840000
  16345  16359  16365     1   110.1900474 564.840000
  16345  16367  16351     1   112.4800480 524.673600
  16346  16349  16350     1   111.5100476 526.347200
  16346  16349  16357     1   110.1900474 564.840000
  16346  16345  16359     1   111.5100476 526.347200
  16346  16345  16367     1   107.9700462 569.024000
  16349  16350  16351     1   111.5100476 526.347200
  16349  16350  16356     1   110.1900474 564.840000
  16349  16346  16358     1   110.1900474 564.840000
  16350  16351  16355     1   107.9700462 569.024000
  16350  16351  16367     1   107.9700462 569.024000
  16350  16349  16357     1   110.1900474 564.840000
  16351  16350  16356     1   110.1900474 564.840000
  16355  16351  16367     1   108.2900466 608.353600
  16359  16345  16367     1   107.9700462 569.024000
  16368  16369  16372     1   111.5100476 526.347200
  16368  16369  16381     1   110.1900474 564.840000
  16368  16382  16388     1   110.1900474 564.840000
  16368  16390  16374     1   112.4800480 524.673600
  16369  16368  16382     1   111.5100476 526.347200
  16369  16368  16390     1   107.9700462 569.024000
  16369  16372  16373     1   111.5100476 526.347200
  16369  16372  16380     1   110.1900474 564.840000
  16372  16369  16381     1   110.1900474 564.840000
  16372  16373  16374     1   111.5100476 526.347200
  16372  16373  16379     1   110.1900474 564.840000
  16373  16372  16380     1   110.1900474 564.840000
  16373  16374  16378     1   107.9700462 569.024000
  16373  16374  16390     1   107.9700462 569.024000
  16374  16373  16379     1   110.1900474 564.840000
  16378  16374  16390     1   108.2900466 608.353600
  16382  16368  16390     1   107.9700462 569.024000
  16391  16392  16395     1   111.5100476 526.347200
  16391  16392  16404     1   110.1900474 564.840000
  16391  16405  16411     1   110.1900474 564.840000
  16391  16413  16397     1   112.4800480 524.673600
  16392  16395  16396     1   111.5100476 526.347200
  16392  16395  16403     1   110.1900474 564.840000
  16392  16391  16405     1   111.5100476 526.347200
  16392  16391  16413     1   107.9700462 569.024000
  16395  16396  16397     1   111.5100476 526.347200
  16395  16396  16402     1   110.1900474 564.840000
  16395  16392  16404     1   110.1900474 564.840000
  16396  16397  16401     1   107.9700462 569.024000
  16396  16397  16413     1   107.9700462 569.024000
  16396  16395  16403     1   110.1900474 564.840000
  16397  16396  16402     1   110.1900474 564.840000
  16401  16397  16413     1   108.2900466 608.353600
  16405  16391  16413     1   107.9700462 569.024000
  16414  16415  16418     1   111.5100476 526.347200
  16414  16415  16427     1   110.1900474 564.840000
  16414  16428  16434     1   110.1900474 564.840000
  16414  16436  16420     1   112.4800480 524.673600
  16415  16414  16428     1   111.5100476 526.347200
  16415  16414  16436     1   107.9700462 569.024000
  16415  16418  16419     1   111.5100476 526.347200
  16415  16418  16426     1   110.1900474 564.840000
  16418  16415  16427     1   110.1900474 564.840000
  16418  16419  16420     1   111.5100476 526.347200
  16418  16419  16425     1   110.1900474 564.840000
  16419  16418  16426     1   110.1900474 564.840000
  16419  16420  16424     1   107.9700462 569.024000
  16419  16420  16436     1   107.9700462 569.024000
  16420  16419  16425     1   110.1900474 564.840000
  16424  16420  16436     1   108.2900466 608.353600
  16428  16414  16436     1   107.9700462 569.024000
  16437  16438  16441     1   111.5100476 526.347200
  16437  16438  16450     1   110.1900474 564.840000
  16437  16451  16457     1   110.1900474 564.840000
  16437  16459  16443     1   112.4800480 524.673600
  16438  16441  16442     1   111.5100476 526.347200
  16438  16441  16449     1   110.1900474 564.840000
  16438  16437  16451     1   111.5100476 526.347200
  16438  16437  16459     1   107.9700462 569.024000
  16441  16442  16443     1   111.5100476 526.347200
  16441  16442  16448     1   110.1900474 564.840000
  16441  16438  16450     1   110.1900474 564.840000
  16442  16443  16447     1   107.9700462 569.024000
  16442  16443  16459     1   107.9700462 569.024000
  16442  16441  16449     1   110.1900474 564.840000
  16443  16442  16448     1   110.1900474 564.840000
  16447  16443  16459     1   108.2900466 608.353600
  16451  16437  16459     1   107.9700462 569.024000
  16460  16461  16464     1   111.5100476 526.347200
  16460  16461  16473     1   110.1900474 564.840000
  16460  16474  16480     1   110.1900474 564.840000
  16460  16482  16466     1   112.4800480 524.673600
  16461  16460  16474     1   111.5100476 526.347200
  16461  16460  16482     1   107.9700462 569.024000
  16461  16464  16465     1   111.5100476 526.347200
  16461  16464  16472     1   110.1900474 564.840000
  16464  16461  16473     1   110.1900474 564.840000
  16464  16465  16466     1   111.5100476 526.347200
  16464  16465  16471     1   110.1900474 564.840000
  16465  16464  16472     1   110.1900474 564.840000
  16465  16466  16470     1   107.9700462 569.024000
  16465  16466  16482     1   107.9700462 569.024000
  16466  16465  16471     1   110.1900474 564.840000
  16470  16466  16482     1   108.2900466 608.353600
  16474  16460  16482     1   107.9700462 569.024000
  16483  16484  16487     1   111.5100476 526.347200
  16483  16484  16496     1   110.1900474 564.840000
  16483  16497  16503     1   110.1900474 564.840000
  16483  16505  16489     1   112.4800480 524.673600
  16484  16487  16488     1   111.5100476 526.347200
  16484  16487  16495     1   110.1900474 564.840000
  16484  16483  16497     1   111.5100476 526.347200
  16484  16483  16505     1   107.9700462 569.024000
  16487  16488  16489     1   111.5100476 526.347200
  16487  16488  16494     1   110.1900474 564.840000
  16487  16484  16496     1   110.1900474 564.840000
  16488  16489  16493     1   107.9700462 569.024000
  16488  16489  16505     1   107.9700462 569.024000
  16488  16487  16495     1   110.1900474 564.840000
  16489  16488  16494     1   110.1900474 564.840000
  16493  16489  16505     1   108.2900466 608.353600
  16497  16483  16505     1   107.9700462 569.024000
  16506  16507  16510     1   111.5100476 526.347200
  16506  16507  16519     1   110.1900474 564.840000
  16506  16520  16526     1   110.1900474 564.840000
  16506  16528  16512     1   112.4800480 524.673600
  16507  16506  16520     1   111.5100476 526.347200
  16507  16506  16528     1   107.9700462 569.024000
  16507  16510  16511     1   111.5100476 526.347200
  16507  16510  16518     1   110.1900474 564.840000
  16510  16507  16519     1   110.1900474 564.840000
  16510  16511  16512     1   111.5100476 526.347200
  16510  16511  16517     1   110.1900474 564.840000
  16511  16510  16518     1   110.1900474 564.840000
  16511  16512  16516     1   107.9700462 569.024000
  16511  16512  16528     1   107.9700462 569.024000
  16512  16511  16517     1   110.1900474 564.840000
  16516  16512  16528     1   108.2900466 608.353600
  16520  16506  16528     1   107.9700462 569.024000
  16529  16530  16533     1   111.5100476 526.347200
  16529  16530  16542     1   110.1900474 564.840000
  16529  16543  16549     1   110.1900474 564.840000
  16529  16551  16535     1   112.4800480 524.673600
  16530  16533  16534     1   111.5100476 526.347200
  16530  16533  16541     1   110.1900474 564.840000
  16530  16529  16543     1   111.5100476 526.347200
  16530  16529  16551     1   107.9700462 569.024000
  16533  16534  16535     1   111.5100476 526.347200
  16533  16534  16540     1   110.1900474 564.840000
  16533  16530  16542     1   110.1900474 564.840000
  16534  16535  16539     1   107.9700462 569.024000
  16534  16535  16551     1   107.9700462 569.024000
  16534  16533  16541     1   110.1900474 564.840000
  16535  16534  16540     1   110.1900474 564.840000
  16539  16535  16551     1   108.2900466 608.353600
  16543  16529  16551     1   107.9700462 569.024000
  16552  16553  16556     1   111.5100476 526.347200
  16552  16553  16565     1   110.1900474 564.840000
  16552  16566  16572     1   110.1900474 564.840000
  16552  16574  16558     1   112.4800480 524.673600
  16553  16552  16566     1   111.5100476 526.347200
  16553  16552  16574     1   107.9700462 569.024000
  16553  16556  16557     1   111.5100476 526.347200
  16553  16556  16564     1   110.1900474 564.840000
  16556  16553  16565     1   110.1900474 564.840000
  16556  16557  16558     1   111.5100476 526.347200
  16556  16557  16563     1   110.1900474 564.840000
  16557  16556  16564     1   110.1900474 564.840000
  16557  16558  16562     1   107.9700462 569.024000
  16557  16558  16574     1   107.9700462 569.024000
  16558  16557  16563     1   110.1900474 564.840000
  16562  16558  16574     1   108.2900466 608.353600
  16566  16552  16574     1   107.9700462 569.024000
  16575  16576  16579     1   111.5100476 526.347200
  16575  16576  16588     1   110.1900474 564.840000
  16575  16589  16595     1   110.1900474 564.840000
  16575  16597  16581     1   112.4800480 524.673600
  16576  16579  16580     1   111.5100476 526.347200
  16576  16579  16587     1   110.1900474 564.840000
  16576  16575  16589     1   111.5100476 526.347200
  16576  16575  16597     1   107.9700462 569.024000
  16579  16580  16581     1   111.5100476 526.347200
  16579  16580  16586     1   110.1900474 564.840000
  16579  16576  16588     1   110.1900474 564.840000
  16580  16581  16585     1   107.9700462 569.024000
  16580  16581  16597     1   107.9700462 569.024000
  16580  16579  16587     1   110.1900474 564.840000
  16581  16580  16586     1   110.1900474 564.840000
  16585  16581  16597     1   108.2900466 608.353600
  16589  16575  16597     1   107.9700462 569.024000
  16598  16599  16602     1   111.5100476 526.347200
  16598  16599  16611     1   110.1900474 564.840000
  16598  16612  16618     1   110.1900474 564.840000
  16598  16620  16604     1   112.4800480 524.673600
  16599  16598  16612     1   111.5100476 526.347200
  16599  16598  16620     1   107.9700462 569.024000
  16599  16602  16603     1   111.5100476 526.347200
  16599  16602  16610     1   110.1900474 564.840000
  16602  16599  16611     1   110.1900474 564.840000
  16602  16603  16604     1   111.5100476 526.347200
  16602  16603  16609     1   110.1900474 564.840000
  16603  16602  16610     1   110.1900474 564.840000
  16603  16604  16608     1   107.9700462 569.024000
  16603  16604  16620     1   107.9700462 569.024000
  16604  16603  16609     1   110.1900474 564.840000
  16608  16604  16620     1   108.2900466 608.353600
  16612  16598  16620     1   107.9700462 569.024000
  16621  16622  16625     1   111.5100476 526.347200
  16621  16622  16634     1   110.1900474 564.840000
  16621  16635  16641     1   110.1900474 564.840000
  16621  16643  16627     1   112.4800480 524.673600
  16622  16625  16626     1   111.5100476 526.347200
  16622  16625  16633     1   110.1900474 564.840000
  16622  16621  16635     1   111.5100476 526.347200
  16622  16621  16643     1   107.9700462 569.024000
  16625  16626  16627     1   111.5100476 526.347200
  16625  16626  16632     1   110.1900474 564.840000
  16625  16622  16634     1   110.1900474 564.840000
  16626  16627  16631     1   107.9700462 569.024000
  16626  16627  16643     1   107.9700462 569.024000
  16626  16625  16633     1   110.1900474 564.840000
  16627  16626  16632     1   110.1900474 564.840000
  16631  16627  16643     1   108.2900466 608.353600
  16635  16621  16643     1   107.9700462 569.024000
  16644  16645  16648     1   111.5100476 526.347200
  16644  16645  16657     1   110.1900474 564.840000
  16644  16658  16664     1   110.1900474 564.840000
  16644  16666  16650     1   112.4800480 524.673600
  16645  16644  16658     1   111.5100476 526.347200
  16645  16644  16666     1   107.9700462 569.024000
  16645  16648  16649     1   111.5100476 526.347200
  16645  16648  16656     1   110.1900474 564.840000
  16648  16645  16657     1   110.1900474 564.840000
  16648  16649  16650     1   111.5100476 526.347200
  16648  16649  16655     1   110.1900474 564.840000
  16649  16648  16656     1   110.1900474 564.840000
  16649  16650  16654     1   107.9700462 569.024000
  16649  16650  16666     1   107.9700462 569.024000
  16650  16649  16655     1   110.1900474 564.840000
  16654  16650  16666     1   108.2900466 608.353600
  16658  16644  16666     1   107.9700462 569.024000
  16667  16668  16671     1   111.5100476 526.347200
  16667  16668  16680     1   110.1900474 564.840000
  16667  16681  16687     1   110.1900474 564.840000
  16667  16689  16673     1   112.4800480 524.673600
  16668  16671  16672     1   111.5100476 526.347200
  16668  16671  16679     1   110.1900474 564.840000
  16668  16667  16681     1   111.5100476 526.347200
  16668  16667  16689     1   107.9700462 569.024000
  16671  16672  16673     1   111.5100476 526.347200
  16671  16672  16678     1   110.1900474 564.840000
  16671  16668  16680     1   110.1900474 564.840000
  16672  16673  16677     1   107.9700462 569.024000
  16672  16673  16689     1   107.9700462 569.024000
  16672  16671  16679     1   110.1900474 564.840000
  16673  16672  16678     1   110.1900474 564.840000
  16677  16673  16689     1   108.2900466 608.353600
  16681  16667  16689     1   107.9700462 569.024000
  16690  16691  16694     1   111.5100476 526.347200
  16690  16691  16703     1   110.1900474 564.840000
  16690  16704  16710     1   110.1900474 564.840000
  16690  16712  16696     1   112.4800480 524.673600
  16691  16690  16704     1   111.5100476 526.347200
  16691  16690  16712     1   107.9700462 569.024000
  16691  16694  16695     1   111.5100476 526.347200
  16691  16694  16702     1   110.1900474 564.840000
  16694  16691  16703     1   110.1900474 564.840000
  16694  16695  16696     1   111.5100476 526.347200
  16694  16695  16701     1   110.1900474 564.840000
  16695  16694  16702     1   110.1900474 564.840000
  16695  16696  16700     1   107.9700462 569.024000
  16695  16696  16712     1   107.9700462 569.024000
  16696  16695  16701     1   110.1900474 564.840000
  16700  16696  16712     1   108.2900466 608.353600
  16704  16690  16712     1   107.9700462 569.024000
  16713  16714  16717     1   111.5100476 526.347200
  16713  16714  16726     1   110.1900474 564.840000
  16713  16727  16733     1   110.1900474 564.840000
  16713  16735  16719     1   112.4800480 524.673600
  16714  16717  16718     1   111.5100476 526.347200
  16714  16717  16725     1   110.1900474 564.840000
  16714  16713  16727     1   111.5100476 526.347200
  16714  16713  16735     1   107.9700462 569.024000
  16717  16718  16719     1   111.5100476 526.347200
  16717  16718  16724     1   110.1900474 564.840000
  16717  16714  16726     1   110.1900474 564.840000
  16718  16719  16723     1   107.9700462 569.024000
  16718  16719  16735     1   107.9700462 569.024000
  16718  16717  16725     1   110.1900474 564.840000
  16719  16718  16724     1   110.1900474 564.840000
  16723  16719  16735     1   108.2900466 608.353600
  16727  16713  16735     1   107.9700462 569.024000
  16736  16737  16740     1   111.5100476 526.347200
  16736  16737  16749     1   110.1900474 564.840000
  16736  16750  16756     1   110.1900474 564.840000
  16736  16758  16742     1   112.4800480 524.673600
  16737  16736  16750     1   111.5100476 526.347200
  16737  16736  16758     1   107.9700462 569.024000
  16737  16740  16741     1   111.5100476 526.347200
  16737  16740  16748     1   110.1900474 564.840000
  16740  16737  16749     1   110.1900474 564.840000
  16740  16741  16742     1   111.5100476 526.347200
  16740  16741  16747     1   110.1900474 564.840000
  16741  16740  16748     1   110.1900474 564.840000
  16741  16742  16746     1   107.9700462 569.024000
  16741  16742  16758     1   107.9700462 569.024000
  16742  16741  16747     1   110.1900474 564.840000
  16746  16742  16758     1   108.2900466 608.353600
  16750  16736  16758     1   107.9700462 569.024000
  16759  16760  16763     1   111.5100476 526.347200
  16759  16760  16772     1   110.1900474 564.840000
  16759  16773  16779     1   110.1900474 564.840000
  16759  16781  16765     1   112.4800480 524.673600
  16760  16763  16764     1   111.5100476 526.347200
  16760  16763  16771     1   110.1900474 564.840000
  16760  16759  16773     1   111.5100476 526.347200
  16760  16759  16781     1   107.9700462 569.024000
  16763  16764  16765     1   111.5100476 526.347200
  16763  16764  16770     1   110.1900474 564.840000
  16763  16760  16772     1   110.1900474 564.840000
  16764  16765  16769     1   107.9700462 569.024000
  16764  16765  16781     1   107.9700462 569.024000
  16764  16763  16771     1   110.1900474 564.840000
  16765  16764  16770     1   110.1900474 564.840000
  16769  16765  16781     1   108.2900466 608.353600
  16773  16759  16781     1   107.9700462 569.024000
  16782  16783  16786     1   111.5100476 526.347200
  16782  16783  16795     1   110.1900474 564.840000
  16782  16796  16802     1   110.1900474 564.840000
  16782  16804  16788     1   112.4800480 524.673600
  16783  16782  16796     1   111.5100476 526.347200
  16783  16782  16804     1   107.9700462 569.024000
  16783  16786  16787     1   111.5100476 526.347200
  16783  16786  16794     1   110.1900474 564.840000
  16786  16783  16795     1   110.1900474 564.840000
  16786  16787  16788     1   111.5100476 526.347200
  16786  16787  16793     1   110.1900474 564.840000
  16787  16786  16794     1   110.1900474 564.840000
  16787  16788  16792     1   107.9700462 569.024000
  16787  16788  16804     1   107.9700462 569.024000
  16788  16787  16793     1   110.1900474 564.840000
  16792  16788  16804     1   108.2900466 608.353600
  16796  16782  16804     1   107.9700462 569.024000
  16805  16806  16809     1   111.5100476 526.347200
  16805  16806  16818     1   110.1900474 564.840000
  16805  16819  16825     1   110.1900474 564.840000
  16805  16827  16811     1   112.4800480 524.673600
  16806  16809  16810     1   111.5100476 526.347200
  16806  16809  16817     1   110.1900474 564.840000
  16806  16805  16819     1   111.5100476 526.347200
  16806  16805  16827     1   107.9700462 569.024000
  16809  16810  16811     1   111.5100476 526.347200
  16809  16810  16816     1   110.1900474 564.840000
  16809  16806  16818     1   110.1900474 564.840000
  16810  16811  16815     1   107.9700462 569.024000
  16810  16811  16827     1   107.9700462 569.024000
  16810  16809  16817     1   110.1900474 564.840000
  16811  16810  16816     1   110.1900474 564.840000
  16815  16811  16827     1   108.2900466 608.353600
  16819  16805  16827     1   107.9700462 569.024000
  16828  16829  16832     1   111.5100476 526.347200
  16828  16829  16841     1   110.1900474 564.840000
  16828  16842  16848     1   110.1900474 564.840000
  16828  16850  16834     1   112.4800480 524.673600
  16829  16828  16842     1   111.5100476 526.347200
  16829  16828  16850     1   107.9700462 569.024000
  16829  16832  16833     1   111.5100476 526.347200
  16829  16832  16840     1   110.1900474 564.840000
  16832  16829  16841     1   110.1900474 564.840000
  16832  16833  16834     1   111.5100476 526.347200
  16832  16833  16839     1   110.1900474 564.840000
  16833  16832  16840     1   110.1900474 564.840000
  16833  16834  16838     1   107.9700462 569.024000
  16833  16834  16850     1   107.9700462 569.024000
  16834  16833  16839     1   110.1900474 564.840000
  16838  16834  16850     1   108.2900466 608.353600
  16842  16828  16850     1   107.9700462 569.024000
  16851  16852  16855     1   111.5100476 526.347200
  16851  16852  16864     1   110.1900474 564.840000
  16851  16865  16871     1   110.1900474 564.840000
  16851  16873  16857     1   112.4800480 524.673600
  16852  16855  16856     1   111.5100476 526.347200
  16852  16855  16863     1   110.1900474 564.840000
  16852  16851  16865     1   111.5100476 526.347200
  16852  16851  16873     1   107.9700462 569.024000
  16855  16856  16857     1   111.5100476 526.347200
  16855  16856  16862     1   110.1900474 564.840000
  16855  16852  16864     1   110.1900474 564.840000
  16856  16857  16861     1   107.9700462 569.024000
  16856  16857  16873     1   107.9700462 569.024000
  16856  16855  16863     1   110.1900474 564.840000
  16857  16856  16862     1   110.1900474 564.840000
  16861  16857  16873     1   108.2900466 608.353600
  16865  16851  16873     1   107.9700462 569.024000
  16874  16875  16878     1   111.5100476 526.347200
  16874  16875  16887     1   110.1900474 564.840000
  16874  16888  16894     1   110.1900474 564.840000
  16874  16896  16880     1   112.4800480 524.673600
  16875  16874  16888     1   111.5100476 526.347200
  16875  16874  16896     1   107.9700462 569.024000
  16875  16878  16879     1   111.5100476 526.347200
  16875  16878  16886     1   110.1900474 564.840000
  16878  16875  16887     1   110.1900474 564.840000
  16878  16879  16880     1   111.5100476 526.347200
  16878  16879  16885     1   110.1900474 564.840000
  16879  16878  16886     1   110.1900474 564.840000
  16879  16880  16884     1   107.9700462 569.024000
  16879  16880  16896     1   107.9700462 569.024000
  16880  16879  16885     1   110.1900474 564.840000
  16884  16880  16896     1   108.2900466 608.353600
  16888  16874  16896     1   107.9700462 569.024000
  16897  16898  16901     1   111.5100476 526.347200
  16897  16898  16910     1   110.1900474 564.840000
  16897  16911  16917     1   110.1900474 564.840000
  16897  16919  16903     1   112.4800480 524.673600
  16898  16901  16902     1   111.5100476 526.347200
  16898  16901  16909     1   110.1900474 564.840000
  16898  16897  16911     1   111.5100476 526.347200
  16898  16897  16919     1   107.9700462 569.024000
  16901  16902  16903     1   111.5100476 526.347200
  16901  16902  16908     1   110.1900474 564.840000
  16901  16898  16910     1   110.1900474 564.840000
  16902  16903  16907     1   107.9700462 569.024000
  16902  16903  16919     1   107.9700462 569.024000
  16902  16901  16909     1   110.1900474 564.840000
  16903  16902  16908     1   110.1900474 564.840000
  16907  16903  16919     1   108.2900466 608.353600
  16911  16897  16919     1   107.9700462 569.024000
  16920  16921  16924     1   111.5100476 526.347200
  16920  16921  16933     1   110.1900474 564.840000
  16920  16934  16940     1   110.1900474 564.840000
  16920  16942  16926     1   112.4800480 524.673600
  16921  16920  16934     1   111.5100476 526.347200
  16921  16920  16942     1   107.9700462 569.024000
  16921  16924  16925     1   111.5100476 526.347200
  16921  16924  16932     1   110.1900474 564.840000
  16924  16921  16933     1   110.1900474 564.840000
  16924  16925  16926     1   111.5100476 526.347200
  16924  16925  16931     1   110.1900474 564.840000
  16925  16924  16932     1   110.1900474 564.840000
  16925  16926  16930     1   107.9700462 569.024000
  16925  16926  16942     1   107.9700462 569.024000
  16926  16925  16931     1   110.1900474 564.840000
  16930  16926  16942     1   108.2900466 608.353600
  16934  16920  16942     1   107.9700462 569.024000
  16943  16944  16947     1   111.5100476 526.347200
  16943  16944  16956     1   110.1900474 564.840000
  16943  16957  16963     1   110.1900474 564.840000
  16943  16965  16949     1   112.4800480 524.673600
  16944  16947  16948     1   111.5100476 526.347200
  16944  16947  16955     1   110.1900474 564.840000
  16944  16943  16957     1   111.5100476 526.347200
  16944  16943  16965     1   107.9700462 569.024000
  16947  16948  16949     1   111.5100476 526.347200
  16947  16948  16954     1   110.1900474 564.840000
  16947  16944  16956     1   110.1900474 564.840000
  16948  16949  16953     1   107.9700462 569.024000
  16948  16949  16965     1   107.9700462 569.024000
  16948  16947  16955     1   110.1900474 564.840000
  16949  16948  16954     1   110.1900474 564.840000
  16953  16949  16965     1   108.2900466 608.353600
  16957  16943  16965     1   107.9700462 569.024000
  16966  16967  16970     1   111.5100476 526.347200
  16966  16967  16979     1   110.1900474 564.840000
  16966  16980  16986     1   110.1900474 564.840000
  16966  16988  16972     1   112.4800480 524.673600
  16967  16966  16980     1   111.5100476 526.347200
  16967  16966  16988     1   107.9700462 569.024000
  16967  16970  16971     1   111.5100476 526.347200
  16967  16970  16978     1   110.1900474 564.840000
  16970  16967  16979     1   110.1900474 564.840000
  16970  16971  16972     1   111.5100476 526.347200
  16970  16971  16977     1   110.1900474 564.840000
  16971  16970  16978     1   110.1900474 564.840000
  16971  16972  16976     1   107.9700462 569.024000
  16971  16972  16988     1   107.9700462 569.024000
  16972  16971  16977     1   110.1900474 564.840000
  16976  16972  16988     1   108.2900466 608.353600
  16980  16966  16988     1   107.9700462 569.024000
  16989  16990  16993     1   111.5100476 526.347200
  16989  16990  17002     1   110.1900474 564.840000
  16989  17003  17009     1   110.1900474 564.840000
  16989  17011  16995     1   112.4800480 524.673600
  16990  16993  16994     1   111.5100476 526.347200
  16990  16993  17001     1   110.1900474 564.840000
  16990  16989  17003     1   111.5100476 526.347200
  16990  16989  17011     1   107.9700462 569.024000
  16993  16994  16995     1   111.5100476 526.347200
  16993  16994  17000     1   110.1900474 564.840000
  16993  16990  17002     1   110.1900474 564.840000
  16994  16995  16999     1   107.9700462 569.024000
  16994  16995  17011     1   107.9700462 569.024000
  16994  16993  17001     1   110.1900474 564.840000
  16995  16994  17000     1   110.1900474 564.840000
  16999  16995  17011     1   108.2900466 608.353600
  17003  16989  17011     1   107.9700462 569.024000
  17012  17013  17016     1   111.5100476 526.347200
  17012  17013  17025     1   110.1900474 564.840000
  17012  17026  17032     1   110.1900474 564.840000
  17012  17034  17018     1   112.4800480 524.673600
  17013  17012  17026     1   111.5100476 526.347200
  17013  17012  17034     1   107.9700462 569.024000
  17013  17016  17017     1   111.5100476 526.347200
  17013  17016  17024     1   110.1900474 564.840000
  17016  17013  17025     1   110.1900474 564.840000
  17016  17017  17018     1   111.5100476 526.347200
  17016  17017  17023     1   110.1900474 564.840000
  17017  17016  17024     1   110.1900474 564.840000
  17017  17018  17022     1   107.9700462 569.024000
  17017  17018  17034     1   107.9700462 569.024000
  17018  17017  17023     1   110.1900474 564.840000
  17022  17018  17034     1   108.2900466 608.353600
  17026  17012  17034     1   107.9700462 569.024000
  17035  17036  17039     1   111.5100476 526.347200
  17035  17036  17048     1   110.1900474 564.840000
  17035  17049  17055     1   110.1900474 564.840000
  17035  17057  17041     1   112.4800480 524.673600
  17036  17039  17040     1   111.5100476 526.347200
  17036  17039  17047     1   110.1900474 564.840000
  17036  17035  17049     1   111.5100476 526.347200
  17036  17035  17057     1   107.9700462 569.024000
  17039  17040  17041     1   111.5100476 526.347200
  17039  17040  17046     1   110.1900474 564.840000
  17039  17036  17048     1   110.1900474 564.840000
  17040  17041  17045     1   107.9700462 569.024000
  17040  17041  17057     1   107.9700462 569.024000
  17040  17039  17047     1   110.1900474 564.840000
  17041  17040  17046     1   110.1900474 564.840000
  17045  17041  17057     1   108.2900466 608.353600
  17049  17035  17057     1   107.9700462 569.024000
  17058  17059  17062     1   111.5100476 526.347200
  17058  17059  17071     1   110.1900474 564.840000
  17058  17072  17078     1   110.1900474 564.840000
  17058  17080  17064     1   112.4800480 524.673600
  17059  17058  17072     1   111.5100476 526.347200
  17059  17058  17080     1   107.9700462 569.024000
  17059  17062  17063     1   111.5100476 526.347200
  17059  17062  17070     1   110.1900474 564.840000
  17062  17059  17071     1   110.1900474 564.840000
  17062  17063  17064     1   111.5100476 526.347200
  17062  17063  17069     1   110.1900474 564.840000
  17063  17062  17070     1   110.1900474 564.840000
  17063  17064  17068     1   107.9700462 569.024000
  17063  17064  17080     1   107.9700462 569.024000
  17064  17063  17069     1   110.1900474 564.840000
  17068  17064  17080     1   108.2900466 608.353600
  17072  17058  17080     1   107.9700462 569.024000
  17081  17082  17085     1   111.5100476 526.347200
  17081  17082  17094     1   110.1900474 564.840000
  17081  17095  17101     1   110.1900474 564.840000
  17081  17103  17087     1   112.4800480 524.673600
  17082  17085  17086     1   111.5100476 526.347200
  17082  17085  17093     1   110.1900474 564.840000
  17082  17081  17095     1   111.5100476 526.347200
  17082  17081  17103     1   107.9700462 569.024000
  17085  17086  17087     1   111.5100476 526.347200
  17085  17086  17092     1   110.1900474 564.840000
  17085  17082  17094     1   110.1900474 564.840000
  17086  17087  17091     1   107.9700462 569.024000
  17086  17087  17103     1   107.9700462 569.024000
  17086  17085  17093     1   110.1900474 564.840000
  17087  17086  17092     1   110.1900474 564.840000
  17091  17087  17103     1   108.2900466 608.353600
  17095  17081  17103     1   107.9700462 569.024000
  17104  17105  17108     1   111.5100476 526.347200
  17104  17105  17117     1   110.1900474 564.840000
  17104  17118  17124     1   110.1900474 564.840000
  17104  17126  17110     1   112.4800480 524.673600
  17105  17104  17118     1   111.5100476 526.347200
  17105  17104  17126     1   107.9700462 569.024000
  17105  17108  17109     1   111.5100476 526.347200
  17105  17108  17116     1   110.1900474 564.840000
  17108  17105  17117     1   110.1900474 564.840000
  17108  17109  17110     1   111.5100476 526.347200
  17108  17109  17115     1   110.1900474 564.840000
  17109  17108  17116     1   110.1900474 564.840000
  17109  17110  17114     1   107.9700462 569.024000
  17109  17110  17126     1   107.9700462 569.024000
  17110  17109  17115     1   110.1900474 564.840000
  17114  17110  17126     1   108.2900466 608.353600
  17118  17104  17126     1   107.9700462 569.024000
  17127  17128  17131     1   111.5100476 526.347200
  17127  17128  17140     1   110.1900474 564.840000
  17127  17141  17147     1   110.1900474 564.840000
  17127  17149  17133     1   112.4800480 524.673600
  17128  17131  17132     1   111.5100476 526.347200
  17128  17131  17139     1   110.1900474 564.840000
  17128  17127  17141     1   111.5100476 526.347200
  17128  17127  17149     1   107.9700462 569.024000
  17131  17132  17133     1   111.5100476 526.347200
  17131  17132  17138     1   110.1900474 564.840000
  17131  17128  17140     1   110.1900474 564.840000
  17132  17133  17137     1   107.9700462 569.024000
  17132  17133  17149     1   107.9700462 569.024000
  17132  17131  17139     1   110.1900474 564.840000
  17133  17132  17138     1   110.1900474 564.840000
  17137  17133  17149     1   108.2900466 608.353600
  17141  17127  17149     1   107.9700462 569.024000
  17150  17151  17154     1   111.5100476 526.347200
  17150  17151  17163     1   110.1900474 564.840000
  17150  17164  17170     1   110.1900474 564.840000
  17150  17172  17156     1   112.4800480 524.673600
  17151  17150  17164     1   111.5100476 526.347200
  17151  17150  17172     1   107.9700462 569.024000
  17151  17154  17155     1   111.5100476 526.347200
  17151  17154  17162     1   110.1900474 564.840000
  17154  17151  17163     1   110.1900474 564.840000
  17154  17155  17156     1   111.5100476 526.347200
  17154  17155  17161     1   110.1900474 564.840000
  17155  17154  17162     1   110.1900474 564.840000
  17155  17156  17160     1   107.9700462 569.024000
  17155  17156  17172     1   107.9700462 569.024000
  17156  17155  17161     1   110.1900474 564.840000
  17160  17156  17172     1   108.2900466 608.353600
  17164  17150  17172     1   107.9700462 569.024000
  17173  17174  17177     1   111.5100476 526.347200
  17173  17174  17186     1   110.1900474 564.840000
  17173  17187  17193     1   110.1900474 564.840000
  17173  17195  17179     1   112.4800480 524.673600
  17174  17177  17178     1   111.5100476 526.347200
  17174  17177  17185     1   110.1900474 564.840000
  17174  17173  17187     1   111.5100476 526.347200
  17174  17173  17195     1   107.9700462 569.024000
  17177  17178  17179     1   111.5100476 526.347200
  17177  17178  17184     1   110.1900474 564.840000
  17177  17174  17186     1   110.1900474 564.840000
  17178  17179  17183     1   107.9700462 569.024000
  17178  17179  17195     1   107.9700462 569.024000
  17178  17177  17185     1   110.1900474 564.840000
  17179  17178  17184     1   110.1900474 564.840000
  17183  17179  17195     1   108.2900466 608.353600
  17187  17173  17195     1   107.9700462 569.024000
  17196  17197  17200     1   111.5100476 526.347200
  17196  17197  17209     1   110.1900474 564.840000
  17196  17210  17216     1   110.1900474 564.840000
  17196  17218  17202     1   112.4800480 524.673600
  17197  17196  17210     1   111.5100476 526.347200
  17197  17196  17218     1   107.9700462 569.024000
  17197  17200  17201     1   111.5100476 526.347200
  17197  17200  17208     1   110.1900474 564.840000
  17200  17197  17209     1   110.1900474 564.840000
  17200  17201  17202     1   111.5100476 526.347200
  17200  17201  17207     1   110.1900474 564.840000
  17201  17200  17208     1   110.1900474 564.840000
  17201  17202  17206     1   107.9700462 569.024000
  17201  17202  17218     1   107.9700462 569.024000
  17202  17201  17207     1   110.1900474 564.840000
  17206  17202  17218     1   108.2900466 608.353600
  17210  17196  17218     1   107.9700462 569.024000
  17219  17220  17223     1   111.5100476 526.347200
  17219  17220  17232     1   110.1900474 564.840000
  17219  17233  17239     1   110.1900474 564.840000
  17219  17241  17225     1   112.4800480 524.673600
  17220  17223  17224     1   111.5100476 526.347200
  17220  17223  17231     1   110.1900474 564.840000
  17220  17219  17233     1   111.5100476 526.347200
  17220  17219  17241     1   107.9700462 569.024000
  17223  17224  17225     1   111.5100476 526.347200
  17223  17224  17230     1   110.1900474 564.840000
  17223  17220  17232     1   110.1900474 564.840000
  17224  17225  17229     1   107.9700462 569.024000
  17224  17225  17241     1   107.9700462 569.024000
  17224  17223  17231     1   110.1900474 564.840000
  17225  17224  17230     1   110.1900474 564.840000
  17229  17225  17241     1   108.2900466 608.353600
  17233  17219  17241     1   107.9700462 569.024000
  17242  17243  17246     1   111.5100476 526.347200
  17242  17243  17255     1   110.1900474 564.840000
  17242  17256  17262     1   110.1900474 564.840000
  17242  17264  17248     1   112.4800480 524.673600
  17243  17242  17256     1   111.5100476 526.347200
  17243  17242  17264     1   107.9700462 569.024000
  17243  17246  17247     1   111.5100476 526.347200
  17243  17246  17254     1   110.1900474 564.840000
  17246  17243  17255     1   110.1900474 564.840000
  17246  17247  17248     1   111.5100476 526.347200
  17246  17247  17253     1   110.1900474 564.840000
  17247  17246  17254     1   110.1900474 564.840000
  17247  17248  17252     1   107.9700462 569.024000
  17247  17248  17264     1   107.9700462 569.024000
  17248  17247  17253     1   110.1900474 564.840000
  17252  17248  17264     1   108.2900466 608.353600
  17256  17242  17264     1   107.9700462 569.024000
  17265  17266  17269     1   111.5100476 526.347200
  17265  17266  17278     1   110.1900474 564.840000
  17265  17279  17285     1   110.1900474 564.840000
  17265  17287  17271     1   112.4800480 524.673600
  17266  17269  17270     1   111.5100476 526.347200
  17266  17269  17277     1   110.1900474 564.840000
  17266  17265  17279     1   111.5100476 526.347200
  17266  17265  17287     1   107.9700462 569.024000
  17269  17270  17271     1   111.5100476 526.347200
  17269  17270  17276     1   110.1900474 564.840000
  17269  17266  17278     1   110.1900474 564.840000
  17270  17271  17275     1   107.9700462 569.024000
  17270  17271  17287     1   107.9700462 569.024000
  17270  17269  17277     1   110.1900474 564.840000
  17271  17270  17276     1   110.1900474 564.840000
  17275  17271  17287     1   108.2900466 608.353600
  17279  17265  17287     1   107.9700462 569.024000
  17288  17289  17292     1   111.5100476 526.347200
  17288  17289  17301     1   110.1900474 564.840000
  17288  17302  17308     1   110.1900474 564.840000
  17288  17310  17294     1   112.4800480 524.673600
  17289  17288  17302     1   111.5100476 526.347200
  17289  17288  17310     1   107.9700462 569.024000
  17289  17292  17293     1   111.5100476 526.347200
  17289  17292  17300     1   110.1900474 564.840000
  17292  17289  17301     1   110.1900474 564.840000
  17292  17293  17294     1   111.5100476 526.347200
  17292  17293  17299     1   110.1900474 564.840000
  17293  17292  17300     1   110.1900474 564.840000
  17293  17294  17298     1   107.9700462 569.024000
  17293  17294  17310     1   107.9700462 569.024000
  17294  17293  17299     1   110.1900474 564.840000
  17298  17294  17310     1   108.2900466 608.353600
  17302  17288  17310     1   107.9700462 569.024000
  17311  17312  17315     1   111.5100476 526.347200
  17311  17312  17324     1   110.1900474 564.840000
  17311  17325  17331     1   110.1900474 564.840000
  17311  17333  17317     1   112.4800480 524.673600
  17312  17315  17316     1   111.5100476 526.347200
  17312  17315  17323     1   110.1900474 564.840000
  17312  17311  17325     1   111.5100476 526.347200
  17312  17311  17333     1   107.9700462 569.024000
  17315  17316  17317     1   111.5100476 526.347200
  17315  17316  17322     1   110.1900474 564.840000
  17315  17312  17324     1   110.1900474 564.840000
  17316  17317  17321     1   107.9700462 569.024000
  17316  17317  17333     1   107.9700462 569.024000
  17316  17315  17323     1   110.1900474 564.840000
  17317  17316  17322     1   110.1900474 564.840000
  17321  17317  17333     1   108.2900466 608.353600
  17325  17311  17333     1   107.9700462 569.024000
  17334  17335  17338     1   111.5100476 526.347200
  17334  17335  17347     1   110.1900474 564.840000
  17334  17348  17354     1   110.1900474 564.840000
  17334  17356  17340     1   112.4800480 524.673600
  17335  17334  17348     1   111.5100476 526.347200
  17335  17334  17356     1   107.9700462 569.024000
  17335  17338  17339     1   111.5100476 526.347200
  17335  17338  17346     1   110.1900474 564.840000
  17338  17335  17347     1   110.1900474 564.840000
  17338  17339  17340     1   111.5100476 526.347200
  17338  17339  17345     1   110.1900474 564.840000
  17339  17338  17346     1   110.1900474 564.840000
  17339  17340  17344     1   107.9700462 569.024000
  17339  17340  17356     1   107.9700462 569.024000
  17340  17339  17345     1   110.1900474 564.840000
  17344  17340  17356     1   108.2900466 608.353600
  17348  17334  17356     1   107.9700462 569.024000
  17357  17358  17361     1   111.5100476 526.347200
  17357  17358  17370     1   110.1900474 564.840000
  17357  17371  17377     1   110.1900474 564.840000
  17357  17379  17363     1   112.4800480 524.673600
  17358  17361  17362     1   111.5100476 526.347200
  17358  17361  17369     1   110.1900474 564.840000
  17358  17357  17371     1   111.5100476 526.347200
  17358  17357  17379     1   107.9700462 569.024000
  17361  17362  17363     1   111.5100476 526.347200
  17361  17362  17368     1   110.1900474 564.840000
  17361  17358  17370     1   110.1900474 564.840000
  17362  17363  17367     1   107.9700462 569.024000
  17362  17363  17379     1   107.9700462 569.024000
  17362  17361  17369     1   110.1900474 564.840000
  17363  17362  17368     1   110.1900474 564.840000
  17367  17363  17379     1   108.2900466 608.353600
  17371  17357  17379     1   107.9700462 569.024000
  17380  17381  17384     1   111.5100476 526.347200
  17380  17381  17393     1   110.1900474 564.840000
  17380  17394  17400     1   110.1900474 564.840000
  17380  17402  17386     1   112.4800480 524.673600
  17381  17380  17394     1   111.5100476 526.347200
  17381  17380  17402     1   107.9700462 569.024000
  17381  17384  17385     1   111.5100476 526.347200
  17381  17384  17392     1   110.1900474 564.840000
  17384  17381  17393     1   110.1900474 564.840000
  17384  17385  17386     1   111.5100476 526.347200
  17384  17385  17391     1   110.1900474 564.840000
  17385  17384  17392     1   110.1900474 564.840000
  17385  17386  17390     1   107.9700462 569.024000
  17385  17386  17402     1   107.9700462 569.024000
  17386  17385  17391     1   110.1900474 564.840000
  17390  17386  17402     1   108.2900466 608.353600
  17394  17380  17402     1   107.9700462 569.024000
  17403  17404  17407     1   111.5100476 526.347200
  17403  17404  17416     1   110.1900474 564.840000
  17403  17417  17423     1   110.1900474 564.840000
  17403  17425  17409     1   112.4800480 524.673600
  17404  17407  17408     1   111.5100476 526.347200
  17404  17407  17415     1   110.1900474 564.840000
  17404  17403  17417     1   111.5100476 526.347200
  17404  17403  17425     1   107.9700462 569.024000
  17407  17408  17409     1   111.5100476 526.347200
  17407  17408  17414     1   110.1900474 564.840000
  17407  17404  17416     1   110.1900474 564.840000
  17408  17409  17413     1   107.9700462 569.024000
  17408  17409  17425     1   107.9700462 569.024000
  17408  17407  17415     1   110.1900474 564.840000
  17409  17408  17414     1   110.1900474 564.840000
  17413  17409  17425     1   108.2900466 608.353600
  17417  17403  17425     1   107.9700462 569.024000
  17426  17427  17430     1   111.5100476 526.347200
  17426  17427  17439     1   110.1900474 564.840000
  17426  17440  17446     1   110.1900474 564.840000
  17426  17448  17432     1   112.4800480 524.673600
  17427  17426  17440     1   111.5100476 526.347200
  17427  17426  17448     1   107.9700462 569.024000
  17427  17430  17431     1   111.5100476 526.347200
  17427  17430  17438     1   110.1900474 564.840000
  17430  17427  17439     1   110.1900474 564.840000
  17430  17431  17432     1   111.5100476 526.347200
  17430  17431  17437     1   110.1900474 564.840000
  17431  17430  17438     1   110.1900474 564.840000
  17431  17432  17436     1   107.9700462 569.024000
  17431  17432  17448     1   107.9700462 569.024000
  17432  17431  17437     1   110.1900474 564.840000
  17436  17432  17448     1   108.2900466 608.353600
  17440  17426  17448     1   107.9700462 569.024000
  17449  17450  17453     1   111.5100476 526.347200
  17449  17450  17462     1   110.1900474 564.840000
  17449  17463  17469     1   110.1900474 564.840000
  17449  17471  17455     1   112.4800480 524.673600
  17450  17453  17454     1   111.5100476 526.347200
  17450  17453  17461     1   110.1900474 564.840000
  17450  17449  17463     1   111.5100476 526.347200
  17450  17449  17471     1   107.9700462 569.024000
  17453  17454  17455     1   111.5100476 526.347200
  17453  17454  17460     1   110.1900474 564.840000
  17453  17450  17462     1   110.1900474 564.840000
  17454  17455  17459     1   107.9700462 569.024000
  17454  17455  17471     1   107.9700462 569.024000
  17454  17453  17461     1   110.1900474 564.840000
  17455  17454  17460     1   110.1900474 564.840000
  17459  17455  17471     1   108.2900466 608.353600
  17463  17449  17471     1   107.9700462 569.024000
  17472  17473  17476     1   111.5100476 526.347200
  17472  17473  17485     1   110.1900474 564.840000
  17472  17486  17492     1   110.1900474 564.840000
  17472  17494  17478     1   112.4800480 524.673600
  17473  17472  17486     1   111.5100476 526.347200
  17473  17472  17494     1   107.9700462 569.024000
  17473  17476  17477     1   111.5100476 526.347200
  17473  17476  17484     1   110.1900474 564.840000
  17476  17473  17485     1   110.1900474 564.840000
  17476  17477  17478     1   111.5100476 526.347200
  17476  17477  17483     1   110.1900474 564.840000
  17477  17476  17484     1   110.1900474 564.840000
  17477  17478  17482     1   107.9700462 569.024000
  17477  17478  17494     1   107.9700462 569.024000
  17478  17477  17483     1   110.1900474 564.840000
  17482  17478  17494     1   108.2900466 608.353600
  17486  17472  17494     1   107.9700462 569.024000
  17495  17496  17499     1   111.5100476 526.347200
  17495  17496  17508     1   110.1900474 564.840000
  17495  17509  17515     1   110.1900474 564.840000
  17495  17517  17501     1   112.4800480 524.673600
  17496  17499  17500     1   111.5100476 526.347200
  17496  17499  17507     1   110.1900474 564.840000
  17496  17495  17509     1   111.5100476 526.347200
  17496  17495  17517     1   107.9700462 569.024000
  17499  17500  17501     1   111.5100476 526.347200
  17499  17500  17506     1   110.1900474 564.840000
  17499  17496  17508     1   110.1900474 564.840000
  17500  17501  17505     1   107.9700462 569.024000
  17500  17501  17517     1   107.9700462 569.024000
  17500  17499  17507     1   110.1900474 564.840000
  17501  17500  17506     1   110.1900474 564.840000
  17505  17501  17517     1   108.2900466 608.353600
  17509  17495  17517     1   107.9700462 569.024000
  17518  17519  17522     1   111.5100476 526.347200
  17518  17519  17531     1   110.1900474 564.840000
  17518  17532  17538     1   110.1900474 564.840000
  17518  17540  17524     1   112.4800480 524.673600
  17519  17518  17532     1   111.5100476 526.347200
  17519  17518  17540     1   107.9700462 569.024000
  17519  17522  17523     1   111.5100476 526.347200
  17519  17522  17530     1   110.1900474 564.840000
  17522  17519  17531     1   110.1900474 564.840000
  17522  17523  17524     1   111.5100476 526.347200
  17522  17523  17529     1   110.1900474 564.840000
  17523  17522  17530     1   110.1900474 564.840000
  17523  17524  17528     1   107.9700462 569.024000
  17523  17524  17540     1   107.9700462 569.024000
  17524  17523  17529     1   110.1900474 564.840000
  17528  17524  17540     1   108.2900466 608.353600
  17532  17518  17540     1   107.9700462 569.024000
  17541  17542  17545     1   111.5100476 526.347200
  17541  17542  17554     1   110.1900474 564.840000
  17541  17555  17561     1   110.1900474 564.840000
  17541  17563  17547     1   112.4800480 524.673600
  17542  17545  17546     1   111.5100476 526.347200
  17542  17545  17553     1   110.1900474 564.840000
  17542  17541  17555     1   111.5100476 526.347200
  17542  17541  17563     1   107.9700462 569.024000
  17545  17546  17547     1   111.5100476 526.347200
  17545  17546  17552     1   110.1900474 564.840000
  17545  17542  17554     1   110.1900474 564.840000
  17546  17547  17551     1   107.9700462 569.024000
  17546  17547  17563     1   107.9700462 569.024000
  17546  17545  17553     1   110.1900474 564.840000
  17547  17546  17552     1   110.1900474 564.840000
  17551  17547  17563     1   108.2900466 608.353600
  17555  17541  17563     1   107.9700462 569.024000
  17564  17565  17568     1   111.5100476 526.347200
  17564  17565  17577     1   110.1900474 564.840000
  17564  17578  17584     1   110.1900474 564.840000
  17564  17586  17570     1   112.4800480 524.673600
  17565  17564  17578     1   111.5100476 526.347200
  17565  17564  17586     1   107.9700462 569.024000
  17565  17568  17569     1   111.5100476 526.347200
  17565  17568  17576     1   110.1900474 564.840000
  17568  17565  17577     1   110.1900474 564.840000
  17568  17569  17570     1   111.5100476 526.347200
  17568  17569  17575     1   110.1900474 564.840000
  17569  17568  17576     1   110.1900474 564.840000
  17569  17570  17574     1   107.9700462 569.024000
  17569  17570  17586     1   107.9700462 569.024000
  17570  17569  17575     1   110.1900474 564.840000
  17574  17570  17586     1   108.2900466 608.353600
  17578  17564  17586     1   107.9700462 569.024000
  17587  17588  17591     1   111.5100476 526.347200
  17587  17588  17600     1   110.1900474 564.840000
  17587  17601  17607     1   110.1900474 564.840000
  17587  17609  17593     1   112.4800480 524.673600
  17588  17591  17592     1   111.5100476 526.347200
  17588  17591  17599     1   110.1900474 564.840000
  17588  17587  17601     1   111.5100476 526.347200
  17588  17587  17609     1   107.9700462 569.024000
  17591  17592  17593     1   111.5100476 526.347200
  17591  17592  17598     1   110.1900474 564.840000
  17591  17588  17600     1   110.1900474 564.840000
  17592  17593  17597     1   107.9700462 569.024000
  17592  17593  17609     1   107.9700462 569.024000
  17592  17591  17599     1   110.1900474 564.840000
  17593  17592  17598     1   110.1900474 564.840000
  17597  17593  17609     1   108.2900466 608.353600
  17601  17587  17609     1   107.9700462 569.024000
  17610  17611  17614     1   111.5100476 526.347200
  17610  17611  17623     1   110.1900474 564.840000
  17610  17624  17630     1   110.1900474 564.840000
  17610  17632  17616     1   112.4800480 524.673600
  17611  17610  17624     1   111.5100476 526.347200
  17611  17610  17632     1   107.9700462 569.024000
  17611  17614  17615     1   111.5100476 526.347200
  17611  17614  17622     1   110.1900474 564.840000
  17614  17611  17623     1   110.1900474 564.840000
  17614  17615  17616     1   111.5100476 526.347200
  17614  17615  17621     1   110.1900474 564.840000
  17615  17614  17622     1   110.1900474 564.840000
  17615  17616  17620     1   107.9700462 569.024000
  17615  17616  17632     1   107.9700462 569.024000
  17616  17615  17621     1   110.1900474 564.840000
  17620  17616  17632     1   108.2900466 608.353600
  17624  17610  17632     1   107.9700462 569.024000
  17633  17634  17637     1   111.5100476 526.347200
  17633  17634  17646     1   110.1900474 564.840000
  17633  17647  17653     1   110.1900474 564.840000
  17633  17655  17639     1   112.4800480 524.673600
  17634  17637  17638     1   111.5100476 526.347200
  17634  17637  17645     1   110.1900474 564.840000
  17634  17633  17647     1   111.5100476 526.347200
  17634  17633  17655     1   107.9700462 569.024000
  17637  17638  17639     1   111.5100476 526.347200
  17637  17638  17644     1   110.1900474 564.840000
  17637  17634  17646     1   110.1900474 564.840000
  17638  17639  17643     1   107.9700462 569.024000
  17638  17639  17655     1   107.9700462 569.024000
  17638  17637  17645     1   110.1900474 564.840000
  17639  17638  17644     1   110.1900474 564.840000
  17643  17639  17655     1   108.2900466 608.353600
  17647  17633  17655     1   107.9700462 569.024000
  17656  17657  17660     1   111.5100476 526.347200
  17656  17657  17669     1   110.1900474 564.840000
  17656  17670  17676     1   110.1900474 564.840000
  17656  17678  17662     1   112.4800480 524.673600
  17657  17656  17670     1   111.5100476 526.347200
  17657  17656  17678     1   107.9700462 569.024000
  17657  17660  17661     1   111.5100476 526.347200
  17657  17660  17668     1   110.1900474 564.840000
  17660  17657  17669     1   110.1900474 564.840000
  17660  17661  17662     1   111.5100476 526.347200
  17660  17661  17667     1   110.1900474 564.840000
  17661  17660  17668     1   110.1900474 564.840000
  17661  17662  17666     1   107.9700462 569.024000
  17661  17662  17678     1   107.9700462 569.024000
  17662  17661  17667     1   110.1900474 564.840000
  17666  17662  17678     1   108.2900466 608.353600
  17670  17656  17678     1   107.9700462 569.024000
  17679  17680  17683     1   111.5100476 526.347200
  17679  17680  17692     1   110.1900474 564.840000
  17679  17693  17699     1   110.1900474 564.840000
  17679  17701  17685     1   112.4800480 524.673600
  17680  17683  17684     1   111.5100476 526.347200
  17680  17683  17691     1   110.1900474 564.840000
  17680  17679  17693     1   111.5100476 526.347200
  17680  17679  17701     1   107.9700462 569.024000
  17683  17684  17685     1   111.5100476 526.347200
  17683  17684  17690     1   110.1900474 564.840000
  17683  17680  17692     1   110.1900474 564.840000
  17684  17685  17689     1   107.9700462 569.024000
  17684  17685  17701     1   107.9700462 569.024000
  17684  17683  17691     1   110.1900474 564.840000
  17685  17684  17690     1   110.1900474 564.840000
  17689  17685  17701     1   108.2900466 608.353600
  17693  17679  17701     1   107.9700462 569.024000
  17702  17703  17706     1   111.5100476 526.347200
  17702  17703  17715     1   110.1900474 564.840000
  17702  17716  17722     1   110.1900474 564.840000
  17702  17724  17708     1   112.4800480 524.673600
  17703  17702  17716     1   111.5100476 526.347200
  17703  17702  17724     1   107.9700462 569.024000
  17703  17706  17707     1   111.5100476 526.347200
  17703  17706  17714     1   110.1900474 564.840000
  17706  17703  17715     1   110.1900474 564.840000
  17706  17707  17708     1   111.5100476 526.347200
  17706  17707  17713     1   110.1900474 564.840000
  17707  17706  17714     1   110.1900474 564.840000
  17707  17708  17712     1   107.9700462 569.024000
  17707  17708  17724     1   107.9700462 569.024000
  17708  17707  17713     1   110.1900474 564.840000
  17712  17708  17724     1   108.2900466 608.353600
  17716  17702  17724     1   107.9700462 569.024000
  17725  17726  17729     1   111.5100476 526.347200
  17725  17726  17738     1   110.1900474 564.840000
  17725  17739  17745     1   110.1900474 564.840000
  17725  17747  17731     1   112.4800480 524.673600
  17726  17729  17730     1   111.5100476 526.347200
  17726  17729  17737     1   110.1900474 564.840000
  17726  17725  17739     1   111.5100476 526.347200
  17726  17725  17747     1   107.9700462 569.024000
  17729  17730  17731     1   111.5100476 526.347200
  17729  17730  17736     1   110.1900474 564.840000
  17729  17726  17738     1   110.1900474 564.840000
  17730  17731  17735     1   107.9700462 569.024000
  17730  17731  17747     1   107.9700462 569.024000
  17730  17729  17737     1   110.1900474 564.840000
  17731  17730  17736     1   110.1900474 564.840000
  17735  17731  17747     1   108.2900466 608.353600
  17739  17725  17747     1   107.9700462 569.024000
  17748  17749  17752     1   111.5100476 526.347200
  17748  17749  17761     1   110.1900474 564.840000
  17748  17762  17768     1   110.1900474 564.840000
  17748  17770  17754     1   112.4800480 524.673600
  17749  17748  17762     1   111.5100476 526.347200
  17749  17748  17770     1   107.9700462 569.024000
  17749  17752  17753     1   111.5100476 526.347200
  17749  17752  17760     1   110.1900474 564.840000
  17752  17749  17761     1   110.1900474 564.840000
  17752  17753  17754     1   111.5100476 526.347200
  17752  17753  17759     1   110.1900474 564.840000
  17753  17752  17760     1   110.1900474 564.840000
  17753  17754  17758     1   107.9700462 569.024000
  17753  17754  17770     1   107.9700462 569.024000
  17754  17753  17759     1   110.1900474 564.840000
  17758  17754  17770     1   108.2900466 608.353600
  17762  17748  17770     1   107.9700462 569.024000
  17771  17772  17775     1   111.5100476 526.347200
  17771  17772  17784     1   110.1900474 564.840000
  17771  17785  17791     1   110.1900474 564.840000
  17771  17793  17777     1   112.4800480 524.673600
  17772  17775  17776     1   111.5100476 526.347200
  17772  17775  17783     1   110.1900474 564.840000
  17772  17771  17785     1   111.5100476 526.347200
  17772  17771  17793     1   107.9700462 569.024000
  17775  17776  17777     1   111.5100476 526.347200
  17775  17776  17782     1   110.1900474 564.840000
  17775  17772  17784     1   110.1900474 564.840000
  17776  17777  17781     1   107.9700462 569.024000
  17776  17777  17793     1   107.9700462 569.024000
  17776  17775  17783     1   110.1900474 564.840000
  17777  17776  17782     1   110.1900474 564.840000
  17781  17777  17793     1   108.2900466 608.353600
  17785  17771  17793     1   107.9700462 569.024000
  17794  17795  17798     1   111.5100476 526.347200
  17794  17795  17807     1   110.1900474 564.840000
  17794  17808  17814     1   110.1900474 564.840000
  17794  17816  17800     1   112.4800480 524.673600
  17795  17794  17808     1   111.5100476 526.347200
  17795  17794  17816     1   107.9700462 569.024000
  17795  17798  17799     1   111.5100476 526.347200
  17795  17798  17806     1   110.1900474 564.840000
  17798  17795  17807     1   110.1900474 564.840000
  17798  17799  17800     1   111.5100476 526.347200
  17798  17799  17805     1   110.1900474 564.840000
  17799  17798  17806     1   110.1900474 564.840000
  17799  17800  17804     1   107.9700462 569.024000
  17799  17800  17816     1   107.9700462 569.024000
  17800  17799  17805     1   110.1900474 564.840000
  17804  17800  17816     1   108.2900466 608.353600
  17808  17794  17816     1   107.9700462 569.024000
  17817  17818  17821     1   111.5100476 526.347200
  17817  17818  17830     1   110.1900474 564.840000
  17817  17831  17837     1   110.1900474 564.840000
  17817  17839  17823     1   112.4800480 524.673600
  17818  17821  17822     1   111.5100476 526.347200
  17818  17821  17829     1   110.1900474 564.840000
  17818  17817  17831     1   111.5100476 526.347200
  17818  17817  17839     1   107.9700462 569.024000
  17821  17822  17823     1   111.5100476 526.347200
  17821  17822  17828     1   110.1900474 564.840000
  17821  17818  17830     1   110.1900474 564.840000
  17822  17823  17827     1   107.9700462 569.024000
  17822  17823  17839     1   107.9700462 569.024000
  17822  17821  17829     1   110.1900474 564.840000
  17823  17822  17828     1   110.1900474 564.840000
  17827  17823  17839     1   108.2900466 608.353600
  17831  17817  17839     1   107.9700462 569.024000
  17840  17841  17844     1   111.5100476 526.347200
  17840  17841  17853     1   110.1900474 564.840000
  17840  17854  17860     1   110.1900474 564.840000
  17840  17862  17846     1   112.4800480 524.673600
  17841  17840  17854     1   111.5100476 526.347200
  17841  17840  17862     1   107.9700462 569.024000
  17841  17844  17845     1   111.5100476 526.347200
  17841  17844  17852     1   110.1900474 564.840000
  17844  17841  17853     1   110.1900474 564.840000
  17844  17845  17846     1   111.5100476 526.347200
  17844  17845  17851     1   110.1900474 564.840000
  17845  17844  17852     1   110.1900474 564.840000
  17845  17846  17850     1   107.9700462 569.024000
  17845  17846  17862     1   107.9700462 569.024000
  17846  17845  17851     1   110.1900474 564.840000
  17850  17846  17862     1   108.2900466 608.353600
  17854  17840  17862     1   107.9700462 569.024000
  17863  17864  17867     1   111.5100476 526.347200
  17863  17864  17876     1   110.1900474 564.840000
  17863  17877  17883     1   110.1900474 564.840000
  17863  17885  17869     1   112.4800480 524.673600
  17864  17867  17868     1   111.5100476 526.347200
  17864  17867  17875     1   110.1900474 564.840000
  17864  17863  17877     1   111.5100476 526.347200
  17864  17863  17885     1   107.9700462 569.024000
  17867  17868  17869     1   111.5100476 526.347200
  17867  17868  17874     1   110.1900474 564.840000
  17867  17864  17876     1   110.1900474 564.840000
  17868  17869  17873     1   107.9700462 569.024000
  17868  17869  17885     1   107.9700462 569.024000
  17868  17867  17875     1   110.1900474 564.840000
  17869  17868  17874     1   110.1900474 564.840000
  17873  17869  17885     1   108.2900466 608.353600
  17877  17863  17885     1   107.9700462 569.024000
  17886  17887  17890     1   111.5100476 526.347200
  17886  17887  17899     1   110.1900474 564.840000
  17886  17900  17906     1   110.1900474 564.840000
  17886  17908  17892     1   112.4800480 524.673600
  17887  17886  17900     1   111.5100476 526.347200
  17887  17886  17908     1   107.9700462 569.024000
  17887  17890  17891     1   111.5100476 526.347200
  17887  17890  17898     1   110.1900474 564.840000
  17890  17887  17899     1   110.1900474 564.840000
  17890  17891  17892     1   111.5100476 526.347200
  17890  17891  17897     1   110.1900474 564.840000
  17891  17890  17898     1   110.1900474 564.840000
  17891  17892  17896     1   107.9700462 569.024000
  17891  17892  17908     1   107.9700462 569.024000
  17892  17891  17897     1   110.1900474 564.840000
  17896  17892  17908     1   108.2900466 608.353600
  17900  17886  17908     1   107.9700462 569.024000
  17909  17910  17913     1   111.5100476 526.347200
  17909  17910  17922     1   110.1900474 564.840000
  17909  17923  17929     1   110.1900474 564.840000
  17909  17931  17915     1   112.4800480 524.673600
  17910  17913  17914     1   111.5100476 526.347200
  17910  17913  17921     1   110.1900474 564.840000
  17910  17909  17923     1   111.5100476 526.347200
  17910  17909  17931     1   107.9700462 569.024000
  17913  17914  17915     1   111.5100476 526.347200
  17913  17914  17920     1   110.1900474 564.840000
  17913  17910  17922     1   110.1900474 564.840000
  17914  17915  17919     1   107.9700462 569.024000
  17914  17915  17931     1   107.9700462 569.024000
  17914  17913  17921     1   110.1900474 564.840000
  17915  17914  17920     1   110.1900474 564.840000
  17919  17915  17931     1   108.2900466 608.353600
  17923  17909  17931     1   107.9700462 569.024000
  17932  17933  17936     1   111.5100476 526.347200
  17932  17933  17945     1   110.1900474 564.840000
  17932  17946  17952     1   110.1900474 564.840000
  17932  17954  17938     1   112.4800480 524.673600
  17933  17932  17946     1   111.5100476 526.347200
  17933  17932  17954     1   107.9700462 569.024000
  17933  17936  17937     1   111.5100476 526.347200
  17933  17936  17944     1   110.1900474 564.840000
  17936  17933  17945     1   110.1900474 564.840000
  17936  17937  17938     1   111.5100476 526.347200
  17936  17937  17943     1   110.1900474 564.840000
  17937  17936  17944     1   110.1900474 564.840000
  17937  17938  17942     1   107.9700462 569.024000
  17937  17938  17954     1   107.9700462 569.024000
  17938  17937  17943     1   110.1900474 564.840000
  17942  17938  17954     1   108.2900466 608.353600
  17946  17932  17954     1   107.9700462 569.024000
  17955  17956  17959     1   111.5100476 526.347200
  17955  17956  17968     1   110.1900474 564.840000
  17955  17969  17975     1   110.1900474 564.840000
  17955  17977  17961     1   112.4800480 524.673600
  17956  17959  17960     1   111.5100476 526.347200
  17956  17959  17967     1   110.1900474 564.840000
  17956  17955  17969     1   111.5100476 526.347200
  17956  17955  17977     1   107.9700462 569.024000
  17959  17960  17961     1   111.5100476 526.347200
  17959  17960  17966     1   110.1900474 564.840000
  17959  17956  17968     1   110.1900474 564.840000
  17960  17961  17965     1   107.9700462 569.024000
  17960  17961  17977     1   107.9700462 569.024000
  17960  17959  17967     1   110.1900474 564.840000
  17961  17960  17966     1   110.1900474 564.840000
  17965  17961  17977     1   108.2900466 608.353600
  17969  17955  17977     1   107.9700462 569.024000
  17978  17979  17982     1   111.5100476 526.347200
  17978  17979  17991     1   110.1900474 564.840000
  17978  17992  17998     1   110.1900474 564.840000
  17978  18000  17984     1   112.4800480 524.673600
  17979  17978  17992     1   111.5100476 526.347200
  17979  17978  18000     1   107.9700462 569.024000
  17979  17982  17983     1   111.5100476 526.347200
  17979  17982  17990     1   110.1900474 564.840000
  17982  17979  17991     1   110.1900474 564.840000
  17982  17983  17984     1   111.5100476 526.347200
  17982  17983  17989     1   110.1900474 564.840000
  17983  17982  17990     1   110.1900474 564.840000
  17983  17984  17988     1   107.9700462 569.024000
  17983  17984  18000     1   107.9700462 569.024000
  17984  17983  17989     1   110.1900474 564.840000
  17988  17984  18000     1   108.2900466 608.353600
  17992  17978  18000     1   107.9700462 569.024000
  18001  18002  18005     1   111.5100476 526.347200
  18001  18002  18014     1   110.1900474 564.840000
  18001  18015  18021     1   110.1900474 564.840000
  18001  18023  18007     1   112.4800480 524.673600
  18002  18005  18006     1   111.5100476 526.347200
  18002  18005  18013     1   110.1900474 564.840000
  18002  18001  18015     1   111.5100476 526.347200
  18002  18001  18023     1   107.9700462 569.024000
  18005  18006  18007     1   111.5100476 526.347200
  18005  18006  18012     1   110.1900474 564.840000
  18005  18002  18014     1   110.1900474 564.840000
  18006  18007  18011     1   107.9700462 569.024000
  18006  18007  18023     1   107.9700462 569.024000
  18006  18005  18013     1   110.1900474 564.840000
  18007  18006  18012     1   110.1900474 564.840000
  18011  18007  18023     1   108.2900466 608.353600
  18015  18001  18023     1   107.9700462 569.024000
  18024  18025  18028     1   111.5100476 526.347200
  18024  18025  18037     1   110.1900474 564.840000
  18024  18038  18044     1   110.1900474 564.840000
  18024  18046  18030     1   112.4800480 524.673600
  18025  18024  18038     1   111.5100476 526.347200
  18025  18024  18046     1   107.9700462 569.024000
  18025  18028  18029     1   111.5100476 526.347200
  18025  18028  18036     1   110.1900474 564.840000
  18028  18025  18037     1   110.1900474 564.840000
  18028  18029  18030     1   111.5100476 526.347200
  18028  18029  18035     1   110.1900474 564.840000
  18029  18028  18036     1   110.1900474 564.840000
  18029  18030  18034     1   107.9700462 569.024000
  18029  18030  18046     1   107.9700462 569.024000
  18030  18029  18035     1   110.1900474 564.840000
  18034  18030  18046     1   108.2900466 608.353600
  18038  18024  18046     1   107.9700462 569.024000
  18047  18048  18051     1   111.5100476 526.347200
  18047  18048  18060     1   110.1900474 564.840000
  18047  18061  18067     1   110.1900474 564.840000
  18047  18069  18053     1   112.4800480 524.673600
  18048  18051  18052     1   111.5100476 526.347200
  18048  18051  18059     1   110.1900474 564.840000
  18048  18047  18061     1   111.5100476 526.347200
  18048  18047  18069     1   107.9700462 569.024000
  18051  18052  18053     1   111.5100476 526.347200
  18051  18052  18058     1   110.1900474 564.840000
  18051  18048  18060     1   110.1900474 564.840000
  18052  18053  18057     1   107.9700462 569.024000
  18052  18053  18069     1   107.9700462 569.024000
  18052  18051  18059     1   110.1900474 564.840000
  18053  18052  18058     1   110.1900474 564.840000
  18057  18053  18069     1   108.2900466 608.353600
  18061  18047  18069     1   107.9700462 569.024000
  18070  18071  18074     1   111.5100476 526.347200
  18070  18071  18083     1   110.1900474 564.840000
  18070  18084  18090     1   110.1900474 564.840000
  18070  18092  18076     1   112.4800480 524.673600
  18071  18070  18084     1   111.5100476 526.347200
  18071  18070  18092     1   107.9700462 569.024000
  18071  18074  18075     1   111.5100476 526.347200
  18071  18074  18082     1   110.1900474 564.840000
  18074  18071  18083     1   110.1900474 564.840000
  18074  18075  18076     1   111.5100476 526.347200
  18074  18075  18081     1   110.1900474 564.840000
  18075  18074  18082     1   110.1900474 564.840000
  18075  18076  18080     1   107.9700462 569.024000
  18075  18076  18092     1   107.9700462 569.024000
  18076  18075  18081     1   110.1900474 564.840000
  18080  18076  18092     1   108.2900466 608.353600
  18084  18070  18092     1   107.9700462 569.024000
  18093  18094  18097     1   111.5100476 526.347200
  18093  18094  18106     1   110.1900474 564.840000
  18093  18107  18113     1   110.1900474 564.840000
  18093  18115  18099     1   112.4800480 524.673600
  18094  18097  18098     1   111.5100476 526.347200
  18094  18097  18105     1   110.1900474 564.840000
  18094  18093  18107     1   111.5100476 526.347200
  18094  18093  18115     1   107.9700462 569.024000
  18097  18098  18099     1   111.5100476 526.347200
  18097  18098  18104     1   110.1900474 564.840000
  18097  18094  18106     1   110.1900474 564.840000
  18098  18099  18103     1   107.9700462 569.024000
  18098  18099  18115     1   107.9700462 569.024000
  18098  18097  18105     1   110.1900474 564.840000
  18099  18098  18104     1   110.1900474 564.840000
  18103  18099  18115     1   108.2900466 608.353600
  18107  18093  18115     1   107.9700462 569.024000
  18116  18117  18120     1   111.5100476 526.347200
  18116  18117  18129     1   110.1900474 564.840000
  18116  18130  18136     1   110.1900474 564.840000
  18116  18138  18122     1   112.4800480 524.673600
  18117  18116  18130     1   111.5100476 526.347200
  18117  18116  18138     1   107.9700462 569.024000
  18117  18120  18121     1   111.5100476 526.347200
  18117  18120  18128     1   110.1900474 564.840000
  18120  18117  18129     1   110.1900474 564.840000
  18120  18121  18122     1   111.5100476 526.347200
  18120  18121  18127     1   110.1900474 564.840000
  18121  18120  18128     1   110.1900474 564.840000
  18121  18122  18126     1   107.9700462 569.024000
  18121  18122  18138     1   107.9700462 569.024000
  18122  18121  18127     1   110.1900474 564.840000
  18126  18122  18138     1   108.2900466 608.353600
  18130  18116  18138     1   107.9700462 569.024000
  18139  18140  18143     1   111.5100476 526.347200
  18139  18140  18152     1   110.1900474 564.840000
  18139  18153  18159     1   110.1900474 564.840000
  18139  18161  18145     1   112.4800480 524.673600
  18140  18143  18144     1   111.5100476 526.347200
  18140  18143  18151     1   110.1900474 564.840000
  18140  18139  18153     1   111.5100476 526.347200
  18140  18139  18161     1   107.9700462 569.024000
  18143  18144  18145     1   111.5100476 526.347200
  18143  18144  18150     1   110.1900474 564.840000
  18143  18140  18152     1   110.1900474 564.840000
  18144  18145  18149     1   107.9700462 569.024000
  18144  18145  18161     1   107.9700462 569.024000
  18144  18143  18151     1   110.1900474 564.840000
  18145  18144  18150     1   110.1900474 564.840000
  18149  18145  18161     1   108.2900466 608.353600
  18153  18139  18161     1   107.9700462 569.024000
  18162  18163  18166     1   111.5100476 526.347200
  18162  18163  18175     1   110.1900474 564.840000
  18162  18176  18182     1   110.1900474 564.840000
  18162  18184  18168     1   112.4800480 524.673600
  18163  18162  18176     1   111.5100476 526.347200
  18163  18162  18184     1   107.9700462 569.024000
  18163  18166  18167     1   111.5100476 526.347200
  18163  18166  18174     1   110.1900474 564.840000
  18166  18163  18175     1   110.1900474 564.840000
  18166  18167  18168     1   111.5100476 526.347200
  18166  18167  18173     1   110.1900474 564.840000
  18167  18166  18174     1   110.1900474 564.840000
  18167  18168  18172     1   107.9700462 569.024000
  18167  18168  18184     1   107.9700462 569.024000
  18168  18167  18173     1   110.1900474 564.840000
  18172  18168  18184     1   108.2900466 608.353600
  18176  18162  18184     1   107.9700462 569.024000
  18185  18186  18189     1   111.5100476 526.347200
  18185  18186  18198     1   110.1900474 564.840000
  18185  18199  18205     1   110.1900474 564.840000
  18185  18207  18191     1   112.4800480 524.673600
  18186  18189  18190     1   111.5100476 526.347200
  18186  18189  18197     1   110.1900474 564.840000
  18186  18185  18199     1   111.5100476 526.347200
  18186  18185  18207     1   107.9700462 569.024000
  18189  18190  18191     1   111.5100476 526.347200
  18189  18190  18196     1   110.1900474 564.840000
  18189  18186  18198     1   110.1900474 564.840000
  18190  18191  18195     1   107.9700462 569.024000
  18190  18191  18207     1   107.9700462 569.024000
  18190  18189  18197     1   110.1900474 564.840000
  18191  18190  18196     1   110.1900474 564.840000
  18195  18191  18207     1   108.2900466 608.353600
  18199  18185  18207     1   107.9700462 569.024000
  18208  18209  18212     1   111.5100476 526.347200
  18208  18209  18221     1   110.1900474 564.840000
  18208  18222  18228     1   110.1900474 564.840000
  18208  18230  18214     1   112.4800480 524.673600
  18209  18208  18222     1   111.5100476 526.347200
  18209  18208  18230     1   107.9700462 569.024000
  18209  18212  18213     1   111.5100476 526.347200
  18209  18212  18220     1   110.1900474 564.840000
  18212  18209  18221     1   110.1900474 564.840000
  18212  18213  18214     1   111.5100476 526.347200
  18212  18213  18219     1   110.1900474 564.840000
  18213  18212  18220     1   110.1900474 564.840000
  18213  18214  18218     1   107.9700462 569.024000
  18213  18214  18230     1   107.9700462 569.024000
  18214  18213  18219     1   110.1900474 564.840000
  18218  18214  18230     1   108.2900466 608.353600
  18222  18208  18230     1   107.9700462 569.024000
  18231  18232  18235     1   111.5100476 526.347200
  18231  18232  18244     1   110.1900474 564.840000
  18231  18245  18251     1   110.1900474 564.840000
  18231  18253  18237     1   112.4800480 524.673600
  18232  18235  18236     1   111.5100476 526.347200
  18232  18235  18243     1   110.1900474 564.840000
  18232  18231  18245     1   111.5100476 526.347200
  18232  18231  18253     1   107.9700462 569.024000
  18235  18236  18237     1   111.5100476 526.347200
  18235  18236  18242     1   110.1900474 564.840000
  18235  18232  18244     1   110.1900474 564.840000
  18236  18237  18241     1   107.9700462 569.024000
  18236  18237  18253     1   107.9700462 569.024000
  18236  18235  18243     1   110.1900474 564.840000
  18237  18236  18242     1   110.1900474 564.840000
  18241  18237  18253     1   108.2900466 608.353600
  18245  18231  18253     1   107.9700462 569.024000
  18254  18255  18258     1   111.5100476 526.347200
  18254  18255  18267     1   110.1900474 564.840000
  18254  18268  18274     1   110.1900474 564.840000
  18254  18276  18260     1   112.4800480 524.673600
  18255  18254  18268     1   111.5100476 526.347200
  18255  18254  18276     1   107.9700462 569.024000
  18255  18258  18259     1   111.5100476 526.347200
  18255  18258  18266     1   110.1900474 564.840000
  18258  18255  18267     1   110.1900474 564.840000
  18258  18259  18260     1   111.5100476 526.347200
  18258  18259  18265     1   110.1900474 564.840000
  18259  18258  18266     1   110.1900474 564.840000
  18259  18260  18264     1   107.9700462 569.024000
  18259  18260  18276     1   107.9700462 569.024000
  18260  18259  18265     1   110.1900474 564.840000
  18264  18260  18276     1   108.2900466 608.353600
  18268  18254  18276     1   107.9700462 569.024000
  18277  18278  18281     1   111.5100476 526.347200
  18277  18278  18290     1   110.1900474 564.840000
  18277  18291  18297     1   110.1900474 564.840000
  18277  18299  18283     1   112.4800480 524.673600
  18278  18281  18282     1   111.5100476 526.347200
  18278  18281  18289     1   110.1900474 564.840000
  18278  18277  18291     1   111.5100476 526.347200
  18278  18277  18299     1   107.9700462 569.024000
  18281  18282  18283     1   111.5100476 526.347200
  18281  18282  18288     1   110.1900474 564.840000
  18281  18278  18290     1   110.1900474 564.840000
  18282  18283  18287     1   107.9700462 569.024000
  18282  18283  18299     1   107.9700462 569.024000
  18282  18281  18289     1   110.1900474 564.840000
  18283  18282  18288     1   110.1900474 564.840000
  18287  18283  18299     1   108.2900466 608.353600
  18291  18277  18299     1   107.9700462 569.024000
  18300  18301  18304     1   111.5100476 526.347200
  18300  18301  18313     1   110.1900474 564.840000
  18300  18314  18320     1   110.1900474 564.840000
  18300  18322  18306     1   112.4800480 524.673600
  18301  18300  18314     1   111.5100476 526.347200
  18301  18300  18322     1   107.9700462 569.024000
  18301  18304  18305     1   111.5100476 526.347200
  18301  18304  18312     1   110.1900474 564.840000
  18304  18301  18313     1   110.1900474 564.840000
  18304  18305  18306     1   111.5100476 526.347200
  18304  18305  18311     1   110.1900474 564.840000
  18305  18304  18312     1   110.1900474 564.840000
  18305  18306  18310     1   107.9700462 569.024000
  18305  18306  18322     1   107.9700462 569.024000
  18306  18305  18311     1   110.1900474 564.840000
  18310  18306  18322     1   108.2900466 608.353600
  18314  18300  18322     1   107.9700462 569.024000
  18323  18324  18327     1   111.5100476 526.347200
  18323  18324  18336     1   110.1900474 564.840000
  18323  18337  18343     1   110.1900474 564.840000
  18323  18345  18329     1   112.4800480 524.673600
  18324  18327  18328     1   111.5100476 526.347200
  18324  18327  18335     1   110.1900474 564.840000
  18324  18323  18337     1   111.5100476 526.347200
  18324  18323  18345     1   107.9700462 569.024000
  18327  18328  18329     1   111.5100476 526.347200
  18327  18328  18334     1   110.1900474 564.840000
  18327  18324  18336     1   110.1900474 564.840000
  18328  18329  18333     1   107.9700462 569.024000
  18328  18329  18345     1   107.9700462 569.024000
  18328  18327  18335     1   110.1900474 564.840000
  18329  18328  18334     1   110.1900474 564.840000
  18333  18329  18345     1   108.2900466 608.353600
  18337  18323  18345     1   107.9700462 569.024000
  18346  18347  18350     1   111.5100476 526.347200
  18346  18347  18359     1   110.1900474 564.840000
  18346  18360  18366     1   110.1900474 564.840000
  18346  18368  18352     1   112.4800480 524.673600
  18347  18346  18360     1   111.5100476 526.347200
  18347  18346  18368     1   107.9700462 569.024000
  18347  18350  18351     1   111.5100476 526.347200
  18347  18350  18358     1   110.1900474 564.840000
  18350  18347  18359     1   110.1900474 564.840000
  18350  18351  18352     1   111.5100476 526.347200
  18350  18351  18357     1   110.1900474 564.840000
  18351  18350  18358     1   110.1900474 564.840000
  18351  18352  18356     1   107.9700462 569.024000
  18351  18352  18368     1   107.9700462 569.024000
  18352  18351  18357     1   110.1900474 564.840000
  18356  18352  18368     1   108.2900466 608.353600
  18360  18346  18368     1   107.9700462 569.024000
  18369  18370  18373     1   111.5100476 526.347200
  18369  18370  18382     1   110.1900474 564.840000
  18369  18383  18389     1   110.1900474 564.840000
  18369  18391  18375     1   112.4800480 524.673600
  18370  18373  18374     1   111.5100476 526.347200
  18370  18373  18381     1   110.1900474 564.840000
  18370  18369  18383     1   111.5100476 526.347200
  18370  18369  18391     1   107.9700462 569.024000
  18373  18374  18375     1   111.5100476 526.347200
  18373  18374  18380     1   110.1900474 564.840000
  18373  18370  18382     1   110.1900474 564.840000
  18374  18375  18379     1   107.9700462 569.024000
  18374  18375  18391     1   107.9700462 569.024000
  18374  18373  18381     1   110.1900474 564.840000
  18375  18374  18380     1   110.1900474 564.840000
  18379  18375  18391     1   108.2900466 608.353600
  18383  18369  18391     1   107.9700462 569.024000
  18392  18393  18396     1   111.5100476 526.347200
  18392  18393  18405     1   110.1900474 564.840000
  18392  18406  18412     1   110.1900474 564.840000
  18392  18414  18398     1   112.4800480 524.673600
  18393  18392  18406     1   111.5100476 526.347200
  18393  18392  18414     1   107.9700462 569.024000
  18393  18396  18397     1   111.5100476 526.347200
  18393  18396  18404     1   110.1900474 564.840000
  18396  18393  18405     1   110.1900474 564.840000
  18396  18397  18398     1   111.5100476 526.347200
  18396  18397  18403     1   110.1900474 564.840000
  18397  18396  18404     1   110.1900474 564.840000
  18397  18398  18402     1   107.9700462 569.024000
  18397  18398  18414     1   107.9700462 569.024000
  18398  18397  18403     1   110.1900474 564.840000
  18402  18398  18414     1   108.2900466 608.353600
  18406  18392  18414     1   107.9700462 569.024000
  18415  18416  18419     1   111.5100476 526.347200
  18415  18416  18428     1   110.1900474 564.840000
  18415  18429  18435     1   110.1900474 564.840000
  18415  18437  18421     1   112.4800480 524.673600
  18416  18419  18420     1   111.5100476 526.347200
  18416  18419  18427     1   110.1900474 564.840000
  18416  18415  18429     1   111.5100476 526.347200
  18416  18415  18437     1   107.9700462 569.024000
  18419  18420  18421     1   111.5100476 526.347200
  18419  18420  18426     1   110.1900474 564.840000
  18419  18416  18428     1   110.1900474 564.840000
  18420  18421  18425     1   107.9700462 569.024000
  18420  18421  18437     1   107.9700462 569.024000
  18420  18419  18427     1   110.1900474 564.840000
  18421  18420  18426     1   110.1900474 564.840000
  18425  18421  18437     1   108.2900466 608.353600
  18429  18415  18437     1   107.9700462 569.024000
  18438  18439  18442     1   111.5100476 526.347200
  18438  18439  18451     1   110.1900474 564.840000
  18438  18452  18458     1   110.1900474 564.840000
  18438  18460  18444     1   112.4800480 524.673600
  18439  18438  18452     1   111.5100476 526.347200
  18439  18438  18460     1   107.9700462 569.024000
  18439  18442  18443     1   111.5100476 526.347200
  18439  18442  18450     1   110.1900474 564.840000
  18442  18439  18451     1   110.1900474 564.840000
  18442  18443  18444     1   111.5100476 526.347200
  18442  18443  18449     1   110.1900474 564.840000
  18443  18442  18450     1   110.1900474 564.840000
  18443  18444  18448     1   107.9700462 569.024000
  18443  18444  18460     1   107.9700462 569.024000
  18444  18443  18449     1   110.1900474 564.840000
  18448  18444  18460     1   108.2900466 608.353600
  18452  18438  18460     1   107.9700462 569.024000
  18461  18462  18465     1   111.5100476 526.347200
  18461  18462  18474     1   110.1900474 564.840000
  18461  18475  18481     1   110.1900474 564.840000
  18461  18483  18467     1   112.4800480 524.673600
  18462  18465  18466     1   111.5100476 526.347200
  18462  18465  18473     1   110.1900474 564.840000
  18462  18461  18475     1   111.5100476 526.347200
  18462  18461  18483     1   107.9700462 569.024000
  18465  18466  18467     1   111.5100476 526.347200
  18465  18466  18472     1   110.1900474 564.840000
  18465  18462  18474     1   110.1900474 564.840000
  18466  18467  18471     1   107.9700462 569.024000
  18466  18467  18483     1   107.9700462 569.024000
  18466  18465  18473     1   110.1900474 564.840000
  18467  18466  18472     1   110.1900474 564.840000
  18471  18467  18483     1   108.2900466 608.353600
  18475  18461  18483     1   107.9700462 569.024000
  18484  18485  18488     1   111.5100476 526.347200
  18484  18485  18497     1   110.1900474 564.840000
  18484  18498  18504     1   110.1900474 564.840000
  18484  18506  18490     1   112.4800480 524.673600
  18485  18484  18498     1   111.5100476 526.347200
  18485  18484  18506     1   107.9700462 569.024000
  18485  18488  18489     1   111.5100476 526.347200
  18485  18488  18496     1   110.1900474 564.840000
  18488  18485  18497     1   110.1900474 564.840000
  18488  18489  18490     1   111.5100476 526.347200
  18488  18489  18495     1   110.1900474 564.840000
  18489  18488  18496     1   110.1900474 564.840000
  18489  18490  18494     1   107.9700462 569.024000
  18489  18490  18506     1   107.9700462 569.024000
  18490  18489  18495     1   110.1900474 564.840000
  18494  18490  18506     1   108.2900466 608.353600
  18498  18484  18506     1   107.9700462 569.024000
  18507  18508  18511     1   111.5100476 526.347200
  18507  18508  18520     1   110.1900474 564.840000
  18507  18521  18527     1   110.1900474 564.840000
  18507  18529  18513     1   112.4800480 524.673600
  18508  18511  18512     1   111.5100476 526.347200
  18508  18511  18519     1   110.1900474 564.840000
  18508  18507  18521     1   111.5100476 526.347200
  18508  18507  18529     1   107.9700462 569.024000
  18511  18512  18513     1   111.5100476 526.347200
  18511  18512  18518     1   110.1900474 564.840000
  18511  18508  18520     1   110.1900474 564.840000
  18512  18513  18517     1   107.9700462 569.024000
  18512  18513  18529     1   107.9700462 569.024000
  18512  18511  18519     1   110.1900474 564.840000
  18513  18512  18518     1   110.1900474 564.840000
  18517  18513  18529     1   108.2900466 608.353600
  18521  18507  18529     1   107.9700462 569.024000
  18530  18531  18534     1   111.5100476 526.347200
  18530  18531  18543     1   110.1900474 564.840000
  18530  18544  18550     1   110.1900474 564.840000
  18530  18552  18536     1   112.4800480 524.673600
  18531  18530  18544     1   111.5100476 526.347200
  18531  18530  18552     1   107.9700462 569.024000
  18531  18534  18535     1   111.5100476 526.347200
  18531  18534  18542     1   110.1900474 564.840000
  18534  18531  18543     1   110.1900474 564.840000
  18534  18535  18536     1   111.5100476 526.347200
  18534  18535  18541     1   110.1900474 564.840000
  18535  18534  18542     1   110.1900474 564.840000
  18535  18536  18540     1   107.9700462 569.024000
  18535  18536  18552     1   107.9700462 569.024000
  18536  18535  18541     1   110.1900474 564.840000
  18540  18536  18552     1   108.2900466 608.353600
  18544  18530  18552     1   107.9700462 569.024000
  18553  18554  18557     1   111.5100476 526.347200
  18553  18554  18566     1   110.1900474 564.840000
  18553  18567  18573     1   110.1900474 564.840000
  18553  18575  18559     1   112.4800480 524.673600
  18554  18557  18558     1   111.5100476 526.347200
  18554  18557  18565     1   110.1900474 564.840000
  18554  18553  18567     1   111.5100476 526.347200
  18554  18553  18575     1   107.9700462 569.024000
  18557  18558  18559     1   111.5100476 526.347200
  18557  18558  18564     1   110.1900474 564.840000
  18557  18554  18566     1   110.1900474 564.840000
  18558  18559  18563     1   107.9700462 569.024000
  18558  18559  18575     1   107.9700462 569.024000
  18558  18557  18565     1   110.1900474 564.840000
  18559  18558  18564     1   110.1900474 564.840000
  18563  18559  18575     1   108.2900466 608.353600
  18567  18553  18575     1   107.9700462 569.024000
  18576  18577  18580     1   111.5100476 526.347200
  18576  18577  18589     1   110.1900474 564.840000
  18576  18590  18596     1   110.1900474 564.840000
  18576  18598  18582     1   112.4800480 524.673600
  18577  18576  18590     1   111.5100476 526.347200
  18577  18576  18598     1   107.9700462 569.024000
  18577  18580  18581     1   111.5100476 526.347200
  18577  18580  18588     1   110.1900474 564.840000
  18580  18577  18589     1   110.1900474 564.840000
  18580  18581  18582     1   111.5100476 526.347200
  18580  18581  18587     1   110.1900474 564.840000
  18581  18580  18588     1   110.1900474 564.840000
  18581  18582  18586     1   107.9700462 569.024000
  18581  18582  18598     1   107.9700462 569.024000
  18582  18581  18587     1   110.1900474 564.840000
  18586  18582  18598     1   108.2900466 608.353600
  18590  18576  18598     1   107.9700462 569.024000
  18599  18600  18603     1   111.5100476 526.347200
  18599  18600  18612     1   110.1900474 564.840000
  18599  18613  18619     1   110.1900474 564.840000
  18599  18621  18605     1   112.4800480 524.673600
  18600  18603  18604     1   111.5100476 526.347200
  18600  18603  18611     1   110.1900474 564.840000
  18600  18599  18613     1   111.5100476 526.347200
  18600  18599  18621     1   107.9700462 569.024000
  18603  18604  18605     1   111.5100476 526.347200
  18603  18604  18610     1   110.1900474 564.840000
  18603  18600  18612     1   110.1900474 564.840000
  18604  18605  18609     1   107.9700462 569.024000
  18604  18605  18621     1   107.9700462 569.024000
  18604  18603  18611     1   110.1900474 564.840000
  18605  18604  18610     1   110.1900474 564.840000
  18609  18605  18621     1   108.2900466 608.353600
  18613  18599  18621     1   107.9700462 569.024000
  18622  18623  18626     1   111.5100476 526.347200
  18622  18623  18635     1   110.1900474 564.840000
  18622  18636  18642     1   110.1900474 564.840000
  18622  18644  18628     1   112.4800480 524.673600
  18623  18622  18636     1   111.5100476 526.347200
  18623  18622  18644     1   107.9700462 569.024000
  18623  18626  18627     1   111.5100476 526.347200
  18623  18626  18634     1   110.1900474 564.840000
  18626  18623  18635     1   110.1900474 564.840000
  18626  18627  18628     1   111.5100476 526.347200
  18626  18627  18633     1   110.1900474 564.840000
  18627  18626  18634     1   110.1900474 564.840000
  18627  18628  18632     1   107.9700462 569.024000
  18627  18628  18644     1   107.9700462 569.024000
  18628  18627  18633     1   110.1900474 564.840000
  18632  18628  18644     1   108.2900466 608.353600
  18636  18622  18644     1   107.9700462 569.024000
  18645  18646  18649     1   111.5100476 526.347200
  18645  18646  18658     1   110.1900474 564.840000
  18645  18659  18665     1   110.1900474 564.840000
  18645  18667  18651     1   112.4800480 524.673600
  18646  18649  18650     1   111.5100476 526.347200
  18646  18649  18657     1   110.1900474 564.840000
  18646  18645  18659     1   111.5100476 526.347200
  18646  18645  18667     1   107.9700462 569.024000
  18649  18650  18651     1   111.5100476 526.347200
  18649  18650  18656     1   110.1900474 564.840000
  18649  18646  18658     1   110.1900474 564.840000
  18650  18651  18655     1   107.9700462 569.024000
  18650  18651  18667     1   107.9700462 569.024000
  18650  18649  18657     1   110.1900474 564.840000
  18651  18650  18656     1   110.1900474 564.840000
  18655  18651  18667     1   108.2900466 608.353600
  18659  18645  18667     1   107.9700462 569.024000
  18668  18669  18672     1   111.5100476 526.347200
  18668  18669  18681     1   110.1900474 564.840000
  18668  18682  18688     1   110.1900474 564.840000
  18668  18690  18674     1   112.4800480 524.673600
  18669  18668  18682     1   111.5100476 526.347200
  18669  18668  18690     1   107.9700462 569.024000
  18669  18672  18673     1   111.5100476 526.347200
  18669  18672  18680     1   110.1900474 564.840000
  18672  18669  18681     1   110.1900474 564.840000
  18672  18673  18674     1   111.5100476 526.347200
  18672  18673  18679     1   110.1900474 564.840000
  18673  18672  18680     1   110.1900474 564.840000
  18673  18674  18678     1   107.9700462 569.024000
  18673  18674  18690     1   107.9700462 569.024000
  18674  18673  18679     1   110.1900474 564.840000
  18678  18674  18690     1   108.2900466 608.353600
  18682  18668  18690     1   107.9700462 569.024000
  18691  18692  18695     1   111.5100476 526.347200
  18691  18692  18704     1   110.1900474 564.840000
  18691  18705  18711     1   110.1900474 564.840000
  18691  18713  18697     1   112.4800480 524.673600
  18692  18695  18696     1   111.5100476 526.347200
  18692  18695  18703     1   110.1900474 564.840000
  18692  18691  18705     1   111.5100476 526.347200
  18692  18691  18713     1   107.9700462 569.024000
  18695  18696  18697     1   111.5100476 526.347200
  18695  18696  18702     1   110.1900474 564.840000
  18695  18692  18704     1   110.1900474 564.840000
  18696  18697  18701     1   107.9700462 569.024000
  18696  18697  18713     1   107.9700462 569.024000
  18696  18695  18703     1   110.1900474 564.840000
  18697  18696  18702     1   110.1900474 564.840000
  18701  18697  18713     1   108.2900466 608.353600
  18705  18691  18713     1   107.9700462 569.024000
  18714  18715  18718     1   111.5100476 526.347200
  18714  18715  18727     1   110.1900474 564.840000
  18714  18728  18734     1   110.1900474 564.840000
  18714  18736  18720     1   112.4800480 524.673600
  18715  18714  18728     1   111.5100476 526.347200
  18715  18714  18736     1   107.9700462 569.024000
  18715  18718  18719     1   111.5100476 526.347200
  18715  18718  18726     1   110.1900474 564.840000
  18718  18715  18727     1   110.1900474 564.840000
  18718  18719  18720     1   111.5100476 526.347200
  18718  18719  18725     1   110.1900474 564.840000
  18719  18718  18726     1   110.1900474 564.840000
  18719  18720  18724     1   107.9700462 569.024000
  18719  18720  18736     1   107.9700462 569.024000
  18720  18719  18725     1   110.1900474 564.840000
  18724  18720  18736     1   108.2900466 608.353600
  18728  18714  18736     1   107.9700462 569.024000
  18737  18738  18741     1   111.5100476 526.347200
  18737  18738  18750     1   110.1900474 564.840000
  18737  18751  18757     1   110.1900474 564.840000
  18737  18759  18743     1   112.4800480 524.673600
  18738  18741  18742     1   111.5100476 526.347200
  18738  18741  18749     1   110.1900474 564.840000
  18738  18737  18751     1   111.5100476 526.347200
  18738  18737  18759     1   107.9700462 569.024000
  18741  18742  18743     1   111.5100476 526.347200
  18741  18742  18748     1   110.1900474 564.840000
  18741  18738  18750     1   110.1900474 564.840000
  18742  18743  18747     1   107.9700462 569.024000
  18742  18743  18759     1   107.9700462 569.024000
  18742  18741  18749     1   110.1900474 564.840000
  18743  18742  18748     1   110.1900474 564.840000
  18747  18743  18759     1   108.2900466 608.353600
  18751  18737  18759     1   107.9700462 569.024000
  18760  18761  18764     1   111.5100476 526.347200
  18760  18761  18773     1   110.1900474 564.840000
  18760  18774  18780     1   110.1900474 564.840000
  18760  18782  18766     1   112.4800480 524.673600
  18761  18760  18774     1   111.5100476 526.347200
  18761  18760  18782     1   107.9700462 569.024000
  18761  18764  18765     1   111.5100476 526.347200
  18761  18764  18772     1   110.1900474 564.840000
  18764  18761  18773     1   110.1900474 564.840000
  18764  18765  18766     1   111.5100476 526.347200
  18764  18765  18771     1   110.1900474 564.840000
  18765  18764  18772     1   110.1900474 564.840000
  18765  18766  18770     1   107.9700462 569.024000
  18765  18766  18782     1   107.9700462 569.024000
  18766  18765  18771     1   110.1900474 564.840000
  18770  18766  18782     1   108.2900466 608.353600
  18774  18760  18782     1   107.9700462 569.024000
  18783  18784  18787     1   111.5100476 526.347200
  18783  18784  18796     1   110.1900474 564.840000
  18783  18797  18803     1   110.1900474 564.840000
  18783  18805  18789     1   112.4800480 524.673600
  18784  18787  18788     1   111.5100476 526.347200
  18784  18787  18795     1   110.1900474 564.840000
  18784  18783  18797     1   111.5100476 526.347200
  18784  18783  18805     1   107.9700462 569.024000
  18787  18788  18789     1   111.5100476 526.347200
  18787  18788  18794     1   110.1900474 564.840000
  18787  18784  18796     1   110.1900474 564.840000
  18788  18789  18793     1   107.9700462 569.024000
  18788  18789  18805     1   107.9700462 569.024000
  18788  18787  18795     1   110.1900474 564.840000
  18789  18788  18794     1   110.1900474 564.840000
  18793  18789  18805     1   108.2900466 608.353600
  18797  18783  18805     1   107.9700462 569.024000
  18806  18807  18810     1   111.5100476 526.347200
  18806  18807  18819     1   110.1900474 564.840000
  18806  18820  18826     1   110.1900474 564.840000
  18806  18828  18812     1   112.4800480 524.673600
  18807  18806  18820     1   111.5100476 526.347200
  18807  18806  18828     1   107.9700462 569.024000
  18807  18810  18811     1   111.5100476 526.347200
  18807  18810  18818     1   110.1900474 564.840000
  18810  18807  18819     1   110.1900474 564.840000
  18810  18811  18812     1   111.5100476 526.347200
  18810  18811  18817     1   110.1900474 564.840000
  18811  18810  18818     1   110.1900474 564.840000
  18811  18812  18816     1   107.9700462 569.024000
  18811  18812  18828     1   107.9700462 569.024000
  18812  18811  18817     1   110.1900474 564.840000
  18816  18812  18828     1   108.2900466 608.353600
  18820  18806  18828     1   107.9700462 569.024000
  18829  18830  18833     1   111.5100476 526.347200
  18829  18830  18842     1   110.1900474 564.840000
  18829  18843  18849     1   110.1900474 564.840000
  18829  18851  18835     1   112.4800480 524.673600
  18830  18833  18834     1   111.5100476 526.347200
  18830  18833  18841     1   110.1900474 564.840000
  18830  18829  18843     1   111.5100476 526.347200
  18830  18829  18851     1   107.9700462 569.024000
  18833  18834  18835     1   111.5100476 526.347200
  18833  18834  18840     1   110.1900474 564.840000
  18833  18830  18842     1   110.1900474 564.840000
  18834  18835  18839     1   107.9700462 569.024000
  18834  18835  18851     1   107.9700462 569.024000
  18834  18833  18841     1   110.1900474 564.840000
  18835  18834  18840     1   110.1900474 564.840000
  18839  18835  18851     1   108.2900466 608.353600
  18843  18829  18851     1   107.9700462 569.024000
  18852  18853  18856     1   111.5100476 526.347200
  18852  18853  18865     1   110.1900474 564.840000
  18852  18866  18872     1   110.1900474 564.840000
  18852  18874  18858     1   112.4800480 524.673600
  18853  18852  18866     1   111.5100476 526.347200
  18853  18852  18874     1   107.9700462 569.024000
  18853  18856  18857     1   111.5100476 526.347200
  18853  18856  18864     1   110.1900474 564.840000
  18856  18853  18865     1   110.1900474 564.840000
  18856  18857  18858     1   111.5100476 526.347200
  18856  18857  18863     1   110.1900474 564.840000
  18857  18856  18864     1   110.1900474 564.840000
  18857  18858  18862     1   107.9700462 569.024000
  18857  18858  18874     1   107.9700462 569.024000
  18858  18857  18863     1   110.1900474 564.840000
  18862  18858  18874     1   108.2900466 608.353600
  18866  18852  18874     1   107.9700462 569.024000
  18875  18876  18879     1   111.5100476 526.347200
  18875  18876  18888     1   110.1900474 564.840000
  18875  18889  18895     1   110.1900474 564.840000
  18875  18897  18881     1   112.4800480 524.673600
  18876  18879  18880     1   111.5100476 526.347200
  18876  18879  18887     1   110.1900474 564.840000
  18876  18875  18889     1   111.5100476 526.347200
  18876  18875  18897     1   107.9700462 569.024000
  18879  18880  18881     1   111.5100476 526.347200
  18879  18880  18886     1   110.1900474 564.840000
  18879  18876  18888     1   110.1900474 564.840000
  18880  18881  18885     1   107.9700462 569.024000
  18880  18881  18897     1   107.9700462 569.024000
  18880  18879  18887     1   110.1900474 564.840000
  18881  18880  18886     1   110.1900474 564.840000
  18885  18881  18897     1   108.2900466 608.353600
  18889  18875  18897     1   107.9700462 569.024000
  18898  18899  18902     1   111.5100476 526.347200
  18898  18899  18911     1   110.1900474 564.840000
  18898  18912  18918     1   110.1900474 564.840000
  18898  18920  18904     1   112.4800480 524.673600
  18899  18898  18912     1   111.5100476 526.347200
  18899  18898  18920     1   107.9700462 569.024000
  18899  18902  18903     1   111.5100476 526.347200
  18899  18902  18910     1   110.1900474 564.840000
  18902  18899  18911     1   110.1900474 564.840000
  18902  18903  18904     1   111.5100476 526.347200
  18902  18903  18909     1   110.1900474 564.840000
  18903  18902  18910     1   110.1900474 564.840000
  18903  18904  18908     1   107.9700462 569.024000
  18903  18904  18920     1   107.9700462 569.024000
  18904  18903  18909     1   110.1900474 564.840000
  18908  18904  18920     1   108.2900466 608.353600
  18912  18898  18920     1   107.9700462 569.024000
  18921  18922  18925     1   111.5100476 526.347200
  18921  18922  18934     1   110.1900474 564.840000
  18921  18935  18941     1   110.1900474 564.840000
  18921  18943  18927     1   112.4800480 524.673600
  18922  18925  18926     1   111.5100476 526.347200
  18922  18925  18933     1   110.1900474 564.840000
  18922  18921  18935     1   111.5100476 526.347200
  18922  18921  18943     1   107.9700462 569.024000
  18925  18926  18927     1   111.5100476 526.347200
  18925  18926  18932     1   110.1900474 564.840000
  18925  18922  18934     1   110.1900474 564.840000
  18926  18927  18931     1   107.9700462 569.024000
  18926  18927  18943     1   107.9700462 569.024000
  18926  18925  18933     1   110.1900474 564.840000
  18927  18926  18932     1   110.1900474 564.840000
  18931  18927  18943     1   108.2900466 608.353600
  18935  18921  18943     1   107.9700462 569.024000
  18944  18945  18948     1   111.5100476 526.347200
  18944  18945  18957     1   110.1900474 564.840000
  18944  18958  18964     1   110.1900474 564.840000
  18944  18966  18950     1   112.4800480 524.673600
  18945  18944  18958     1   111.5100476 526.347200
  18945  18944  18966     1   107.9700462 569.024000
  18945  18948  18949     1   111.5100476 526.347200
  18945  18948  18956     1   110.1900474 564.840000
  18948  18945  18957     1   110.1900474 564.840000
  18948  18949  18950     1   111.5100476 526.347200
  18948  18949  18955     1   110.1900474 564.840000
  18949  18948  18956     1   110.1900474 564.840000
  18949  18950  18954     1   107.9700462 569.024000
  18949  18950  18966     1   107.9700462 569.024000
  18950  18949  18955     1   110.1900474 564.840000
  18954  18950  18966     1   108.2900466 608.353600
  18958  18944  18966     1   107.9700462 569.024000
  18967  18968  18971     1   111.5100476 526.347200
  18967  18968  18980     1   110.1900474 564.840000
  18967  18981  18987     1   110.1900474 564.840000
  18967  18989  18973     1   112.4800480 524.673600
  18968  18971  18972     1   111.5100476 526.347200
  18968  18971  18979     1   110.1900474 564.840000
  18968  18967  18981     1   111.5100476 526.347200
  18968  18967  18989     1   107.9700462 569.024000
  18971  18972  18973     1   111.5100476 526.347200
  18971  18972  18978     1   110.1900474 564.840000
  18971  18968  18980     1   110.1900474 564.840000
  18972  18973  18977     1   107.9700462 569.024000
  18972  18973  18989     1   107.9700462 569.024000
  18972  18971  18979     1   110.1900474 564.840000
  18973  18972  18978     1   110.1900474 564.840000
  18977  18973  18989     1   108.2900466 608.353600
  18981  18967  18989     1   107.9700462 569.024000
  18990  18991  18994     1   111.5100476 526.347200
  18990  18991  19003     1   110.1900474 564.840000
  18990  19004  19010     1   110.1900474 564.840000
  18990  19012  18996     1   112.4800480 524.673600
  18991  18990  19004     1   111.5100476 526.347200
  18991  18990  19012     1   107.9700462 569.024000
  18991  18994  18995     1   111.5100476 526.347200
  18991  18994  19002     1   110.1900474 564.840000
  18994  18991  19003     1   110.1900474 564.840000
  18994  18995  18996     1   111.5100476 526.347200
  18994  18995  19001     1   110.1900474 564.840000
  18995  18994  19002     1   110.1900474 564.840000
  18995  18996  19000     1   107.9700462 569.024000
  18995  18996  19012     1   107.9700462 569.024000
  18996  18995  19001     1   110.1900474 564.840000
  19000  18996  19012     1   108.2900466 608.353600
  19004  18990  19012     1   107.9700462 569.024000
  19013  19014  19017     1   111.5100476 526.347200
  19013  19014  19026     1   110.1900474 564.840000
  19013  19027  19033     1   110.1900474 564.840000
  19013  19035  19019     1   112.4800480 524.673600
  19014  19017  19018     1   111.5100476 526.347200
  19014  19017  19025     1   110.1900474 564.840000
  19014  19013  19027     1   111.5100476 526.347200
  19014  19013  19035     1   107.9700462 569.024000
  19017  19018  19019     1   111.5100476 526.347200
  19017  19018  19024     1   110.1900474 564.840000
  19017  19014  19026     1   110.1900474 564.840000
  19018  19019  19023     1   107.9700462 569.024000
  19018  19019  19035     1   107.9700462 569.024000
  19018  19017  19025     1   110.1900474 564.840000
  19019  19018  19024     1   110.1900474 564.840000
  19023  19019  19035     1   108.2900466 608.353600
  19027  19013  19035     1   107.9700462 569.024000
  19036  19037  19040     1   111.5100476 526.347200
  19036  19037  19049     1   110.1900474 564.840000
  19036  19050  19056     1   110.1900474 564.840000
  19036  19058  19042     1   112.4800480 524.673600
  19037  19036  19050     1   111.5100476 526.347200
  19037  19036  19058     1   107.9700462 569.024000
  19037  19040  19041     1   111.5100476 526.347200
  19037  19040  19048     1   110.1900474 564.840000
  19040  19037  19049     1   110.1900474 564.840000
  19040  19041  19042     1   111.5100476 526.347200
  19040  19041  19047     1   110.1900474 564.840000
  19041  19040  19048     1   110.1900474 564.840000
  19041  19042  19046     1   107.9700462 569.024000
  19041  19042  19058     1   107.9700462 569.024000
  19042  19041  19047     1   110.1900474 564.840000
  19046  19042  19058     1   108.2900466 608.353600
  19050  19036  19058     1   107.9700462 569.024000
  19059  19060  19063     1   111.5100476 526.347200
  19059  19060  19072     1   110.1900474 564.840000
  19059  19073  19079     1   110.1900474 564.840000
  19059  19081  19065     1   112.4800480 524.673600
  19060  19063  19064     1   111.5100476 526.347200
  19060  19063  19071     1   110.1900474 564.840000
  19060  19059  19073     1   111.5100476 526.347200
  19060  19059  19081     1   107.9700462 569.024000
  19063  19064  19065     1   111.5100476 526.347200
  19063  19064  19070     1   110.1900474 564.840000
  19063  19060  19072     1   110.1900474 564.840000
  19064  19065  19069     1   107.9700462 569.024000
  19064  19065  19081     1   107.9700462 569.024000
  19064  19063  19071     1   110.1900474 564.840000
  19065  19064  19070     1   110.1900474 564.840000
  19069  19065  19081     1   108.2900466 608.353600
  19073  19059  19081     1   107.9700462 569.024000
  19082  19083  19086     1   111.5100476 526.347200
  19082  19083  19095     1   110.1900474 564.840000
  19082  19096  19102     1   110.1900474 564.840000
  19082  19104  19088     1   112.4800480 524.673600
  19083  19082  19096     1   111.5100476 526.347200
  19083  19082  19104     1   107.9700462 569.024000
  19083  19086  19087     1   111.5100476 526.347200
  19083  19086  19094     1   110.1900474 564.840000
  19086  19083  19095     1   110.1900474 564.840000
  19086  19087  19088     1   111.5100476 526.347200
  19086  19087  19093     1   110.1900474 564.840000
  19087  19086  19094     1   110.1900474 564.840000
  19087  19088  19092     1   107.9700462 569.024000
  19087  19088  19104     1   107.9700462 569.024000
  19088  19087  19093     1   110.1900474 564.840000
  19092  19088  19104     1   108.2900466 608.353600
  19096  19082  19104     1   107.9700462 569.024000
  19105  19106  19109     1   111.5100476 526.347200
  19105  19106  19118     1   110.1900474 564.840000
  19105  19119  19125     1   110.1900474 564.840000
  19105  19127  19111     1   112.4800480 524.673600
  19106  19109  19110     1   111.5100476 526.347200
  19106  19109  19117     1   110.1900474 564.840000
  19106  19105  19119     1   111.5100476 526.347200
  19106  19105  19127     1   107.9700462 569.024000
  19109  19110  19111     1   111.5100476 526.347200
  19109  19110  19116     1   110.1900474 564.840000
  19109  19106  19118     1   110.1900474 564.840000
  19110  19111  19115     1   107.9700462 569.024000
  19110  19111  19127     1   107.9700462 569.024000
  19110  19109  19117     1   110.1900474 564.840000
  19111  19110  19116     1   110.1900474 564.840000
  19115  19111  19127     1   108.2900466 608.353600
  19119  19105  19127     1   107.9700462 569.024000
  19128  19129  19132     1   111.5100476 526.347200
  19128  19129  19141     1   110.1900474 564.840000
  19128  19142  19148     1   110.1900474 564.840000
  19128  19150  19134     1   112.4800480 524.673600
  19129  19128  19142     1   111.5100476 526.347200
  19129  19128  19150     1   107.9700462 569.024000
  19129  19132  19133     1   111.5100476 526.347200
  19129  19132  19140     1   110.1900474 564.840000
  19132  19129  19141     1   110.1900474 564.840000
  19132  19133  19134     1   111.5100476 526.347200
  19132  19133  19139     1   110.1900474 564.840000
  19133  19132  19140     1   110.1900474 564.840000
  19133  19134  19138     1   107.9700462 569.024000
  19133  19134  19150     1   107.9700462 569.024000
  19134  19133  19139     1   110.1900474 564.840000
  19138  19134  19150     1   108.2900466 608.353600
  19142  19128  19150     1   107.9700462 569.024000
  19151  19152  19155     1   111.5100476 526.347200
  19151  19152  19164     1   110.1900474 564.840000
  19151  19165  19171     1   110.1900474 564.840000
  19151  19173  19157     1   112.4800480 524.673600
  19152  19155  19156     1   111.5100476 526.347200
  19152  19155  19163     1   110.1900474 564.840000
  19152  19151  19165     1   111.5100476 526.347200
  19152  19151  19173     1   107.9700462 569.024000
  19155  19156  19157     1   111.5100476 526.347200
  19155  19156  19162     1   110.1900474 564.840000
  19155  19152  19164     1   110.1900474 564.840000
  19156  19157  19161     1   107.9700462 569.024000
  19156  19157  19173     1   107.9700462 569.024000
  19156  19155  19163     1   110.1900474 564.840000
  19157  19156  19162     1   110.1900474 564.840000
  19161  19157  19173     1   108.2900466 608.353600
  19165  19151  19173     1   107.9700462 569.024000
  19174  19175  19178     1   111.5100476 526.347200
  19174  19175  19187     1   110.1900474 564.840000
  19174  19188  19194     1   110.1900474 564.840000
  19174  19196  19180     1   112.4800480 524.673600
  19175  19174  19188     1   111.5100476 526.347200
  19175  19174  19196     1   107.9700462 569.024000
  19175  19178  19179     1   111.5100476 526.347200
  19175  19178  19186     1   110.1900474 564.840000
  19178  19175  19187     1   110.1900474 564.840000
  19178  19179  19180     1   111.5100476 526.347200
  19178  19179  19185     1   110.1900474 564.840000
  19179  19178  19186     1   110.1900474 564.840000
  19179  19180  19184     1   107.9700462 569.024000
  19179  19180  19196     1   107.9700462 569.024000
  19180  19179  19185     1   110.1900474 564.840000
  19184  19180  19196     1   108.2900466 608.353600
  19188  19174  19196     1   107.9700462 569.024000
  19197  19198  19201     1   111.5100476 526.347200
  19197  19198  19210     1   110.1900474 564.840000
  19197  19211  19217     1   110.1900474 564.840000
  19197  19219  19203     1   112.4800480 524.673600
  19198  19201  19202     1   111.5100476 526.347200
  19198  19201  19209     1   110.1900474 564.840000
  19198  19197  19211     1   111.5100476 526.347200
  19198  19197  19219     1   107.9700462 569.024000
  19201  19202  19203     1   111.5100476 526.347200
  19201  19202  19208     1   110.1900474 564.840000
  19201  19198  19210     1   110.1900474 564.840000
  19202  19203  19207     1   107.9700462 569.024000
  19202  19203  19219     1   107.9700462 569.024000
  19202  19201  19209     1   110.1900474 564.840000
  19203  19202  19208     1   110.1900474 564.840000
  19207  19203  19219     1   108.2900466 608.353600
  19211  19197  19219     1   107.9700462 569.024000
  19220  19221  19224     1   111.5100476 526.347200
  19220  19221  19233     1   110.1900474 564.840000
  19220  19234  19240     1   110.1900474 564.840000
  19220  19242  19226     1   112.4800480 524.673600
  19221  19220  19234     1   111.5100476 526.347200
  19221  19220  19242     1   107.9700462 569.024000
  19221  19224  19225     1   111.5100476 526.347200
  19221  19224  19232     1   110.1900474 564.840000
  19224  19221  19233     1   110.1900474 564.840000
  19224  19225  19226     1   111.5100476 526.347200
  19224  19225  19231     1   110.1900474 564.840000
  19225  19224  19232     1   110.1900474 564.840000
  19225  19226  19230     1   107.9700462 569.024000
  19225  19226  19242     1   107.9700462 569.024000
  19226  19225  19231     1   110.1900474 564.840000
  19230  19226  19242     1   108.2900466 608.353600
  19234  19220  19242     1   107.9700462 569.024000
  19243  19244  19247     1   111.5100476 526.347200
  19243  19244  19256     1   110.1900474 564.840000
  19243  19257  19263     1   110.1900474 564.840000
  19243  19265  19249     1   112.4800480 524.673600
  19244  19247  19248     1   111.5100476 526.347200
  19244  19247  19255     1   110.1900474 564.840000
  19244  19243  19257     1   111.5100476 526.347200
  19244  19243  19265     1   107.9700462 569.024000
  19247  19248  19249     1   111.5100476 526.347200
  19247  19248  19254     1   110.1900474 564.840000
  19247  19244  19256     1   110.1900474 564.840000
  19248  19249  19253     1   107.9700462 569.024000
  19248  19249  19265     1   107.9700462 569.024000
  19248  19247  19255     1   110.1900474 564.840000
  19249  19248  19254     1   110.1900474 564.840000
  19253  19249  19265     1   108.2900466 608.353600
  19257  19243  19265     1   107.9700462 569.024000
  19266  19267  19270     1   111.5100476 526.347200
  19266  19267  19279     1   110.1900474 564.840000
  19266  19280  19286     1   110.1900474 564.840000
  19266  19288  19272     1   112.4800480 524.673600
  19267  19266  19280     1   111.5100476 526.347200
  19267  19266  19288     1   107.9700462 569.024000
  19267  19270  19271     1   111.5100476 526.347200
  19267  19270  19278     1   110.1900474 564.840000
  19270  19267  19279     1   110.1900474 564.840000
  19270  19271  19272     1   111.5100476 526.347200
  19270  19271  19277     1   110.1900474 564.840000
  19271  19270  19278     1   110.1900474 564.840000
  19271  19272  19276     1   107.9700462 569.024000
  19271  19272  19288     1   107.9700462 569.024000
  19272  19271  19277     1   110.1900474 564.840000
  19276  19272  19288     1   108.2900466 608.353600
  19280  19266  19288     1   107.9700462 569.024000
  19289  19290  19293     1   111.5100476 526.347200
  19289  19290  19302     1   110.1900474 564.840000
  19289  19303  19309     1   110.1900474 564.840000
  19289  19311  19295     1   112.4800480 524.673600
  19290  19293  19294     1   111.5100476 526.347200
  19290  19293  19301     1   110.1900474 564.840000
  19290  19289  19303     1   111.5100476 526.347200
  19290  19289  19311     1   107.9700462 569.024000
  19293  19294  19295     1   111.5100476 526.347200
  19293  19294  19300     1   110.1900474 564.840000
  19293  19290  19302     1   110.1900474 564.840000
  19294  19295  19299     1   107.9700462 569.024000
  19294  19295  19311     1   107.9700462 569.024000
  19294  19293  19301     1   110.1900474 564.840000
  19295  19294  19300     1   110.1900474 564.840000
  19299  19295  19311     1   108.2900466 608.353600
  19303  19289  19311     1   107.9700462 569.024000
  19312  19313  19316     1   111.5100476 526.347200
  19312  19313  19325     1   110.1900474 564.840000
  19312  19326  19332     1   110.1900474 564.840000
  19312  19334  19318     1   112.4800480 524.673600
  19313  19312  19326     1   111.5100476 526.347200
  19313  19312  19334     1   107.9700462 569.024000
  19313  19316  19317     1   111.5100476 526.347200
  19313  19316  19324     1   110.1900474 564.840000
  19316  19313  19325     1   110.1900474 564.840000
  19316  19317  19318     1   111.5100476 526.347200
  19316  19317  19323     1   110.1900474 564.840000
  19317  19316  19324     1   110.1900474 564.840000
  19317  19318  19322     1   107.9700462 569.024000
  19317  19318  19334     1   107.9700462 569.024000
  19318  19317  19323     1   110.1900474 564.840000
  19322  19318  19334     1   108.2900466 608.353600
  19326  19312  19334     1   107.9700462 569.024000
  19335  19336  19339     1   111.5100476 526.347200
  19335  19336  19348     1   110.1900474 564.840000
  19335  19349  19355     1   110.1900474 564.840000
  19335  19357  19341     1   112.4800480 524.673600
  19336  19339  19340     1   111.5100476 526.347200
  19336  19339  19347     1   110.1900474 564.840000
  19336  19335  19349     1   111.5100476 526.347200
  19336  19335  19357     1   107.9700462 569.024000
  19339  19340  19341     1   111.5100476 526.347200
  19339  19340  19346     1   110.1900474 564.840000
  19339  19336  19348     1   110.1900474 564.840000
  19340  19341  19345     1   107.9700462 569.024000
  19340  19341  19357     1   107.9700462 569.024000
  19340  19339  19347     1   110.1900474 564.840000
  19341  19340  19346     1   110.1900474 564.840000
  19345  19341  19357     1   108.2900466 608.353600
  19349  19335  19357     1   107.9700462 569.024000
  19358  19359  19362     1   111.5100476 526.347200
  19358  19359  19371     1   110.1900474 564.840000
  19358  19372  19378     1   110.1900474 564.840000
  19358  19380  19364     1   112.4800480 524.673600
  19359  19358  19372     1   111.5100476 526.347200
  19359  19358  19380     1   107.9700462 569.024000
  19359  19362  19363     1   111.5100476 526.347200
  19359  19362  19370     1   110.1900474 564.840000
  19362  19359  19371     1   110.1900474 564.840000
  19362  19363  19364     1   111.5100476 526.347200
  19362  19363  19369     1   110.1900474 564.840000
  19363  19362  19370     1   110.1900474 564.840000
  19363  19364  19368     1   107.9700462 569.024000
  19363  19364  19380     1   107.9700462 569.024000
  19364  19363  19369     1   110.1900474 564.840000
  19368  19364  19380     1   108.2900466 608.353600
  19372  19358  19380     1   107.9700462 569.024000
  19381  19382  19385     1   111.5100476 526.347200
  19381  19382  19394     1   110.1900474 564.840000
  19381  19395  19401     1   110.1900474 564.840000
  19381  19403  19387     1   112.4800480 524.673600
  19382  19385  19386     1   111.5100476 526.347200
  19382  19385  19393     1   110.1900474 564.840000
  19382  19381  19395     1   111.5100476 526.347200
  19382  19381  19403     1   107.9700462 569.024000
  19385  19386  19387     1   111.5100476 526.347200
  19385  19386  19392     1   110.1900474 564.840000
  19385  19382  19394     1   110.1900474 564.840000
  19386  19387  19391     1   107.9700462 569.024000
  19386  19387  19403     1   107.9700462 569.024000
  19386  19385  19393     1   110.1900474 564.840000
  19387  19386  19392     1   110.1900474 564.840000
  19391  19387  19403     1   108.2900466 608.353600
  19395  19381  19403     1   107.9700462 569.024000
  19404  19405  19408     1   111.5100476 526.347200
  19404  19405  19417     1   110.1900474 564.840000
  19404  19418  19424     1   110.1900474 564.840000
  19404  19426  19410     1   112.4800480 524.673600
  19405  19404  19418     1   111.5100476 526.347200
  19405  19404  19426     1   107.9700462 569.024000
  19405  19408  19409     1   111.5100476 526.347200
  19405  19408  19416     1   110.1900474 564.840000
  19408  19405  19417     1   110.1900474 564.840000
  19408  19409  19410     1   111.5100476 526.347200
  19408  19409  19415     1   110.1900474 564.840000
  19409  19408  19416     1   110.1900474 564.840000
  19409  19410  19414     1   107.9700462 569.024000
  19409  19410  19426     1   107.9700462 569.024000
  19410  19409  19415     1   110.1900474 564.840000
  19414  19410  19426     1   108.2900466 608.353600
  19418  19404  19426     1   107.9700462 569.024000
  19427  19428  19431     1   111.5100476 526.347200
  19427  19428  19440     1   110.1900474 564.840000
  19427  19441  19447     1   110.1900474 564.840000
  19427  19449  19433     1   112.4800480 524.673600
  19428  19431  19432     1   111.5100476 526.347200
  19428  19431  19439     1   110.1900474 564.840000
  19428  19427  19441     1   111.5100476 526.347200
  19428  19427  19449     1   107.9700462 569.024000
  19431  19432  19433     1   111.5100476 526.347200
  19431  19432  19438     1   110.1900474 564.840000
  19431  19428  19440     1   110.1900474 564.840000
  19432  19433  19437     1   107.9700462 569.024000
  19432  19433  19449     1   107.9700462 569.024000
  19432  19431  19439     1   110.1900474 564.840000
  19433  19432  19438     1   110.1900474 564.840000
  19437  19433  19449     1   108.2900466 608.353600
  19441  19427  19449     1   107.9700462 569.024000
  19450  19451  19454     1   111.5100476 526.347200
  19450  19451  19463     1   110.1900474 564.840000
  19450  19464  19470     1   110.1900474 564.840000
  19450  19472  19456     1   112.4800480 524.673600
  19451  19450  19464     1   111.5100476 526.347200
  19451  19450  19472     1   107.9700462 569.024000
  19451  19454  19455     1   111.5100476 526.347200
  19451  19454  19462     1   110.1900474 564.840000
  19454  19451  19463     1   110.1900474 564.840000
  19454  19455  19456     1   111.5100476 526.347200
  19454  19455  19461     1   110.1900474 564.840000
  19455  19454  19462     1   110.1900474 564.840000
  19455  19456  19460     1   107.9700462 569.024000
  19455  19456  19472     1   107.9700462 569.024000
  19456  19455  19461     1   110.1900474 564.840000
  19460  19456  19472     1   108.2900466 608.353600
  19464  19450  19472     1   107.9700462 569.024000
  19473  19474  19477     1   111.5100476 526.347200
  19473  19474  19486     1   110.1900474 564.840000
  19473  19487  19493     1   110.1900474 564.840000
  19473  19495  19479     1   112.4800480 524.673600
  19474  19477  19478     1   111.5100476 526.347200
  19474  19477  19485     1   110.1900474 564.840000
  19474  19473  19487     1   111.5100476 526.347200
  19474  19473  19495     1   107.9700462 569.024000
  19477  19478  19479     1   111.5100476 526.347200
  19477  19478  19484     1   110.1900474 564.840000
  19477  19474  19486     1   110.1900474 564.840000
  19478  19479  19483     1   107.9700462 569.024000
  19478  19479  19495     1   107.9700462 569.024000
  19478  19477  19485     1   110.1900474 564.840000
  19479  19478  19484     1   110.1900474 564.840000
  19483  19479  19495     1   108.2900466 608.353600
  19487  19473  19495     1   107.9700462 569.024000
  19496  19497  19500     1   111.5100476 526.347200
  19496  19497  19509     1   110.1900474 564.840000
  19496  19510  19516     1   110.1900474 564.840000
  19496  19518  19502     1   112.4800480 524.673600
  19497  19496  19510     1   111.5100476 526.347200
  19497  19496  19518     1   107.9700462 569.024000
  19497  19500  19501     1   111.5100476 526.347200
  19497  19500  19508     1   110.1900474 564.840000
  19500  19497  19509     1   110.1900474 564.840000
  19500  19501  19502     1   111.5100476 526.347200
  19500  19501  19507     1   110.1900474 564.840000
  19501  19500  19508     1   110.1900474 564.840000
  19501  19502  19506     1   107.9700462 569.024000
  19501  19502  19518     1   107.9700462 569.024000
  19502  19501  19507     1   110.1900474 564.840000
  19506  19502  19518     1   108.2900466 608.353600
  19510  19496  19518     1   107.9700462 569.024000
  19519  19520  19523     1   111.5100476 526.347200
  19519  19520  19532     1   110.1900474 564.840000
  19519  19533  19539     1   110.1900474 564.840000
  19519  19541  19525     1   112.4800480 524.673600
  19520  19523  19524     1   111.5100476 526.347200
  19520  19523  19531     1   110.1900474 564.840000
  19520  19519  19533     1   111.5100476 526.347200
  19520  19519  19541     1   107.9700462 569.024000
  19523  19524  19525     1   111.5100476 526.347200
  19523  19524  19530     1   110.1900474 564.840000
  19523  19520  19532     1   110.1900474 564.840000
  19524  19525  19529     1   107.9700462 569.024000
  19524  19525  19541     1   107.9700462 569.024000
  19524  19523  19531     1   110.1900474 564.840000
  19525  19524  19530     1   110.1900474 564.840000
  19529  19525  19541     1   108.2900466 608.353600
  19533  19519  19541     1   107.9700462 569.024000
  19542  19543  19546     1   111.5100476 526.347200
  19542  19543  19555     1   110.1900474 564.840000
  19542  19556  19562     1   110.1900474 564.840000
  19542  19564  19548     1   112.4800480 524.673600
  19543  19542  19556     1   111.5100476 526.347200
  19543  19542  19564     1   107.9700462 569.024000
  19543  19546  19547     1   111.5100476 526.347200
  19543  19546  19554     1   110.1900474 564.840000
  19546  19543  19555     1   110.1900474 564.840000
  19546  19547  19548     1   111.5100476 526.347200
  19546  19547  19553     1   110.1900474 564.840000
  19547  19546  19554     1   110.1900474 564.840000
  19547  19548  19552     1   107.9700462 569.024000
  19547  19548  19564     1   107.9700462 569.024000
  19548  19547  19553     1   110.1900474 564.840000
  19552  19548  19564     1   108.2900466 608.353600
  19556  19542  19564     1   107.9700462 569.024000
  19565  19566  19569     1   111.5100476 526.347200
  19565  19566  19578     1   110.1900474 564.840000
  19565  19579  19585     1   110.1900474 564.840000
  19565  19587  19571     1   112.4800480 524.673600
  19566  19569  19570     1   111.5100476 526.347200
  19566  19569  19577     1   110.1900474 564.840000
  19566  19565  19579     1   111.5100476 526.347200
  19566  19565  19587     1   107.9700462 569.024000
  19569  19570  19571     1   111.5100476 526.347200
  19569  19570  19576     1   110.1900474 564.840000
  19569  19566  19578     1   110.1900474 564.840000
  19570  19571  19575     1   107.9700462 569.024000
  19570  19571  19587     1   107.9700462 569.024000
  19570  19569  19577     1   110.1900474 564.840000
  19571  19570  19576     1   110.1900474 564.840000
  19575  19571  19587     1   108.2900466 608.353600
  19579  19565  19587     1   107.9700462 569.024000
  19588  19589  19592     1   111.5100476 526.347200
  19588  19589  19601     1   110.1900474 564.840000
  19588  19602  19608     1   110.1900474 564.840000
  19588  19610  19594     1   112.4800480 524.673600
  19589  19588  19602     1   111.5100476 526.347200
  19589  19588  19610     1   107.9700462 569.024000
  19589  19592  19593     1   111.5100476 526.347200
  19589  19592  19600     1   110.1900474 564.840000
  19592  19589  19601     1   110.1900474 564.840000
  19592  19593  19594     1   111.5100476 526.347200
  19592  19593  19599     1   110.1900474 564.840000
  19593  19592  19600     1   110.1900474 564.840000
  19593  19594  19598     1   107.9700462 569.024000
  19593  19594  19610     1   107.9700462 569.024000
  19594  19593  19599     1   110.1900474 564.840000
  19598  19594  19610     1   108.2900466 608.353600
  19602  19588  19610     1   107.9700462 569.024000
  19611  19612  19615     1   111.5100476 526.347200
  19611  19612  19624     1   110.1900474 564.840000
  19611  19625  19631     1   110.1900474 564.840000
  19611  19633  19617     1   112.4800480 524.673600
  19612  19615  19616     1   111.5100476 526.347200
  19612  19615  19623     1   110.1900474 564.840000
  19612  19611  19625     1   111.5100476 526.347200
  19612  19611  19633     1   107.9700462 569.024000
  19615  19616  19617     1   111.5100476 526.347200
  19615  19616  19622     1   110.1900474 564.840000
  19615  19612  19624     1   110.1900474 564.840000
  19616  19617  19621     1   107.9700462 569.024000
  19616  19617  19633     1   107.9700462 569.024000
  19616  19615  19623     1   110.1900474 564.840000
  19617  19616  19622     1   110.1900474 564.840000
  19621  19617  19633     1   108.2900466 608.353600
  19625  19611  19633     1   107.9700462 569.024000
  19634  19635  19638     1   111.5100476 526.347200
  19634  19635  19647     1   110.1900474 564.840000
  19634  19648  19654     1   110.1900474 564.840000
  19634  19656  19640     1   112.4800480 524.673600
  19635  19634  19648     1   111.5100476 526.347200
  19635  19634  19656     1   107.9700462 569.024000
  19635  19638  19639     1   111.5100476 526.347200
  19635  19638  19646     1   110.1900474 564.840000
  19638  19635  19647     1   110.1900474 564.840000
  19638  19639  19640     1   111.5100476 526.347200
  19638  19639  19645     1   110.1900474 564.840000
  19639  19638  19646     1   110.1900474 564.840000
  19639  19640  19644     1   107.9700462 569.024000
  19639  19640  19656     1   107.9700462 569.024000
  19640  19639  19645     1   110.1900474 564.840000
  19644  19640  19656     1   108.2900466 608.353600
  19648  19634  19656     1   107.9700462 569.024000
  19657  19658  19661     1   111.5100476 526.347200
  19657  19658  19670     1   110.1900474 564.840000
  19657  19671  19677     1   110.1900474 564.840000
  19657  19679  19663     1   112.4800480 524.673600
  19658  19661  19662     1   111.5100476 526.347200
  19658  19661  19669     1   110.1900474 564.840000
  19658  19657  19671     1   111.5100476 526.347200
  19658  19657  19679     1   107.9700462 569.024000
  19661  19662  19663     1   111.5100476 526.347200
  19661  19662  19668     1   110.1900474 564.840000
  19661  19658  19670     1   110.1900474 564.840000
  19662  19663  19667     1   107.9700462 569.024000
  19662  19663  19679     1   107.9700462 569.024000
  19662  19661  19669     1   110.1900474 564.840000
  19663  19662  19668     1   110.1900474 564.840000
  19667  19663  19679     1   108.2900466 608.353600
  19671  19657  19679     1   107.9700462 569.024000
  19680  19681  19684     1   111.5100476 526.347200
  19680  19681  19693     1   110.1900474 564.840000
  19680  19694  19700     1   110.1900474 564.840000
  19680  19702  19686     1   112.4800480 524.673600
  19681  19680  19694     1   111.5100476 526.347200
  19681  19680  19702     1   107.9700462 569.024000
  19681  19684  19685     1   111.5100476 526.347200
  19681  19684  19692     1   110.1900474 564.840000
  19684  19681  19693     1   110.1900474 564.840000
  19684  19685  19686     1   111.5100476 526.347200
  19684  19685  19691     1   110.1900474 564.840000
  19685  19684  19692     1   110.1900474 564.840000
  19685  19686  19690     1   107.9700462 569.024000
  19685  19686  19702     1   107.9700462 569.024000
  19686  19685  19691     1   110.1900474 564.840000
  19690  19686  19702     1   108.2900466 608.353600
  19694  19680  19702     1   107.9700462 569.024000
  19703  19704  19707     1   111.5100476 526.347200
  19703  19704  19716     1   110.1900474 564.840000
  19703  19717  19723     1   110.1900474 564.840000
  19703  19725  19709     1   112.4800480 524.673600
  19704  19707  19708     1   111.5100476 526.347200
  19704  19707  19715     1   110.1900474 564.840000
  19704  19703  19717     1   111.5100476 526.347200
  19704  19703  19725     1   107.9700462 569.024000
  19707  19708  19709     1   111.5100476 526.347200
  19707  19708  19714     1   110.1900474 564.840000
  19707  19704  19716     1   110.1900474 564.840000
  19708  19709  19713     1   107.9700462 569.024000
  19708  19709  19725     1   107.9700462 569.024000
  19708  19707  19715     1   110.1900474 564.840000
  19709  19708  19714     1   110.1900474 564.840000
  19713  19709  19725     1   108.2900466 608.353600
  19717  19703  19725     1   107.9700462 569.024000
  19726  19727  19730     1   111.5100476 526.347200
  19726  19727  19739     1   110.1900474 564.840000
  19726  19740  19746     1   110.1900474 564.840000
  19726  19748  19732     1   112.4800480 524.673600
  19727  19726  19740     1   111.5100476 526.347200
  19727  19726  19748     1   107.9700462 569.024000
  19727  19730  19731     1   111.5100476 526.347200
  19727  19730  19738     1   110.1900474 564.840000
  19730  19727  19739     1   110.1900474 564.840000
  19730  19731  19732     1   111.5100476 526.347200
  19730  19731  19737     1   110.1900474 564.840000
  19731  19730  19738     1   110.1900474 564.840000
  19731  19732  19736     1   107.9700462 569.024000
  19731  19732  19748     1   107.9700462 569.024000
  19732  19731  19737     1   110.1900474 564.840000
  19736  19732  19748     1   108.2900466 608.353600
  19740  19726  19748     1   107.9700462 569.024000
  19749  19750  19753     1   111.5100476 526.347200
  19749  19750  19762     1   110.1900474 564.840000
  19749  19763  19769     1   110.1900474 564.840000
  19749  19771  19755     1   112.4800480 524.673600
  19750  19753  19754     1   111.5100476 526.347200
  19750  19753  19761     1   110.1900474 564.840000
  19750  19749  19763     1   111.5100476 526.347200
  19750  19749  19771     1   107.9700462 569.024000
  19753  19754  19755     1   111.5100476 526.347200
  19753  19754  19760     1   110.1900474 564.840000
  19753  19750  19762     1   110.1900474 564.840000
  19754  19755  19759     1   107.9700462 569.024000
  19754  19755  19771     1   107.9700462 569.024000
  19754  19753  19761     1   110.1900474 564.840000
  19755  19754  19760     1   110.1900474 564.840000
  19759  19755  19771     1   108.2900466 608.353600
  19763  19749  19771     1   107.9700462 569.024000
  19772  19773  19776     1   111.5100476 526.347200
  19772  19773  19785     1   110.1900474 564.840000
  19772  19786  19792     1   110.1900474 564.840000
  19772  19794  19778     1   112.4800480 524.673600
  19773  19772  19786     1   111.5100476 526.347200
  19773  19772  19794     1   107.9700462 569.024000
  19773  19776  19777     1   111.5100476 526.347200
  19773  19776  19784     1   110.1900474 564.840000
  19776  19773  19785     1   110.1900474 564.840000
  19776  19777  19778     1   111.5100476 526.347200
  19776  19777  19783     1   110.1900474 564.840000
  19777  19776  19784     1   110.1900474 564.840000
  19777  19778  19782     1   107.9700462 569.024000
  19777  19778  19794     1   107.9700462 569.024000
  19778  19777  19783     1   110.1900474 564.840000
  19782  19778  19794     1   108.2900466 608.353600
  19786  19772  19794     1   107.9700462 569.024000
  19795  19796  19799     1   111.5100476 526.347200
  19795  19796  19808     1   110.1900474 564.840000
  19795  19809  19815     1   110.1900474 564.840000
  19795  19817  19801     1   112.4800480 524.673600
  19796  19799  19800     1   111.5100476 526.347200
  19796  19799  19807     1   110.1900474 564.840000
  19796  19795  19809     1   111.5100476 526.347200
  19796  19795  19817     1   107.9700462 569.024000
  19799  19800  19801     1   111.5100476 526.347200
  19799  19800  19806     1   110.1900474 564.840000
  19799  19796  19808     1   110.1900474 564.840000
  19800  19801  19805     1   107.9700462 569.024000
  19800  19801  19817     1   107.9700462 569.024000
  19800  19799  19807     1   110.1900474 564.840000
  19801  19800  19806     1   110.1900474 564.840000
  19805  19801  19817     1   108.2900466 608.353600
  19809  19795  19817     1   107.9700462 569.024000
  19818  19819  19822     1   111.5100476 526.347200
  19818  19819  19831     1   110.1900474 564.840000
  19818  19832  19838     1   110.1900474 564.840000
  19818  19840  19824     1   112.4800480 524.673600
  19819  19818  19832     1   111.5100476 526.347200
  19819  19818  19840     1   107.9700462 569.024000
  19819  19822  19823     1   111.5100476 526.347200
  19819  19822  19830     1   110.1900474 564.840000
  19822  19819  19831     1   110.1900474 564.840000
  19822  19823  19824     1   111.5100476 526.347200
  19822  19823  19829     1   110.1900474 564.840000
  19823  19822  19830     1   110.1900474 564.840000
  19823  19824  19828     1   107.9700462 569.024000
  19823  19824  19840     1   107.9700462 569.024000
  19824  19823  19829     1   110.1900474 564.840000
  19828  19824  19840     1   108.2900466 608.353600
  19832  19818  19840     1   107.9700462 569.024000
  19841  19842  19845     1   111.5100476 526.347200
  19841  19842  19854     1   110.1900474 564.840000
  19841  19855  19861     1   110.1900474 564.840000
  19841  19863  19847     1   112.4800480 524.673600
  19842  19845  19846     1   111.5100476 526.347200
  19842  19845  19853     1   110.1900474 564.840000
  19842  19841  19855     1   111.5100476 526.347200
  19842  19841  19863     1   107.9700462 569.024000
  19845  19846  19847     1   111.5100476 526.347200
  19845  19846  19852     1   110.1900474 564.840000
  19845  19842  19854     1   110.1900474 564.840000
  19846  19847  19851     1   107.9700462 569.024000
  19846  19847  19863     1   107.9700462 569.024000
  19846  19845  19853     1   110.1900474 564.840000
  19847  19846  19852     1   110.1900474 564.840000
  19851  19847  19863     1   108.2900466 608.353600
  19855  19841  19863     1   107.9700462 569.024000
  19864  19865  19868     1   111.5100476 526.347200
  19864  19865  19877     1   110.1900474 564.840000
  19864  19878  19884     1   110.1900474 564.840000
  19864  19886  19870     1   112.4800480 524.673600
  19865  19864  19878     1   111.5100476 526.347200
  19865  19864  19886     1   107.9700462 569.024000
  19865  19868  19869     1   111.5100476 526.347200
  19865  19868  19876     1   110.1900474 564.840000
  19868  19865  19877     1   110.1900474 564.840000
  19868  19869  19870     1   111.5100476 526.347200
  19868  19869  19875     1   110.1900474 564.840000
  19869  19868  19876     1   110.1900474 564.840000
  19869  19870  19874     1   107.9700462 569.024000
  19869  19870  19886     1   107.9700462 569.024000
  19870  19869  19875     1   110.1900474 564.840000
  19874  19870  19886     1   108.2900466 608.353600
  19878  19864  19886     1   107.9700462 569.024000
  19887  19888  19891     1   111.5100476 526.347200
  19887  19888  19900     1   110.1900474 564.840000
  19887  19901  19907     1   110.1900474 564.840000
  19887  19909  19893     1   112.4800480 524.673600
  19888  19891  19892     1   111.5100476 526.347200
  19888  19891  19899     1   110.1900474 564.840000
  19888  19887  19901     1   111.5100476 526.347200
  19888  19887  19909     1   107.9700462 569.024000
  19891  19892  19893     1   111.5100476 526.347200
  19891  19892  19898     1   110.1900474 564.840000
  19891  19888  19900     1   110.1900474 564.840000
  19892  19893  19897     1   107.9700462 569.024000
  19892  19893  19909     1   107.9700462 569.024000
  19892  19891  19899     1   110.1900474 564.840000
  19893  19892  19898     1   110.1900474 564.840000
  19897  19893  19909     1   108.2900466 608.353600
  19901  19887  19909     1   107.9700462 569.024000
      1      2      3     1   109.8800469 414.216000
      1      2      4     1   109.8800469 414.216000
      1      5      6     1   109.8800469 414.216000
      1      5      7     1   109.8800469 414.216000
      1      8      9     1   109.8800469 414.216000
      1      8     10     1   109.8800469 414.216000
      2     14     15     1   109.8000471 387.438400
      2     14     16     1   109.8000471 387.438400
      3      2     14     1   109.5600471 388.275200
      3      2      4     1   108.4600466 328.025600
      4      2     14     1   109.5600471 388.275200
      5     17     18     1   109.8000471 387.438400
      5     17     19     1   109.8000471 387.438400
      6      5     17     1   109.5600471 388.275200
      6      5      7     1   108.4600466 328.025600
      7      5     17     1   109.5600471 388.275200
      8     11     12     1   109.8000471 387.438400
      8     11     13     1   109.8000471 387.438400
      9      8     11     1   109.5600471 388.275200
      9      8     10     1   108.4600466 328.025600
     10      8     11     1   109.5600471 388.275200
     11     23     24     1   109.5600471 388.275200
     11     23     25     1   109.5600471 388.275200
     12     11     23     1   109.8000471 387.438400
     12     11     13     1   107.5800459 329.699200
     13     11     23     1   109.8000471 387.438400
     14     26     27     1   109.5600471 388.275200
     14     26     28     1   109.5600471 388.275200
     15     14     26     1   109.8000471 387.438400
     15     14     16     1   107.5800459 329.699200
     16     14     26     1   109.8000471 387.438400
     17     20     21     1   109.5600471 388.275200
     17     20     22     1   109.5600471 388.275200
     18     17     20     1   109.8000471 387.438400
     18     17     19     1   107.5800459 329.699200
     19     17     20     1   109.8000471 387.438400
     21     20     57     1   109.7800468 425.094400
     21     20     22     1   108.4600466 328.025600
     22     20     57     1   109.7800468 425.094400
     24     23     86     1   109.7800468 425.094400
     24     23     25     1   108.4600466 328.025600
     25     23     86     1   109.7800468 425.094400
     27     26    115     1   109.7800468 425.094400
     27     26     28     1   108.4600466 328.025600
     28     26    115     1   109.7800468 425.094400
     29     30     31     1   109.8800469 414.216000
     29     30     32     1   109.8800469 414.216000
     29     33     34     1   109.8800469 414.216000
     29     33     35     1   109.8800469 414.216000
     29     36     37     1   109.8800469 414.216000
     29     36     38     1   109.8800469 414.216000
     30     42     43     1   109.8000471 387.438400
     30     42     44     1   109.8000471 387.438400
     31     30     42     1   109.5600471 388.275200
     31     30     32     1   108.4600466 328.025600
     32     30     42     1   109.5600471 388.275200
     33     45     46     1   109.8000471 387.438400
     33     45     47     1   109.8000471 387.438400
     34     33     45     1   109.5600471 388.275200
     34     33     35     1   108.4600466 328.025600
     35     33     45     1   109.5600471 388.275200
     36     39     40     1   109.8000471 387.438400
     36     39     41     1   109.8000471 387.438400
     37     36     39     1   109.5600471 388.275200
     37     36     38     1   108.4600466 328.025600
     38     36     39     1   109.5600471 388.275200
     39     48     49     1   109.5600471 388.275200
     39     48     50     1   109.5600471 388.275200
     40     39     48     1   109.8000471 387.438400
     40     39     41     1   107.5800459 329.699200
     41     39     48     1   109.8000471 387.438400
     42     54     55     1   109.5600471 388.275200
     42     54     56     1   109.5600471 388.275200
     43     42     54     1   109.8000471 387.438400
     43     42     44     1   107.5800459 329.699200
     44     42     54     1   109.8000471 387.438400
     45     51     52     1   109.5600471 388.275200
     45     51     53     1   109.5600471 388.275200
     46     45     51     1   109.8000471 387.438400
     46     45     47     1   107.5800459 329.699200
     47     45     51     1   109.8000471 387.438400
     49     48     57     1   109.7800468 425.094400
     49     48     50     1   108.4600466 328.025600
     50     48     57     1   109.7800468 425.094400
     52     51    144     1   109.7800468 425.094400
     52     51     53     1   108.4600466 328.025600
     53     51    144     1   109.7800468 425.094400
     55     54    173     1   109.7800468 425.094400
     55     54     56     1   108.4600466 328.025600
     56     54    173     1   109.7800468 425.094400
     58     59     60     1   109.8800469 414.216000
     58     59     61     1   109.8800469 414.216000
     58     62     63     1   109.8800469 414.216000
     58     62     64     1   109.8800469 414.216000
     58     65     66     1   109.8800469 414.216000
     58     65     67     1   109.8800469 414.216000
     59     71     72     1   109.8000471 387.438400
     59     71     73     1   109.8000471 387.438400
     60     59     71     1   109.5600471 388.275200
     60     59     61     1   108.4600466 328.025600
     61     59     71     1   109.5600471 388.275200
     62     74     75     1   109.8000471 387.438400
     62     74     76     1   109.8000471 387.438400
     63     62     74     1   109.5600471 388.275200
     63     62     64     1   108.4600466 328.025600
     64     62     74     1   109.5600471 388.275200
     65     68     69     1   109.8000471 387.438400
     65     68     70     1   109.8000471 387.438400
     66     65     68     1   109.5600471 388.275200
     66     65     67     1   108.4600466 328.025600
     67     65     68     1   109.5600471 388.275200
     68     77     78     1   109.5600471 388.275200
     68     77     79     1   109.5600471 388.275200
     69     68     77     1   109.8000471 387.438400
     69     68     70     1   107.5800459 329.699200
     70     68     77     1   109.8000471 387.438400
     71     83     84     1   109.5600471 388.275200
     71     83     85     1   109.5600471 388.275200
     72     71     83     1   109.8000471 387.438400
     72     71     73     1   107.5800459 329.699200
     73     71     83     1   109.8000471 387.438400
     74     80     81     1   109.5600471 388.275200
     74     80     82     1   109.5600471 388.275200
     75     74     80     1   109.8000471 387.438400
     75     74     76     1   107.5800459 329.699200
     76     74     80     1   109.8000471 387.438400
     78     77     86     1   109.7800468 425.094400
     78     77     79     1   108.4600466 328.025600
     79     77     86     1   109.7800468 425.094400
     81     80    202     1   109.7800468 425.094400
     81     80     82     1   108.4600466 328.025600
     82     80    202     1   109.7800468 425.094400
     84     83    231     1   109.7800468 425.094400
     84     83     85     1   108.4600466 328.025600
     85     83    231     1   109.7800468 425.094400
     87     88     89     1   109.8800469 414.216000
     87     88     90     1   109.8800469 414.216000
     87     91     92     1   109.8800469 414.216000
     87     91     93     1   109.8800469 414.216000
     87     94     95     1   109.8800469 414.216000
     87     94     96     1   109.8800469 414.216000
     88    100    101     1   109.8000471 387.438400
     88    100    102     1   109.8000471 387.438400
     89     88    100     1   109.5600471 388.275200
     89     88     90     1   108.4600466 328.025600
     90     88    100     1   109.5600471 388.275200
     91    103    104     1   109.8000471 387.438400
     91    103    105     1   109.8000471 387.438400
     92     91    103     1   109.5600471 388.275200
     92     91     93     1   108.4600466 328.025600
     93     91    103     1   109.5600471 388.275200
     94     97     98     1   109.8000471 387.438400
     94     97     99     1   109.8000471 387.438400
     95     94     97     1   109.5600471 388.275200
     95     94     96     1   108.4600466 328.025600
     96     94     97     1   109.5600471 388.275200
     97    106    107     1   109.5600471 388.275200
     97    106    108     1   109.5600471 388.275200
     98     97    106     1   109.8000471 387.438400
     98     97     99     1   107.5800459 329.699200
     99     97    106     1   109.8000471 387.438400
    100    112    113     1   109.5600471 388.275200
    100    112    114     1   109.5600471 388.275200
    101    100    112     1   109.8000471 387.438400
    101    100    102     1   107.5800459 329.699200
    102    100    112     1   109.8000471 387.438400
    103    109    110     1   109.5600471 388.275200
    103    109    111     1   109.5600471 388.275200
    104    103    109     1   109.8000471 387.438400
    104    103    105     1   107.5800459 329.699200
    105    103    109     1   109.8000471 387.438400
    107    106    115     1   109.7800468 425.094400
    107    106    108     1   108.4600466 328.025600
    108    106    115     1   109.7800468 425.094400
    110    109    260     1   109.7800468 425.094400
    110    109    111     1   108.4600466 328.025600
    111    109    260     1   109.7800468 425.094400
    113    112    289     1   109.7800468 425.094400
    113    112    114     1   108.4600466 328.025600
    114    112    289     1   109.7800468 425.094400
    116    117    118     1   109.8800469 414.216000
    116    117    119     1   109.8800469 414.216000
    116    120    121     1   109.8800469 414.216000
    116    120    122     1   109.8800469 414.216000
    116    123    124     1   109.8800469 414.216000
    116    123    125     1   109.8800469 414.216000
    117    129    130     1   109.8000471 387.438400
    117    129    131     1   109.8000471 387.438400
    118    117    129     1   109.5600471 388.275200
    118    117    119     1   108.4600466 328.025600
    119    117    129     1   109.5600471 388.275200
    120    132    133     1   109.8000471 387.438400
    120    132    134     1   109.8000471 387.438400
    121    120    132     1   109.5600471 388.275200
    121    120    122     1   108.4600466 328.025600
    122    120    132     1   109.5600471 388.275200
    123    126    127     1   109.8000471 387.438400
    123    126    128     1   109.8000471 387.438400
    124    123    126     1   109.5600471 388.275200
    124    123    125     1   108.4600466 328.025600
    125    123    126     1   109.5600471 388.275200
    126    135    136     1   109.5600471 388.275200
    126    135    137     1   109.5600471 388.275200
    127    126    135     1   109.8000471 387.438400
    127    126    128     1   107.5800459 329.699200
    128    126    135     1   109.8000471 387.438400
    129    141    142     1   109.5600471 388.275200
    129    141    143     1   109.5600471 388.275200
    130    129    141     1   109.8000471 387.438400
    130    129    131     1   107.5800459 329.699200
    131    129    141     1   109.8000471 387.438400
    132    138    139     1   109.5600471 388.275200
    132    138    140     1   109.5600471 388.275200
    133    132    138     1   109.8000471 387.438400
    133    132    134     1   107.5800459 329.699200
    134    132    138     1   109.8000471 387.438400
    136    135    144     1   109.7800468 425.094400
    136    135    137     1   108.4600466 328.025600
    137    135    144     1   109.7800468 425.094400
    139    138    318     1   109.7800468 425.094400
    139    138    140     1   108.4600466 328.025600
    140    138    318     1   109.7800468 425.094400
    142    141    347     1   109.7800468 425.094400
    142    141    143     1   108.4600466 328.025600
    143    141    347     1   109.7800468 425.094400
    145    146    147     1   109.8800469 414.216000
    145    146    148     1   109.8800469 414.216000
    145    149    150     1   109.8800469 414.216000
    145    149    151     1   109.8800469 414.216000
    145    152    153     1   109.8800469 414.216000
    145    152    154     1   109.8800469 414.216000
    146    158    159     1   109.8000471 387.438400
    146    158    160     1   109.8000471 387.438400
    147    146    158     1   109.5600471 388.275200
    147    146    148     1   108.4600466 328.025600
    148    146    158     1   109.5600471 388.275200
    149    161    162     1   109.8000471 387.438400
    149    161    163     1   109.8000471 387.438400
    150    149    161     1   109.5600471 388.275200
    150    149    151     1   108.4600466 328.025600
    151    149    161     1   109.5600471 388.275200
    152    155    156     1   109.8000471 387.438400
    152    155    157     1   109.8000471 387.438400
    153    152    155     1   109.5600471 388.275200
    153    152    154     1   108.4600466 328.025600
    154    152    155     1   109.5600471 388.275200
    155    164    165     1   109.5600471 388.275200
    155    164    166     1   109.5600471 388.275200
    156    155    164     1   109.8000471 387.438400
    156    155    157     1   107.5800459 329.699200
    157    155    164     1   109.8000471 387.438400
    158    170    171     1   109.5600471 388.275200
    158    170    172     1   109.5600471 388.275200
    159    158    170     1   109.8000471 387.438400
    159    158    160     1   107.5800459 329.699200
    160    158    170     1   109.8000471 387.438400
    161    167    168     1   109.5600471 388.275200
    161    167    169     1   109.5600471 388.275200
    162    161    167     1   109.8000471 387.438400
    162    161    163     1   107.5800459 329.699200
    163    161    167     1   109.8000471 387.438400
    165    164    173     1   109.7800468 425.094400
    165    164    166     1   108.4600466 328.025600
    166    164    173     1   109.7800468 425.094400
    168    167    376     1   109.7800468 425.094400
    168    167    169     1   108.4600466 328.025600
    169    167    376     1   109.7800468 425.094400
    171    170    405     1   109.7800468 425.094400
    171    170    172     1   108.4600466 328.025600
    172    170    405     1   109.7800468 425.094400
    174    175    176     1   109.8800469 414.216000
    174    175    177     1   109.8800469 414.216000
    174    178    179     1   109.8800469 414.216000
    174    178    180     1   109.8800469 414.216000
    174    181    182     1   109.8800469 414.216000
    174    181    183     1   109.8800469 414.216000
    175    187    188     1   109.8000471 387.438400
    175    187    189     1   109.8000471 387.438400
    176    175    187     1   109.5600471 388.275200
    176    175    177     1   108.4600466 328.025600
    177    175    187     1   109.5600471 388.275200
    178    190    191     1   109.8000471 387.438400
    178    190    192     1   109.8000471 387.438400
    179    178    190     1   109.5600471 388.275200
    179    178    180     1   108.4600466 328.025600
    180    178    190     1   109.5600471 388.275200
    181    184    185     1   109.8000471 387.438400
    181    184    186     1   109.8000471 387.438400
    182    181    184     1   109.5600471 388.275200
    182    181    183     1   108.4600466 328.025600
    183    181    184     1   109.5600471 388.275200
    184    193    194     1   109.5600471 388.275200
    184    193    195     1   109.5600471 388.275200
    185    184    193     1   109.8000471 387.438400
    185    184    186     1   107.5800459 329.699200
    186    184    193     1   109.8000471 387.438400
    187    199    200     1   109.5600471 388.275200
    187    199    201     1   109.5600471 388.275200
    188    187    199     1   109.8000471 387.438400
    188    187    189     1   107.5800459 329.699200
    189    187    199     1   109.8000471 387.438400
    190    196    197     1   109.5600471 388.275200
    190    196    198     1   109.5600471 388.275200
    191    190    196     1   109.8000471 387.438400
    191    190    192     1   107.5800459 329.699200
    192    190    196     1   109.8000471 387.438400
    194    193    202     1   109.7800468 425.094400
    194    193    195     1   108.4600466 328.025600
    195    193    202     1   109.7800468 425.094400
    197    196    434     1   109.7800468 425.094400
    197    196    198     1   108.4600466 328.025600
    198    196    434     1   109.7800468 425.094400
    200    199    463     1   109.7800468 425.094400
    200    199    201     1   108.4600466 328.025600
    201    199    463     1   109.7800468 425.094400
    203    204    205     1   109.8800469 414.216000
    203    204    206     1   109.8800469 414.216000
    203    207    208     1   109.8800469 414.216000
    203    207    209     1   109.8800469 414.216000
    203    210    211     1   109.8800469 414.216000
    203    210    212     1   109.8800469 414.216000
    204    216    217     1   109.8000471 387.438400
    204    216    218     1   109.8000471 387.438400
    205    204    216     1   109.5600471 388.275200
    205    204    206     1   108.4600466 328.025600
    206    204    216     1   109.5600471 388.275200
    207    219    220     1   109.8000471 387.438400
    207    219    221     1   109.8000471 387.438400
    208    207    219     1   109.5600471 388.275200
    208    207    209     1   108.4600466 328.025600
    209    207    219     1   109.5600471 388.275200
    210    213    214     1   109.8000471 387.438400
    210    213    215     1   109.8000471 387.438400
    211    210    213     1   109.5600471 388.275200
    211    210    212     1   108.4600466 328.025600
    212    210    213     1   109.5600471 388.275200
    213    222    223     1   109.5600471 388.275200
    213    222    224     1   109.5600471 388.275200
    214    213    222     1   109.8000471 387.438400
    214    213    215     1   107.5800459 329.699200
    215    213    222     1   109.8000471 387.438400
    216    228    229     1   109.5600471 388.275200
    216    228    230     1   109.5600471 388.275200
    217    216    228     1   109.8000471 387.438400
    217    216    218     1   107.5800459 329.699200
    218    216    228     1   109.8000471 387.438400
    219    225    226     1   109.5600471 388.275200
    219    225    227     1   109.5600471 388.275200
    220    219    225     1   109.8000471 387.438400
    220    219    221     1   107.5800459 329.699200
    221    219    225     1   109.8000471 387.438400
    223    222    231     1   109.7800468 425.094400
    223    222    224     1   108.4600466 328.025600
    224    222    231     1   109.7800468 425.094400
    226    225    492     1   109.7800468 425.094400
    226    225    227     1   108.4600466 328.025600
    227    225    492     1   109.7800468 425.094400
    229    228    521     1   109.7800468 425.094400
    229    228    230     1   108.4600466 328.025600
    230    228    521     1   109.7800468 425.094400
    232    233    234     1   109.8800469 414.216000
    232    233    235     1   109.8800469 414.216000
    232    236    237     1   109.8800469 414.216000
    232    236    238     1   109.8800469 414.216000
    232    239    240     1   109.8800469 414.216000
    232    239    241     1   109.8800469 414.216000
    233    245    246     1   109.8000471 387.438400
    233    245    247     1   109.8000471 387.438400
    234    233    245     1   109.5600471 388.275200
    234    233    235     1   108.4600466 328.025600
    235    233    245     1   109.5600471 388.275200
    236    248    249     1   109.8000471 387.438400
    236    248    250     1   109.8000471 387.438400
    237    236    248     1   109.5600471 388.275200
    237    236    238     1   108.4600466 328.025600
    238    236    248     1   109.5600471 388.275200
    239    242    243     1   109.8000471 387.438400
    239    242    244     1   109.8000471 387.438400
    240    239    242     1   109.5600471 388.275200
    240    239    241     1   108.4600466 328.025600
    241    239    242     1   109.5600471 388.275200
    242    251    252     1   109.5600471 388.275200
    242    251    253     1   109.5600471 388.275200
    243    242    251     1   109.8000471 387.438400
    243    242    244     1   107.5800459 329.699200
    244    242    251     1   109.8000471 387.438400
    245    257    258     1   109.5600471 388.275200
    245    257    259     1   109.5600471 388.275200
    246    245    257     1   109.8000471 387.438400
    246    245    247     1   107.5800459 329.699200
    247    245    257     1   109.8000471 387.438400
    248    254    255     1   109.5600471 388.275200
    248    254    256     1   109.5600471 388.275200
    249    248    254     1   109.8000471 387.438400
    249    248    250     1   107.5800459 329.699200
    250    248    254     1   109.8000471 387.438400
    252    251    260     1   109.7800468 425.094400
    252    251    253     1   108.4600466 328.025600
    253    251    260     1   109.7800468 425.094400
    255    254    550     1   109.7800468 425.094400
    255    254    256     1   108.4600466 328.025600
    256    254    550     1   109.7800468 425.094400
    258    257    579     1   109.7800468 425.094400
    258    257    259     1   108.4600466 328.025600
    259    257    579     1   109.7800468 425.094400
    261    262    263     1   109.8800469 414.216000
    261    262    264     1   109.8800469 414.216000
    261    265    266     1   109.8800469 414.216000
    261    265    267     1   109.8800469 414.216000
    261    268    269     1   109.8800469 414.216000
    261    268    270     1   109.8800469 414.216000
    262    274    275     1   109.8000471 387.438400
    262    274    276     1   109.8000471 387.438400
    263    262    274     1   109.5600471 388.275200
    263    262    264     1   108.4600466 328.025600
    264    262    274     1   109.5600471 388.275200
    265    277    278     1   109.8000471 387.438400
    265    277    279     1   109.8000471 387.438400
    266    265    277     1   109.5600471 388.275200
    266    265    267     1   108.4600466 328.025600
    267    265    277     1   109.5600471 388.275200
    268    271    272     1   109.8000471 387.438400
    268    271    273     1   109.8000471 387.438400
    269    268    271     1   109.5600471 388.275200
    269    268    270     1   108.4600466 328.025600
    270    268    271     1   109.5600471 388.275200
    271    280    281     1   109.5600471 388.275200
    271    280    282     1   109.5600471 388.275200
    272    271    280     1   109.8000471 387.438400
    272    271    273     1   107.5800459 329.699200
    273    271    280     1   109.8000471 387.438400
    274    286    287     1   109.5600471 388.275200
    274    286    288     1   109.5600471 388.275200
    275    274    286     1   109.8000471 387.438400
    275    274    276     1   107.5800459 329.699200
    276    274    286     1   109.8000471 387.438400
    277    283    284     1   109.5600471 388.275200
    277    283    285     1   109.5600471 388.275200
    278    277    283     1   109.8000471 387.438400
    278    277    279     1   107.5800459 329.699200
    279    277    283     1   109.8000471 387.438400
    281    280    289     1   109.7800468 425.094400
    281    280    282     1   108.4600466 328.025600
    282    280    289     1   109.7800468 425.094400
    284    283    608     1   109.7800468 425.094400
    284    283    285     1   108.4600466 328.025600
    285    283    608     1   109.7800468 425.094400
    287    286    637     1   109.7800468 425.094400
    287    286    288     1   108.4600466 328.025600
    288    286    637     1   109.7800468 425.094400
    290    291    292     1   109.8800469 414.216000
    290    291    293     1   109.8800469 414.216000
    290    294    295     1   109.8800469 414.216000
    290    294    296     1   109.8800469 414.216000
    290    297    298     1   109.8800469 414.216000
    290    297    299     1   109.8800469 414.216000
    291    303    304     1   109.8000471 387.438400
    291    303    305     1   109.8000471 387.438400
    292    291    303     1   109.5600471 388.275200
    292    291    293     1   108.4600466 328.025600
    293    291    303     1   109.5600471 388.275200
    294    306    307     1   109.8000471 387.438400
    294    306    308     1   109.8000471 387.438400
    295    294    306     1   109.5600471 388.275200
    295    294    296     1   108.4600466 328.025600
    296    294    306     1   109.5600471 388.275200
    297    300    301     1   109.8000471 387.438400
    297    300    302     1   109.8000471 387.438400
    298    297    300     1   109.5600471 388.275200
    298    297    299     1   108.4600466 328.025600
    299    297    300     1   109.5600471 388.275200
    300    309    310     1   109.5600471 388.275200
    300    309    311     1   109.5600471 388.275200
    301    300    309     1   109.8000471 387.438400
    301    300    302     1   107.5800459 329.699200
    302    300    309     1   109.8000471 387.438400
    303    315    316     1   109.5600471 388.275200
    303    315    317     1   109.5600471 388.275200
    304    303    315     1   109.8000471 387.438400
    304    303    305     1   107.5800459 329.699200
    305    303    315     1   109.8000471 387.438400
    306    312    313     1   109.5600471 388.275200
    306    312    314     1   109.5600471 388.275200
    307    306    312     1   109.8000471 387.438400
    307    306    308     1   107.5800459 329.699200
    308    306    312     1   109.8000471 387.438400
    310    309    318     1   109.7800468 425.094400
    310    309    311     1   108.4600466 328.025600
    311    309    318     1   109.7800468 425.094400
    313    312    666     1   109.7800468 425.094400
    313    312    314     1   108.4600466 328.025600
    314    312    666     1   109.7800468 425.094400
    316    315    695     1   109.7800468 425.094400
    316    315    317     1   108.4600466 328.025600
    317    315    695     1   109.7800468 425.094400
    319    320    321     1   109.8800469 414.216000
    319    320    322     1   109.8800469 414.216000
    319    323    324     1   109.8800469 414.216000
    319    323    325     1   109.8800469 414.216000
    319    326    327     1   109.8800469 414.216000
    319    326    328     1   109.8800469 414.216000
    320    332    333     1   109.8000471 387.438400
    320    332    334     1   109.8000471 387.438400
    321    320    332     1   109.5600471 388.275200
    321    320    322     1   108.4600466 328.025600
    322    320    332     1   109.5600471 388.275200
    323    335    336     1   109.8000471 387.438400
    323    335    337     1   109.8000471 387.438400
    324    323    335     1   109.5600471 388.275200
    324    323    325     1   108.4600466 328.025600
    325    323    335     1   109.5600471 388.275200
    326    329    330     1   109.8000471 387.438400
    326    329    331     1   109.8000471 387.438400
    327    326    329     1   109.5600471 388.275200
    327    326    328     1   108.4600466 328.025600
    328    326    329     1   109.5600471 388.275200
    329    338    339     1   109.5600471 388.275200
    329    338    340     1   109.5600471 388.275200
    330    329    338     1   109.8000471 387.438400
    330    329    331     1   107.5800459 329.699200
    331    329    338     1   109.8000471 387.438400
    332    344    345     1   109.5600471 388.275200
    332    344    346     1   109.5600471 388.275200
    333    332    344     1   109.8000471 387.438400
    333    332    334     1   107.5800459 329.699200
    334    332    344     1   109.8000471 387.438400
    335    341    342     1   109.5600471 388.275200
    335    341    343     1   109.5600471 388.275200
    336    335    341     1   109.8000471 387.438400
    336    335    337     1   107.5800459 329.699200
    337    335    341     1   109.8000471 387.438400
    339    338    347     1   109.7800468 425.094400
    339    338    340     1   108.4600466 328.025600
    340    338    347     1   109.7800468 425.094400
    342    341    724     1   109.7800468 425.094400
    342    341    343     1   108.4600466 328.025600
    343    341    724     1   109.7800468 425.094400
    345    344    753     1   109.7800468 425.094400
    345    344    346     1   108.4600466 328.025600
    346    344    753     1   109.7800468 425.094400
    348    349    350     1   109.8800469 414.216000
    348    349    351     1   109.8800469 414.216000
    348    352    353     1   109.8800469 414.216000
    348    352    354     1   109.8800469 414.216000
    348    355    356     1   109.8800469 414.216000
    348    355    357     1   109.8800469 414.216000
    349    361    362     1   109.8000471 387.438400
    349    361    363     1   109.8000471 387.438400
    350    349    361     1   109.5600471 388.275200
    350    349    351     1   108.4600466 328.025600
    351    349    361     1   109.5600471 388.275200
    352    364    365     1   109.8000471 387.438400
    352    364    366     1   109.8000471 387.438400
    353    352    364     1   109.5600471 388.275200
    353    352    354     1   108.4600466 328.025600
    354    352    364     1   109.5600471 388.275200
    355    358    359     1   109.8000471 387.438400
    355    358    360     1   109.8000471 387.438400
    356    355    358     1   109.5600471 388.275200
    356    355    357     1   108.4600466 328.025600
    357    355    358     1   109.5600471 388.275200
    358    367    368     1   109.5600471 388.275200
    358    367    369     1   109.5600471 388.275200
    359    358    367     1   109.8000471 387.438400
    359    358    360     1   107.5800459 329.699200
    360    358    367     1   109.8000471 387.438400
    361    373    374     1   109.5600471 388.275200
    361    373    375     1   109.5600471 388.275200
    362    361    373     1   109.8000471 387.438400
    362    361    363     1   107.5800459 329.699200
    363    361    373     1   109.8000471 387.438400
    364    370    371     1   109.5600471 388.275200
    364    370    372     1   109.5600471 388.275200
    365    364    370     1   109.8000471 387.438400
    365    364    366     1   107.5800459 329.699200
    366    364    370     1   109.8000471 387.438400
    368    367    376     1   109.7800468 425.094400
    368    367    369     1   108.4600466 328.025600
    369    367    376     1   109.7800468 425.094400
    371    370    782     1   109.7800468 425.094400
    371    370    372     1   108.4600466 328.025600
    372    370    782     1   109.7800468 425.094400
    374    373    811     1   109.7800468 425.094400
    374    373    375     1   108.4600466 328.025600
    375    373    811     1   109.7800468 425.094400
    377    378    379     1   109.8800469 414.216000
    377    378    380     1   109.8800469 414.216000
    377    381    382     1   109.8800469 414.216000
    377    381    383     1   109.8800469 414.216000
    377    384    385     1   109.8800469 414.216000
    377    384    386     1   109.8800469 414.216000
    378    390    391     1   109.8000471 387.438400
    378    390    392     1   109.8000471 387.438400
    379    378    390     1   109.5600471 388.275200
    379    378    380     1   108.4600466 328.025600
    380    378    390     1   109.5600471 388.275200
    381    393    394     1   109.8000471 387.438400
    381    393    395     1   109.8000471 387.438400
    382    381    393     1   109.5600471 388.275200
    382    381    383     1   108.4600466 328.025600
    383    381    393     1   109.5600471 388.275200
    384    387    388     1   109.8000471 387.438400
    384    387    389     1   109.8000471 387.438400
    385    384    387     1   109.5600471 388.275200
    385    384    386     1   108.4600466 328.025600
    386    384    387     1   109.5600471 388.275200
    387    396    397     1   109.5600471 388.275200
    387    396    398     1   109.5600471 388.275200
    388    387    396     1   109.8000471 387.438400
    388    387    389     1   107.5800459 329.699200
    389    387    396     1   109.8000471 387.438400
    390    402    403     1   109.5600471 388.275200
    390    402    404     1   109.5600471 388.275200
    391    390    402     1   109.8000471 387.438400
    391    390    392     1   107.5800459 329.699200
    392    390    402     1   109.8000471 387.438400
    393    399    400     1   109.5600471 388.275200
    393    399    401     1   109.5600471 388.275200
    394    393    399     1   109.8000471 387.438400
    394    393    395     1   107.5800459 329.699200
    395    393    399     1   109.8000471 387.438400
    397    396    405     1   109.7800468 425.094400
    397    396    398     1   108.4600466 328.025600
    398    396    405     1   109.7800468 425.094400
    400    399    840     1   109.7800468 425.094400
    400    399    401     1   108.4600466 328.025600
    401    399    840     1   109.7800468 425.094400
    403    402    869     1   109.7800468 425.094400
    403    402    404     1   108.4600466 328.025600
    404    402    869     1   109.7800468 425.094400
    406    407    408     1   109.8800469 414.216000
    406    407    409     1   109.8800469 414.216000
    406    410    411     1   109.8800469 414.216000
    406    410    412     1   109.8800469 414.216000
    406    413    414     1   109.8800469 414.216000
    406    413    415     1   109.8800469 414.216000
    407    419    420     1   109.8000471 387.438400
    407    419    421     1   109.8000471 387.438400
    408    407    419     1   109.5600471 388.275200
    408    407    409     1   108.4600466 328.025600
    409    407    419     1   109.5600471 388.275200
    410    422    423     1   109.8000471 387.438400
    410    422    424     1   109.8000471 387.438400
    411    410    422     1   109.5600471 388.275200
    411    410    412     1   108.4600466 328.025600
    412    410    422     1   109.5600471 388.275200
    413    416    417     1   109.8000471 387.438400
    413    416    418     1   109.8000471 387.438400
    414    413    416     1   109.5600471 388.275200
    414    413    415     1   108.4600466 328.025600
    415    413    416     1   109.5600471 388.275200
    416    425    426     1   109.5600471 388.275200
    416    425    427     1   109.5600471 388.275200
    417    416    425     1   109.8000471 387.438400
    417    416    418     1   107.5800459 329.699200
    418    416    425     1   109.8000471 387.438400
    419    431    432     1   109.5600471 388.275200
    419    431    433     1   109.5600471 388.275200
    420    419    431     1   109.8000471 387.438400
    420    419    421     1   107.5800459 329.699200
    421    419    431     1   109.8000471 387.438400
    422    428    429     1   109.5600471 388.275200
    422    428    430     1   109.5600471 388.275200
    423    422    428     1   109.8000471 387.438400
    423    422    424     1   107.5800459 329.699200
    424    422    428     1   109.8000471 387.438400
    426    425    434     1   109.7800468 425.094400
    426    425    427     1   108.4600466 328.025600
    427    425    434     1   109.7800468 425.094400
    429    428    898     1   109.7800468 425.094400
    429    428    430     1   108.4600466 328.025600
    430    428    898     1   109.7800468 425.094400
    432    431    927     1   109.7800468 425.094400
    432    431    433     1   108.4600466 328.025600
    433    431    927     1   109.7800468 425.094400
    435    436    437     1   109.8800469 414.216000
    435    436    438     1   109.8800469 414.216000
    435    439    440     1   109.8800469 414.216000
    435    439    441     1   109.8800469 414.216000
    435    442    443     1   109.8800469 414.216000
    435    442    444     1   109.8800469 414.216000
    436    448    449     1   109.8000471 387.438400
    436    448    450     1   109.8000471 387.438400
    437    436    448     1   109.5600471 388.275200
    437    436    438     1   108.4600466 328.025600
    438    436    448     1   109.5600471 388.275200
    439    451    452     1   109.8000471 387.438400
    439    451    453     1   109.8000471 387.438400
    440    439    451     1   109.5600471 388.275200
    440    439    441     1   108.4600466 328.025600
    441    439    451     1   109.5600471 388.275200
    442    445    446     1   109.8000471 387.438400
    442    445    447     1   109.8000471 387.438400
    443    442    445     1   109.5600471 388.275200
    443    442    444     1   108.4600466 328.025600
    444    442    445     1   109.5600471 388.275200
    445    454    455     1   109.5600471 388.275200
    445    454    456     1   109.5600471 388.275200
    446    445    454     1   109.8000471 387.438400
    446    445    447     1   107.5800459 329.699200
    447    445    454     1   109.8000471 387.438400
    448    460    461     1   109.5600471 388.275200
    448    460    462     1   109.5600471 388.275200
    449    448    460     1   109.8000471 387.438400
    449    448    450     1   107.5800459 329.699200
    450    448    460     1   109.8000471 387.438400
    451    457    458     1   109.5600471 388.275200
    451    457    459     1   109.5600471 388.275200
    452    451    457     1   109.8000471 387.438400
    452    451    453     1   107.5800459 329.699200
    453    451    457     1   109.8000471 387.438400
    455    454    463     1   109.7800468 425.094400
    455    454    456     1   108.4600466 328.025600
    456    454    463     1   109.7800468 425.094400
    458    457    956     1   109.7800468 425.094400
    458    457    459     1   108.4600466 328.025600
    459    457    956     1   109.7800468 425.094400
    461    460    985     1   109.7800468 425.094400
    461    460    462     1   108.4600466 328.025600
    462    460    985     1   109.7800468 425.094400
    464    465    466     1   109.8800469 414.216000
    464    465    467     1   109.8800469 414.216000
    464    468    469     1   109.8800469 414.216000
    464    468    470     1   109.8800469 414.216000
    464    471    472     1   109.8800469 414.216000
    464    471    473     1   109.8800469 414.216000
    465    477    478     1   109.8000471 387.438400
    465    477    479     1   109.8000471 387.438400
    466    465    477     1   109.5600471 388.275200
    466    465    467     1   108.4600466 328.025600
    467    465    477     1   109.5600471 388.275200
    468    480    481     1   109.8000471 387.438400
    468    480    482     1   109.8000471 387.438400
    469    468    480     1   109.5600471 388.275200
    469    468    470     1   108.4600466 328.025600
    470    468    480     1   109.5600471 388.275200
    471    474    475     1   109.8000471 387.438400
    471    474    476     1   109.8000471 387.438400
    472    471    474     1   109.5600471 388.275200
    472    471    473     1   108.4600466 328.025600
    473    471    474     1   109.5600471 388.275200
    474    483    484     1   109.5600471 388.275200
    474    483    485     1   109.5600471 388.275200
    475    474    483     1   109.8000471 387.438400
    475    474    476     1   107.5800459 329.699200
    476    474    483     1   109.8000471 387.438400
    477    489    490     1   109.5600471 388.275200
    477    489    491     1   109.5600471 388.275200
    478    477    489     1   109.8000471 387.438400
    478    477    479     1   107.5800459 329.699200
    479    477    489     1   109.8000471 387.438400
    480    486    487     1   109.5600471 388.275200
    480    486    488     1   109.5600471 388.275200
    481    480    486     1   109.8000471 387.438400
    481    480    482     1   107.5800459 329.699200
    482    480    486     1   109.8000471 387.438400
    484    483    492     1   109.7800468 425.094400
    484    483    485     1   108.4600466 328.025600
    485    483    492     1   109.7800468 425.094400
    487    486   1014     1   109.7800468 425.094400
    487    486    488     1   108.4600466 328.025600
    488    486   1014     1   109.7800468 425.094400
    490    489   1043     1   109.7800468 425.094400
    490    489    491     1   108.4600466 328.025600
    491    489   1043     1   109.7800468 425.094400
    493    494    495     1   109.8800469 414.216000
    493    494    496     1   109.8800469 414.216000
    493    497    498     1   109.8800469 414.216000
    493    497    499     1   109.8800469 414.216000
    493    500    501     1   109.8800469 414.216000
    493    500    502     1   109.8800469 414.216000
    494    506    507     1   109.8000471 387.438400
    494    506    508     1   109.8000471 387.438400
    495    494    506     1   109.5600471 388.275200
    495    494    496     1   108.4600466 328.025600
    496    494    506     1   109.5600471 388.275200
    497    509    510     1   109.8000471 387.438400
    497    509    511     1   109.8000471 387.438400
    498    497    509     1   109.5600471 388.275200
    498    497    499     1   108.4600466 328.025600
    499    497    509     1   109.5600471 388.275200
    500    503    504     1   109.8000471 387.438400
    500    503    505     1   109.8000471 387.438400
    501    500    503     1   109.5600471 388.275200
    501    500    502     1   108.4600466 328.025600
    502    500    503     1   109.5600471 388.275200
    503    512    513     1   109.5600471 388.275200
    503    512    514     1   109.5600471 388.275200
    504    503    512     1   109.8000471 387.438400
    504    503    505     1   107.5800459 329.699200
    505    503    512     1   109.8000471 387.438400
    506    518    519     1   109.5600471 388.275200
    506    518    520     1   109.5600471 388.275200
    507    506    518     1   109.8000471 387.438400
    507    506    508     1   107.5800459 329.699200
    508    506    518     1   109.8000471 387.438400
    509    515    516     1   109.5600471 388.275200
    509    515    517     1   109.5600471 388.275200
    510    509    515     1   109.8000471 387.438400
    510    509    511     1   107.5800459 329.699200
    511    509    515     1   109.8000471 387.438400
    513    512    521     1   109.7800468 425.094400
    513    512    514     1   108.4600466 328.025600
    514    512    521     1   109.7800468 425.094400
    516    515   1072     1   109.7800468 425.094400
    516    515    517     1   108.4600466 328.025600
    517    515   1072     1   109.7800468 425.094400
    519    518   1101     1   109.7800468 425.094400
    519    518    520     1   108.4600466 328.025600
    520    518   1101     1   109.7800468 425.094400
    522    523    524     1   109.8800469 414.216000
    522    523    525     1   109.8800469 414.216000
    522    526    527     1   109.8800469 414.216000
    522    526    528     1   109.8800469 414.216000
    522    529    530     1   109.8800469 414.216000
    522    529    531     1   109.8800469 414.216000
    523    535    536     1   109.8000471 387.438400
    523    535    537     1   109.8000471 387.438400
    524    523    535     1   109.5600471 388.275200
    524    523    525     1   108.4600466 328.025600
    525    523    535     1   109.5600471 388.275200
    526    538    539     1   109.8000471 387.438400
    526    538    540     1   109.8000471 387.438400
    527    526    538     1   109.5600471 388.275200
    527    526    528     1   108.4600466 328.025600
    528    526    538     1   109.5600471 388.275200
    529    532    533     1   109.8000471 387.438400
    529    532    534     1   109.8000471 387.438400
    530    529    532     1   109.5600471 388.275200
    530    529    531     1   108.4600466 328.025600
    531    529    532     1   109.5600471 388.275200
    532    541    542     1   109.5600471 388.275200
    532    541    543     1   109.5600471 388.275200
    533    532    541     1   109.8000471 387.438400
    533    532    534     1   107.5800459 329.699200
    534    532    541     1   109.8000471 387.438400
    535    547    548     1   109.5600471 388.275200
    535    547    549     1   109.5600471 388.275200
    536    535    547     1   109.8000471 387.438400
    536    535    537     1   107.5800459 329.699200
    537    535    547     1   109.8000471 387.438400
    538    544    545     1   109.5600471 388.275200
    538    544    546     1   109.5600471 388.275200
    539    538    544     1   109.8000471 387.438400
    539    538    540     1   107.5800459 329.699200
    540    538    544     1   109.8000471 387.438400
    542    541    550     1   109.7800468 425.094400
    542    541    543     1   108.4600466 328.025600
    543    541    550     1   109.7800468 425.094400
    545    544   1130     1   109.7800468 425.094400
    545    544    546     1   108.4600466 328.025600
    546    544   1130     1   109.7800468 425.094400
    548    547   1159     1   109.7800468 425.094400
    548    547    549     1   108.4600466 328.025600
    549    547   1159     1   109.7800468 425.094400
    551    552    553     1   109.8800469 414.216000
    551    552    554     1   109.8800469 414.216000
    551    555    556     1   109.8800469 414.216000
    551    555    557     1   109.8800469 414.216000
    551    558    559     1   109.8800469 414.216000
    551    558    560     1   109.8800469 414.216000
    552    564    565     1   109.8000471 387.438400
    552    564    566     1   109.8000471 387.438400
    553    552    564     1   109.5600471 388.275200
    553    552    554     1   108.4600466 328.025600
    554    552    564     1   109.5600471 388.275200
    555    567    568     1   109.8000471 387.438400
    555    567    569     1   109.8000471 387.438400
    556    555    567     1   109.5600471 388.275200
    556    555    557     1   108.4600466 328.025600
    557    555    567     1   109.5600471 388.275200
    558    561    562     1   109.8000471 387.438400
    558    561    563     1   109.8000471 387.438400
    559    558    561     1   109.5600471 388.275200
    559    558    560     1   108.4600466 328.025600
    560    558    561     1   109.5600471 388.275200
    561    570    571     1   109.5600471 388.275200
    561    570    572     1   109.5600471 388.275200
    562    561    570     1   109.8000471 387.438400
    562    561    563     1   107.5800459 329.699200
    563    561    570     1   109.8000471 387.438400
    564    576    577     1   109.5600471 388.275200
    564    576    578     1   109.5600471 388.275200
    565    564    576     1   109.8000471 387.438400
    565    564    566     1   107.5800459 329.699200
    566    564    576     1   109.8000471 387.438400
    567    573    574     1   109.5600471 388.275200
    567    573    575     1   109.5600471 388.275200
    568    567    573     1   109.8000471 387.438400
    568    567    569     1   107.5800459 329.699200
    569    567    573     1   109.8000471 387.438400
    571    570    579     1   109.7800468 425.094400
    571    570    572     1   108.4600466 328.025600
    572    570    579     1   109.7800468 425.094400
    574    573   1188     1   109.7800468 425.094400
    574    573    575     1   108.4600466 328.025600
    575    573   1188     1   109.7800468 425.094400
    577    576   1217     1   109.7800468 425.094400
    577    576    578     1   108.4600466 328.025600
    578    576   1217     1   109.7800468 425.094400
    580    581    582     1   109.8800469 414.216000
    580    581    583     1   109.8800469 414.216000
    580    584    585     1   109.8800469 414.216000
    580    584    586     1   109.8800469 414.216000
    580    587    588     1   109.8800469 414.216000
    580    587    589     1   109.8800469 414.216000
    581    593    594     1   109.8000471 387.438400
    581    593    595     1   109.8000471 387.438400
    582    581    593     1   109.5600471 388.275200
    582    581    583     1   108.4600466 328.025600
    583    581    593     1   109.5600471 388.275200
    584    596    597     1   109.8000471 387.438400
    584    596    598     1   109.8000471 387.438400
    585    584    596     1   109.5600471 388.275200
    585    584    586     1   108.4600466 328.025600
    586    584    596     1   109.5600471 388.275200
    587    590    591     1   109.8000471 387.438400
    587    590    592     1   109.8000471 387.438400
    588    587    590     1   109.5600471 388.275200
    588    587    589     1   108.4600466 328.025600
    589    587    590     1   109.5600471 388.275200
    590    599    600     1   109.5600471 388.275200
    590    599    601     1   109.5600471 388.275200
    591    590    599     1   109.8000471 387.438400
    591    590    592     1   107.5800459 329.699200
    592    590    599     1   109.8000471 387.438400
    593    605    606     1   109.5600471 388.275200
    593    605    607     1   109.5600471 388.275200
    594    593    605     1   109.8000471 387.438400
    594    593    595     1   107.5800459 329.699200
    595    593    605     1   109.8000471 387.438400
    596    602    603     1   109.5600471 388.275200
    596    602    604     1   109.5600471 388.275200
    597    596    602     1   109.8000471 387.438400
    597    596    598     1   107.5800459 329.699200
    598    596    602     1   109.8000471 387.438400
    600    599    608     1   109.7800468 425.094400
    600    599    601     1   108.4600466 328.025600
    601    599    608     1   109.7800468 425.094400
    603    602   1246     1   109.7800468 425.094400
    603    602    604     1   108.4600466 328.025600
    604    602   1246     1   109.7800468 425.094400
    606    605   1275     1   109.7800468 425.094400
    606    605    607     1   108.4600466 328.025600
    607    605   1275     1   109.7800468 425.094400
    609    610    611     1   109.8800469 414.216000
    609    610    612     1   109.8800469 414.216000
    609    613    614     1   109.8800469 414.216000
    609    613    615     1   109.8800469 414.216000
    609    616    617     1   109.8800469 414.216000
    609    616    618     1   109.8800469 414.216000
    610    622    623     1   109.8000471 387.438400
    610    622    624     1   109.8000471 387.438400
    611    610    622     1   109.5600471 388.275200
    611    610    612     1   108.4600466 328.025600
    612    610    622     1   109.5600471 388.275200
    613    625    626     1   109.8000471 387.438400
    613    625    627     1   109.8000471 387.438400
    614    613    625     1   109.5600471 388.275200
    614    613    615     1   108.4600466 328.025600
    615    613    625     1   109.5600471 388.275200
    616    619    620     1   109.8000471 387.438400
    616    619    621     1   109.8000471 387.438400
    617    616    619     1   109.5600471 388.275200
    617    616    618     1   108.4600466 328.025600
    618    616    619     1   109.5600471 388.275200
    619    628    629     1   109.5600471 388.275200
    619    628    630     1   109.5600471 388.275200
    620    619    628     1   109.8000471 387.438400
    620    619    621     1   107.5800459 329.699200
    621    619    628     1   109.8000471 387.438400
    622    634    635     1   109.5600471 388.275200
    622    634    636     1   109.5600471 388.275200
    623    622    634     1   109.8000471 387.438400
    623    622    624     1   107.5800459 329.699200
    624    622    634     1   109.8000471 387.438400
    625    631    632     1   109.5600471 388.275200
    625    631    633     1   109.5600471 388.275200
    626    625    631     1   109.8000471 387.438400
    626    625    627     1   107.5800459 329.699200
    627    625    631     1   109.8000471 387.438400
    629    628    637     1   109.7800468 425.094400
    629    628    630     1   108.4600466 328.025600
    630    628    637     1   109.7800468 425.094400
    632    631   1304     1   109.7800468 425.094400
    632    631    633     1   108.4600466 328.025600
    633    631   1304     1   109.7800468 425.094400
    635    634   1333     1   109.7800468 425.094400
    635    634    636     1   108.4600466 328.025600
    636    634   1333     1   109.7800468 425.094400
    638    639    640     1   109.8800469 414.216000
    638    639    641     1   109.8800469 414.216000
    638    642    643     1   109.8800469 414.216000
    638    642    644     1   109.8800469 414.216000
    638    645    646     1   109.8800469 414.216000
    638    645    647     1   109.8800469 414.216000
    639    651    652     1   109.8000471 387.438400
    639    651    653     1   109.8000471 387.438400
    640    639    651     1   109.5600471 388.275200
    640    639    641     1   108.4600466 328.025600
    641    639    651     1   109.5600471 388.275200
    642    654    655     1   109.8000471 387.438400
    642    654    656     1   109.8000471 387.438400
    643    642    654     1   109.5600471 388.275200
    643    642    644     1   108.4600466 328.025600
    644    642    654     1   109.5600471 388.275200
    645    648    649     1   109.8000471 387.438400
    645    648    650     1   109.8000471 387.438400
    646    645    648     1   109.5600471 388.275200
    646    645    647     1   108.4600466 328.025600
    647    645    648     1   109.5600471 388.275200
    648    657    658     1   109.5600471 388.275200
    648    657    659     1   109.5600471 388.275200
    649    648    657     1   109.8000471 387.438400
    649    648    650     1   107.5800459 329.699200
    650    648    657     1   109.8000471 387.438400
    651    663    664     1   109.5600471 388.275200
    651    663    665     1   109.5600471 388.275200
    652    651    663     1   109.8000471 387.438400
    652    651    653     1   107.5800459 329.699200
    653    651    663     1   109.8000471 387.438400
    654    660    661     1   109.5600471 388.275200
    654    660    662     1   109.5600471 388.275200
    655    654    660     1   109.8000471 387.438400
    655    654    656     1   107.5800459 329.699200
    656    654    660     1   109.8000471 387.438400
    658    657    666     1   109.7800468 425.094400
    658    657    659     1   108.4600466 328.025600
    659    657    666     1   109.7800468 425.094400
    661    660   1362     1   109.7800468 425.094400
    661    660    662     1   108.4600466 328.025600
    662    660   1362     1   109.7800468 425.094400
    664    663   1391     1   109.7800468 425.094400
    664    663    665     1   108.4600466 328.025600
    665    663   1391     1   109.7800468 425.094400
    667    668    669     1   109.8800469 414.216000
    667    668    670     1   109.8800469 414.216000
    667    671    672     1   109.8800469 414.216000
    667    671    673     1   109.8800469 414.216000
    667    674    675     1   109.8800469 414.216000
    667    674    676     1   109.8800469 414.216000
    668    680    681     1   109.8000471 387.438400
    668    680    682     1   109.8000471 387.438400
    669    668    680     1   109.5600471 388.275200
    669    668    670     1   108.4600466 328.025600
    670    668    680     1   109.5600471 388.275200
    671    683    684     1   109.8000471 387.438400
    671    683    685     1   109.8000471 387.438400
    672    671    683     1   109.5600471 388.275200
    672    671    673     1   108.4600466 328.025600
    673    671    683     1   109.5600471 388.275200
    674    677    678     1   109.8000471 387.438400
    674    677    679     1   109.8000471 387.438400
    675    674    677     1   109.5600471 388.275200
    675    674    676     1   108.4600466 328.025600
    676    674    677     1   109.5600471 388.275200
    677    686    687     1   109.5600471 388.275200
    677    686    688     1   109.5600471 388.275200
    678    677    686     1   109.8000471 387.438400
    678    677    679     1   107.5800459 329.699200
    679    677    686     1   109.8000471 387.438400
    680    692    693     1   109.5600471 388.275200
    680    692    694     1   109.5600471 388.275200
    681    680    692     1   109.8000471 387.438400
    681    680    682     1   107.5800459 329.699200
    682    680    692     1   109.8000471 387.438400
    683    689    690     1   109.5600471 388.275200
    683    689    691     1   109.5600471 388.275200
    684    683    689     1   109.8000471 387.438400
    684    683    685     1   107.5800459 329.699200
    685    683    689     1   109.8000471 387.438400
    687    686    695     1   109.7800468 425.094400
    687    686    688     1   108.4600466 328.025600
    688    686    695     1   109.7800468 425.094400
    690    689   1420     1   109.7800468 425.094400
    690    689    691     1   108.4600466 328.025600
    691    689   1420     1   109.7800468 425.094400
    693    692   1449     1   109.7800468 425.094400
    693    692    694     1   108.4600466 328.025600
    694    692   1449     1   109.7800468 425.094400
    696    697    698     1   109.8800469 414.216000
    696    697    699     1   109.8800469 414.216000
    696    700    701     1   109.8800469 414.216000
    696    700    702     1   109.8800469 414.216000
    696    703    704     1   109.8800469 414.216000
    696    703    705     1   109.8800469 414.216000
    697    709    710     1   109.8000471 387.438400
    697    709    711     1   109.8000471 387.438400
    698    697    709     1   109.5600471 388.275200
    698    697    699     1   108.4600466 328.025600
    699    697    709     1   109.5600471 388.275200
    700    712    713     1   109.8000471 387.438400
    700    712    714     1   109.8000471 387.438400
    701    700    712     1   109.5600471 388.275200
    701    700    702     1   108.4600466 328.025600
    702    700    712     1   109.5600471 388.275200
    703    706    707     1   109.8000471 387.438400
    703    706    708     1   109.8000471 387.438400
    704    703    706     1   109.5600471 388.275200
    704    703    705     1   108.4600466 328.025600
    705    703    706     1   109.5600471 388.275200
    706    715    716     1   109.5600471 388.275200
    706    715    717     1   109.5600471 388.275200
    707    706    715     1   109.8000471 387.438400
    707    706    708     1   107.5800459 329.699200
    708    706    715     1   109.8000471 387.438400
    709    721    722     1   109.5600471 388.275200
    709    721    723     1   109.5600471 388.275200
    710    709    721     1   109.8000471 387.438400
    710    709    711     1   107.5800459 329.699200
    711    709    721     1   109.8000471 387.438400
    712    718    719     1   109.5600471 388.275200
    712    718    720     1   109.5600471 388.275200
    713    712    718     1   109.8000471 387.438400
    713    712    714     1   107.5800459 329.699200
    714    712    718     1   109.8000471 387.438400
    716    715    724     1   109.7800468 425.094400
    716    715    717     1   108.4600466 328.025600
    717    715    724     1   109.7800468 425.094400
    719    718   1478     1   109.7800468 425.094400
    719    718    720     1   108.4600466 328.025600
    720    718   1478     1   109.7800468 425.094400
    722    721   1507     1   109.7800468 425.094400
    722    721    723     1   108.4600466 328.025600
    723    721   1507     1   109.7800468 425.094400
    725    726    727     1   109.8800469 414.216000
    725    726    728     1   109.8800469 414.216000
    725    729    730     1   109.8800469 414.216000
    725    729    731     1   109.8800469 414.216000
    725    732    733     1   109.8800469 414.216000
    725    732    734     1   109.8800469 414.216000
    726    738    739     1   109.8000471 387.438400
    726    738    740     1   109.8000471 387.438400
    727    726    738     1   109.5600471 388.275200
    727    726    728     1   108.4600466 328.025600
    728    726    738     1   109.5600471 388.275200
    729    741    742     1   109.8000471 387.438400
    729    741    743     1   109.8000471 387.438400
    730    729    741     1   109.5600471 388.275200
    730    729    731     1   108.4600466 328.025600
    731    729    741     1   109.5600471 388.275200
    732    735    736     1   109.8000471 387.438400
    732    735    737     1   109.8000471 387.438400
    733    732    735     1   109.5600471 388.275200
    733    732    734     1   108.4600466 328.025600
    734    732    735     1   109.5600471 388.275200
    735    744    745     1   109.5600471 388.275200
    735    744    746     1   109.5600471 388.275200
    736    735    744     1   109.8000471 387.438400
    736    735    737     1   107.5800459 329.699200
    737    735    744     1   109.8000471 387.438400
    738    750    751     1   109.5600471 388.275200
    738    750    752     1   109.5600471 388.275200
    739    738    750     1   109.8000471 387.438400
    739    738    740     1   107.5800459 329.699200
    740    738    750     1   109.8000471 387.438400
    741    747    748     1   109.5600471 388.275200
    741    747    749     1   109.5600471 388.275200
    742    741    747     1   109.8000471 387.438400
    742    741    743     1   107.5800459 329.699200
    743    741    747     1   109.8000471 387.438400
    745    744    753     1   109.7800468 425.094400
    745    744    746     1   108.4600466 328.025600
    746    744    753     1   109.7800468 425.094400
    748    747   1536     1   109.7800468 425.094400
    748    747    749     1   108.4600466 328.025600
    749    747   1536     1   109.7800468 425.094400
    751    750   1565     1   109.7800468 425.094400
    751    750    752     1   108.4600466 328.025600
    752    750   1565     1   109.7800468 425.094400
    754    755    756     1   109.8800469 414.216000
    754    755    757     1   109.8800469 414.216000
    754    758    759     1   109.8800469 414.216000
    754    758    760     1   109.8800469 414.216000
    754    761    762     1   109.8800469 414.216000
    754    761    763     1   109.8800469 414.216000
    755    767    768     1   109.8000471 387.438400
    755    767    769     1   109.8000471 387.438400
    756    755    767     1   109.5600471 388.275200
    756    755    757     1   108.4600466 328.025600
    757    755    767     1   109.5600471 388.275200
    758    770    771     1   109.8000471 387.438400
    758    770    772     1   109.8000471 387.438400
    759    758    770     1   109.5600471 388.275200
    759    758    760     1   108.4600466 328.025600
    760    758    770     1   109.5600471 388.275200
    761    764    765     1   109.8000471 387.438400
    761    764    766     1   109.8000471 387.438400
    762    761    764     1   109.5600471 388.275200
    762    761    763     1   108.4600466 328.025600
    763    761    764     1   109.5600471 388.275200
    764    773    774     1   109.5600471 388.275200
    764    773    775     1   109.5600471 388.275200
    765    764    773     1   109.8000471 387.438400
    765    764    766     1   107.5800459 329.699200
    766    764    773     1   109.8000471 387.438400
    767    779    780     1   109.5600471 388.275200
    767    779    781     1   109.5600471 388.275200
    768    767    779     1   109.8000471 387.438400
    768    767    769     1   107.5800459 329.699200
    769    767    779     1   109.8000471 387.438400
    770    776    777     1   109.5600471 388.275200
    770    776    778     1   109.5600471 388.275200
    771    770    776     1   109.8000471 387.438400
    771    770    772     1   107.5800459 329.699200
    772    770    776     1   109.8000471 387.438400
    774    773    782     1   109.7800468 425.094400
    774    773    775     1   108.4600466 328.025600
    775    773    782     1   109.7800468 425.094400
    777    776   1594     1   109.7800468 425.094400
    777    776    778     1   108.4600466 328.025600
    778    776   1594     1   109.7800468 425.094400
    780    779   1623     1   109.7800468 425.094400
    780    779    781     1   108.4600466 328.025600
    781    779   1623     1   109.7800468 425.094400
    783    784    785     1   109.8800469 414.216000
    783    784    786     1   109.8800469 414.216000
    783    787    788     1   109.8800469 414.216000
    783    787    789     1   109.8800469 414.216000
    783    790    791     1   109.8800469 414.216000
    783    790    792     1   109.8800469 414.216000
    784    796    797     1   109.8000471 387.438400
    784    796    798     1   109.8000471 387.438400
    785    784    796     1   109.5600471 388.275200
    785    784    786     1   108.4600466 328.025600
    786    784    796     1   109.5600471 388.275200
    787    799    800     1   109.8000471 387.438400
    787    799    801     1   109.8000471 387.438400
    788    787    799     1   109.5600471 388.275200
    788    787    789     1   108.4600466 328.025600
    789    787    799     1   109.5600471 388.275200
    790    793    794     1   109.8000471 387.438400
    790    793    795     1   109.8000471 387.438400
    791    790    793     1   109.5600471 388.275200
    791    790    792     1   108.4600466 328.025600
    792    790    793     1   109.5600471 388.275200
    793    802    803     1   109.5600471 388.275200
    793    802    804     1   109.5600471 388.275200
    794    793    802     1   109.8000471 387.438400
    794    793    795     1   107.5800459 329.699200
    795    793    802     1   109.8000471 387.438400
    796    808    809     1   109.5600471 388.275200
    796    808    810     1   109.5600471 388.275200
    797    796    808     1   109.8000471 387.438400
    797    796    798     1   107.5800459 329.699200
    798    796    808     1   109.8000471 387.438400
    799    805    806     1   109.5600471 388.275200
    799    805    807     1   109.5600471 388.275200
    800    799    805     1   109.8000471 387.438400
    800    799    801     1   107.5800459 329.699200
    801    799    805     1   109.8000471 387.438400
    803    802    811     1   109.7800468 425.094400
    803    802    804     1   108.4600466 328.025600
    804    802    811     1   109.7800468 425.094400
    806    805   1652     1   109.7800468 425.094400
    806    805    807     1   108.4600466 328.025600
    807    805   1652     1   109.7800468 425.094400
    809    808   1681     1   109.7800468 425.094400
    809    808    810     1   108.4600466 328.025600
    810    808   1681     1   109.7800468 425.094400
    812    813    814     1   109.8800469 414.216000
    812    813    815     1   109.8800469 414.216000
    812    816    817     1   109.8800469 414.216000
    812    816    818     1   109.8800469 414.216000
    812    819    820     1   109.8800469 414.216000
    812    819    821     1   109.8800469 414.216000
    813    825    826     1   109.8000471 387.438400
    813    825    827     1   109.8000471 387.438400
    814    813    825     1   109.5600471 388.275200
    814    813    815     1   108.4600466 328.025600
    815    813    825     1   109.5600471 388.275200
    816    828    829     1   109.8000471 387.438400
    816    828    830     1   109.8000471 387.438400
    817    816    828     1   109.5600471 388.275200
    817    816    818     1   108.4600466 328.025600
    818    816    828     1   109.5600471 388.275200
    819    822    823     1   109.8000471 387.438400
    819    822    824     1   109.8000471 387.438400
    820    819    822     1   109.5600471 388.275200
    820    819    821     1   108.4600466 328.025600
    821    819    822     1   109.5600471 388.275200
    822    831    832     1   109.5600471 388.275200
    822    831    833     1   109.5600471 388.275200
    823    822    831     1   109.8000471 387.438400
    823    822    824     1   107.5800459 329.699200
    824    822    831     1   109.8000471 387.438400
    825    837    838     1   109.5600471 388.275200
    825    837    839     1   109.5600471 388.275200
    826    825    837     1   109.8000471 387.438400
    826    825    827     1   107.5800459 329.699200
    827    825    837     1   109.8000471 387.438400
    828    834    835     1   109.5600471 388.275200
    828    834    836     1   109.5600471 388.275200
    829    828    834     1   109.8000471 387.438400
    829    828    830     1   107.5800459 329.699200
    830    828    834     1   109.8000471 387.438400
    832    831    840     1   109.7800468 425.094400
    832    831    833     1   108.4600466 328.025600
    833    831    840     1   109.7800468 425.094400
    835    834   1710     1   109.7800468 425.094400
    835    834    836     1   108.4600466 328.025600
    836    834   1710     1   109.7800468 425.094400
    838    837   1739     1   109.7800468 425.094400
    838    837    839     1   108.4600466 328.025600
    839    837   1739     1   109.7800468 425.094400
    841    842    843     1   109.8800469 414.216000
    841    842    844     1   109.8800469 414.216000
    841    845    846     1   109.8800469 414.216000
    841    845    847     1   109.8800469 414.216000
    841    848    849     1   109.8800469 414.216000
    841    848    850     1   109.8800469 414.216000
    842    854    855     1   109.8000471 387.438400
    842    854    856     1   109.8000471 387.438400
    843    842    854     1   109.5600471 388.275200
    843    842    844     1   108.4600466 328.025600
    844    842    854     1   109.5600471 388.275200
    845    857    858     1   109.8000471 387.438400
    845    857    859     1   109.8000471 387.438400
    846    845    857     1   109.5600471 388.275200
    846    845    847     1   108.4600466 328.025600
    847    845    857     1   109.5600471 388.275200
    848    851    852     1   109.8000471 387.438400
    848    851    853     1   109.8000471 387.438400
    849    848    851     1   109.5600471 388.275200
    849    848    850     1   108.4600466 328.025600
    850    848    851     1   109.5600471 388.275200
    851    860    861     1   109.5600471 388.275200
    851    860    862     1   109.5600471 388.275200
    852    851    860     1   109.8000471 387.438400
    852    851    853     1   107.5800459 329.699200
    853    851    860     1   109.8000471 387.438400
    854    866    867     1   109.5600471 388.275200
    854    866    868     1   109.5600471 388.275200
    855    854    866     1   109.8000471 387.438400
    855    854    856     1   107.5800459 329.699200
    856    854    866     1   109.8000471 387.438400
    857    863    864     1   109.5600471 388.275200
    857    863    865     1   109.5600471 388.275200
    858    857    863     1   109.8000471 387.438400
    858    857    859     1   107.5800459 329.699200
    859    857    863     1   109.8000471 387.438400
    861    860    869     1   109.7800468 425.094400
    861    860    862     1   108.4600466 328.025600
    862    860    869     1   109.7800468 425.094400
    864    863   1768     1   109.7800468 425.094400
    864    863    865     1   108.4600466 328.025600
    865    863   1768     1   109.7800468 425.094400
    867    866   1797     1   109.7800468 425.094400
    867    866    868     1   108.4600466 328.025600
    868    866   1797     1   109.7800468 425.094400
    870    871    872     1   109.8800469 414.216000
    870    871    873     1   109.8800469 414.216000
    870    874    875     1   109.8800469 414.216000
    870    874    876     1   109.8800469 414.216000
    870    877    878     1   109.8800469 414.216000
    870    877    879     1   109.8800469 414.216000
    871    883    884     1   109.8000471 387.438400
    871    883    885     1   109.8000471 387.438400
    872    871    883     1   109.5600471 388.275200
    872    871    873     1   108.4600466 328.025600
    873    871    883     1   109.5600471 388.275200
    874    886    887     1   109.8000471 387.438400
    874    886    888     1   109.8000471 387.438400
    875    874    886     1   109.5600471 388.275200
    875    874    876     1   108.4600466 328.025600
    876    874    886     1   109.5600471 388.275200
    877    880    881     1   109.8000471 387.438400
    877    880    882     1   109.8000471 387.438400
    878    877    880     1   109.5600471 388.275200
    878    877    879     1   108.4600466 328.025600
    879    877    880     1   109.5600471 388.275200
    880    889    890     1   109.5600471 388.275200
    880    889    891     1   109.5600471 388.275200
    881    880    889     1   109.8000471 387.438400
    881    880    882     1   107.5800459 329.699200
    882    880    889     1   109.8000471 387.438400
    883    895    896     1   109.5600471 388.275200
    883    895    897     1   109.5600471 388.275200
    884    883    895     1   109.8000471 387.438400
    884    883    885     1   107.5800459 329.699200
    885    883    895     1   109.8000471 387.438400
    886    892    893     1   109.5600471 388.275200
    886    892    894     1   109.5600471 388.275200
    887    886    892     1   109.8000471 387.438400
    887    886    888     1   107.5800459 329.699200
    888    886    892     1   109.8000471 387.438400
    890    889    898     1   109.7800468 425.094400
    890    889    891     1   108.4600466 328.025600
    891    889    898     1   109.7800468 425.094400
    893    892   1826     1   109.7800468 425.094400
    893    892    894     1   108.4600466 328.025600
    894    892   1826     1   109.7800468 425.094400
    896    895   1855     1   109.7800468 425.094400
    896    895    897     1   108.4600466 328.025600
    897    895   1855     1   109.7800468 425.094400
    899    900    901     1   109.8800469 414.216000
    899    900    902     1   109.8800469 414.216000
    899    903    904     1   109.8800469 414.216000
    899    903    905     1   109.8800469 414.216000
    899    906    907     1   109.8800469 414.216000
    899    906    908     1   109.8800469 414.216000
    900    912    913     1   109.8000471 387.438400
    900    912    914     1   109.8000471 387.438400
    901    900    912     1   109.5600471 388.275200
    901    900    902     1   108.4600466 328.025600
    902    900    912     1   109.5600471 388.275200
    903    915    916     1   109.8000471 387.438400
    903    915    917     1   109.8000471 387.438400
    904    903    915     1   109.5600471 388.275200
    904    903    905     1   108.4600466 328.025600
    905    903    915     1   109.5600471 388.275200
    906    909    910     1   109.8000471 387.438400
    906    909    911     1   109.8000471 387.438400
    907    906    909     1   109.5600471 388.275200
    907    906    908     1   108.4600466 328.025600
    908    906    909     1   109.5600471 388.275200
    909    918    919     1   109.5600471 388.275200
    909    918    920     1   109.5600471 388.275200
    910    909    918     1   109.8000471 387.438400
    910    909    911     1   107.5800459 329.699200
    911    909    918     1   109.8000471 387.438400
    912    924    925     1   109.5600471 388.275200
    912    924    926     1   109.5600471 388.275200
    913    912    924     1   109.8000471 387.438400
    913    912    914     1   107.5800459 329.699200
    914    912    924     1   109.8000471 387.438400
    915    921    922     1   109.5600471 388.275200
    915    921    923     1   109.5600471 388.275200
    916    915    921     1   109.8000471 387.438400
    916    915    917     1   107.5800459 329.699200
    917    915    921     1   109.8000471 387.438400
    919    918    927     1   109.7800468 425.094400
    919    918    920     1   108.4600466 328.025600
    920    918    927     1   109.7800468 425.094400
    922    921   1884     1   109.7800468 425.094400
    922    921    923     1   108.4600466 328.025600
    923    921   1884     1   109.7800468 425.094400
    925    924   1913     1   109.7800468 425.094400
    925    924    926     1   108.4600466 328.025600
    926    924   1913     1   109.7800468 425.094400
    928    929    930     1   109.8800469 414.216000
    928    929    931     1   109.8800469 414.216000
    928    932    933     1   109.8800469 414.216000
    928    932    934     1   109.8800469 414.216000
    928    935    936     1   109.8800469 414.216000
    928    935    937     1   109.8800469 414.216000
    929    941    942     1   109.8000471 387.438400
    929    941    943     1   109.8000471 387.438400
    930    929    941     1   109.5600471 388.275200
    930    929    931     1   108.4600466 328.025600
    931    929    941     1   109.5600471 388.275200
    932    944    945     1   109.8000471 387.438400
    932    944    946     1   109.8000471 387.438400
    933    932    944     1   109.5600471 388.275200
    933    932    934     1   108.4600466 328.025600
    934    932    944     1   109.5600471 388.275200
    935    938    939     1   109.8000471 387.438400
    935    938    940     1   109.8000471 387.438400
    936    935    938     1   109.5600471 388.275200
    936    935    937     1   108.4600466 328.025600
    937    935    938     1   109.5600471 388.275200
    938    947    948     1   109.5600471 388.275200
    938    947    949     1   109.5600471 388.275200
    939    938    947     1   109.8000471 387.438400
    939    938    940     1   107.5800459 329.699200
    940    938    947     1   109.8000471 387.438400
    941    953    954     1   109.5600471 388.275200
    941    953    955     1   109.5600471 388.275200
    942    941    953     1   109.8000471 387.438400
    942    941    943     1   107.5800459 329.699200
    943    941    953     1   109.8000471 387.438400
    944    950    951     1   109.5600471 388.275200
    944    950    952     1   109.5600471 388.275200
    945    944    950     1   109.8000471 387.438400
    945    944    946     1   107.5800459 329.699200
    946    944    950     1   109.8000471 387.438400
    948    947    956     1   109.7800468 425.094400
    948    947    949     1   108.4600466 328.025600
    949    947    956     1   109.7800468 425.094400
    951    950   1942     1   109.7800468 425.094400
    951    950    952     1   108.4600466 328.025600
    952    950   1942     1   109.7800468 425.094400
    954    953   1971     1   109.7800468 425.094400
    954    953    955     1   108.4600466 328.025600
    955    953   1971     1   109.7800468 425.094400
    957    958    959     1   109.8800469 414.216000
    957    958    960     1   109.8800469 414.216000
    957    961    962     1   109.8800469 414.216000
    957    961    963     1   109.8800469 414.216000
    957    964    965     1   109.8800469 414.216000
    957    964    966     1   109.8800469 414.216000
    958    970    971     1   109.8000471 387.438400
    958    970    972     1   109.8000471 387.438400
    959    958    970     1   109.5600471 388.275200
    959    958    960     1   108.4600466 328.025600
    960    958    970     1   109.5600471 388.275200
    961    973    974     1   109.8000471 387.438400
    961    973    975     1   109.8000471 387.438400
    962    961    973     1   109.5600471 388.275200
    962    961    963     1   108.4600466 328.025600
    963    961    973     1   109.5600471 388.275200
    964    967    968     1   109.8000471 387.438400
    964    967    969     1   109.8000471 387.438400
    965    964    967     1   109.5600471 388.275200
    965    964    966     1   108.4600466 328.025600
    966    964    967     1   109.5600471 388.275200
    967    976    977     1   109.5600471 388.275200
    967    976    978     1   109.5600471 388.275200
    968    967    976     1   109.8000471 387.438400
    968    967    969     1   107.5800459 329.699200
    969    967    976     1   109.8000471 387.438400
    970    982    983     1   109.5600471 388.275200
    970    982    984     1   109.5600471 388.275200
    971    970    982     1   109.8000471 387.438400
    971    970    972     1   107.5800459 329.699200
    972    970    982     1   109.8000471 387.438400
    973    979    980     1   109.5600471 388.275200
    973    979    981     1   109.5600471 388.275200
    974    973    979     1   109.8000471 387.438400
    974    973    975     1   107.5800459 329.699200
    975    973    979     1   109.8000471 387.438400
    977    976    985     1   109.7800468 425.094400
    977    976    978     1   108.4600466 328.025600
    978    976    985     1   109.7800468 425.094400
    980    979   2000     1   109.7800468 425.094400
    980    979    981     1   108.4600466 328.025600
    981    979   2000     1   109.7800468 425.094400
    983    982   2029     1   109.7800468 425.094400
    983    982    984     1   108.4600466 328.025600
    984    982   2029     1   109.7800468 425.094400
    986    987    988     1   109.8800469 414.216000
    986    987    989     1   109.8800469 414.216000
    986    990    991     1   109.8800469 414.216000
    986    990    992     1   109.8800469 414.216000
    986    993    994     1   109.8800469 414.216000
    986    993    995     1   109.8800469 414.216000
    987    999   1000     1   109.8000471 387.438400
    987    999   1001     1   109.8000471 387.438400
    988    987    999     1   109.5600471 388.275200
    988    987    989     1   108.4600466 328.025600
    989    987    999     1   109.5600471 388.275200
    990   1002   1003     1   109.8000471 387.438400
    990   1002   1004     1   109.8000471 387.438400
    991    990   1002     1   109.5600471 388.275200
    991    990    992     1   108.4600466 328.025600
    992    990   1002     1   109.5600471 388.275200
    993    996    997     1   109.8000471 387.438400
    993    996    998     1   109.8000471 387.438400
    994    993    996     1   109.5600471 388.275200
    994    993    995     1   108.4600466 328.025600
    995    993    996     1   109.5600471 388.275200
    996   1005   1006     1   109.5600471 388.275200
    996   1005   1007     1   109.5600471 388.275200
    997    996   1005     1   109.8000471 387.438400
    997    996    998     1   107.5800459 329.699200
    998    996   1005     1   109.8000471 387.438400
    999   1011   1012     1   109.5600471 388.275200
    999   1011   1013     1   109.5600471 388.275200
   1000    999   1011     1   109.8000471 387.438400
   1000    999   1001     1   107.5800459 329.699200
   1001    999   1011     1   109.8000471 387.438400
   1002   1008   1009     1   109.5600471 388.275200
   1002   1008   1010     1   109.5600471 388.275200
   1003   1002   1008     1   109.8000471 387.438400
   1003   1002   1004     1   107.5800459 329.699200
   1004   1002   1008     1   109.8000471 387.438400
   1006   1005   1014     1   109.7800468 425.094400
   1006   1005   1007     1   108.4600466 328.025600
   1007   1005   1014     1   109.7800468 425.094400
   1009   1008   2058     1   109.7800468 425.094400
   1009   1008   1010     1   108.4600466 328.025600
   1010   1008   2058     1   109.7800468 425.094400
   1012   1011   2087     1   109.7800468 425.094400
   1012   1011   1013     1   108.4600466 328.025600
   1013   1011   2087     1   109.7800468 425.094400
   1015   1016   1017     1   109.8800469 414.216000
   1015   1016   1018     1   109.8800469 414.216000
   1015   1019   1020     1   109.8800469 414.216000
   1015   1019   1021     1   109.8800469 414.216000
   1015   1022   1023     1   109.8800469 414.216000
   1015   1022   1024     1   109.8800469 414.216000
   1016   1028   1029     1   109.8000471 387.438400
   1016   1028   1030     1   109.8000471 387.438400
   1017   1016   1028     1   109.5600471 388.275200
   1017   1016   1018     1   108.4600466 328.025600
   1018   1016   1028     1   109.5600471 388.275200
   1019   1031   1032     1   109.8000471 387.438400
   1019   1031   1033     1   109.8000471 387.438400
   1020   1019   1031     1   109.5600471 388.275200
   1020   1019   1021     1   108.4600466 328.025600
   1021   1019   1031     1   109.5600471 388.275200
   1022   1025   1026     1   109.8000471 387.438400
   1022   1025   1027     1   109.8000471 387.438400
   1023   1022   1025     1   109.5600471 388.275200
   1023   1022   1024     1   108.4600466 328.025600
   1024   1022   1025     1   109.5600471 388.275200
   1025   1034   1035     1   109.5600471 388.275200
   1025   1034   1036     1   109.5600471 388.275200
   1026   1025   1034     1   109.8000471 387.438400
   1026   1025   1027     1   107.5800459 329.699200
   1027   1025   1034     1   109.8000471 387.438400
   1028   1040   1041     1   109.5600471 388.275200
   1028   1040   1042     1   109.5600471 388.275200
   1029   1028   1040     1   109.8000471 387.438400
   1029   1028   1030     1   107.5800459 329.699200
   1030   1028   1040     1   109.8000471 387.438400
   1031   1037   1038     1   109.5600471 388.275200
   1031   1037   1039     1   109.5600471 388.275200
   1032   1031   1037     1   109.8000471 387.438400
   1032   1031   1033     1   107.5800459 329.699200
   1033   1031   1037     1   109.8000471 387.438400
   1035   1034   1043     1   109.7800468 425.094400
   1035   1034   1036     1   108.4600466 328.025600
   1036   1034   1043     1   109.7800468 425.094400
   1038   1037   2116     1   109.7800468 425.094400
   1038   1037   1039     1   108.4600466 328.025600
   1039   1037   2116     1   109.7800468 425.094400
   1041   1040   2145     1   109.7800468 425.094400
   1041   1040   1042     1   108.4600466 328.025600
   1042   1040   2145     1   109.7800468 425.094400
   1044   1045   1046     1   109.8800469 414.216000
   1044   1045   1047     1   109.8800469 414.216000
   1044   1048   1049     1   109.8800469 414.216000
   1044   1048   1050     1   109.8800469 414.216000
   1044   1051   1052     1   109.8800469 414.216000
   1044   1051   1053     1   109.8800469 414.216000
   1045   1057   1058     1   109.8000471 387.438400
   1045   1057   1059     1   109.8000471 387.438400
   1046   1045   1057     1   109.5600471 388.275200
   1046   1045   1047     1   108.4600466 328.025600
   1047   1045   1057     1   109.5600471 388.275200
   1048   1060   1061     1   109.8000471 387.438400
   1048   1060   1062     1   109.8000471 387.438400
   1049   1048   1060     1   109.5600471 388.275200
   1049   1048   1050     1   108.4600466 328.025600
   1050   1048   1060     1   109.5600471 388.275200
   1051   1054   1055     1   109.8000471 387.438400
   1051   1054   1056     1   109.8000471 387.438400
   1052   1051   1054     1   109.5600471 388.275200
   1052   1051   1053     1   108.4600466 328.025600
   1053   1051   1054     1   109.5600471 388.275200
   1054   1063   1064     1   109.5600471 388.275200
   1054   1063   1065     1   109.5600471 388.275200
   1055   1054   1063     1   109.8000471 387.438400
   1055   1054   1056     1   107.5800459 329.699200
   1056   1054   1063     1   109.8000471 387.438400
   1057   1069   1070     1   109.5600471 388.275200
   1057   1069   1071     1   109.5600471 388.275200
   1058   1057   1069     1   109.8000471 387.438400
   1058   1057   1059     1   107.5800459 329.699200
   1059   1057   1069     1   109.8000471 387.438400
   1060   1066   1067     1   109.5600471 388.275200
   1060   1066   1068     1   109.5600471 388.275200
   1061   1060   1066     1   109.8000471 387.438400
   1061   1060   1062     1   107.5800459 329.699200
   1062   1060   1066     1   109.8000471 387.438400
   1064   1063   1072     1   109.7800468 425.094400
   1064   1063   1065     1   108.4600466 328.025600
   1065   1063   1072     1   109.7800468 425.094400
   1067   1066   2174     1   109.7800468 425.094400
   1067   1066   1068     1   108.4600466 328.025600
   1068   1066   2174     1   109.7800468 425.094400
   1070   1069   2203     1   109.7800468 425.094400
   1070   1069   1071     1   108.4600466 328.025600
   1071   1069   2203     1   109.7800468 425.094400
   1073   1074   1075     1   109.8800469 414.216000
   1073   1074   1076     1   109.8800469 414.216000
   1073   1077   1078     1   109.8800469 414.216000
   1073   1077   1079     1   109.8800469 414.216000
   1073   1080   1081     1   109.8800469 414.216000
   1073   1080   1082     1   109.8800469 414.216000
   1074   1086   1087     1   109.8000471 387.438400
   1074   1086   1088     1   109.8000471 387.438400
   1075   1074   1086     1   109.5600471 388.275200
   1075   1074   1076     1   108.4600466 328.025600
   1076   1074   1086     1   109.5600471 388.275200
   1077   1089   1090     1   109.8000471 387.438400
   1077   1089   1091     1   109.8000471 387.438400
   1078   1077   1089     1   109.5600471 388.275200
   1078   1077   1079     1   108.4600466 328.025600
   1079   1077   1089     1   109.5600471 388.275200
   1080   1083   1084     1   109.8000471 387.438400
   1080   1083   1085     1   109.8000471 387.438400
   1081   1080   1083     1   109.5600471 388.275200
   1081   1080   1082     1   108.4600466 328.025600
   1082   1080   1083     1   109.5600471 388.275200
   1083   1092   1093     1   109.5600471 388.275200
   1083   1092   1094     1   109.5600471 388.275200
   1084   1083   1092     1   109.8000471 387.438400
   1084   1083   1085     1   107.5800459 329.699200
   1085   1083   1092     1   109.8000471 387.438400
   1086   1098   1099     1   109.5600471 388.275200
   1086   1098   1100     1   109.5600471 388.275200
   1087   1086   1098     1   109.8000471 387.438400
   1087   1086   1088     1   107.5800459 329.699200
   1088   1086   1098     1   109.8000471 387.438400
   1089   1095   1096     1   109.5600471 388.275200
   1089   1095   1097     1   109.5600471 388.275200
   1090   1089   1095     1   109.8000471 387.438400
   1090   1089   1091     1   107.5800459 329.699200
   1091   1089   1095     1   109.8000471 387.438400
   1093   1092   1101     1   109.7800468 425.094400
   1093   1092   1094     1   108.4600466 328.025600
   1094   1092   1101     1   109.7800468 425.094400
   1096   1095   2232     1   109.7800468 425.094400
   1096   1095   1097     1   108.4600466 328.025600
   1097   1095   2232     1   109.7800468 425.094400
   1099   1098   2261     1   109.7800468 425.094400
   1099   1098   1100     1   108.4600466 328.025600
   1100   1098   2261     1   109.7800468 425.094400
   1102   1103   1104     1   109.8800469 414.216000
   1102   1103   1105     1   109.8800469 414.216000
   1102   1106   1107     1   109.8800469 414.216000
   1102   1106   1108     1   109.8800469 414.216000
   1102   1109   1110     1   109.8800469 414.216000
   1102   1109   1111     1   109.8800469 414.216000
   1103   1115   1116     1   109.8000471 387.438400
   1103   1115   1117     1   109.8000471 387.438400
   1104   1103   1115     1   109.5600471 388.275200
   1104   1103   1105     1   108.4600466 328.025600
   1105   1103   1115     1   109.5600471 388.275200
   1106   1118   1119     1   109.8000471 387.438400
   1106   1118   1120     1   109.8000471 387.438400
   1107   1106   1118     1   109.5600471 388.275200
   1107   1106   1108     1   108.4600466 328.025600
   1108   1106   1118     1   109.5600471 388.275200
   1109   1112   1113     1   109.8000471 387.438400
   1109   1112   1114     1   109.8000471 387.438400
   1110   1109   1112     1   109.5600471 388.275200
   1110   1109   1111     1   108.4600466 328.025600
   1111   1109   1112     1   109.5600471 388.275200
   1112   1121   1122     1   109.5600471 388.275200
   1112   1121   1123     1   109.5600471 388.275200
   1113   1112   1121     1   109.8000471 387.438400
   1113   1112   1114     1   107.5800459 329.699200
   1114   1112   1121     1   109.8000471 387.438400
   1115   1127   1128     1   109.5600471 388.275200
   1115   1127   1129     1   109.5600471 388.275200
   1116   1115   1127     1   109.8000471 387.438400
   1116   1115   1117     1   107.5800459 329.699200
   1117   1115   1127     1   109.8000471 387.438400
   1118   1124   1125     1   109.5600471 388.275200
   1118   1124   1126     1   109.5600471 388.275200
   1119   1118   1124     1   109.8000471 387.438400
   1119   1118   1120     1   107.5800459 329.699200
   1120   1118   1124     1   109.8000471 387.438400
   1122   1121   1130     1   109.7800468 425.094400
   1122   1121   1123     1   108.4600466 328.025600
   1123   1121   1130     1   109.7800468 425.094400
   1125   1124   2290     1   109.7800468 425.094400
   1125   1124   1126     1   108.4600466 328.025600
   1126   1124   2290     1   109.7800468 425.094400
   1128   1127   2319     1   109.7800468 425.094400
   1128   1127   1129     1   108.4600466 328.025600
   1129   1127   2319     1   109.7800468 425.094400
   1131   1132   1133     1   109.8800469 414.216000
   1131   1132   1134     1   109.8800469 414.216000
   1131   1135   1136     1   109.8800469 414.216000
   1131   1135   1137     1   109.8800469 414.216000
   1131   1138   1139     1   109.8800469 414.216000
   1131   1138   1140     1   109.8800469 414.216000
   1132   1144   1145     1   109.8000471 387.438400
   1132   1144   1146     1   109.8000471 387.438400
   1133   1132   1144     1   109.5600471 388.275200
   1133   1132   1134     1   108.4600466 328.025600
   1134   1132   1144     1   109.5600471 388.275200
   1135   1147   1148     1   109.8000471 387.438400
   1135   1147   1149     1   109.8000471 387.438400
   1136   1135   1147     1   109.5600471 388.275200
   1136   1135   1137     1   108.4600466 328.025600
   1137   1135   1147     1   109.5600471 388.275200
   1138   1141   1142     1   109.8000471 387.438400
   1138   1141   1143     1   109.8000471 387.438400
   1139   1138   1141     1   109.5600471 388.275200
   1139   1138   1140     1   108.4600466 328.025600
   1140   1138   1141     1   109.5600471 388.275200
   1141   1150   1151     1   109.5600471 388.275200
   1141   1150   1152     1   109.5600471 388.275200
   1142   1141   1150     1   109.8000471 387.438400
   1142   1141   1143     1   107.5800459 329.699200
   1143   1141   1150     1   109.8000471 387.438400
   1144   1156   1157     1   109.5600471 388.275200
   1144   1156   1158     1   109.5600471 388.275200
   1145   1144   1156     1   109.8000471 387.438400
   1145   1144   1146     1   107.5800459 329.699200
   1146   1144   1156     1   109.8000471 387.438400
   1147   1153   1154     1   109.5600471 388.275200
   1147   1153   1155     1   109.5600471 388.275200
   1148   1147   1153     1   109.8000471 387.438400
   1148   1147   1149     1   107.5800459 329.699200
   1149   1147   1153     1   109.8000471 387.438400
   1151   1150   1159     1   109.7800468 425.094400
   1151   1150   1152     1   108.4600466 328.025600
   1152   1150   1159     1   109.7800468 425.094400
   1154   1153   2348     1   109.7800468 425.094400
   1154   1153   1155     1   108.4600466 328.025600
   1155   1153   2348     1   109.7800468 425.094400
   1157   1156   2377     1   109.7800468 425.094400
   1157   1156   1158     1   108.4600466 328.025600
   1158   1156   2377     1   109.7800468 425.094400
   1160   1161   1162     1   109.8800469 414.216000
   1160   1161   1163     1   109.8800469 414.216000
   1160   1164   1165     1   109.8800469 414.216000
   1160   1164   1166     1   109.8800469 414.216000
   1160   1167   1168     1   109.8800469 414.216000
   1160   1167   1169     1   109.8800469 414.216000
   1161   1173   1174     1   109.8000471 387.438400
   1161   1173   1175     1   109.8000471 387.438400
   1162   1161   1173     1   109.5600471 388.275200
   1162   1161   1163     1   108.4600466 328.025600
   1163   1161   1173     1   109.5600471 388.275200
   1164   1176   1177     1   109.8000471 387.438400
   1164   1176   1178     1   109.8000471 387.438400
   1165   1164   1176     1   109.5600471 388.275200
   1165   1164   1166     1   108.4600466 328.025600
   1166   1164   1176     1   109.5600471 388.275200
   1167   1170   1171     1   109.8000471 387.438400
   1167   1170   1172     1   109.8000471 387.438400
   1168   1167   1170     1   109.5600471 388.275200
   1168   1167   1169     1   108.4600466 328.025600
   1169   1167   1170     1   109.5600471 388.275200
   1170   1179   1180     1   109.5600471 388.275200
   1170   1179   1181     1   109.5600471 388.275200
   1171   1170   1179     1   109.8000471 387.438400
   1171   1170   1172     1   107.5800459 329.699200
   1172   1170   1179     1   109.8000471 387.438400
   1173   1185   1186     1   109.5600471 388.275200
   1173   1185   1187     1   109.5600471 388.275200
   1174   1173   1185     1   109.8000471 387.438400
   1174   1173   1175     1   107.5800459 329.699200
   1175   1173   1185     1   109.8000471 387.438400
   1176   1182   1183     1   109.5600471 388.275200
   1176   1182   1184     1   109.5600471 388.275200
   1177   1176   1182     1   109.8000471 387.438400
   1177   1176   1178     1   107.5800459 329.699200
   1178   1176   1182     1   109.8000471 387.438400
   1180   1179   1188     1   109.7800468 425.094400
   1180   1179   1181     1   108.4600466 328.025600
   1181   1179   1188     1   109.7800468 425.094400
   1183   1182   2406     1   109.7800468 425.094400
   1183   1182   1184     1   108.4600466 328.025600
   1184   1182   2406     1   109.7800468 425.094400
   1186   1185   2435     1   109.7800468 425.094400
   1186   1185   1187     1   108.4600466 328.025600
   1187   1185   2435     1   109.7800468 425.094400
   1189   1190   1191     1   109.8800469 414.216000
   1189   1190   1192     1   109.8800469 414.216000
   1189   1193   1194     1   109.8800469 414.216000
   1189   1193   1195     1   109.8800469 414.216000
   1189   1196   1197     1   109.8800469 414.216000
   1189   1196   1198     1   109.8800469 414.216000
   1190   1202   1203     1   109.8000471 387.438400
   1190   1202   1204     1   109.8000471 387.438400
   1191   1190   1202     1   109.5600471 388.275200
   1191   1190   1192     1   108.4600466 328.025600
   1192   1190   1202     1   109.5600471 388.275200
   1193   1205   1206     1   109.8000471 387.438400
   1193   1205   1207     1   109.8000471 387.438400
   1194   1193   1205     1   109.5600471 388.275200
   1194   1193   1195     1   108.4600466 328.025600
   1195   1193   1205     1   109.5600471 388.275200
   1196   1199   1200     1   109.8000471 387.438400
   1196   1199   1201     1   109.8000471 387.438400
   1197   1196   1199     1   109.5600471 388.275200
   1197   1196   1198     1   108.4600466 328.025600
   1198   1196   1199     1   109.5600471 388.275200
   1199   1208   1209     1   109.5600471 388.275200
   1199   1208   1210     1   109.5600471 388.275200
   1200   1199   1208     1   109.8000471 387.438400
   1200   1199   1201     1   107.5800459 329.699200
   1201   1199   1208     1   109.8000471 387.438400
   1202   1214   1215     1   109.5600471 388.275200
   1202   1214   1216     1   109.5600471 388.275200
   1203   1202   1214     1   109.8000471 387.438400
   1203   1202   1204     1   107.5800459 329.699200
   1204   1202   1214     1   109.8000471 387.438400
   1205   1211   1212     1   109.5600471 388.275200
   1205   1211   1213     1   109.5600471 388.275200
   1206   1205   1211     1   109.8000471 387.438400
   1206   1205   1207     1   107.5800459 329.699200
   1207   1205   1211     1   109.8000471 387.438400
   1209   1208   1217     1   109.7800468 425.094400
   1209   1208   1210     1   108.4600466 328.025600
   1210   1208   1217     1   109.7800468 425.094400
   1212   1211   2464     1   109.7800468 425.094400
   1212   1211   1213     1   108.4600466 328.025600
   1213   1211   2464     1   109.7800468 425.094400
   1215   1214   2493     1   109.7800468 425.094400
   1215   1214   1216     1   108.4600466 328.025600
   1216   1214   2493     1   109.7800468 425.094400
   1218   1219   1220     1   109.8800469 414.216000
   1218   1219   1221     1   109.8800469 414.216000
   1218   1222   1223     1   109.8800469 414.216000
   1218   1222   1224     1   109.8800469 414.216000
   1218   1225   1226     1   109.8800469 414.216000
   1218   1225   1227     1   109.8800469 414.216000
   1219   1231   1232     1   109.8000471 387.438400
   1219   1231   1233     1   109.8000471 387.438400
   1220   1219   1231     1   109.5600471 388.275200
   1220   1219   1221     1   108.4600466 328.025600
   1221   1219   1231     1   109.5600471 388.275200
   1222   1234   1235     1   109.8000471 387.438400
   1222   1234   1236     1   109.8000471 387.438400
   1223   1222   1234     1   109.5600471 388.275200
   1223   1222   1224     1   108.4600466 328.025600
   1224   1222   1234     1   109.5600471 388.275200
   1225   1228   1229     1   109.8000471 387.438400
   1225   1228   1230     1   109.8000471 387.438400
   1226   1225   1228     1   109.5600471 388.275200
   1226   1225   1227     1   108.4600466 328.025600
   1227   1225   1228     1   109.5600471 388.275200
   1228   1237   1238     1   109.5600471 388.275200
   1228   1237   1239     1   109.5600471 388.275200
   1229   1228   1237     1   109.8000471 387.438400
   1229   1228   1230     1   107.5800459 329.699200
   1230   1228   1237     1   109.8000471 387.438400
   1231   1243   1244     1   109.5600471 388.275200
   1231   1243   1245     1   109.5600471 388.275200
   1232   1231   1243     1   109.8000471 387.438400
   1232   1231   1233     1   107.5800459 329.699200
   1233   1231   1243     1   109.8000471 387.438400
   1234   1240   1241     1   109.5600471 388.275200
   1234   1240   1242     1   109.5600471 388.275200
   1235   1234   1240     1   109.8000471 387.438400
   1235   1234   1236     1   107.5800459 329.699200
   1236   1234   1240     1   109.8000471 387.438400
   1238   1237   1246     1   109.7800468 425.094400
   1238   1237   1239     1   108.4600466 328.025600
   1239   1237   1246     1   109.7800468 425.094400
   1241   1240   2522     1   109.7800468 425.094400
   1241   1240   1242     1   108.4600466 328.025600
   1242   1240   2522     1   109.7800468 425.094400
   1244   1243   2551     1   109.7800468 425.094400
   1244   1243   1245     1   108.4600466 328.025600
   1245   1243   2551     1   109.7800468 425.094400
   1247   1248   1249     1   109.8800469 414.216000
   1247   1248   1250     1   109.8800469 414.216000
   1247   1251   1252     1   109.8800469 414.216000
   1247   1251   1253     1   109.8800469 414.216000
   1247   1254   1255     1   109.8800469 414.216000
   1247   1254   1256     1   109.8800469 414.216000
   1248   1260   1261     1   109.8000471 387.438400
   1248   1260   1262     1   109.8000471 387.438400
   1249   1248   1260     1   109.5600471 388.275200
   1249   1248   1250     1   108.4600466 328.025600
   1250   1248   1260     1   109.5600471 388.275200
   1251   1263   1264     1   109.8000471 387.438400
   1251   1263   1265     1   109.8000471 387.438400
   1252   1251   1263     1   109.5600471 388.275200
   1252   1251   1253     1   108.4600466 328.025600
   1253   1251   1263     1   109.5600471 388.275200
   1254   1257   1258     1   109.8000471 387.438400
   1254   1257   1259     1   109.8000471 387.438400
   1255   1254   1257     1   109.5600471 388.275200
   1255   1254   1256     1   108.4600466 328.025600
   1256   1254   1257     1   109.5600471 388.275200
   1257   1266   1267     1   109.5600471 388.275200
   1257   1266   1268     1   109.5600471 388.275200
   1258   1257   1266     1   109.8000471 387.438400
   1258   1257   1259     1   107.5800459 329.699200
   1259   1257   1266     1   109.8000471 387.438400
   1260   1272   1273     1   109.5600471 388.275200
   1260   1272   1274     1   109.5600471 388.275200
   1261   1260   1272     1   109.8000471 387.438400
   1261   1260   1262     1   107.5800459 329.699200
   1262   1260   1272     1   109.8000471 387.438400
   1263   1269   1270     1   109.5600471 388.275200
   1263   1269   1271     1   109.5600471 388.275200
   1264   1263   1269     1   109.8000471 387.438400
   1264   1263   1265     1   107.5800459 329.699200
   1265   1263   1269     1   109.8000471 387.438400
   1267   1266   1275     1   109.7800468 425.094400
   1267   1266   1268     1   108.4600466 328.025600
   1268   1266   1275     1   109.7800468 425.094400
   1270   1269   2580     1   109.7800468 425.094400
   1270   1269   1271     1   108.4600466 328.025600
   1271   1269   2580     1   109.7800468 425.094400
   1273   1272   2609     1   109.7800468 425.094400
   1273   1272   1274     1   108.4600466 328.025600
   1274   1272   2609     1   109.7800468 425.094400
   1276   1277   1278     1   109.8800469 414.216000
   1276   1277   1279     1   109.8800469 414.216000
   1276   1280   1281     1   109.8800469 414.216000
   1276   1280   1282     1   109.8800469 414.216000
   1276   1283   1284     1   109.8800469 414.216000
   1276   1283   1285     1   109.8800469 414.216000
   1277   1289   1290     1   109.8000471 387.438400
   1277   1289   1291     1   109.8000471 387.438400
   1278   1277   1289     1   109.5600471 388.275200
   1278   1277   1279     1   108.4600466 328.025600
   1279   1277   1289     1   109.5600471 388.275200
   1280   1292   1293     1   109.8000471 387.438400
   1280   1292   1294     1   109.8000471 387.438400
   1281   1280   1292     1   109.5600471 388.275200
   1281   1280   1282     1   108.4600466 328.025600
   1282   1280   1292     1   109.5600471 388.275200
   1283   1286   1287     1   109.8000471 387.438400
   1283   1286   1288     1   109.8000471 387.438400
   1284   1283   1286     1   109.5600471 388.275200
   1284   1283   1285     1   108.4600466 328.025600
   1285   1283   1286     1   109.5600471 388.275200
   1286   1295   1296     1   109.5600471 388.275200
   1286   1295   1297     1   109.5600471 388.275200
   1287   1286   1295     1   109.8000471 387.438400
   1287   1286   1288     1   107.5800459 329.699200
   1288   1286   1295     1   109.8000471 387.438400
   1289   1301   1302     1   109.5600471 388.275200
   1289   1301   1303     1   109.5600471 388.275200
   1290   1289   1301     1   109.8000471 387.438400
   1290   1289   1291     1   107.5800459 329.699200
   1291   1289   1301     1   109.8000471 387.438400
   1292   1298   1299     1   109.5600471 388.275200
   1292   1298   1300     1   109.5600471 388.275200
   1293   1292   1298     1   109.8000471 387.438400
   1293   1292   1294     1   107.5800459 329.699200
   1294   1292   1298     1   109.8000471 387.438400
   1296   1295   1304     1   109.7800468 425.094400
   1296   1295   1297     1   108.4600466 328.025600
   1297   1295   1304     1   109.7800468 425.094400
   1299   1298   2638     1   109.7800468 425.094400
   1299   1298   1300     1   108.4600466 328.025600
   1300   1298   2638     1   109.7800468 425.094400
   1302   1301   2667     1   109.7800468 425.094400
   1302   1301   1303     1   108.4600466 328.025600
   1303   1301   2667     1   109.7800468 425.094400
   1305   1306   1307     1   109.8800469 414.216000
   1305   1306   1308     1   109.8800469 414.216000
   1305   1309   1310     1   109.8800469 414.216000
   1305   1309   1311     1   109.8800469 414.216000
   1305   1312   1313     1   109.8800469 414.216000
   1305   1312   1314     1   109.8800469 414.216000
   1306   1318   1319     1   109.8000471 387.438400
   1306   1318   1320     1   109.8000471 387.438400
   1307   1306   1318     1   109.5600471 388.275200
   1307   1306   1308     1   108.4600466 328.025600
   1308   1306   1318     1   109.5600471 388.275200
   1309   1321   1322     1   109.8000471 387.438400
   1309   1321   1323     1   109.8000471 387.438400
   1310   1309   1321     1   109.5600471 388.275200
   1310   1309   1311     1   108.4600466 328.025600
   1311   1309   1321     1   109.5600471 388.275200
   1312   1315   1316     1   109.8000471 387.438400
   1312   1315   1317     1   109.8000471 387.438400
   1313   1312   1315     1   109.5600471 388.275200
   1313   1312   1314     1   108.4600466 328.025600
   1314   1312   1315     1   109.5600471 388.275200
   1315   1324   1325     1   109.5600471 388.275200
   1315   1324   1326     1   109.5600471 388.275200
   1316   1315   1324     1   109.8000471 387.438400
   1316   1315   1317     1   107.5800459 329.699200
   1317   1315   1324     1   109.8000471 387.438400
   1318   1330   1331     1   109.5600471 388.275200
   1318   1330   1332     1   109.5600471 388.275200
   1319   1318   1330     1   109.8000471 387.438400
   1319   1318   1320     1   107.5800459 329.699200
   1320   1318   1330     1   109.8000471 387.438400
   1321   1327   1328     1   109.5600471 388.275200
   1321   1327   1329     1   109.5600471 388.275200
   1322   1321   1327     1   109.8000471 387.438400
   1322   1321   1323     1   107.5800459 329.699200
   1323   1321   1327     1   109.8000471 387.438400
   1325   1324   1333     1   109.7800468 425.094400
   1325   1324   1326     1   108.4600466 328.025600
   1326   1324   1333     1   109.7800468 425.094400
   1328   1327   2696     1   109.7800468 425.094400
   1328   1327   1329     1   108.4600466 328.025600
   1329   1327   2696     1   109.7800468 425.094400
   1331   1330   2725     1   109.7800468 425.094400
   1331   1330   1332     1   108.4600466 328.025600
   1332   1330   2725     1   109.7800468 425.094400
   1334   1335   1336     1   109.8800469 414.216000
   1334   1335   1337     1   109.8800469 414.216000
   1334   1338   1339     1   109.8800469 414.216000
   1334   1338   1340     1   109.8800469 414.216000
   1334   1341   1342     1   109.8800469 414.216000
   1334   1341   1343     1   109.8800469 414.216000
   1335   1347   1348     1   109.8000471 387.438400
   1335   1347   1349     1   109.8000471 387.438400
   1336   1335   1347     1   109.5600471 388.275200
   1336   1335   1337     1   108.4600466 328.025600
   1337   1335   1347     1   109.5600471 388.275200
   1338   1350   1351     1   109.8000471 387.438400
   1338   1350   1352     1   109.8000471 387.438400
   1339   1338   1350     1   109.5600471 388.275200
   1339   1338   1340     1   108.4600466 328.025600
   1340   1338   1350     1   109.5600471 388.275200
   1341   1344   1345     1   109.8000471 387.438400
   1341   1344   1346     1   109.8000471 387.438400
   1342   1341   1344     1   109.5600471 388.275200
   1342   1341   1343     1   108.4600466 328.025600
   1343   1341   1344     1   109.5600471 388.275200
   1344   1353   1354     1   109.5600471 388.275200
   1344   1353   1355     1   109.5600471 388.275200
   1345   1344   1353     1   109.8000471 387.438400
   1345   1344   1346     1   107.5800459 329.699200
   1346   1344   1353     1   109.8000471 387.438400
   1347   1359   1360     1   109.5600471 388.275200
   1347   1359   1361     1   109.5600471 388.275200
   1348   1347   1359     1   109.8000471 387.438400
   1348   1347   1349     1   107.5800459 329.699200
   1349   1347   1359     1   109.8000471 387.438400
   1350   1356   1357     1   109.5600471 388.275200
   1350   1356   1358     1   109.5600471 388.275200
   1351   1350   1356     1   109.8000471 387.438400
   1351   1350   1352     1   107.5800459 329.699200
   1352   1350   1356     1   109.8000471 387.438400
   1354   1353   1362     1   109.7800468 425.094400
   1354   1353   1355     1   108.4600466 328.025600
   1355   1353   1362     1   109.7800468 425.094400
   1357   1356   2754     1   109.7800468 425.094400
   1357   1356   1358     1   108.4600466 328.025600
   1358   1356   2754     1   109.7800468 425.094400
   1360   1359   2783     1   109.7800468 425.094400
   1360   1359   1361     1   108.4600466 328.025600
   1361   1359   2783     1   109.7800468 425.094400
   1363   1364   1365     1   109.8800469 414.216000
   1363   1364   1366     1   109.8800469 414.216000
   1363   1367   1368     1   109.8800469 414.216000
   1363   1367   1369     1   109.8800469 414.216000
   1363   1370   1371     1   109.8800469 414.216000
   1363   1370   1372     1   109.8800469 414.216000
   1364   1376   1377     1   109.8000471 387.438400
   1364   1376   1378     1   109.8000471 387.438400
   1365   1364   1376     1   109.5600471 388.275200
   1365   1364   1366     1   108.4600466 328.025600
   1366   1364   1376     1   109.5600471 388.275200
   1367   1379   1380     1   109.8000471 387.438400
   1367   1379   1381     1   109.8000471 387.438400
   1368   1367   1379     1   109.5600471 388.275200
   1368   1367   1369     1   108.4600466 328.025600
   1369   1367   1379     1   109.5600471 388.275200
   1370   1373   1374     1   109.8000471 387.438400
   1370   1373   1375     1   109.8000471 387.438400
   1371   1370   1373     1   109.5600471 388.275200
   1371   1370   1372     1   108.4600466 328.025600
   1372   1370   1373     1   109.5600471 388.275200
   1373   1382   1383     1   109.5600471 388.275200
   1373   1382   1384     1   109.5600471 388.275200
   1374   1373   1382     1   109.8000471 387.438400
   1374   1373   1375     1   107.5800459 329.699200
   1375   1373   1382     1   109.8000471 387.438400
   1376   1388   1389     1   109.5600471 388.275200
   1376   1388   1390     1   109.5600471 388.275200
   1377   1376   1388     1   109.8000471 387.438400
   1377   1376   1378     1   107.5800459 329.699200
   1378   1376   1388     1   109.8000471 387.438400
   1379   1385   1386     1   109.5600471 388.275200
   1379   1385   1387     1   109.5600471 388.275200
   1380   1379   1385     1   109.8000471 387.438400
   1380   1379   1381     1   107.5800459 329.699200
   1381   1379   1385     1   109.8000471 387.438400
   1383   1382   1391     1   109.7800468 425.094400
   1383   1382   1384     1   108.4600466 328.025600
   1384   1382   1391     1   109.7800468 425.094400
   1386   1385   2812     1   109.7800468 425.094400
   1386   1385   1387     1   108.4600466 328.025600
   1387   1385   2812     1   109.7800468 425.094400
   1389   1388   2841     1   109.7800468 425.094400
   1389   1388   1390     1   108.4600466 328.025600
   1390   1388   2841     1   109.7800468 425.094400
   1392   1393   1394     1   109.8800469 414.216000
   1392   1393   1395     1   109.8800469 414.216000
   1392   1396   1397     1   109.8800469 414.216000
   1392   1396   1398     1   109.8800469 414.216000
   1392   1399   1400     1   109.8800469 414.216000
   1392   1399   1401     1   109.8800469 414.216000
   1393   1405   1406     1   109.8000471 387.438400
   1393   1405   1407     1   109.8000471 387.438400
   1394   1393   1405     1   109.5600471 388.275200
   1394   1393   1395     1   108.4600466 328.025600
   1395   1393   1405     1   109.5600471 388.275200
   1396   1408   1409     1   109.8000471 387.438400
   1396   1408   1410     1   109.8000471 387.438400
   1397   1396   1408     1   109.5600471 388.275200
   1397   1396   1398     1   108.4600466 328.025600
   1398   1396   1408     1   109.5600471 388.275200
   1399   1402   1403     1   109.8000471 387.438400
   1399   1402   1404     1   109.8000471 387.438400
   1400   1399   1402     1   109.5600471 388.275200
   1400   1399   1401     1   108.4600466 328.025600
   1401   1399   1402     1   109.5600471 388.275200
   1402   1411   1412     1   109.5600471 388.275200
   1402   1411   1413     1   109.5600471 388.275200
   1403   1402   1411     1   109.8000471 387.438400
   1403   1402   1404     1   107.5800459 329.699200
   1404   1402   1411     1   109.8000471 387.438400
   1405   1417   1418     1   109.5600471 388.275200
   1405   1417   1419     1   109.5600471 388.275200
   1406   1405   1417     1   109.8000471 387.438400
   1406   1405   1407     1   107.5800459 329.699200
   1407   1405   1417     1   109.8000471 387.438400
   1408   1414   1415     1   109.5600471 388.275200
   1408   1414   1416     1   109.5600471 388.275200
   1409   1408   1414     1   109.8000471 387.438400
   1409   1408   1410     1   107.5800459 329.699200
   1410   1408   1414     1   109.8000471 387.438400
   1412   1411   1420     1   109.7800468 425.094400
   1412   1411   1413     1   108.4600466 328.025600
   1413   1411   1420     1   109.7800468 425.094400
   1415   1414   2870     1   109.7800468 425.094400
   1415   1414   1416     1   108.4600466 328.025600
   1416   1414   2870     1   109.7800468 425.094400
   1418   1417   2899     1   109.7800468 425.094400
   1418   1417   1419     1   108.4600466 328.025600
   1419   1417   2899     1   109.7800468 425.094400
   1421   1422   1423     1   109.8800469 414.216000
   1421   1422   1424     1   109.8800469 414.216000
   1421   1425   1426     1   109.8800469 414.216000
   1421   1425   1427     1   109.8800469 414.216000
   1421   1428   1429     1   109.8800469 414.216000
   1421   1428   1430     1   109.8800469 414.216000
   1422   1434   1435     1   109.8000471 387.438400
   1422   1434   1436     1   109.8000471 387.438400
   1423   1422   1434     1   109.5600471 388.275200
   1423   1422   1424     1   108.4600466 328.025600
   1424   1422   1434     1   109.5600471 388.275200
   1425   1437   1438     1   109.8000471 387.438400
   1425   1437   1439     1   109.8000471 387.438400
   1426   1425   1437     1   109.5600471 388.275200
   1426   1425   1427     1   108.4600466 328.025600
   1427   1425   1437     1   109.5600471 388.275200
   1428   1431   1432     1   109.8000471 387.438400
   1428   1431   1433     1   109.8000471 387.438400
   1429   1428   1431     1   109.5600471 388.275200
   1429   1428   1430     1   108.4600466 328.025600
   1430   1428   1431     1   109.5600471 388.275200
   1431   1440   1441     1   109.5600471 388.275200
   1431   1440   1442     1   109.5600471 388.275200
   1432   1431   1440     1   109.8000471 387.438400
   1432   1431   1433     1   107.5800459 329.699200
   1433   1431   1440     1   109.8000471 387.438400
   1434   1446   1447     1   109.5600471 388.275200
   1434   1446   1448     1   109.5600471 388.275200
   1435   1434   1446     1   109.8000471 387.438400
   1435   1434   1436     1   107.5800459 329.699200
   1436   1434   1446     1   109.8000471 387.438400
   1437   1443   1444     1   109.5600471 388.275200
   1437   1443   1445     1   109.5600471 388.275200
   1438   1437   1443     1   109.8000471 387.438400
   1438   1437   1439     1   107.5800459 329.699200
   1439   1437   1443     1   109.8000471 387.438400
   1441   1440   1449     1   109.7800468 425.094400
   1441   1440   1442     1   108.4600466 328.025600
   1442   1440   1449     1   109.7800468 425.094400
   1444   1443   2928     1   109.7800468 425.094400
   1444   1443   1445     1   108.4600466 328.025600
   1445   1443   2928     1   109.7800468 425.094400
   1447   1446   2957     1   109.7800468 425.094400
   1447   1446   1448     1   108.4600466 328.025600
   1448   1446   2957     1   109.7800468 425.094400
   1450   1451   1452     1   109.8800469 414.216000
   1450   1451   1453     1   109.8800469 414.216000
   1450   1454   1455     1   109.8800469 414.216000
   1450   1454   1456     1   109.8800469 414.216000
   1450   1457   1458     1   109.8800469 414.216000
   1450   1457   1459     1   109.8800469 414.216000
   1451   1463   1464     1   109.8000471 387.438400
   1451   1463   1465     1   109.8000471 387.438400
   1452   1451   1463     1   109.5600471 388.275200
   1452   1451   1453     1   108.4600466 328.025600
   1453   1451   1463     1   109.5600471 388.275200
   1454   1466   1467     1   109.8000471 387.438400
   1454   1466   1468     1   109.8000471 387.438400
   1455   1454   1466     1   109.5600471 388.275200
   1455   1454   1456     1   108.4600466 328.025600
   1456   1454   1466     1   109.5600471 388.275200
   1457   1460   1461     1   109.8000471 387.438400
   1457   1460   1462     1   109.8000471 387.438400
   1458   1457   1460     1   109.5600471 388.275200
   1458   1457   1459     1   108.4600466 328.025600
   1459   1457   1460     1   109.5600471 388.275200
   1460   1469   1470     1   109.5600471 388.275200
   1460   1469   1471     1   109.5600471 388.275200
   1461   1460   1469     1   109.8000471 387.438400
   1461   1460   1462     1   107.5800459 329.699200
   1462   1460   1469     1   109.8000471 387.438400
   1463   1475   1476     1   109.5600471 388.275200
   1463   1475   1477     1   109.5600471 388.275200
   1464   1463   1475     1   109.8000471 387.438400
   1464   1463   1465     1   107.5800459 329.699200
   1465   1463   1475     1   109.8000471 387.438400
   1466   1472   1473     1   109.5600471 388.275200
   1466   1472   1474     1   109.5600471 388.275200
   1467   1466   1472     1   109.8000471 387.438400
   1467   1466   1468     1   107.5800459 329.699200
   1468   1466   1472     1   109.8000471 387.438400
   1470   1469   1478     1   109.7800468 425.094400
   1470   1469   1471     1   108.4600466 328.025600
   1471   1469   1478     1   109.7800468 425.094400
   1473   1472   2986     1   109.7800468 425.094400
   1473   1472   1474     1   108.4600466 328.025600
   1474   1472   2986     1   109.7800468 425.094400
   1476   1475   3015     1   109.7800468 425.094400
   1476   1475   1477     1   108.4600466 328.025600
   1477   1475   3015     1   109.7800468 425.094400
   1479   1480   1481     1   109.8800469 414.216000
   1479   1480   1482     1   109.8800469 414.216000
   1479   1483   1484     1   109.8800469 414.216000
   1479   1483   1485     1   109.8800469 414.216000
   1479   1486   1487     1   109.8800469 414.216000
   1479   1486   1488     1   109.8800469 414.216000
   1480   1492   1493     1   109.8000471 387.438400
   1480   1492   1494     1   109.8000471 387.438400
   1481   1480   1492     1   109.5600471 388.275200
   1481   1480   1482     1   108.4600466 328.025600
   1482   1480   1492     1   109.5600471 388.275200
   1483   1495   1496     1   109.8000471 387.438400
   1483   1495   1497     1   109.8000471 387.438400
   1484   1483   1495     1   109.5600471 388.275200
   1484   1483   1485     1   108.4600466 328.025600
   1485   1483   1495     1   109.5600471 388.275200
   1486   1489   1490     1   109.8000471 387.438400
   1486   1489   1491     1   109.8000471 387.438400
   1487   1486   1489     1   109.5600471 388.275200
   1487   1486   1488     1   108.4600466 328.025600
   1488   1486   1489     1   109.5600471 388.275200
   1489   1498   1499     1   109.5600471 388.275200
   1489   1498   1500     1   109.5600471 388.275200
   1490   1489   1498     1   109.8000471 387.438400
   1490   1489   1491     1   107.5800459 329.699200
   1491   1489   1498     1   109.8000471 387.438400
   1492   1504   1505     1   109.5600471 388.275200
   1492   1504   1506     1   109.5600471 388.275200
   1493   1492   1504     1   109.8000471 387.438400
   1493   1492   1494     1   107.5800459 329.699200
   1494   1492   1504     1   109.8000471 387.438400
   1495   1501   1502     1   109.5600471 388.275200
   1495   1501   1503     1   109.5600471 388.275200
   1496   1495   1501     1   109.8000471 387.438400
   1496   1495   1497     1   107.5800459 329.699200
   1497   1495   1501     1   109.8000471 387.438400
   1499   1498   1507     1   109.7800468 425.094400
   1499   1498   1500     1   108.4600466 328.025600
   1500   1498   1507     1   109.7800468 425.094400
   1502   1501   3044     1   109.7800468 425.094400
   1502   1501   1503     1   108.4600466 328.025600
   1503   1501   3044     1   109.7800468 425.094400
   1505   1504   3073     1   109.7800468 425.094400
   1505   1504   1506     1   108.4600466 328.025600
   1506   1504   3073     1   109.7800468 425.094400
   1508   1509   1510     1   109.8800469 414.216000
   1508   1509   1511     1   109.8800469 414.216000
   1508   1512   1513     1   109.8800469 414.216000
   1508   1512   1514     1   109.8800469 414.216000
   1508   1515   1516     1   109.8800469 414.216000
   1508   1515   1517     1   109.8800469 414.216000
   1509   1521   1522     1   109.8000471 387.438400
   1509   1521   1523     1   109.8000471 387.438400
   1510   1509   1521     1   109.5600471 388.275200
   1510   1509   1511     1   108.4600466 328.025600
   1511   1509   1521     1   109.5600471 388.275200
   1512   1524   1525     1   109.8000471 387.438400
   1512   1524   1526     1   109.8000471 387.438400
   1513   1512   1524     1   109.5600471 388.275200
   1513   1512   1514     1   108.4600466 328.025600
   1514   1512   1524     1   109.5600471 388.275200
   1515   1518   1519     1   109.8000471 387.438400
   1515   1518   1520     1   109.8000471 387.438400
   1516   1515   1518     1   109.5600471 388.275200
   1516   1515   1517     1   108.4600466 328.025600
   1517   1515   1518     1   109.5600471 388.275200
   1518   1527   1528     1   109.5600471 388.275200
   1518   1527   1529     1   109.5600471 388.275200
   1519   1518   1527     1   109.8000471 387.438400
   1519   1518   1520     1   107.5800459 329.699200
   1520   1518   1527     1   109.8000471 387.438400
   1521   1533   1534     1   109.5600471 388.275200
   1521   1533   1535     1   109.5600471 388.275200
   1522   1521   1533     1   109.8000471 387.438400
   1522   1521   1523     1   107.5800459 329.699200
   1523   1521   1533     1   109.8000471 387.438400
   1524   1530   1531     1   109.5600471 388.275200
   1524   1530   1532     1   109.5600471 388.275200
   1525   1524   1530     1   109.8000471 387.438400
   1525   1524   1526     1   107.5800459 329.699200
   1526   1524   1530     1   109.8000471 387.438400
   1528   1527   1536     1   109.7800468 425.094400
   1528   1527   1529     1   108.4600466 328.025600
   1529   1527   1536     1   109.7800468 425.094400
   1531   1530   3102     1   109.7800468 425.094400
   1531   1530   1532     1   108.4600466 328.025600
   1532   1530   3102     1   109.7800468 425.094400
   1534   1533   3131     1   109.7800468 425.094400
   1534   1533   1535     1   108.4600466 328.025600
   1535   1533   3131     1   109.7800468 425.094400
   1537   1538   1539     1   109.8800469 414.216000
   1537   1538   1540     1   109.8800469 414.216000
   1537   1541   1542     1   109.8800469 414.216000
   1537   1541   1543     1   109.8800469 414.216000
   1537   1544   1545     1   109.8800469 414.216000
   1537   1544   1546     1   109.8800469 414.216000
   1538   1550   1551     1   109.8000471 387.438400
   1538   1550   1552     1   109.8000471 387.438400
   1539   1538   1550     1   109.5600471 388.275200
   1539   1538   1540     1   108.4600466 328.025600
   1540   1538   1550     1   109.5600471 388.275200
   1541   1553   1554     1   109.8000471 387.438400
   1541   1553   1555     1   109.8000471 387.438400
   1542   1541   1553     1   109.5600471 388.275200
   1542   1541   1543     1   108.4600466 328.025600
   1543   1541   1553     1   109.5600471 388.275200
   1544   1547   1548     1   109.8000471 387.438400
   1544   1547   1549     1   109.8000471 387.438400
   1545   1544   1547     1   109.5600471 388.275200
   1545   1544   1546     1   108.4600466 328.025600
   1546   1544   1547     1   109.5600471 388.275200
   1547   1556   1557     1   109.5600471 388.275200
   1547   1556   1558     1   109.5600471 388.275200
   1548   1547   1556     1   109.8000471 387.438400
   1548   1547   1549     1   107.5800459 329.699200
   1549   1547   1556     1   109.8000471 387.438400
   1550   1562   1563     1   109.5600471 388.275200
   1550   1562   1564     1   109.5600471 388.275200
   1551   1550   1562     1   109.8000471 387.438400
   1551   1550   1552     1   107.5800459 329.699200
   1552   1550   1562     1   109.8000471 387.438400
   1553   1559   1560     1   109.5600471 388.275200
   1553   1559   1561     1   109.5600471 388.275200
   1554   1553   1559     1   109.8000471 387.438400
   1554   1553   1555     1   107.5800459 329.699200
   1555   1553   1559     1   109.8000471 387.438400
   1557   1556   1565     1   109.7800468 425.094400
   1557   1556   1558     1   108.4600466 328.025600
   1558   1556   1565     1   109.7800468 425.094400
   1560   1559   3160     1   109.7800468 425.094400
   1560   1559   1561     1   108.4600466 328.025600
   1561   1559   3160     1   109.7800468 425.094400
   1563   1562   3189     1   109.7800468 425.094400
   1563   1562   1564     1   108.4600466 328.025600
   1564   1562   3189     1   109.7800468 425.094400
   1566   1567   1568     1   109.8800469 414.216000
   1566   1567   1569     1   109.8800469 414.216000
   1566   1570   1571     1   109.8800469 414.216000
   1566   1570   1572     1   109.8800469 414.216000
   1566   1573   1574     1   109.8800469 414.216000
   1566   1573   1575     1   109.8800469 414.216000
   1567   1579   1580     1   109.8000471 387.438400
   1567   1579   1581     1   109.8000471 387.438400
   1568   1567   1579     1   109.5600471 388.275200
   1568   1567   1569     1   108.4600466 328.025600
   1569   1567   1579     1   109.5600471 388.275200
   1570   1582   1583     1   109.8000471 387.438400
   1570   1582   1584     1   109.8000471 387.438400
   1571   1570   1582     1   109.5600471 388.275200
   1571   1570   1572     1   108.4600466 328.025600
   1572   1570   1582     1   109.5600471 388.275200
   1573   1576   1577     1   109.8000471 387.438400
   1573   1576   1578     1   109.8000471 387.438400
   1574   1573   1576     1   109.5600471 388.275200
   1574   1573   1575     1   108.4600466 328.025600
   1575   1573   1576     1   109.5600471 388.275200
   1576   1585   1586     1   109.5600471 388.275200
   1576   1585   1587     1   109.5600471 388.275200
   1577   1576   1585     1   109.8000471 387.438400
   1577   1576   1578     1   107.5800459 329.699200
   1578   1576   1585     1   109.8000471 387.438400
   1579   1591   1592     1   109.5600471 388.275200
   1579   1591   1593     1   109.5600471 388.275200
   1580   1579   1591     1   109.8000471 387.438400
   1580   1579   1581     1   107.5800459 329.699200
   1581   1579   1591     1   109.8000471 387.438400
   1582   1588   1589     1   109.5600471 388.275200
   1582   1588   1590     1   109.5600471 388.275200
   1583   1582   1588     1   109.8000471 387.438400
   1583   1582   1584     1   107.5800459 329.699200
   1584   1582   1588     1   109.8000471 387.438400
   1586   1585   1594     1   109.7800468 425.094400
   1586   1585   1587     1   108.4600466 328.025600
   1587   1585   1594     1   109.7800468 425.094400
   1589   1588   3218     1   109.7800468 425.094400
   1589   1588   1590     1   108.4600466 328.025600
   1590   1588   3218     1   109.7800468 425.094400
   1592   1591   3247     1   109.7800468 425.094400
   1592   1591   1593     1   108.4600466 328.025600
   1593   1591   3247     1   109.7800468 425.094400
   1595   1596   1597     1   109.8800469 414.216000
   1595   1596   1598     1   109.8800469 414.216000
   1595   1599   1600     1   109.8800469 414.216000
   1595   1599   1601     1   109.8800469 414.216000
   1595   1602   1603     1   109.8800469 414.216000
   1595   1602   1604     1   109.8800469 414.216000
   1596   1608   1609     1   109.8000471 387.438400
   1596   1608   1610     1   109.8000471 387.438400
   1597   1596   1608     1   109.5600471 388.275200
   1597   1596   1598     1   108.4600466 328.025600
   1598   1596   1608     1   109.5600471 388.275200
   1599   1611   1612     1   109.8000471 387.438400
   1599   1611   1613     1   109.8000471 387.438400
   1600   1599   1611     1   109.5600471 388.275200
   1600   1599   1601     1   108.4600466 328.025600
   1601   1599   1611     1   109.5600471 388.275200
   1602   1605   1606     1   109.8000471 387.438400
   1602   1605   1607     1   109.8000471 387.438400
   1603   1602   1605     1   109.5600471 388.275200
   1603   1602   1604     1   108.4600466 328.025600
   1604   1602   1605     1   109.5600471 388.275200
   1605   1614   1615     1   109.5600471 388.275200
   1605   1614   1616     1   109.5600471 388.275200
   1606   1605   1614     1   109.8000471 387.438400
   1606   1605   1607     1   107.5800459 329.699200
   1607   1605   1614     1   109.8000471 387.438400
   1608   1620   1621     1   109.5600471 388.275200
   1608   1620   1622     1   109.5600471 388.275200
   1609   1608   1620     1   109.8000471 387.438400
   1609   1608   1610     1   107.5800459 329.699200
   1610   1608   1620     1   109.8000471 387.438400
   1611   1617   1618     1   109.5600471 388.275200
   1611   1617   1619     1   109.5600471 388.275200
   1612   1611   1617     1   109.8000471 387.438400
   1612   1611   1613     1   107.5800459 329.699200
   1613   1611   1617     1   109.8000471 387.438400
   1615   1614   1623     1   109.7800468 425.094400
   1615   1614   1616     1   108.4600466 328.025600
   1616   1614   1623     1   109.7800468 425.094400
   1618   1617   3276     1   109.7800468 425.094400
   1618   1617   1619     1   108.4600466 328.025600
   1619   1617   3276     1   109.7800468 425.094400
   1621   1620   3305     1   109.7800468 425.094400
   1621   1620   1622     1   108.4600466 328.025600
   1622   1620   3305     1   109.7800468 425.094400
   1624   1625   1626     1   109.8800469 414.216000
   1624   1625   1627     1   109.8800469 414.216000
   1624   1628   1629     1   109.8800469 414.216000
   1624   1628   1630     1   109.8800469 414.216000
   1624   1631   1632     1   109.8800469 414.216000
   1624   1631   1633     1   109.8800469 414.216000
   1625   1637   1638     1   109.8000471 387.438400
   1625   1637   1639     1   109.8000471 387.438400
   1626   1625   1637     1   109.5600471 388.275200
   1626   1625   1627     1   108.4600466 328.025600
   1627   1625   1637     1   109.5600471 388.275200
   1628   1640   1641     1   109.8000471 387.438400
   1628   1640   1642     1   109.8000471 387.438400
   1629   1628   1640     1   109.5600471 388.275200
   1629   1628   1630     1   108.4600466 328.025600
   1630   1628   1640     1   109.5600471 388.275200
   1631   1634   1635     1   109.8000471 387.438400
   1631   1634   1636     1   109.8000471 387.438400
   1632   1631   1634     1   109.5600471 388.275200
   1632   1631   1633     1   108.4600466 328.025600
   1633   1631   1634     1   109.5600471 388.275200
   1634   1643   1644     1   109.5600471 388.275200
   1634   1643   1645     1   109.5600471 388.275200
   1635   1634   1643     1   109.8000471 387.438400
   1635   1634   1636     1   107.5800459 329.699200
   1636   1634   1643     1   109.8000471 387.438400
   1637   1649   1650     1   109.5600471 388.275200
   1637   1649   1651     1   109.5600471 388.275200
   1638   1637   1649     1   109.8000471 387.438400
   1638   1637   1639     1   107.5800459 329.699200
   1639   1637   1649     1   109.8000471 387.438400
   1640   1646   1647     1   109.5600471 388.275200
   1640   1646   1648     1   109.5600471 388.275200
   1641   1640   1646     1   109.8000471 387.438400
   1641   1640   1642     1   107.5800459 329.699200
   1642   1640   1646     1   109.8000471 387.438400
   1644   1643   1652     1   109.7800468 425.094400
   1644   1643   1645     1   108.4600466 328.025600
   1645   1643   1652     1   109.7800468 425.094400
   1647   1646   3334     1   109.7800468 425.094400
   1647   1646   1648     1   108.4600466 328.025600
   1648   1646   3334     1   109.7800468 425.094400
   1650   1649   3363     1   109.7800468 425.094400
   1650   1649   1651     1   108.4600466 328.025600
   1651   1649   3363     1   109.7800468 425.094400
   1653   1654   1655     1   109.8800469 414.216000
   1653   1654   1656     1   109.8800469 414.216000
   1653   1657   1658     1   109.8800469 414.216000
   1653   1657   1659     1   109.8800469 414.216000
   1653   1660   1661     1   109.8800469 414.216000
   1653   1660   1662     1   109.8800469 414.216000
   1654   1666   1667     1   109.8000471 387.438400
   1654   1666   1668     1   109.8000471 387.438400
   1655   1654   1666     1   109.5600471 388.275200
   1655   1654   1656     1   108.4600466 328.025600
   1656   1654   1666     1   109.5600471 388.275200
   1657   1669   1670     1   109.8000471 387.438400
   1657   1669   1671     1   109.8000471 387.438400
   1658   1657   1669     1   109.5600471 388.275200
   1658   1657   1659     1   108.4600466 328.025600
   1659   1657   1669     1   109.5600471 388.275200
   1660   1663   1664     1   109.8000471 387.438400
   1660   1663   1665     1   109.8000471 387.438400
   1661   1660   1663     1   109.5600471 388.275200
   1661   1660   1662     1   108.4600466 328.025600
   1662   1660   1663     1   109.5600471 388.275200
   1663   1672   1673     1   109.5600471 388.275200
   1663   1672   1674     1   109.5600471 388.275200
   1664   1663   1672     1   109.8000471 387.438400
   1664   1663   1665     1   107.5800459 329.699200
   1665   1663   1672     1   109.8000471 387.438400
   1666   1678   1679     1   109.5600471 388.275200
   1666   1678   1680     1   109.5600471 388.275200
   1667   1666   1678     1   109.8000471 387.438400
   1667   1666   1668     1   107.5800459 329.699200
   1668   1666   1678     1   109.8000471 387.438400
   1669   1675   1676     1   109.5600471 388.275200
   1669   1675   1677     1   109.5600471 388.275200
   1670   1669   1675     1   109.8000471 387.438400
   1670   1669   1671     1   107.5800459 329.699200
   1671   1669   1675     1   109.8000471 387.438400
   1673   1672   1681     1   109.7800468 425.094400
   1673   1672   1674     1   108.4600466 328.025600
   1674   1672   1681     1   109.7800468 425.094400
   1676   1675   3392     1   109.7800468 425.094400
   1676   1675   1677     1   108.4600466 328.025600
   1677   1675   3392     1   109.7800468 425.094400
   1679   1678   3421     1   109.7800468 425.094400
   1679   1678   1680     1   108.4600466 328.025600
   1680   1678   3421     1   109.7800468 425.094400
   1682   1683   1684     1   109.8800469 414.216000
   1682   1683   1685     1   109.8800469 414.216000
   1682   1686   1687     1   109.8800469 414.216000
   1682   1686   1688     1   109.8800469 414.216000
   1682   1689   1690     1   109.8800469 414.216000
   1682   1689   1691     1   109.8800469 414.216000
   1683   1695   1696     1   109.8000471 387.438400
   1683   1695   1697     1   109.8000471 387.438400
   1684   1683   1695     1   109.5600471 388.275200
   1684   1683   1685     1   108.4600466 328.025600
   1685   1683   1695     1   109.5600471 388.275200
   1686   1698   1699     1   109.8000471 387.438400
   1686   1698   1700     1   109.8000471 387.438400
   1687   1686   1698     1   109.5600471 388.275200
   1687   1686   1688     1   108.4600466 328.025600
   1688   1686   1698     1   109.5600471 388.275200
   1689   1692   1693     1   109.8000471 387.438400
   1689   1692   1694     1   109.8000471 387.438400
   1690   1689   1692     1   109.5600471 388.275200
   1690   1689   1691     1   108.4600466 328.025600
   1691   1689   1692     1   109.5600471 388.275200
   1692   1701   1702     1   109.5600471 388.275200
   1692   1701   1703     1   109.5600471 388.275200
   1693   1692   1701     1   109.8000471 387.438400
   1693   1692   1694     1   107.5800459 329.699200
   1694   1692   1701     1   109.8000471 387.438400
   1695   1707   1708     1   109.5600471 388.275200
   1695   1707   1709     1   109.5600471 388.275200
   1696   1695   1707     1   109.8000471 387.438400
   1696   1695   1697     1   107.5800459 329.699200
   1697   1695   1707     1   109.8000471 387.438400
   1698   1704   1705     1   109.5600471 388.275200
   1698   1704   1706     1   109.5600471 388.275200
   1699   1698   1704     1   109.8000471 387.438400
   1699   1698   1700     1   107.5800459 329.699200
   1700   1698   1704     1   109.8000471 387.438400
   1702   1701   1710     1   109.7800468 425.094400
   1702   1701   1703     1   108.4600466 328.025600
   1703   1701   1710     1   109.7800468 425.094400
   1705   1704   3450     1   109.7800468 425.094400
   1705   1704   1706     1   108.4600466 328.025600
   1706   1704   3450     1   109.7800468 425.094400
   1708   1707   3479     1   109.7800468 425.094400
   1708   1707   1709     1   108.4600466 328.025600
   1709   1707   3479     1   109.7800468 425.094400
   1711   1712   1713     1   109.8800469 414.216000
   1711   1712   1714     1   109.8800469 414.216000
   1711   1715   1716     1   109.8800469 414.216000
   1711   1715   1717     1   109.8800469 414.216000
   1711   1718   1719     1   109.8800469 414.216000
   1711   1718   1720     1   109.8800469 414.216000
   1712   1724   1725     1   109.8000471 387.438400
   1712   1724   1726     1   109.8000471 387.438400
   1713   1712   1724     1   109.5600471 388.275200
   1713   1712   1714     1   108.4600466 328.025600
   1714   1712   1724     1   109.5600471 388.275200
   1715   1727   1728     1   109.8000471 387.438400
   1715   1727   1729     1   109.8000471 387.438400
   1716   1715   1727     1   109.5600471 388.275200
   1716   1715   1717     1   108.4600466 328.025600
   1717   1715   1727     1   109.5600471 388.275200
   1718   1721   1722     1   109.8000471 387.438400
   1718   1721   1723     1   109.8000471 387.438400
   1719   1718   1721     1   109.5600471 388.275200
   1719   1718   1720     1   108.4600466 328.025600
   1720   1718   1721     1   109.5600471 388.275200
   1721   1730   1731     1   109.5600471 388.275200
   1721   1730   1732     1   109.5600471 388.275200
   1722   1721   1730     1   109.8000471 387.438400
   1722   1721   1723     1   107.5800459 329.699200
   1723   1721   1730     1   109.8000471 387.438400
   1724   1736   1737     1   109.5600471 388.275200
   1724   1736   1738     1   109.5600471 388.275200
   1725   1724   1736     1   109.8000471 387.438400
   1725   1724   1726     1   107.5800459 329.699200
   1726   1724   1736     1   109.8000471 387.438400
   1727   1733   1734     1   109.5600471 388.275200
   1727   1733   1735     1   109.5600471 388.275200
   1728   1727   1733     1   109.8000471 387.438400
   1728   1727   1729     1   107.5800459 329.699200
   1729   1727   1733     1   109.8000471 387.438400
   1731   1730   1739     1   109.7800468 425.094400
   1731   1730   1732     1   108.4600466 328.025600
   1732   1730   1739     1   109.7800468 425.094400
   1734   1733   3508     1   109.7800468 425.094400
   1734   1733   1735     1   108.4600466 328.025600
   1735   1733   3508     1   109.7800468 425.094400
   1737   1736   3537     1   109.7800468 425.094400
   1737   1736   1738     1   108.4600466 328.025600
   1738   1736   3537     1   109.7800468 425.094400
   1740   1741   1742     1   109.8800469 414.216000
   1740   1741   1743     1   109.8800469 414.216000
   1740   1744   1745     1   109.8800469 414.216000
   1740   1744   1746     1   109.8800469 414.216000
   1740   1747   1748     1   109.8800469 414.216000
   1740   1747   1749     1   109.8800469 414.216000
   1741   1753   1754     1   109.8000471 387.438400
   1741   1753   1755     1   109.8000471 387.438400
   1742   1741   1753     1   109.5600471 388.275200
   1742   1741   1743     1   108.4600466 328.025600
   1743   1741   1753     1   109.5600471 388.275200
   1744   1756   1757     1   109.8000471 387.438400
   1744   1756   1758     1   109.8000471 387.438400
   1745   1744   1756     1   109.5600471 388.275200
   1745   1744   1746     1   108.4600466 328.025600
   1746   1744   1756     1   109.5600471 388.275200
   1747   1750   1751     1   109.8000471 387.438400
   1747   1750   1752     1   109.8000471 387.438400
   1748   1747   1750     1   109.5600471 388.275200
   1748   1747   1749     1   108.4600466 328.025600
   1749   1747   1750     1   109.5600471 388.275200
   1750   1759   1760     1   109.5600471 388.275200
   1750   1759   1761     1   109.5600471 388.275200
   1751   1750   1759     1   109.8000471 387.438400
   1751   1750   1752     1   107.5800459 329.699200
   1752   1750   1759     1   109.8000471 387.438400
   1753   1765   1766     1   109.5600471 388.275200
   1753   1765   1767     1   109.5600471 388.275200
   1754   1753   1765     1   109.8000471 387.438400
   1754   1753   1755     1   107.5800459 329.699200
   1755   1753   1765     1   109.8000471 387.438400
   1756   1762   1763     1   109.5600471 388.275200
   1756   1762   1764     1   109.5600471 388.275200
   1757   1756   1762     1   109.8000471 387.438400
   1757   1756   1758     1   107.5800459 329.699200
   1758   1756   1762     1   109.8000471 387.438400
   1760   1759   1768     1   109.7800468 425.094400
   1760   1759   1761     1   108.4600466 328.025600
   1761   1759   1768     1   109.7800468 425.094400
   1763   1762   3566     1   109.7800468 425.094400
   1763   1762   1764     1   108.4600466 328.025600
   1764   1762   3566     1   109.7800468 425.094400
   1766   1765   3595     1   109.7800468 425.094400
   1766   1765   1767     1   108.4600466 328.025600
   1767   1765   3595     1   109.7800468 425.094400
   1769   1770   1771     1   109.8800469 414.216000
   1769   1770   1772     1   109.8800469 414.216000
   1769   1773   1774     1   109.8800469 414.216000
   1769   1773   1775     1   109.8800469 414.216000
   1769   1776   1777     1   109.8800469 414.216000
   1769   1776   1778     1   109.8800469 414.216000
   1770   1782   1783     1   109.8000471 387.438400
   1770   1782   1784     1   109.8000471 387.438400
   1771   1770   1782     1   109.5600471 388.275200
   1771   1770   1772     1   108.4600466 328.025600
   1772   1770   1782     1   109.5600471 388.275200
   1773   1785   1786     1   109.8000471 387.438400
   1773   1785   1787     1   109.8000471 387.438400
   1774   1773   1785     1   109.5600471 388.275200
   1774   1773   1775     1   108.4600466 328.025600
   1775   1773   1785     1   109.5600471 388.275200
   1776   1779   1780     1   109.8000471 387.438400
   1776   1779   1781     1   109.8000471 387.438400
   1777   1776   1779     1   109.5600471 388.275200
   1777   1776   1778     1   108.4600466 328.025600
   1778   1776   1779     1   109.5600471 388.275200
   1779   1788   1789     1   109.5600471 388.275200
   1779   1788   1790     1   109.5600471 388.275200
   1780   1779   1788     1   109.8000471 387.438400
   1780   1779   1781     1   107.5800459 329.699200
   1781   1779   1788     1   109.8000471 387.438400
   1782   1794   1795     1   109.5600471 388.275200
   1782   1794   1796     1   109.5600471 388.275200
   1783   1782   1794     1   109.8000471 387.438400
   1783   1782   1784     1   107.5800459 329.699200
   1784   1782   1794     1   109.8000471 387.438400
   1785   1791   1792     1   109.5600471 388.275200
   1785   1791   1793     1   109.5600471 388.275200
   1786   1785   1791     1   109.8000471 387.438400
   1786   1785   1787     1   107.5800459 329.699200
   1787   1785   1791     1   109.8000471 387.438400
   1789   1788   1797     1   109.7800468 425.094400
   1789   1788   1790     1   108.4600466 328.025600
   1790   1788   1797     1   109.7800468 425.094400
   1792   1791   3624     1   109.7800468 425.094400
   1792   1791   1793     1   108.4600466 328.025600
   1793   1791   3624     1   109.7800468 425.094400
   1795   1794   3653     1   109.7800468 425.094400
   1795   1794   1796     1   108.4600466 328.025600
   1796   1794   3653     1   109.7800468 425.094400
   1798   1799   1800     1   109.8800469 414.216000
   1798   1799   1801     1   109.8800469 414.216000
   1798   1802   1803     1   109.8800469 414.216000
   1798   1802   1804     1   109.8800469 414.216000
   1798   1805   1806     1   109.8800469 414.216000
   1798   1805   1807     1   109.8800469 414.216000
   1799   1811   1812     1   109.8000471 387.438400
   1799   1811   1813     1   109.8000471 387.438400
   1800   1799   1811     1   109.5600471 388.275200
   1800   1799   1801     1   108.4600466 328.025600
   1801   1799   1811     1   109.5600471 388.275200
   1802   1814   1815     1   109.8000471 387.438400
   1802   1814   1816     1   109.8000471 387.438400
   1803   1802   1814     1   109.5600471 388.275200
   1803   1802   1804     1   108.4600466 328.025600
   1804   1802   1814     1   109.5600471 388.275200
   1805   1808   1809     1   109.8000471 387.438400
   1805   1808   1810     1   109.8000471 387.438400
   1806   1805   1808     1   109.5600471 388.275200
   1806   1805   1807     1   108.4600466 328.025600
   1807   1805   1808     1   109.5600471 388.275200
   1808   1817   1818     1   109.5600471 388.275200
   1808   1817   1819     1   109.5600471 388.275200
   1809   1808   1817     1   109.8000471 387.438400
   1809   1808   1810     1   107.5800459 329.699200
   1810   1808   1817     1   109.8000471 387.438400
   1811   1823   1824     1   109.5600471 388.275200
   1811   1823   1825     1   109.5600471 388.275200
   1812   1811   1823     1   109.8000471 387.438400
   1812   1811   1813     1   107.5800459 329.699200
   1813   1811   1823     1   109.8000471 387.438400
   1814   1820   1821     1   109.5600471 388.275200
   1814   1820   1822     1   109.5600471 388.275200
   1815   1814   1820     1   109.8000471 387.438400
   1815   1814   1816     1   107.5800459 329.699200
   1816   1814   1820     1   109.8000471 387.438400
   1818   1817   1826     1   109.7800468 425.094400
   1818   1817   1819     1   108.4600466 328.025600
   1819   1817   1826     1   109.7800468 425.094400
   1821   1820   3682     1   109.7800468 425.094400
   1821   1820   1822     1   108.4600466 328.025600
   1822   1820   3682     1   109.7800468 425.094400
   1824   1823   3711     1   109.7800468 425.094400
   1824   1823   1825     1   108.4600466 328.025600
   1825   1823   3711     1   109.7800468 425.094400
   1827   1828   1829     1   109.8800469 414.216000
   1827   1828   1830     1   109.8800469 414.216000
   1827   1831   1832     1   109.8800469 414.216000
   1827   1831   1833     1   109.8800469 414.216000
   1827   1834   1835     1   109.8800469 414.216000
   1827   1834   1836     1   109.8800469 414.216000
   1828   1840   1841     1   109.8000471 387.438400
   1828   1840   1842     1   109.8000471 387.438400
   1829   1828   1840     1   109.5600471 388.275200
   1829   1828   1830     1   108.4600466 328.025600
   1830   1828   1840     1   109.5600471 388.275200
   1831   1843   1844     1   109.8000471 387.438400
   1831   1843   1845     1   109.8000471 387.438400
   1832   1831   1843     1   109.5600471 388.275200
   1832   1831   1833     1   108.4600466 328.025600
   1833   1831   1843     1   109.5600471 388.275200
   1834   1837   1838     1   109.8000471 387.438400
   1834   1837   1839     1   109.8000471 387.438400
   1835   1834   1837     1   109.5600471 388.275200
   1835   1834   1836     1   108.4600466 328.025600
   1836   1834   1837     1   109.5600471 388.275200
   1837   1846   1847     1   109.5600471 388.275200
   1837   1846   1848     1   109.5600471 388.275200
   1838   1837   1846     1   109.8000471 387.438400
   1838   1837   1839     1   107.5800459 329.699200
   1839   1837   1846     1   109.8000471 387.438400
   1840   1852   1853     1   109.5600471 388.275200
   1840   1852   1854     1   109.5600471 388.275200
   1841   1840   1852     1   109.8000471 387.438400
   1841   1840   1842     1   107.5800459 329.699200
   1842   1840   1852     1   109.8000471 387.438400
   1843   1849   1850     1   109.5600471 388.275200
   1843   1849   1851     1   109.5600471 388.275200
   1844   1843   1849     1   109.8000471 387.438400
   1844   1843   1845     1   107.5800459 329.699200
   1845   1843   1849     1   109.8000471 387.438400
   1847   1846   1855     1   109.7800468 425.094400
   1847   1846   1848     1   108.4600466 328.025600
   1848   1846   1855     1   109.7800468 425.094400
   1850   1849   3740     1   109.7800468 425.094400
   1850   1849   1851     1   108.4600466 328.025600
   1851   1849   3740     1   109.7800468 425.094400
   1853   1852   3769     1   109.7800468 425.094400
   1853   1852   1854     1   108.4600466 328.025600
   1854   1852   3769     1   109.7800468 425.094400
   1856   1857   1858     1   109.8800469 414.216000
   1856   1857   1859     1   109.8800469 414.216000
   1856   1860   1861     1   109.8800469 414.216000
   1856   1860   1862     1   109.8800469 414.216000
   1856   1863   1864     1   109.8800469 414.216000
   1856   1863   1865     1   109.8800469 414.216000
   1857   1869   1870     1   109.8000471 387.438400
   1857   1869   1871     1   109.8000471 387.438400
   1858   1857   1869     1   109.5600471 388.275200
   1858   1857   1859     1   108.4600466 328.025600
   1859   1857   1869     1   109.5600471 388.275200
   1860   1872   1873     1   109.8000471 387.438400
   1860   1872   1874     1   109.8000471 387.438400
   1861   1860   1872     1   109.5600471 388.275200
   1861   1860   1862     1   108.4600466 328.025600
   1862   1860   1872     1   109.5600471 388.275200
   1863   1866   1867     1   109.8000471 387.438400
   1863   1866   1868     1   109.8000471 387.438400
   1864   1863   1866     1   109.5600471 388.275200
   1864   1863   1865     1   108.4600466 328.025600
   1865   1863   1866     1   109.5600471 388.275200
   1866   1875   1876     1   109.5600471 388.275200
   1866   1875   1877     1   109.5600471 388.275200
   1867   1866   1875     1   109.8000471 387.438400
   1867   1866   1868     1   107.5800459 329.699200
   1868   1866   1875     1   109.8000471 387.438400
   1869   1881   1882     1   109.5600471 388.275200
   1869   1881   1883     1   109.5600471 388.275200
   1870   1869   1881     1   109.8000471 387.438400
   1870   1869   1871     1   107.5800459 329.699200
   1871   1869   1881     1   109.8000471 387.438400
   1872   1878   1879     1   109.5600471 388.275200
   1872   1878   1880     1   109.5600471 388.275200
   1873   1872   1878     1   109.8000471 387.438400
   1873   1872   1874     1   107.5800459 329.699200
   1874   1872   1878     1   109.8000471 387.438400
   1876   1875   1884     1   109.7800468 425.094400
   1876   1875   1877     1   108.4600466 328.025600
   1877   1875   1884     1   109.7800468 425.094400
   1879   1878   3798     1   109.7800468 425.094400
   1879   1878   1880     1   108.4600466 328.025600
   1880   1878   3798     1   109.7800468 425.094400
   1882   1881   3827     1   109.7800468 425.094400
   1882   1881   1883     1   108.4600466 328.025600
   1883   1881   3827     1   109.7800468 425.094400
   1885   1886   1887     1   109.8800469 414.216000
   1885   1886   1888     1   109.8800469 414.216000
   1885   1889   1890     1   109.8800469 414.216000
   1885   1889   1891     1   109.8800469 414.216000
   1885   1892   1893     1   109.8800469 414.216000
   1885   1892   1894     1   109.8800469 414.216000
   1886   1898   1899     1   109.8000471 387.438400
   1886   1898   1900     1   109.8000471 387.438400
   1887   1886   1898     1   109.5600471 388.275200
   1887   1886   1888     1   108.4600466 328.025600
   1888   1886   1898     1   109.5600471 388.275200
   1889   1901   1902     1   109.8000471 387.438400
   1889   1901   1903     1   109.8000471 387.438400
   1890   1889   1901     1   109.5600471 388.275200
   1890   1889   1891     1   108.4600466 328.025600
   1891   1889   1901     1   109.5600471 388.275200
   1892   1895   1896     1   109.8000471 387.438400
   1892   1895   1897     1   109.8000471 387.438400
   1893   1892   1895     1   109.5600471 388.275200
   1893   1892   1894     1   108.4600466 328.025600
   1894   1892   1895     1   109.5600471 388.275200
   1895   1904   1905     1   109.5600471 388.275200
   1895   1904   1906     1   109.5600471 388.275200
   1896   1895   1904     1   109.8000471 387.438400
   1896   1895   1897     1   107.5800459 329.699200
   1897   1895   1904     1   109.8000471 387.438400
   1898   1910   1911     1   109.5600471 388.275200
   1898   1910   1912     1   109.5600471 388.275200
   1899   1898   1910     1   109.8000471 387.438400
   1899   1898   1900     1   107.5800459 329.699200
   1900   1898   1910     1   109.8000471 387.438400
   1901   1907   1908     1   109.5600471 388.275200
   1901   1907   1909     1   109.5600471 388.275200
   1902   1901   1907     1   109.8000471 387.438400
   1902   1901   1903     1   107.5800459 329.699200
   1903   1901   1907     1   109.8000471 387.438400
   1905   1904   1913     1   109.7800468 425.094400
   1905   1904   1906     1   108.4600466 328.025600
   1906   1904   1913     1   109.7800468 425.094400
   1908   1907   3856     1   109.7800468 425.094400
   1908   1907   1909     1   108.4600466 328.025600
   1909   1907   3856     1   109.7800468 425.094400
   1911   1910   3885     1   109.7800468 425.094400
   1911   1910   1912     1   108.4600466 328.025600
   1912   1910   3885     1   109.7800468 425.094400
   1914   1915   1916     1   109.8800469 414.216000
   1914   1915   1917     1   109.8800469 414.216000
   1914   1918   1919     1   109.8800469 414.216000
   1914   1918   1920     1   109.8800469 414.216000
   1914   1921   1922     1   109.8800469 414.216000
   1914   1921   1923     1   109.8800469 414.216000
   1915   1927   1928     1   109.8000471 387.438400
   1915   1927   1929     1   109.8000471 387.438400
   1916   1915   1927     1   109.5600471 388.275200
   1916   1915   1917     1   108.4600466 328.025600
   1917   1915   1927     1   109.5600471 388.275200
   1918   1930   1931     1   109.8000471 387.438400
   1918   1930   1932     1   109.8000471 387.438400
   1919   1918   1930     1   109.5600471 388.275200
   1919   1918   1920     1   108.4600466 328.025600
   1920   1918   1930     1   109.5600471 388.275200
   1921   1924   1925     1   109.8000471 387.438400
   1921   1924   1926     1   109.8000471 387.438400
   1922   1921   1924     1   109.5600471 388.275200
   1922   1921   1923     1   108.4600466 328.025600
   1923   1921   1924     1   109.5600471 388.275200
   1924   1933   1934     1   109.5600471 388.275200
   1924   1933   1935     1   109.5600471 388.275200
   1925   1924   1933     1   109.8000471 387.438400
   1925   1924   1926     1   107.5800459 329.699200
   1926   1924   1933     1   109.8000471 387.438400
   1927   1939   1940     1   109.5600471 388.275200
   1927   1939   1941     1   109.5600471 388.275200
   1928   1927   1939     1   109.8000471 387.438400
   1928   1927   1929     1   107.5800459 329.699200
   1929   1927   1939     1   109.8000471 387.438400
   1930   1936   1937     1   109.5600471 388.275200
   1930   1936   1938     1   109.5600471 388.275200
   1931   1930   1936     1   109.8000471 387.438400
   1931   1930   1932     1   107.5800459 329.699200
   1932   1930   1936     1   109.8000471 387.438400
   1934   1933   1942     1   109.7800468 425.094400
   1934   1933   1935     1   108.4600466 328.025600
   1935   1933   1942     1   109.7800468 425.094400
   1937   1936   3914     1   109.7800468 425.094400
   1937   1936   1938     1   108.4600466 328.025600
   1938   1936   3914     1   109.7800468 425.094400
   1940   1939   3943     1   109.7800468 425.094400
   1940   1939   1941     1   108.4600466 328.025600
   1941   1939   3943     1   109.7800468 425.094400
   1943   1944   1945     1   109.8800469 414.216000
   1943   1944   1946     1   109.8800469 414.216000
   1943   1947   1948     1   109.8800469 414.216000
   1943   1947   1949     1   109.8800469 414.216000
   1943   1950   1951     1   109.8800469 414.216000
   1943   1950   1952     1   109.8800469 414.216000
   1944   1956   1957     1   109.8000471 387.438400
   1944   1956   1958     1   109.8000471 387.438400
   1945   1944   1956     1   109.5600471 388.275200
   1945   1944   1946     1   108.4600466 328.025600
   1946   1944   1956     1   109.5600471 388.275200
   1947   1959   1960     1   109.8000471 387.438400
   1947   1959   1961     1   109.8000471 387.438400
   1948   1947   1959     1   109.5600471 388.275200
   1948   1947   1949     1   108.4600466 328.025600
   1949   1947   1959     1   109.5600471 388.275200
   1950   1953   1954     1   109.8000471 387.438400
   1950   1953   1955     1   109.8000471 387.438400
   1951   1950   1953     1   109.5600471 388.275200
   1951   1950   1952     1   108.4600466 328.025600
   1952   1950   1953     1   109.5600471 388.275200
   1953   1962   1963     1   109.5600471 388.275200
   1953   1962   1964     1   109.5600471 388.275200
   1954   1953   1962     1   109.8000471 387.438400
   1954   1953   1955     1   107.5800459 329.699200
   1955   1953   1962     1   109.8000471 387.438400
   1956   1968   1969     1   109.5600471 388.275200
   1956   1968   1970     1   109.5600471 388.275200
   1957   1956   1968     1   109.8000471 387.438400
   1957   1956   1958     1   107.5800459 329.699200
   1958   1956   1968     1   109.8000471 387.438400
   1959   1965   1966     1   109.5600471 388.275200
   1959   1965   1967     1   109.5600471 388.275200
   1960   1959   1965     1   109.8000471 387.438400
   1960   1959   1961     1   107.5800459 329.699200
   1961   1959   1965     1   109.8000471 387.438400
   1963   1962   1971     1   109.7800468 425.094400
   1963   1962   1964     1   108.4600466 328.025600
   1964   1962   1971     1   109.7800468 425.094400
   1966   1965   3972     1   109.7800468 425.094400
   1966   1965   1967     1   108.4600466 328.025600
   1967   1965   3972     1   109.7800468 425.094400
   1969   1968   4001     1   109.7800468 425.094400
   1969   1968   1970     1   108.4600466 328.025600
   1970   1968   4001     1   109.7800468 425.094400
   1972   1973   1974     1   109.8800469 414.216000
   1972   1973   1975     1   109.8800469 414.216000
   1972   1976   1977     1   109.8800469 414.216000
   1972   1976   1978     1   109.8800469 414.216000
   1972   1979   1980     1   109.8800469 414.216000
   1972   1979   1981     1   109.8800469 414.216000
   1973   1985   1986     1   109.8000471 387.438400
   1973   1985   1987     1   109.8000471 387.438400
   1974   1973   1985     1   109.5600471 388.275200
   1974   1973   1975     1   108.4600466 328.025600
   1975   1973   1985     1   109.5600471 388.275200
   1976   1988   1989     1   109.8000471 387.438400
   1976   1988   1990     1   109.8000471 387.438400
   1977   1976   1988     1   109.5600471 388.275200
   1977   1976   1978     1   108.4600466 328.025600
   1978   1976   1988     1   109.5600471 388.275200
   1979   1982   1983     1   109.8000471 387.438400
   1979   1982   1984     1   109.8000471 387.438400
   1980   1979   1982     1   109.5600471 388.275200
   1980   1979   1981     1   108.4600466 328.025600
   1981   1979   1982     1   109.5600471 388.275200
   1982   1991   1992     1   109.5600471 388.275200
   1982   1991   1993     1   109.5600471 388.275200
   1983   1982   1991     1   109.8000471 387.438400
   1983   1982   1984     1   107.5800459 329.699200
   1984   1982   1991     1   109.8000471 387.438400
   1985   1997   1998     1   109.5600471 388.275200
   1985   1997   1999     1   109.5600471 388.275200
   1986   1985   1997     1   109.8000471 387.438400
   1986   1985   1987     1   107.5800459 329.699200
   1987   1985   1997     1   109.8000471 387.438400
   1988   1994   1995     1   109.5600471 388.275200
   1988   1994   1996     1   109.5600471 388.275200
   1989   1988   1994     1   109.8000471 387.438400
   1989   1988   1990     1   107.5800459 329.699200
   1990   1988   1994     1   109.8000471 387.438400
   1992   1991   2000     1   109.7800468 425.094400
   1992   1991   1993     1   108.4600466 328.025600
   1993   1991   2000     1   109.7800468 425.094400
   1995   1994   4030     1   109.7800468 425.094400
   1995   1994   1996     1   108.4600466 328.025600
   1996   1994   4030     1   109.7800468 425.094400
   1998   1997   4059     1   109.7800468 425.094400
   1998   1997   1999     1   108.4600466 328.025600
   1999   1997   4059     1   109.7800468 425.094400
   2001   2002   2003     1   109.8800469 414.216000
   2001   2002   2004     1   109.8800469 414.216000
   2001   2005   2006     1   109.8800469 414.216000
   2001   2005   2007     1   109.8800469 414.216000
   2001   2008   2009     1   109.8800469 414.216000
   2001   2008   2010     1   109.8800469 414.216000
   2002   2014   2015     1   109.8000471 387.438400
   2002   2014   2016     1   109.8000471 387.438400
   2003   2002   2014     1   109.5600471 388.275200
   2003   2002   2004     1   108.4600466 328.025600
   2004   2002   2014     1   109.5600471 388.275200
   2005   2017   2018     1   109.8000471 387.438400
   2005   2017   2019     1   109.8000471 387.438400
   2006   2005   2017     1   109.5600471 388.275200
   2006   2005   2007     1   108.4600466 328.025600
   2007   2005   2017     1   109.5600471 388.275200
   2008   2011   2012     1   109.8000471 387.438400
   2008   2011   2013     1   109.8000471 387.438400
   2009   2008   2011     1   109.5600471 388.275200
   2009   2008   2010     1   108.4600466 328.025600
   2010   2008   2011     1   109.5600471 388.275200
   2011   2020   2021     1   109.5600471 388.275200
   2011   2020   2022     1   109.5600471 388.275200
   2012   2011   2020     1   109.8000471 387.438400
   2012   2011   2013     1   107.5800459 329.699200
   2013   2011   2020     1   109.8000471 387.438400
   2014   2026   2027     1   109.5600471 388.275200
   2014   2026   2028     1   109.5600471 388.275200
   2015   2014   2026     1   109.8000471 387.438400
   2015   2014   2016     1   107.5800459 329.699200
   2016   2014   2026     1   109.8000471 387.438400
   2017   2023   2024     1   109.5600471 388.275200
   2017   2023   2025     1   109.5600471 388.275200
   2018   2017   2023     1   109.8000471 387.438400
   2018   2017   2019     1   107.5800459 329.699200
   2019   2017   2023     1   109.8000471 387.438400
   2021   2020   2029     1   109.7800468 425.094400
   2021   2020   2022     1   108.4600466 328.025600
   2022   2020   2029     1   109.7800468 425.094400
   2024   2023   4088     1   109.7800468 425.094400
   2024   2023   2025     1   108.4600466 328.025600
   2025   2023   4088     1   109.7800468 425.094400
   2027   2026   4117     1   109.7800468 425.094400
   2027   2026   2028     1   108.4600466 328.025600
   2028   2026   4117     1   109.7800468 425.094400
   2030   2031   2032     1   109.8800469 414.216000
   2030   2031   2033     1   109.8800469 414.216000
   2030   2034   2035     1   109.8800469 414.216000
   2030   2034   2036     1   109.8800469 414.216000
   2030   2037   2038     1   109.8800469 414.216000
   2030   2037   2039     1   109.8800469 414.216000
   2031   2043   2044     1   109.8000471 387.438400
   2031   2043   2045     1   109.8000471 387.438400
   2032   2031   2043     1   109.5600471 388.275200
   2032   2031   2033     1   108.4600466 328.025600
   2033   2031   2043     1   109.5600471 388.275200
   2034   2046   2047     1   109.8000471 387.438400
   2034   2046   2048     1   109.8000471 387.438400
   2035   2034   2046     1   109.5600471 388.275200
   2035   2034   2036     1   108.4600466 328.025600
   2036   2034   2046     1   109.5600471 388.275200
   2037   2040   2041     1   109.8000471 387.438400
   2037   2040   2042     1   109.8000471 387.438400
   2038   2037   2040     1   109.5600471 388.275200
   2038   2037   2039     1   108.4600466 328.025600
   2039   2037   2040     1   109.5600471 388.275200
   2040   2049   2050     1   109.5600471 388.275200
   2040   2049   2051     1   109.5600471 388.275200
   2041   2040   2049     1   109.8000471 387.438400
   2041   2040   2042     1   107.5800459 329.699200
   2042   2040   2049     1   109.8000471 387.438400
   2043   2055   2056     1   109.5600471 388.275200
   2043   2055   2057     1   109.5600471 388.275200
   2044   2043   2055     1   109.8000471 387.438400
   2044   2043   2045     1   107.5800459 329.699200
   2045   2043   2055     1   109.8000471 387.438400
   2046   2052   2053     1   109.5600471 388.275200
   2046   2052   2054     1   109.5600471 388.275200
   2047   2046   2052     1   109.8000471 387.438400
   2047   2046   2048     1   107.5800459 329.699200
   2048   2046   2052     1   109.8000471 387.438400
   2050   2049   2058     1   109.7800468 425.094400
   2050   2049   2051     1   108.4600466 328.025600
   2051   2049   2058     1   109.7800468 425.094400
   2053   2052   4146     1   109.7800468 425.094400
   2053   2052   2054     1   108.4600466 328.025600
   2054   2052   4146     1   109.7800468 425.094400
   2056   2055   4175     1   109.7800468 425.094400
   2056   2055   2057     1   108.4600466 328.025600
   2057   2055   4175     1   109.7800468 425.094400
   2059   2060   2061     1   109.8800469 414.216000
   2059   2060   2062     1   109.8800469 414.216000
   2059   2063   2064     1   109.8800469 414.216000
   2059   2063   2065     1   109.8800469 414.216000
   2059   2066   2067     1   109.8800469 414.216000
   2059   2066   2068     1   109.8800469 414.216000
   2060   2072   2073     1   109.8000471 387.438400
   2060   2072   2074     1   109.8000471 387.438400
   2061   2060   2072     1   109.5600471 388.275200
   2061   2060   2062     1   108.4600466 328.025600
   2062   2060   2072     1   109.5600471 388.275200
   2063   2075   2076     1   109.8000471 387.438400
   2063   2075   2077     1   109.8000471 387.438400
   2064   2063   2075     1   109.5600471 388.275200
   2064   2063   2065     1   108.4600466 328.025600
   2065   2063   2075     1   109.5600471 388.275200
   2066   2069   2070     1   109.8000471 387.438400
   2066   2069   2071     1   109.8000471 387.438400
   2067   2066   2069     1   109.5600471 388.275200
   2067   2066   2068     1   108.4600466 328.025600
   2068   2066   2069     1   109.5600471 388.275200
   2069   2078   2079     1   109.5600471 388.275200
   2069   2078   2080     1   109.5600471 388.275200
   2070   2069   2078     1   109.8000471 387.438400
   2070   2069   2071     1   107.5800459 329.699200
   2071   2069   2078     1   109.8000471 387.438400
   2072   2084   2085     1   109.5600471 388.275200
   2072   2084   2086     1   109.5600471 388.275200
   2073   2072   2084     1   109.8000471 387.438400
   2073   2072   2074     1   107.5800459 329.699200
   2074   2072   2084     1   109.8000471 387.438400
   2075   2081   2082     1   109.5600471 388.275200
   2075   2081   2083     1   109.5600471 388.275200
   2076   2075   2081     1   109.8000471 387.438400
   2076   2075   2077     1   107.5800459 329.699200
   2077   2075   2081     1   109.8000471 387.438400
   2079   2078   2087     1   109.7800468 425.094400
   2079   2078   2080     1   108.4600466 328.025600
   2080   2078   2087     1   109.7800468 425.094400
   2082   2081   4204     1   109.7800468 425.094400
   2082   2081   2083     1   108.4600466 328.025600
   2083   2081   4204     1   109.7800468 425.094400
   2085   2084   4233     1   109.7800468 425.094400
   2085   2084   2086     1   108.4600466 328.025600
   2086   2084   4233     1   109.7800468 425.094400
   2088   2089   2090     1   109.8800469 414.216000
   2088   2089   2091     1   109.8800469 414.216000
   2088   2092   2093     1   109.8800469 414.216000
   2088   2092   2094     1   109.8800469 414.216000
   2088   2095   2096     1   109.8800469 414.216000
   2088   2095   2097     1   109.8800469 414.216000
   2089   2101   2102     1   109.8000471 387.438400
   2089   2101   2103     1   109.8000471 387.438400
   2090   2089   2101     1   109.5600471 388.275200
   2090   2089   2091     1   108.4600466 328.025600
   2091   2089   2101     1   109.5600471 388.275200
   2092   2104   2105     1   109.8000471 387.438400
   2092   2104   2106     1   109.8000471 387.438400
   2093   2092   2104     1   109.5600471 388.275200
   2093   2092   2094     1   108.4600466 328.025600
   2094   2092   2104     1   109.5600471 388.275200
   2095   2098   2099     1   109.8000471 387.438400
   2095   2098   2100     1   109.8000471 387.438400
   2096   2095   2098     1   109.5600471 388.275200
   2096   2095   2097     1   108.4600466 328.025600
   2097   2095   2098     1   109.5600471 388.275200
   2098   2107   2108     1   109.5600471 388.275200
   2098   2107   2109     1   109.5600471 388.275200
   2099   2098   2107     1   109.8000471 387.438400
   2099   2098   2100     1   107.5800459 329.699200
   2100   2098   2107     1   109.8000471 387.438400
   2101   2113   2114     1   109.5600471 388.275200
   2101   2113   2115     1   109.5600471 388.275200
   2102   2101   2113     1   109.8000471 387.438400
   2102   2101   2103     1   107.5800459 329.699200
   2103   2101   2113     1   109.8000471 387.438400
   2104   2110   2111     1   109.5600471 388.275200
   2104   2110   2112     1   109.5600471 388.275200
   2105   2104   2110     1   109.8000471 387.438400
   2105   2104   2106     1   107.5800459 329.699200
   2106   2104   2110     1   109.8000471 387.438400
   2108   2107   2116     1   109.7800468 425.094400
   2108   2107   2109     1   108.4600466 328.025600
   2109   2107   2116     1   109.7800468 425.094400
   2111   2110   4262     1   109.7800468 425.094400
   2111   2110   2112     1   108.4600466 328.025600
   2112   2110   4262     1   109.7800468 425.094400
   2114   2113   4291     1   109.7800468 425.094400
   2114   2113   2115     1   108.4600466 328.025600
   2115   2113   4291     1   109.7800468 425.094400
   2117   2118   2119     1   109.8800469 414.216000
   2117   2118   2120     1   109.8800469 414.216000
   2117   2121   2122     1   109.8800469 414.216000
   2117   2121   2123     1   109.8800469 414.216000
   2117   2124   2125     1   109.8800469 414.216000
   2117   2124   2126     1   109.8800469 414.216000
   2118   2130   2131     1   109.8000471 387.438400
   2118   2130   2132     1   109.8000471 387.438400
   2119   2118   2130     1   109.5600471 388.275200
   2119   2118   2120     1   108.4600466 328.025600
   2120   2118   2130     1   109.5600471 388.275200
   2121   2133   2134     1   109.8000471 387.438400
   2121   2133   2135     1   109.8000471 387.438400
   2122   2121   2133     1   109.5600471 388.275200
   2122   2121   2123     1   108.4600466 328.025600
   2123   2121   2133     1   109.5600471 388.275200
   2124   2127   2128     1   109.8000471 387.438400
   2124   2127   2129     1   109.8000471 387.438400
   2125   2124   2127     1   109.5600471 388.275200
   2125   2124   2126     1   108.4600466 328.025600
   2126   2124   2127     1   109.5600471 388.275200
   2127   2136   2137     1   109.5600471 388.275200
   2127   2136   2138     1   109.5600471 388.275200
   2128   2127   2136     1   109.8000471 387.438400
   2128   2127   2129     1   107.5800459 329.699200
   2129   2127   2136     1   109.8000471 387.438400
   2130   2142   2143     1   109.5600471 388.275200
   2130   2142   2144     1   109.5600471 388.275200
   2131   2130   2142     1   109.8000471 387.438400
   2131   2130   2132     1   107.5800459 329.699200
   2132   2130   2142     1   109.8000471 387.438400
   2133   2139   2140     1   109.5600471 388.275200
   2133   2139   2141     1   109.5600471 388.275200
   2134   2133   2139     1   109.8000471 387.438400
   2134   2133   2135     1   107.5800459 329.699200
   2135   2133   2139     1   109.8000471 387.438400
   2137   2136   2145     1   109.7800468 425.094400
   2137   2136   2138     1   108.4600466 328.025600
   2138   2136   2145     1   109.7800468 425.094400
   2140   2139   4320     1   109.7800468 425.094400
   2140   2139   2141     1   108.4600466 328.025600
   2141   2139   4320     1   109.7800468 425.094400
   2143   2142   4349     1   109.7800468 425.094400
   2143   2142   2144     1   108.4600466 328.025600
   2144   2142   4349     1   109.7800468 425.094400
   2146   2147   2148     1   109.8800469 414.216000
   2146   2147   2149     1   109.8800469 414.216000
   2146   2150   2151     1   109.8800469 414.216000
   2146   2150   2152     1   109.8800469 414.216000
   2146   2153   2154     1   109.8800469 414.216000
   2146   2153   2155     1   109.8800469 414.216000
   2147   2159   2160     1   109.8000471 387.438400
   2147   2159   2161     1   109.8000471 387.438400
   2148   2147   2159     1   109.5600471 388.275200
   2148   2147   2149     1   108.4600466 328.025600
   2149   2147   2159     1   109.5600471 388.275200
   2150   2162   2163     1   109.8000471 387.438400
   2150   2162   2164     1   109.8000471 387.438400
   2151   2150   2162     1   109.5600471 388.275200
   2151   2150   2152     1   108.4600466 328.025600
   2152   2150   2162     1   109.5600471 388.275200
   2153   2156   2157     1   109.8000471 387.438400
   2153   2156   2158     1   109.8000471 387.438400
   2154   2153   2156     1   109.5600471 388.275200
   2154   2153   2155     1   108.4600466 328.025600
   2155   2153   2156     1   109.5600471 388.275200
   2156   2165   2166     1   109.5600471 388.275200
   2156   2165   2167     1   109.5600471 388.275200
   2157   2156   2165     1   109.8000471 387.438400
   2157   2156   2158     1   107.5800459 329.699200
   2158   2156   2165     1   109.8000471 387.438400
   2159   2171   2172     1   109.5600471 388.275200
   2159   2171   2173     1   109.5600471 388.275200
   2160   2159   2171     1   109.8000471 387.438400
   2160   2159   2161     1   107.5800459 329.699200
   2161   2159   2171     1   109.8000471 387.438400
   2162   2168   2169     1   109.5600471 388.275200
   2162   2168   2170     1   109.5600471 388.275200
   2163   2162   2168     1   109.8000471 387.438400
   2163   2162   2164     1   107.5800459 329.699200
   2164   2162   2168     1   109.8000471 387.438400
   2166   2165   2174     1   109.7800468 425.094400
   2166   2165   2167     1   108.4600466 328.025600
   2167   2165   2174     1   109.7800468 425.094400
   2169   2168   4378     1   109.7800468 425.094400
   2169   2168   2170     1   108.4600466 328.025600
   2170   2168   4378     1   109.7800468 425.094400
   2172   2171   4407     1   109.7800468 425.094400
   2172   2171   2173     1   108.4600466 328.025600
   2173   2171   4407     1   109.7800468 425.094400
   2175   2176   2177     1   109.8800469 414.216000
   2175   2176   2178     1   109.8800469 414.216000
   2175   2179   2180     1   109.8800469 414.216000
   2175   2179   2181     1   109.8800469 414.216000
   2175   2182   2183     1   109.8800469 414.216000
   2175   2182   2184     1   109.8800469 414.216000
   2176   2188   2189     1   109.8000471 387.438400
   2176   2188   2190     1   109.8000471 387.438400
   2177   2176   2188     1   109.5600471 388.275200
   2177   2176   2178     1   108.4600466 328.025600
   2178   2176   2188     1   109.5600471 388.275200
   2179   2191   2192     1   109.8000471 387.438400
   2179   2191   2193     1   109.8000471 387.438400
   2180   2179   2191     1   109.5600471 388.275200
   2180   2179   2181     1   108.4600466 328.025600
   2181   2179   2191     1   109.5600471 388.275200
   2182   2185   2186     1   109.8000471 387.438400
   2182   2185   2187     1   109.8000471 387.438400
   2183   2182   2185     1   109.5600471 388.275200
   2183   2182   2184     1   108.4600466 328.025600
   2184   2182   2185     1   109.5600471 388.275200
   2185   2194   2195     1   109.5600471 388.275200
   2185   2194   2196     1   109.5600471 388.275200
   2186   2185   2194     1   109.8000471 387.438400
   2186   2185   2187     1   107.5800459 329.699200
   2187   2185   2194     1   109.8000471 387.438400
   2188   2200   2201     1   109.5600471 388.275200
   2188   2200   2202     1   109.5600471 388.275200
   2189   2188   2200     1   109.8000471 387.438400
   2189   2188   2190     1   107.5800459 329.699200
   2190   2188   2200     1   109.8000471 387.438400
   2191   2197   2198     1   109.5600471 388.275200
   2191   2197   2199     1   109.5600471 388.275200
   2192   2191   2197     1   109.8000471 387.438400
   2192   2191   2193     1   107.5800459 329.699200
   2193   2191   2197     1   109.8000471 387.438400
   2195   2194   2203     1   109.7800468 425.094400
   2195   2194   2196     1   108.4600466 328.025600
   2196   2194   2203     1   109.7800468 425.094400
   2198   2197   4436     1   109.7800468 425.094400
   2198   2197   2199     1   108.4600466 328.025600
   2199   2197   4436     1   109.7800468 425.094400
   2201   2200   4465     1   109.7800468 425.094400
   2201   2200   2202     1   108.4600466 328.025600
   2202   2200   4465     1   109.7800468 425.094400
   2204   2205   2206     1   109.8800469 414.216000
   2204   2205   2207     1   109.8800469 414.216000
   2204   2208   2209     1   109.8800469 414.216000
   2204   2208   2210     1   109.8800469 414.216000
   2204   2211   2212     1   109.8800469 414.216000
   2204   2211   2213     1   109.8800469 414.216000
   2205   2217   2218     1   109.8000471 387.438400
   2205   2217   2219     1   109.8000471 387.438400
   2206   2205   2217     1   109.5600471 388.275200
   2206   2205   2207     1   108.4600466 328.025600
   2207   2205   2217     1   109.5600471 388.275200
   2208   2220   2221     1   109.8000471 387.438400
   2208   2220   2222     1   109.8000471 387.438400
   2209   2208   2220     1   109.5600471 388.275200
   2209   2208   2210     1   108.4600466 328.025600
   2210   2208   2220     1   109.5600471 388.275200
   2211   2214   2215     1   109.8000471 387.438400
   2211   2214   2216     1   109.8000471 387.438400
   2212   2211   2214     1   109.5600471 388.275200
   2212   2211   2213     1   108.4600466 328.025600
   2213   2211   2214     1   109.5600471 388.275200
   2214   2223   2224     1   109.5600471 388.275200
   2214   2223   2225     1   109.5600471 388.275200
   2215   2214   2223     1   109.8000471 387.438400
   2215   2214   2216     1   107.5800459 329.699200
   2216   2214   2223     1   109.8000471 387.438400
   2217   2229   2230     1   109.5600471 388.275200
   2217   2229   2231     1   109.5600471 388.275200
   2218   2217   2229     1   109.8000471 387.438400
   2218   2217   2219     1   107.5800459 329.699200
   2219   2217   2229     1   109.8000471 387.438400
   2220   2226   2227     1   109.5600471 388.275200
   2220   2226   2228     1   109.5600471 388.275200
   2221   2220   2226     1   109.8000471 387.438400
   2221   2220   2222     1   107.5800459 329.699200
   2222   2220   2226     1   109.8000471 387.438400
   2224   2223   2232     1   109.7800468 425.094400
   2224   2223   2225     1   108.4600466 328.025600
   2225   2223   2232     1   109.7800468 425.094400
   2227   2226   4494     1   109.7800468 425.094400
   2227   2226   2228     1   108.4600466 328.025600
   2228   2226   4494     1   109.7800468 425.094400
   2230   2229   4523     1   109.7800468 425.094400
   2230   2229   2231     1   108.4600466 328.025600
   2231   2229   4523     1   109.7800468 425.094400
   2233   2234   2235     1   109.8800469 414.216000
   2233   2234   2236     1   109.8800469 414.216000
   2233   2237   2238     1   109.8800469 414.216000
   2233   2237   2239     1   109.8800469 414.216000
   2233   2240   2241     1   109.8800469 414.216000
   2233   2240   2242     1   109.8800469 414.216000
   2234   2246   2247     1   109.8000471 387.438400
   2234   2246   2248     1   109.8000471 387.438400
   2235   2234   2246     1   109.5600471 388.275200
   2235   2234   2236     1   108.4600466 328.025600
   2236   2234   2246     1   109.5600471 388.275200
   2237   2249   2250     1   109.8000471 387.438400
   2237   2249   2251     1   109.8000471 387.438400
   2238   2237   2249     1   109.5600471 388.275200
   2238   2237   2239     1   108.4600466 328.025600
   2239   2237   2249     1   109.5600471 388.275200
   2240   2243   2244     1   109.8000471 387.438400
   2240   2243   2245     1   109.8000471 387.438400
   2241   2240   2243     1   109.5600471 388.275200
   2241   2240   2242     1   108.4600466 328.025600
   2242   2240   2243     1   109.5600471 388.275200
   2243   2252   2253     1   109.5600471 388.275200
   2243   2252   2254     1   109.5600471 388.275200
   2244   2243   2252     1   109.8000471 387.438400
   2244   2243   2245     1   107.5800459 329.699200
   2245   2243   2252     1   109.8000471 387.438400
   2246   2258   2259     1   109.5600471 388.275200
   2246   2258   2260     1   109.5600471 388.275200
   2247   2246   2258     1   109.8000471 387.438400
   2247   2246   2248     1   107.5800459 329.699200
   2248   2246   2258     1   109.8000471 387.438400
   2249   2255   2256     1   109.5600471 388.275200
   2249   2255   2257     1   109.5600471 388.275200
   2250   2249   2255     1   109.8000471 387.438400
   2250   2249   2251     1   107.5800459 329.699200
   2251   2249   2255     1   109.8000471 387.438400
   2253   2252   2261     1   109.7800468 425.094400
   2253   2252   2254     1   108.4600466 328.025600
   2254   2252   2261     1   109.7800468 425.094400
   2256   2255   4552     1   109.7800468 425.094400
   2256   2255   2257     1   108.4600466 328.025600
   2257   2255   4552     1   109.7800468 425.094400
   2259   2258   4581     1   109.7800468 425.094400
   2259   2258   2260     1   108.4600466 328.025600
   2260   2258   4581     1   109.7800468 425.094400
   2262   2263   2264     1   109.8800469 414.216000
   2262   2263   2265     1   109.8800469 414.216000
   2262   2266   2267     1   109.8800469 414.216000
   2262   2266   2268     1   109.8800469 414.216000
   2262   2269   2270     1   109.8800469 414.216000
   2262   2269   2271     1   109.8800469 414.216000
   2263   2275   2276     1   109.8000471 387.438400
   2263   2275   2277     1   109.8000471 387.438400
   2264   2263   2275     1   109.5600471 388.275200
   2264   2263   2265     1   108.4600466 328.025600
   2265   2263   2275     1   109.5600471 388.275200
   2266   2278   2279     1   109.8000471 387.438400
   2266   2278   2280     1   109.8000471 387.438400
   2267   2266   2278     1   109.5600471 388.275200
   2267   2266   2268     1   108.4600466 328.025600
   2268   2266   2278     1   109.5600471 388.275200
   2269   2272   2273     1   109.8000471 387.438400
   2269   2272   2274     1   109.8000471 387.438400
   2270   2269   2272     1   109.5600471 388.275200
   2270   2269   2271     1   108.4600466 328.025600
   2271   2269   2272     1   109.5600471 388.275200
   2272   2281   2282     1   109.5600471 388.275200
   2272   2281   2283     1   109.5600471 388.275200
   2273   2272   2281     1   109.8000471 387.438400
   2273   2272   2274     1   107.5800459 329.699200
   2274   2272   2281     1   109.8000471 387.438400
   2275   2287   2288     1   109.5600471 388.275200
   2275   2287   2289     1   109.5600471 388.275200
   2276   2275   2287     1   109.8000471 387.438400
   2276   2275   2277     1   107.5800459 329.699200
   2277   2275   2287     1   109.8000471 387.438400
   2278   2284   2285     1   109.5600471 388.275200
   2278   2284   2286     1   109.5600471 388.275200
   2279   2278   2284     1   109.8000471 387.438400
   2279   2278   2280     1   107.5800459 329.699200
   2280   2278   2284     1   109.8000471 387.438400
   2282   2281   2290     1   109.7800468 425.094400
   2282   2281   2283     1   108.4600466 328.025600
   2283   2281   2290     1   109.7800468 425.094400
   2285   2284   4610     1   109.7800468 425.094400
   2285   2284   2286     1   108.4600466 328.025600
   2286   2284   4610     1   109.7800468 425.094400
   2288   2287   4639     1   109.7800468 425.094400
   2288   2287   2289     1   108.4600466 328.025600
   2289   2287   4639     1   109.7800468 425.094400
   2291   2292   2293     1   109.8800469 414.216000
   2291   2292   2294     1   109.8800469 414.216000
   2291   2295   2296     1   109.8800469 414.216000
   2291   2295   2297     1   109.8800469 414.216000
   2291   2298   2299     1   109.8800469 414.216000
   2291   2298   2300     1   109.8800469 414.216000
   2292   2304   2305     1   109.8000471 387.438400
   2292   2304   2306     1   109.8000471 387.438400
   2293   2292   2304     1   109.5600471 388.275200
   2293   2292   2294     1   108.4600466 328.025600
   2294   2292   2304     1   109.5600471 388.275200
   2295   2307   2308     1   109.8000471 387.438400
   2295   2307   2309     1   109.8000471 387.438400
   2296   2295   2307     1   109.5600471 388.275200
   2296   2295   2297     1   108.4600466 328.025600
   2297   2295   2307     1   109.5600471 388.275200
   2298   2301   2302     1   109.8000471 387.438400
   2298   2301   2303     1   109.8000471 387.438400
   2299   2298   2301     1   109.5600471 388.275200
   2299   2298   2300     1   108.4600466 328.025600
   2300   2298   2301     1   109.5600471 388.275200
   2301   2310   2311     1   109.5600471 388.275200
   2301   2310   2312     1   109.5600471 388.275200
   2302   2301   2310     1   109.8000471 387.438400
   2302   2301   2303     1   107.5800459 329.699200
   2303   2301   2310     1   109.8000471 387.438400
   2304   2316   2317     1   109.5600471 388.275200
   2304   2316   2318     1   109.5600471 388.275200
   2305   2304   2316     1   109.8000471 387.438400
   2305   2304   2306     1   107.5800459 329.699200
   2306   2304   2316     1   109.8000471 387.438400
   2307   2313   2314     1   109.5600471 388.275200
   2307   2313   2315     1   109.5600471 388.275200
   2308   2307   2313     1   109.8000471 387.438400
   2308   2307   2309     1   107.5800459 329.699200
   2309   2307   2313     1   109.8000471 387.438400
   2311   2310   2319     1   109.7800468 425.094400
   2311   2310   2312     1   108.4600466 328.025600
   2312   2310   2319     1   109.7800468 425.094400
   2314   2313   4668     1   109.7800468 425.094400
   2314   2313   2315     1   108.4600466 328.025600
   2315   2313   4668     1   109.7800468 425.094400
   2317   2316   4697     1   109.7800468 425.094400
   2317   2316   2318     1   108.4600466 328.025600
   2318   2316   4697     1   109.7800468 425.094400
   2320   2321   2322     1   109.8800469 414.216000
   2320   2321   2323     1   109.8800469 414.216000
   2320   2324   2325     1   109.8800469 414.216000
   2320   2324   2326     1   109.8800469 414.216000
   2320   2327   2328     1   109.8800469 414.216000
   2320   2327   2329     1   109.8800469 414.216000
   2321   2333   2334     1   109.8000471 387.438400
   2321   2333   2335     1   109.8000471 387.438400
   2322   2321   2333     1   109.5600471 388.275200
   2322   2321   2323     1   108.4600466 328.025600
   2323   2321   2333     1   109.5600471 388.275200
   2324   2336   2337     1   109.8000471 387.438400
   2324   2336   2338     1   109.8000471 387.438400
   2325   2324   2336     1   109.5600471 388.275200
   2325   2324   2326     1   108.4600466 328.025600
   2326   2324   2336     1   109.5600471 388.275200
   2327   2330   2331     1   109.8000471 387.438400
   2327   2330   2332     1   109.8000471 387.438400
   2328   2327   2330     1   109.5600471 388.275200
   2328   2327   2329     1   108.4600466 328.025600
   2329   2327   2330     1   109.5600471 388.275200
   2330   2339   2340     1   109.5600471 388.275200
   2330   2339   2341     1   109.5600471 388.275200
   2331   2330   2339     1   109.8000471 387.438400
   2331   2330   2332     1   107.5800459 329.699200
   2332   2330   2339     1   109.8000471 387.438400
   2333   2345   2346     1   109.5600471 388.275200
   2333   2345   2347     1   109.5600471 388.275200
   2334   2333   2345     1   109.8000471 387.438400
   2334   2333   2335     1   107.5800459 329.699200
   2335   2333   2345     1   109.8000471 387.438400
   2336   2342   2343     1   109.5600471 388.275200
   2336   2342   2344     1   109.5600471 388.275200
   2337   2336   2342     1   109.8000471 387.438400
   2337   2336   2338     1   107.5800459 329.699200
   2338   2336   2342     1   109.8000471 387.438400
   2340   2339   2348     1   109.7800468 425.094400
   2340   2339   2341     1   108.4600466 328.025600
   2341   2339   2348     1   109.7800468 425.094400
   2343   2342   4726     1   109.7800468 425.094400
   2343   2342   2344     1   108.4600466 328.025600
   2344   2342   4726     1   109.7800468 425.094400
   2346   2345   4755     1   109.7800468 425.094400
   2346   2345   2347     1   108.4600466 328.025600
   2347   2345   4755     1   109.7800468 425.094400
   2349   2350   2351     1   109.8800469 414.216000
   2349   2350   2352     1   109.8800469 414.216000
   2349   2353   2354     1   109.8800469 414.216000
   2349   2353   2355     1   109.8800469 414.216000
   2349   2356   2357     1   109.8800469 414.216000
   2349   2356   2358     1   109.8800469 414.216000
   2350   2362   2363     1   109.8000471 387.438400
   2350   2362   2364     1   109.8000471 387.438400
   2351   2350   2362     1   109.5600471 388.275200
   2351   2350   2352     1   108.4600466 328.025600
   2352   2350   2362     1   109.5600471 388.275200
   2353   2365   2366     1   109.8000471 387.438400
   2353   2365   2367     1   109.8000471 387.438400
   2354   2353   2365     1   109.5600471 388.275200
   2354   2353   2355     1   108.4600466 328.025600
   2355   2353   2365     1   109.5600471 388.275200
   2356   2359   2360     1   109.8000471 387.438400
   2356   2359   2361     1   109.8000471 387.438400
   2357   2356   2359     1   109.5600471 388.275200
   2357   2356   2358     1   108.4600466 328.025600
   2358   2356   2359     1   109.5600471 388.275200
   2359   2368   2369     1   109.5600471 388.275200
   2359   2368   2370     1   109.5600471 388.275200
   2360   2359   2368     1   109.8000471 387.438400
   2360   2359   2361     1   107.5800459 329.699200
   2361   2359   2368     1   109.8000471 387.438400
   2362   2374   2375     1   109.5600471 388.275200
   2362   2374   2376     1   109.5600471 388.275200
   2363   2362   2374     1   109.8000471 387.438400
   2363   2362   2364     1   107.5800459 329.699200
   2364   2362   2374     1   109.8000471 387.438400
   2365   2371   2372     1   109.5600471 388.275200
   2365   2371   2373     1   109.5600471 388.275200
   2366   2365   2371     1   109.8000471 387.438400
   2366   2365   2367     1   107.5800459 329.699200
   2367   2365   2371     1   109.8000471 387.438400
   2369   2368   2377     1   109.7800468 425.094400
   2369   2368   2370     1   108.4600466 328.025600
   2370   2368   2377     1   109.7800468 425.094400
   2372   2371   4784     1   109.7800468 425.094400
   2372   2371   2373     1   108.4600466 328.025600
   2373   2371   4784     1   109.7800468 425.094400
   2375   2374   4813     1   109.7800468 425.094400
   2375   2374   2376     1   108.4600466 328.025600
   2376   2374   4813     1   109.7800468 425.094400
   2378   2379   2380     1   109.8800469 414.216000
   2378   2379   2381     1   109.8800469 414.216000
   2378   2382   2383     1   109.8800469 414.216000
   2378   2382   2384     1   109.8800469 414.216000
   2378   2385   2386     1   109.8800469 414.216000
   2378   2385   2387     1   109.8800469 414.216000
   2379   2391   2392     1   109.8000471 387.438400
   2379   2391   2393     1   109.8000471 387.438400
   2380   2379   2391     1   109.5600471 388.275200
   2380   2379   2381     1   108.4600466 328.025600
   2381   2379   2391     1   109.5600471 388.275200
   2382   2394   2395     1   109.8000471 387.438400
   2382   2394   2396     1   109.8000471 387.438400
   2383   2382   2394     1   109.5600471 388.275200
   2383   2382   2384     1   108.4600466 328.025600
   2384   2382   2394     1   109.5600471 388.275200
   2385   2388   2389     1   109.8000471 387.438400
   2385   2388   2390     1   109.8000471 387.438400
   2386   2385   2388     1   109.5600471 388.275200
   2386   2385   2387     1   108.4600466 328.025600
   2387   2385   2388     1   109.5600471 388.275200
   2388   2397   2398     1   109.5600471 388.275200
   2388   2397   2399     1   109.5600471 388.275200
   2389   2388   2397     1   109.8000471 387.438400
   2389   2388   2390     1   107.5800459 329.699200
   2390   2388   2397     1   109.8000471 387.438400
   2391   2403   2404     1   109.5600471 388.275200
   2391   2403   2405     1   109.5600471 388.275200
   2392   2391   2403     1   109.8000471 387.438400
   2392   2391   2393     1   107.5800459 329.699200
   2393   2391   2403     1   109.8000471 387.438400
   2394   2400   2401     1   109.5600471 388.275200
   2394   2400   2402     1   109.5600471 388.275200
   2395   2394   2400     1   109.8000471 387.438400
   2395   2394   2396     1   107.5800459 329.699200
   2396   2394   2400     1   109.8000471 387.438400
   2398   2397   2406     1   109.7800468 425.094400
   2398   2397   2399     1   108.4600466 328.025600
   2399   2397   2406     1   109.7800468 425.094400
   2401   2400   4842     1   109.7800468 425.094400
   2401   2400   2402     1   108.4600466 328.025600
   2402   2400   4842     1   109.7800468 425.094400
   2404   2403   4871     1   109.7800468 425.094400
   2404   2403   2405     1   108.4600466 328.025600
   2405   2403   4871     1   109.7800468 425.094400
   2407   2408   2409     1   109.8800469 414.216000
   2407   2408   2410     1   109.8800469 414.216000
   2407   2411   2412     1   109.8800469 414.216000
   2407   2411   2413     1   109.8800469 414.216000
   2407   2414   2415     1   109.8800469 414.216000
   2407   2414   2416     1   109.8800469 414.216000
   2408   2420   2421     1   109.8000471 387.438400
   2408   2420   2422     1   109.8000471 387.438400
   2409   2408   2420     1   109.5600471 388.275200
   2409   2408   2410     1   108.4600466 328.025600
   2410   2408   2420     1   109.5600471 388.275200
   2411   2423   2424     1   109.8000471 387.438400
   2411   2423   2425     1   109.8000471 387.438400
   2412   2411   2423     1   109.5600471 388.275200
   2412   2411   2413     1   108.4600466 328.025600
   2413   2411   2423     1   109.5600471 388.275200
   2414   2417   2418     1   109.8000471 387.438400
   2414   2417   2419     1   109.8000471 387.438400
   2415   2414   2417     1   109.5600471 388.275200
   2415   2414   2416     1   108.4600466 328.025600
   2416   2414   2417     1   109.5600471 388.275200
   2417   2426   2427     1   109.5600471 388.275200
   2417   2426   2428     1   109.5600471 388.275200
   2418   2417   2426     1   109.8000471 387.438400
   2418   2417   2419     1   107.5800459 329.699200
   2419   2417   2426     1   109.8000471 387.438400
   2420   2432   2433     1   109.5600471 388.275200
   2420   2432   2434     1   109.5600471 388.275200
   2421   2420   2432     1   109.8000471 387.438400
   2421   2420   2422     1   107.5800459 329.699200
   2422   2420   2432     1   109.8000471 387.438400
   2423   2429   2430     1   109.5600471 388.275200
   2423   2429   2431     1   109.5600471 388.275200
   2424   2423   2429     1   109.8000471 387.438400
   2424   2423   2425     1   107.5800459 329.699200
   2425   2423   2429     1   109.8000471 387.438400
   2427   2426   2435     1   109.7800468 425.094400
   2427   2426   2428     1   108.4600466 328.025600
   2428   2426   2435     1   109.7800468 425.094400
   2430   2429   4900     1   109.7800468 425.094400
   2430   2429   2431     1   108.4600466 328.025600
   2431   2429   4900     1   109.7800468 425.094400
   2433   2432   4929     1   109.7800468 425.094400
   2433   2432   2434     1   108.4600466 328.025600
   2434   2432   4929     1   109.7800468 425.094400
   2436   2437   2438     1   109.8800469 414.216000
   2436   2437   2439     1   109.8800469 414.216000
   2436   2440   2441     1   109.8800469 414.216000
   2436   2440   2442     1   109.8800469 414.216000
   2436   2443   2444     1   109.8800469 414.216000
   2436   2443   2445     1   109.8800469 414.216000
   2437   2449   2450     1   109.8000471 387.438400
   2437   2449   2451     1   109.8000471 387.438400
   2438   2437   2449     1   109.5600471 388.275200
   2438   2437   2439     1   108.4600466 328.025600
   2439   2437   2449     1   109.5600471 388.275200
   2440   2452   2453     1   109.8000471 387.438400
   2440   2452   2454     1   109.8000471 387.438400
   2441   2440   2452     1   109.5600471 388.275200
   2441   2440   2442     1   108.4600466 328.025600
   2442   2440   2452     1   109.5600471 388.275200
   2443   2446   2447     1   109.8000471 387.438400
   2443   2446   2448     1   109.8000471 387.438400
   2444   2443   2446     1   109.5600471 388.275200
   2444   2443   2445     1   108.4600466 328.025600
   2445   2443   2446     1   109.5600471 388.275200
   2446   2455   2456     1   109.5600471 388.275200
   2446   2455   2457     1   109.5600471 388.275200
   2447   2446   2455     1   109.8000471 387.438400
   2447   2446   2448     1   107.5800459 329.699200
   2448   2446   2455     1   109.8000471 387.438400
   2449   2461   2462     1   109.5600471 388.275200
   2449   2461   2463     1   109.5600471 388.275200
   2450   2449   2461     1   109.8000471 387.438400
   2450   2449   2451     1   107.5800459 329.699200
   2451   2449   2461     1   109.8000471 387.438400
   2452   2458   2459     1   109.5600471 388.275200
   2452   2458   2460     1   109.5600471 388.275200
   2453   2452   2458     1   109.8000471 387.438400
   2453   2452   2454     1   107.5800459 329.699200
   2454   2452   2458     1   109.8000471 387.438400
   2456   2455   2464     1   109.7800468 425.094400
   2456   2455   2457     1   108.4600466 328.025600
   2457   2455   2464     1   109.7800468 425.094400
   2459   2458   4958     1   109.7800468 425.094400
   2459   2458   2460     1   108.4600466 328.025600
   2460   2458   4958     1   109.7800468 425.094400
   2462   2461   4987     1   109.7800468 425.094400
   2462   2461   2463     1   108.4600466 328.025600
   2463   2461   4987     1   109.7800468 425.094400
   2465   2466   2467     1   109.8800469 414.216000
   2465   2466   2468     1   109.8800469 414.216000
   2465   2469   2470     1   109.8800469 414.216000
   2465   2469   2471     1   109.8800469 414.216000
   2465   2472   2473     1   109.8800469 414.216000
   2465   2472   2474     1   109.8800469 414.216000
   2466   2478   2479     1   109.8000471 387.438400
   2466   2478   2480     1   109.8000471 387.438400
   2467   2466   2478     1   109.5600471 388.275200
   2467   2466   2468     1   108.4600466 328.025600
   2468   2466   2478     1   109.5600471 388.275200
   2469   2481   2482     1   109.8000471 387.438400
   2469   2481   2483     1   109.8000471 387.438400
   2470   2469   2481     1   109.5600471 388.275200
   2470   2469   2471     1   108.4600466 328.025600
   2471   2469   2481     1   109.5600471 388.275200
   2472   2475   2476     1   109.8000471 387.438400
   2472   2475   2477     1   109.8000471 387.438400
   2473   2472   2475     1   109.5600471 388.275200
   2473   2472   2474     1   108.4600466 328.025600
   2474   2472   2475     1   109.5600471 388.275200
   2475   2484   2485     1   109.5600471 388.275200
   2475   2484   2486     1   109.5600471 388.275200
   2476   2475   2484     1   109.8000471 387.438400
   2476   2475   2477     1   107.5800459 329.699200
   2477   2475   2484     1   109.8000471 387.438400
   2478   2490   2491     1   109.5600471 388.275200
   2478   2490   2492     1   109.5600471 388.275200
   2479   2478   2490     1   109.8000471 387.438400
   2479   2478   2480     1   107.5800459 329.699200
   2480   2478   2490     1   109.8000471 387.438400
   2481   2487   2488     1   109.5600471 388.275200
   2481   2487   2489     1   109.5600471 388.275200
   2482   2481   2487     1   109.8000471 387.438400
   2482   2481   2483     1   107.5800459 329.699200
   2483   2481   2487     1   109.8000471 387.438400
   2485   2484   2493     1   109.7800468 425.094400
   2485   2484   2486     1   108.4600466 328.025600
   2486   2484   2493     1   109.7800468 425.094400
   2488   2487   5016     1   109.7800468 425.094400
   2488   2487   2489     1   108.4600466 328.025600
   2489   2487   5016     1   109.7800468 425.094400
   2491   2490   5045     1   109.7800468 425.094400
   2491   2490   2492     1   108.4600466 328.025600
   2492   2490   5045     1   109.7800468 425.094400
   2494   2495   2496     1   109.8800469 414.216000
   2494   2495   2497     1   109.8800469 414.216000
   2494   2498   2499     1   109.8800469 414.216000
   2494   2498   2500     1   109.8800469 414.216000
   2494   2501   2502     1   109.8800469 414.216000
   2494   2501   2503     1   109.8800469 414.216000
   2495   2507   2508     1   109.8000471 387.438400
   2495   2507   2509     1   109.8000471 387.438400
   2496   2495   2507     1   109.5600471 388.275200
   2496   2495   2497     1   108.4600466 328.025600
   2497   2495   2507     1   109.5600471 388.275200
   2498   2510   2511     1   109.8000471 387.438400
   2498   2510   2512     1   109.8000471 387.438400
   2499   2498   2510     1   109.5600471 388.275200
   2499   2498   2500     1   108.4600466 328.025600
   2500   2498   2510     1   109.5600471 388.275200
   2501   2504   2505     1   109.8000471 387.438400
   2501   2504   2506     1   109.8000471 387.438400
   2502   2501   2504     1   109.5600471 388.275200
   2502   2501   2503     1   108.4600466 328.025600
   2503   2501   2504     1   109.5600471 388.275200
   2504   2513   2514     1   109.5600471 388.275200
   2504   2513   2515     1   109.5600471 388.275200
   2505   2504   2513     1   109.8000471 387.438400
   2505   2504   2506     1   107.5800459 329.699200
   2506   2504   2513     1   109.8000471 387.438400
   2507   2519   2520     1   109.5600471 388.275200
   2507   2519   2521     1   109.5600471 388.275200
   2508   2507   2519     1   109.8000471 387.438400
   2508   2507   2509     1   107.5800459 329.699200
   2509   2507   2519     1   109.8000471 387.438400
   2510   2516   2517     1   109.5600471 388.275200
   2510   2516   2518     1   109.5600471 388.275200
   2511   2510   2516     1   109.8000471 387.438400
   2511   2510   2512     1   107.5800459 329.699200
   2512   2510   2516     1   109.8000471 387.438400
   2514   2513   2522     1   109.7800468 425.094400
   2514   2513   2515     1   108.4600466 328.025600
   2515   2513   2522     1   109.7800468 425.094400
   2517   2516   5074     1   109.7800468 425.094400
   2517   2516   2518     1   108.4600466 328.025600
   2518   2516   5074     1   109.7800468 425.094400
   2520   2519   5103     1   109.7800468 425.094400
   2520   2519   2521     1   108.4600466 328.025600
   2521   2519   5103     1   109.7800468 425.094400
   2523   2524   2525     1   109.8800469 414.216000
   2523   2524   2526     1   109.8800469 414.216000
   2523   2527   2528     1   109.8800469 414.216000
   2523   2527   2529     1   109.8800469 414.216000
   2523   2530   2531     1   109.8800469 414.216000
   2523   2530   2532     1   109.8800469 414.216000
   2524   2536   2537     1   109.8000471 387.438400
   2524   2536   2538     1   109.8000471 387.438400
   2525   2524   2536     1   109.5600471 388.275200
   2525   2524   2526     1   108.4600466 328.025600
   2526   2524   2536     1   109.5600471 388.275200
   2527   2539   2540     1   109.8000471 387.438400
   2527   2539   2541     1   109.8000471 387.438400
   2528   2527   2539     1   109.5600471 388.275200
   2528   2527   2529     1   108.4600466 328.025600
   2529   2527   2539     1   109.5600471 388.275200
   2530   2533   2534     1   109.8000471 387.438400
   2530   2533   2535     1   109.8000471 387.438400
   2531   2530   2533     1   109.5600471 388.275200
   2531   2530   2532     1   108.4600466 328.025600
   2532   2530   2533     1   109.5600471 388.275200
   2533   2542   2543     1   109.5600471 388.275200
   2533   2542   2544     1   109.5600471 388.275200
   2534   2533   2542     1   109.8000471 387.438400
   2534   2533   2535     1   107.5800459 329.699200
   2535   2533   2542     1   109.8000471 387.438400
   2536   2548   2549     1   109.5600471 388.275200
   2536   2548   2550     1   109.5600471 388.275200
   2537   2536   2548     1   109.8000471 387.438400
   2537   2536   2538     1   107.5800459 329.699200
   2538   2536   2548     1   109.8000471 387.438400
   2539   2545   2546     1   109.5600471 388.275200
   2539   2545   2547     1   109.5600471 388.275200
   2540   2539   2545     1   109.8000471 387.438400
   2540   2539   2541     1   107.5800459 329.699200
   2541   2539   2545     1   109.8000471 387.438400
   2543   2542   2551     1   109.7800468 425.094400
   2543   2542   2544     1   108.4600466 328.025600
   2544   2542   2551     1   109.7800468 425.094400
   2546   2545   5132     1   109.7800468 425.094400
   2546   2545   2547     1   108.4600466 328.025600
   2547   2545   5132     1   109.7800468 425.094400
   2549   2548   5161     1   109.7800468 425.094400
   2549   2548   2550     1   108.4600466 328.025600
   2550   2548   5161     1   109.7800468 425.094400
   2552   2553   2554     1   109.8800469 414.216000
   2552   2553   2555     1   109.8800469 414.216000
   2552   2556   2557     1   109.8800469 414.216000
   2552   2556   2558     1   109.8800469 414.216000
   2552   2559   2560     1   109.8800469 414.216000
   2552   2559   2561     1   109.8800469 414.216000
   2553   2565   2566     1   109.8000471 387.438400
   2553   2565   2567     1   109.8000471 387.438400
   2554   2553   2565     1   109.5600471 388.275200
   2554   2553   2555     1   108.4600466 328.025600
   2555   2553   2565     1   109.5600471 388.275200
   2556   2568   2569     1   109.8000471 387.438400
   2556   2568   2570     1   109.8000471 387.438400
   2557   2556   2568     1   109.5600471 388.275200
   2557   2556   2558     1   108.4600466 328.025600
   2558   2556   2568     1   109.5600471 388.275200
   2559   2562   2563     1   109.8000471 387.438400
   2559   2562   2564     1   109.8000471 387.438400
   2560   2559   2562     1   109.5600471 388.275200
   2560   2559   2561     1   108.4600466 328.025600
   2561   2559   2562     1   109.5600471 388.275200
   2562   2571   2572     1   109.5600471 388.275200
   2562   2571   2573     1   109.5600471 388.275200
   2563   2562   2571     1   109.8000471 387.438400
   2563   2562   2564     1   107.5800459 329.699200
   2564   2562   2571     1   109.8000471 387.438400
   2565   2577   2578     1   109.5600471 388.275200
   2565   2577   2579     1   109.5600471 388.275200
   2566   2565   2577     1   109.8000471 387.438400
   2566   2565   2567     1   107.5800459 329.699200
   2567   2565   2577     1   109.8000471 387.438400
   2568   2574   2575     1   109.5600471 388.275200
   2568   2574   2576     1   109.5600471 388.275200
   2569   2568   2574     1   109.8000471 387.438400
   2569   2568   2570     1   107.5800459 329.699200
   2570   2568   2574     1   109.8000471 387.438400
   2572   2571   2580     1   109.7800468 425.094400
   2572   2571   2573     1   108.4600466 328.025600
   2573   2571   2580     1   109.7800468 425.094400
   2575   2574   5190     1   109.7800468 425.094400
   2575   2574   2576     1   108.4600466 328.025600
   2576   2574   5190     1   109.7800468 425.094400
   2578   2577   5219     1   109.7800468 425.094400
   2578   2577   2579     1   108.4600466 328.025600
   2579   2577   5219     1   109.7800468 425.094400
   2581   2582   2583     1   109.8800469 414.216000
   2581   2582   2584     1   109.8800469 414.216000
   2581   2585   2586     1   109.8800469 414.216000
   2581   2585   2587     1   109.8800469 414.216000
   2581   2588   2589     1   109.8800469 414.216000
   2581   2588   2590     1   109.8800469 414.216000
   2582   2594   2595     1   109.8000471 387.438400
   2582   2594   2596     1   109.8000471 387.438400
   2583   2582   2594     1   109.5600471 388.275200
   2583   2582   2584     1   108.4600466 328.025600
   2584   2582   2594     1   109.5600471 388.275200
   2585   2597   2598     1   109.8000471 387.438400
   2585   2597   2599     1   109.8000471 387.438400
   2586   2585   2597     1   109.5600471 388.275200
   2586   2585   2587     1   108.4600466 328.025600
   2587   2585   2597     1   109.5600471 388.275200
   2588   2591   2592     1   109.8000471 387.438400
   2588   2591   2593     1   109.8000471 387.438400
   2589   2588   2591     1   109.5600471 388.275200
   2589   2588   2590     1   108.4600466 328.025600
   2590   2588   2591     1   109.5600471 388.275200
   2591   2600   2601     1   109.5600471 388.275200
   2591   2600   2602     1   109.5600471 388.275200
   2592   2591   2600     1   109.8000471 387.438400
   2592   2591   2593     1   107.5800459 329.699200
   2593   2591   2600     1   109.8000471 387.438400
   2594   2606   2607     1   109.5600471 388.275200
   2594   2606   2608     1   109.5600471 388.275200
   2595   2594   2606     1   109.8000471 387.438400
   2595   2594   2596     1   107.5800459 329.699200
   2596   2594   2606     1   109.8000471 387.438400
   2597   2603   2604     1   109.5600471 388.275200
   2597   2603   2605     1   109.5600471 388.275200
   2598   2597   2603     1   109.8000471 387.438400
   2598   2597   2599     1   107.5800459 329.699200
   2599   2597   2603     1   109.8000471 387.438400
   2601   2600   2609     1   109.7800468 425.094400
   2601   2600   2602     1   108.4600466 328.025600
   2602   2600   2609     1   109.7800468 425.094400
   2604   2603   5248     1   109.7800468 425.094400
   2604   2603   2605     1   108.4600466 328.025600
   2605   2603   5248     1   109.7800468 425.094400
   2607   2606   5277     1   109.7800468 425.094400
   2607   2606   2608     1   108.4600466 328.025600
   2608   2606   5277     1   109.7800468 425.094400
   2610   2611   2612     1   109.8800469 414.216000
   2610   2611   2613     1   109.8800469 414.216000
   2610   2614   2615     1   109.8800469 414.216000
   2610   2614   2616     1   109.8800469 414.216000
   2610   2617   2618     1   109.8800469 414.216000
   2610   2617   2619     1   109.8800469 414.216000
   2611   2623   2624     1   109.8000471 387.438400
   2611   2623   2625     1   109.8000471 387.438400
   2612   2611   2623     1   109.5600471 388.275200
   2612   2611   2613     1   108.4600466 328.025600
   2613   2611   2623     1   109.5600471 388.275200
   2614   2626   2627     1   109.8000471 387.438400
   2614   2626   2628     1   109.8000471 387.438400
   2615   2614   2626     1   109.5600471 388.275200
   2615   2614   2616     1   108.4600466 328.025600
   2616   2614   2626     1   109.5600471 388.275200
   2617   2620   2621     1   109.8000471 387.438400
   2617   2620   2622     1   109.8000471 387.438400
   2618   2617   2620     1   109.5600471 388.275200
   2618   2617   2619     1   108.4600466 328.025600
   2619   2617   2620     1   109.5600471 388.275200
   2620   2629   2630     1   109.5600471 388.275200
   2620   2629   2631     1   109.5600471 388.275200
   2621   2620   2629     1   109.8000471 387.438400
   2621   2620   2622     1   107.5800459 329.699200
   2622   2620   2629     1   109.8000471 387.438400
   2623   2635   2636     1   109.5600471 388.275200
   2623   2635   2637     1   109.5600471 388.275200
   2624   2623   2635     1   109.8000471 387.438400
   2624   2623   2625     1   107.5800459 329.699200
   2625   2623   2635     1   109.8000471 387.438400
   2626   2632   2633     1   109.5600471 388.275200
   2626   2632   2634     1   109.5600471 388.275200
   2627   2626   2632     1   109.8000471 387.438400
   2627   2626   2628     1   107.5800459 329.699200
   2628   2626   2632     1   109.8000471 387.438400
   2630   2629   2638     1   109.7800468 425.094400
   2630   2629   2631     1   108.4600466 328.025600
   2631   2629   2638     1   109.7800468 425.094400
   2633   2632   5306     1   109.7800468 425.094400
   2633   2632   2634     1   108.4600466 328.025600
   2634   2632   5306     1   109.7800468 425.094400
   2636   2635   5335     1   109.7800468 425.094400
   2636   2635   2637     1   108.4600466 328.025600
   2637   2635   5335     1   109.7800468 425.094400
   2639   2640   2641     1   109.8800469 414.216000
   2639   2640   2642     1   109.8800469 414.216000
   2639   2643   2644     1   109.8800469 414.216000
   2639   2643   2645     1   109.8800469 414.216000
   2639   2646   2647     1   109.8800469 414.216000
   2639   2646   2648     1   109.8800469 414.216000
   2640   2652   2653     1   109.8000471 387.438400
   2640   2652   2654     1   109.8000471 387.438400
   2641   2640   2652     1   109.5600471 388.275200
   2641   2640   2642     1   108.4600466 328.025600
   2642   2640   2652     1   109.5600471 388.275200
   2643   2655   2656     1   109.8000471 387.438400
   2643   2655   2657     1   109.8000471 387.438400
   2644   2643   2655     1   109.5600471 388.275200
   2644   2643   2645     1   108.4600466 328.025600
   2645   2643   2655     1   109.5600471 388.275200
   2646   2649   2650     1   109.8000471 387.438400
   2646   2649   2651     1   109.8000471 387.438400
   2647   2646   2649     1   109.5600471 388.275200
   2647   2646   2648     1   108.4600466 328.025600
   2648   2646   2649     1   109.5600471 388.275200
   2649   2658   2659     1   109.5600471 388.275200
   2649   2658   2660     1   109.5600471 388.275200
   2650   2649   2658     1   109.8000471 387.438400
   2650   2649   2651     1   107.5800459 329.699200
   2651   2649   2658     1   109.8000471 387.438400
   2652   2664   2665     1   109.5600471 388.275200
   2652   2664   2666     1   109.5600471 388.275200
   2653   2652   2664     1   109.8000471 387.438400
   2653   2652   2654     1   107.5800459 329.699200
   2654   2652   2664     1   109.8000471 387.438400
   2655   2661   2662     1   109.5600471 388.275200
   2655   2661   2663     1   109.5600471 388.275200
   2656   2655   2661     1   109.8000471 387.438400
   2656   2655   2657     1   107.5800459 329.699200
   2657   2655   2661     1   109.8000471 387.438400
   2659   2658   2667     1   109.7800468 425.094400
   2659   2658   2660     1   108.4600466 328.025600
   2660   2658   2667     1   109.7800468 425.094400
   2662   2661   5364     1   109.7800468 425.094400
   2662   2661   2663     1   108.4600466 328.025600
   2663   2661   5364     1   109.7800468 425.094400
   2665   2664   5393     1   109.7800468 425.094400
   2665   2664   2666     1   108.4600466 328.025600
   2666   2664   5393     1   109.7800468 425.094400
   2668   2669   2670     1   109.8800469 414.216000
   2668   2669   2671     1   109.8800469 414.216000
   2668   2672   2673     1   109.8800469 414.216000
   2668   2672   2674     1   109.8800469 414.216000
   2668   2675   2676     1   109.8800469 414.216000
   2668   2675   2677     1   109.8800469 414.216000
   2669   2681   2682     1   109.8000471 387.438400
   2669   2681   2683     1   109.8000471 387.438400
   2670   2669   2681     1   109.5600471 388.275200
   2670   2669   2671     1   108.4600466 328.025600
   2671   2669   2681     1   109.5600471 388.275200
   2672   2684   2685     1   109.8000471 387.438400
   2672   2684   2686     1   109.8000471 387.438400
   2673   2672   2684     1   109.5600471 388.275200
   2673   2672   2674     1   108.4600466 328.025600
   2674   2672   2684     1   109.5600471 388.275200
   2675   2678   2679     1   109.8000471 387.438400
   2675   2678   2680     1   109.8000471 387.438400
   2676   2675   2678     1   109.5600471 388.275200
   2676   2675   2677     1   108.4600466 328.025600
   2677   2675   2678     1   109.5600471 388.275200
   2678   2687   2688     1   109.5600471 388.275200
   2678   2687   2689     1   109.5600471 388.275200
   2679   2678   2687     1   109.8000471 387.438400
   2679   2678   2680     1   107.5800459 329.699200
   2680   2678   2687     1   109.8000471 387.438400
   2681   2693   2694     1   109.5600471 388.275200
   2681   2693   2695     1   109.5600471 388.275200
   2682   2681   2693     1   109.8000471 387.438400
   2682   2681   2683     1   107.5800459 329.699200
   2683   2681   2693     1   109.8000471 387.438400
   2684   2690   2691     1   109.5600471 388.275200
   2684   2690   2692     1   109.5600471 388.275200
   2685   2684   2690     1   109.8000471 387.438400
   2685   2684   2686     1   107.5800459 329.699200
   2686   2684   2690     1   109.8000471 387.438400
   2688   2687   2696     1   109.7800468 425.094400
   2688   2687   2689     1   108.4600466 328.025600
   2689   2687   2696     1   109.7800468 425.094400
   2691   2690   5422     1   109.7800468 425.094400
   2691   2690   2692     1   108.4600466 328.025600
   2692   2690   5422     1   109.7800468 425.094400
   2694   2693   5451     1   109.7800468 425.094400
   2694   2693   2695     1   108.4600466 328.025600
   2695   2693   5451     1   109.7800468 425.094400
   2697   2698   2699     1   109.8800469 414.216000
   2697   2698   2700     1   109.8800469 414.216000
   2697   2701   2702     1   109.8800469 414.216000
   2697   2701   2703     1   109.8800469 414.216000
   2697   2704   2705     1   109.8800469 414.216000
   2697   2704   2706     1   109.8800469 414.216000
   2698   2710   2711     1   109.8000471 387.438400
   2698   2710   2712     1   109.8000471 387.438400
   2699   2698   2710     1   109.5600471 388.275200
   2699   2698   2700     1   108.4600466 328.025600
   2700   2698   2710     1   109.5600471 388.275200
   2701   2713   2714     1   109.8000471 387.438400
   2701   2713   2715     1   109.8000471 387.438400
   2702   2701   2713     1   109.5600471 388.275200
   2702   2701   2703     1   108.4600466 328.025600
   2703   2701   2713     1   109.5600471 388.275200
   2704   2707   2708     1   109.8000471 387.438400
   2704   2707   2709     1   109.8000471 387.438400
   2705   2704   2707     1   109.5600471 388.275200
   2705   2704   2706     1   108.4600466 328.025600
   2706   2704   2707     1   109.5600471 388.275200
   2707   2716   2717     1   109.5600471 388.275200
   2707   2716   2718     1   109.5600471 388.275200
   2708   2707   2716     1   109.8000471 387.438400
   2708   2707   2709     1   107.5800459 329.699200
   2709   2707   2716     1   109.8000471 387.438400
   2710   2722   2723     1   109.5600471 388.275200
   2710   2722   2724     1   109.5600471 388.275200
   2711   2710   2722     1   109.8000471 387.438400
   2711   2710   2712     1   107.5800459 329.699200
   2712   2710   2722     1   109.8000471 387.438400
   2713   2719   2720     1   109.5600471 388.275200
   2713   2719   2721     1   109.5600471 388.275200
   2714   2713   2719     1   109.8000471 387.438400
   2714   2713   2715     1   107.5800459 329.699200
   2715   2713   2719     1   109.8000471 387.438400
   2717   2716   2725     1   109.7800468 425.094400
   2717   2716   2718     1   108.4600466 328.025600
   2718   2716   2725     1   109.7800468 425.094400
   2720   2719   5480     1   109.7800468 425.094400
   2720   2719   2721     1   108.4600466 328.025600
   2721   2719   5480     1   109.7800468 425.094400
   2723   2722   5509     1   109.7800468 425.094400
   2723   2722   2724     1   108.4600466 328.025600
   2724   2722   5509     1   109.7800468 425.094400
   2726   2727   2728     1   109.8800469 414.216000
   2726   2727   2729     1   109.8800469 414.216000
   2726   2730   2731     1   109.8800469 414.216000
   2726   2730   2732     1   109.8800469 414.216000
   2726   2733   2734     1   109.8800469 414.216000
   2726   2733   2735     1   109.8800469 414.216000
   2727   2739   2740     1   109.8000471 387.438400
   2727   2739   2741     1   109.8000471 387.438400
   2728   2727   2739     1   109.5600471 388.275200
   2728   2727   2729     1   108.4600466 328.025600
   2729   2727   2739     1   109.5600471 388.275200
   2730   2742   2743     1   109.8000471 387.438400
   2730   2742   2744     1   109.8000471 387.438400
   2731   2730   2742     1   109.5600471 388.275200
   2731   2730   2732     1   108.4600466 328.025600
   2732   2730   2742     1   109.5600471 388.275200
   2733   2736   2737     1   109.8000471 387.438400
   2733   2736   2738     1   109.8000471 387.438400
   2734   2733   2736     1   109.5600471 388.275200
   2734   2733   2735     1   108.4600466 328.025600
   2735   2733   2736     1   109.5600471 388.275200
   2736   2745   2746     1   109.5600471 388.275200
   2736   2745   2747     1   109.5600471 388.275200
   2737   2736   2745     1   109.8000471 387.438400
   2737   2736   2738     1   107.5800459 329.699200
   2738   2736   2745     1   109.8000471 387.438400
   2739   2751   2752     1   109.5600471 388.275200
   2739   2751   2753     1   109.5600471 388.275200
   2740   2739   2751     1   109.8000471 387.438400
   2740   2739   2741     1   107.5800459 329.699200
   2741   2739   2751     1   109.8000471 387.438400
   2742   2748   2749     1   109.5600471 388.275200
   2742   2748   2750     1   109.5600471 388.275200
   2743   2742   2748     1   109.8000471 387.438400
   2743   2742   2744     1   107.5800459 329.699200
   2744   2742   2748     1   109.8000471 387.438400
   2746   2745   2754     1   109.7800468 425.094400
   2746   2745   2747     1   108.4600466 328.025600
   2747   2745   2754     1   109.7800468 425.094400
   2749   2748   5538     1   109.7800468 425.094400
   2749   2748   2750     1   108.4600466 328.025600
   2750   2748   5538     1   109.7800468 425.094400
   2752   2751   5567     1   109.7800468 425.094400
   2752   2751   2753     1   108.4600466 328.025600
   2753   2751   5567     1   109.7800468 425.094400
   2755   2756   2757     1   109.8800469 414.216000
   2755   2756   2758     1   109.8800469 414.216000
   2755   2759   2760     1   109.8800469 414.216000
   2755   2759   2761     1   109.8800469 414.216000
   2755   2762   2763     1   109.8800469 414.216000
   2755   2762   2764     1   109.8800469 414.216000
   2756   2768   2769     1   109.8000471 387.438400
   2756   2768   2770     1   109.8000471 387.438400
   2757   2756   2768     1   109.5600471 388.275200
   2757   2756   2758     1   108.4600466 328.025600
   2758   2756   2768     1   109.5600471 388.275200
   2759   2771   2772     1   109.8000471 387.438400
   2759   2771   2773     1   109.8000471 387.438400
   2760   2759   2771     1   109.5600471 388.275200
   2760   2759   2761     1   108.4600466 328.025600
   2761   2759   2771     1   109.5600471 388.275200
   2762   2765   2766     1   109.8000471 387.438400
   2762   2765   2767     1   109.8000471 387.438400
   2763   2762   2765     1   109.5600471 388.275200
   2763   2762   2764     1   108.4600466 328.025600
   2764   2762   2765     1   109.5600471 388.275200
   2765   2774   2775     1   109.5600471 388.275200
   2765   2774   2776     1   109.5600471 388.275200
   2766   2765   2774     1   109.8000471 387.438400
   2766   2765   2767     1   107.5800459 329.699200
   2767   2765   2774     1   109.8000471 387.438400
   2768   2780   2781     1   109.5600471 388.275200
   2768   2780   2782     1   109.5600471 388.275200
   2769   2768   2780     1   109.8000471 387.438400
   2769   2768   2770     1   107.5800459 329.699200
   2770   2768   2780     1   109.8000471 387.438400
   2771   2777   2778     1   109.5600471 388.275200
   2771   2777   2779     1   109.5600471 388.275200
   2772   2771   2777     1   109.8000471 387.438400
   2772   2771   2773     1   107.5800459 329.699200
   2773   2771   2777     1   109.8000471 387.438400
   2775   2774   2783     1   109.7800468 425.094400
   2775   2774   2776     1   108.4600466 328.025600
   2776   2774   2783     1   109.7800468 425.094400
   2778   2777   5596     1   109.7800468 425.094400
   2778   2777   2779     1   108.4600466 328.025600
   2779   2777   5596     1   109.7800468 425.094400
   2781   2780   5625     1   109.7800468 425.094400
   2781   2780   2782     1   108.4600466 328.025600
   2782   2780   5625     1   109.7800468 425.094400
   2784   2785   2786     1   109.8800469 414.216000
   2784   2785   2787     1   109.8800469 414.216000
   2784   2788   2789     1   109.8800469 414.216000
   2784   2788   2790     1   109.8800469 414.216000
   2784   2791   2792     1   109.8800469 414.216000
   2784   2791   2793     1   109.8800469 414.216000
   2785   2797   2798     1   109.8000471 387.438400
   2785   2797   2799     1   109.8000471 387.438400
   2786   2785   2797     1   109.5600471 388.275200
   2786   2785   2787     1   108.4600466 328.025600
   2787   2785   2797     1   109.5600471 388.275200
   2788   2800   2801     1   109.8000471 387.438400
   2788   2800   2802     1   109.8000471 387.438400
   2789   2788   2800     1   109.5600471 388.275200
   2789   2788   2790     1   108.4600466 328.025600
   2790   2788   2800     1   109.5600471 388.275200
   2791   2794   2795     1   109.8000471 387.438400
   2791   2794   2796     1   109.8000471 387.438400
   2792   2791   2794     1   109.5600471 388.275200
   2792   2791   2793     1   108.4600466 328.025600
   2793   2791   2794     1   109.5600471 388.275200
   2794   2803   2804     1   109.5600471 388.275200
   2794   2803   2805     1   109.5600471 388.275200
   2795   2794   2803     1   109.8000471 387.438400
   2795   2794   2796     1   107.5800459 329.699200
   2796   2794   2803     1   109.8000471 387.438400
   2797   2809   2810     1   109.5600471 388.275200
   2797   2809   2811     1   109.5600471 388.275200
   2798   2797   2809     1   109.8000471 387.438400
   2798   2797   2799     1   107.5800459 329.699200
   2799   2797   2809     1   109.8000471 387.438400
   2800   2806   2807     1   109.5600471 388.275200
   2800   2806   2808     1   109.5600471 388.275200
   2801   2800   2806     1   109.8000471 387.438400
   2801   2800   2802     1   107.5800459 329.699200
   2802   2800   2806     1   109.8000471 387.438400
   2804   2803   2812     1   109.7800468 425.094400
   2804   2803   2805     1   108.4600466 328.025600
   2805   2803   2812     1   109.7800468 425.094400
   2807   2806   5654     1   109.7800468 425.094400
   2807   2806   2808     1   108.4600466 328.025600
   2808   2806   5654     1   109.7800468 425.094400
   2810   2809   5683     1   109.7800468 425.094400
   2810   2809   2811     1   108.4600466 328.025600
   2811   2809   5683     1   109.7800468 425.094400
   2813   2814   2815     1   109.8800469 414.216000
   2813   2814   2816     1   109.8800469 414.216000
   2813   2817   2818     1   109.8800469 414.216000
   2813   2817   2819     1   109.8800469 414.216000
   2813   2820   2821     1   109.8800469 414.216000
   2813   2820   2822     1   109.8800469 414.216000
   2814   2826   2827     1   109.8000471 387.438400
   2814   2826   2828     1   109.8000471 387.438400
   2815   2814   2826     1   109.5600471 388.275200
   2815   2814   2816     1   108.4600466 328.025600
   2816   2814   2826     1   109.5600471 388.275200
   2817   2829   2830     1   109.8000471 387.438400
   2817   2829   2831     1   109.8000471 387.438400
   2818   2817   2829     1   109.5600471 388.275200
   2818   2817   2819     1   108.4600466 328.025600
   2819   2817   2829     1   109.5600471 388.275200
   2820   2823   2824     1   109.8000471 387.438400
   2820   2823   2825     1   109.8000471 387.438400
   2821   2820   2823     1   109.5600471 388.275200
   2821   2820   2822     1   108.4600466 328.025600
   2822   2820   2823     1   109.5600471 388.275200
   2823   2832   2833     1   109.5600471 388.275200
   2823   2832   2834     1   109.5600471 388.275200
   2824   2823   2832     1   109.8000471 387.438400
   2824   2823   2825     1   107.5800459 329.699200
   2825   2823   2832     1   109.8000471 387.438400
   2826   2838   2839     1   109.5600471 388.275200
   2826   2838   2840     1   109.5600471 388.275200
   2827   2826   2838     1   109.8000471 387.438400
   2827   2826   2828     1   107.5800459 329.699200
   2828   2826   2838     1   109.8000471 387.438400
   2829   2835   2836     1   109.5600471 388.275200
   2829   2835   2837     1   109.5600471 388.275200
   2830   2829   2835     1   109.8000471 387.438400
   2830   2829   2831     1   107.5800459 329.699200
   2831   2829   2835     1   109.8000471 387.438400
   2833   2832   2841     1   109.7800468 425.094400
   2833   2832   2834     1   108.4600466 328.025600
   2834   2832   2841     1   109.7800468 425.094400
   2836   2835   5712     1   109.7800468 425.094400
   2836   2835   2837     1   108.4600466 328.025600
   2837   2835   5712     1   109.7800468 425.094400
   2839   2838   5741     1   109.7800468 425.094400
   2839   2838   2840     1   108.4600466 328.025600
   2840   2838   5741     1   109.7800468 425.094400
   2842   2843   2844     1   109.8800469 414.216000
   2842   2843   2845     1   109.8800469 414.216000
   2842   2846   2847     1   109.8800469 414.216000
   2842   2846   2848     1   109.8800469 414.216000
   2842   2849   2850     1   109.8800469 414.216000
   2842   2849   2851     1   109.8800469 414.216000
   2843   2855   2856     1   109.8000471 387.438400
   2843   2855   2857     1   109.8000471 387.438400
   2844   2843   2855     1   109.5600471 388.275200
   2844   2843   2845     1   108.4600466 328.025600
   2845   2843   2855     1   109.5600471 388.275200
   2846   2858   2859     1   109.8000471 387.438400
   2846   2858   2860     1   109.8000471 387.438400
   2847   2846   2858     1   109.5600471 388.275200
   2847   2846   2848     1   108.4600466 328.025600
   2848   2846   2858     1   109.5600471 388.275200
   2849   2852   2853     1   109.8000471 387.438400
   2849   2852   2854     1   109.8000471 387.438400
   2850   2849   2852     1   109.5600471 388.275200
   2850   2849   2851     1   108.4600466 328.025600
   2851   2849   2852     1   109.5600471 388.275200
   2852   2861   2862     1   109.5600471 388.275200
   2852   2861   2863     1   109.5600471 388.275200
   2853   2852   2861     1   109.8000471 387.438400
   2853   2852   2854     1   107.5800459 329.699200
   2854   2852   2861     1   109.8000471 387.438400
   2855   2867   2868     1   109.5600471 388.275200
   2855   2867   2869     1   109.5600471 388.275200
   2856   2855   2867     1   109.8000471 387.438400
   2856   2855   2857     1   107.5800459 329.699200
   2857   2855   2867     1   109.8000471 387.438400
   2858   2864   2865     1   109.5600471 388.275200
   2858   2864   2866     1   109.5600471 388.275200
   2859   2858   2864     1   109.8000471 387.438400
   2859   2858   2860     1   107.5800459 329.699200
   2860   2858   2864     1   109.8000471 387.438400
   2862   2861   2870     1   109.7800468 425.094400
   2862   2861   2863     1   108.4600466 328.025600
   2863   2861   2870     1   109.7800468 425.094400
   2865   2864   5770     1   109.7800468 425.094400
   2865   2864   2866     1   108.4600466 328.025600
   2866   2864   5770     1   109.7800468 425.094400
   2868   2867   5799     1   109.7800468 425.094400
   2868   2867   2869     1   108.4600466 328.025600
   2869   2867   5799     1   109.7800468 425.094400
   2871   2872   2873     1   109.8800469 414.216000
   2871   2872   2874     1   109.8800469 414.216000
   2871   2875   2876     1   109.8800469 414.216000
   2871   2875   2877     1   109.8800469 414.216000
   2871   2878   2879     1   109.8800469 414.216000
   2871   2878   2880     1   109.8800469 414.216000
   2872   2884   2885     1   109.8000471 387.438400
   2872   2884   2886     1   109.8000471 387.438400
   2873   2872   2884     1   109.5600471 388.275200
   2873   2872   2874     1   108.4600466 328.025600
   2874   2872   2884     1   109.5600471 388.275200
   2875   2887   2888     1   109.8000471 387.438400
   2875   2887   2889     1   109.8000471 387.438400
   2876   2875   2887     1   109.5600471 388.275200
   2876   2875   2877     1   108.4600466 328.025600
   2877   2875   2887     1   109.5600471 388.275200
   2878   2881   2882     1   109.8000471 387.438400
   2878   2881   2883     1   109.8000471 387.438400
   2879   2878   2881     1   109.5600471 388.275200
   2879   2878   2880     1   108.4600466 328.025600
   2880   2878   2881     1   109.5600471 388.275200
   2881   2890   2891     1   109.5600471 388.275200
   2881   2890   2892     1   109.5600471 388.275200
   2882   2881   2890     1   109.8000471 387.438400
   2882   2881   2883     1   107.5800459 329.699200
   2883   2881   2890     1   109.8000471 387.438400
   2884   2896   2897     1   109.5600471 388.275200
   2884   2896   2898     1   109.5600471 388.275200
   2885   2884   2896     1   109.8000471 387.438400
   2885   2884   2886     1   107.5800459 329.699200
   2886   2884   2896     1   109.8000471 387.438400
   2887   2893   2894     1   109.5600471 388.275200
   2887   2893   2895     1   109.5600471 388.275200
   2888   2887   2893     1   109.8000471 387.438400
   2888   2887   2889     1   107.5800459 329.699200
   2889   2887   2893     1   109.8000471 387.438400
   2891   2890   2899     1   109.7800468 425.094400
   2891   2890   2892     1   108.4600466 328.025600
   2892   2890   2899     1   109.7800468 425.094400
   2894   2893   5828     1   109.7800468 425.094400
   2894   2893   2895     1   108.4600466 328.025600
   2895   2893   5828     1   109.7800468 425.094400
   2897   2896   5857     1   109.7800468 425.094400
   2897   2896   2898     1   108.4600466 328.025600
   2898   2896   5857     1   109.7800468 425.094400
   2900   2901   2902     1   109.8800469 414.216000
   2900   2901   2903     1   109.8800469 414.216000
   2900   2904   2905     1   109.8800469 414.216000
   2900   2904   2906     1   109.8800469 414.216000
   2900   2907   2908     1   109.8800469 414.216000
   2900   2907   2909     1   109.8800469 414.216000
   2901   2913   2914     1   109.8000471 387.438400
   2901   2913   2915     1   109.8000471 387.438400
   2902   2901   2913     1   109.5600471 388.275200
   2902   2901   2903     1   108.4600466 328.025600
   2903   2901   2913     1   109.5600471 388.275200
   2904   2916   2917     1   109.8000471 387.438400
   2904   2916   2918     1   109.8000471 387.438400
   2905   2904   2916     1   109.5600471 388.275200
   2905   2904   2906     1   108.4600466 328.025600
   2906   2904   2916     1   109.5600471 388.275200
   2907   2910   2911     1   109.8000471 387.438400
   2907   2910   2912     1   109.8000471 387.438400
   2908   2907   2910     1   109.5600471 388.275200
   2908   2907   2909     1   108.4600466 328.025600
   2909   2907   2910     1   109.5600471 388.275200
   2910   2919   2920     1   109.5600471 388.275200
   2910   2919   2921     1   109.5600471 388.275200
   2911   2910   2919     1   109.8000471 387.438400
   2911   2910   2912     1   107.5800459 329.699200
   2912   2910   2919     1   109.8000471 387.438400
   2913   2925   2926     1   109.5600471 388.275200
   2913   2925   2927     1   109.5600471 388.275200
   2914   2913   2925     1   109.8000471 387.438400
   2914   2913   2915     1   107.5800459 329.699200
   2915   2913   2925     1   109.8000471 387.438400
   2916   2922   2923     1   109.5600471 388.275200
   2916   2922   2924     1   109.5600471 388.275200
   2917   2916   2922     1   109.8000471 387.438400
   2917   2916   2918     1   107.5800459 329.699200
   2918   2916   2922     1   109.8000471 387.438400
   2920   2919   2928     1   109.7800468 425.094400
   2920   2919   2921     1   108.4600466 328.025600
   2921   2919   2928     1   109.7800468 425.094400
   2923   2922   5886     1   109.7800468 425.094400
   2923   2922   2924     1   108.4600466 328.025600
   2924   2922   5886     1   109.7800468 425.094400
   2926   2925   5915     1   109.7800468 425.094400
   2926   2925   2927     1   108.4600466 328.025600
   2927   2925   5915     1   109.7800468 425.094400
   2929   2930   2931     1   109.8800469 414.216000
   2929   2930   2932     1   109.8800469 414.216000
   2929   2933   2934     1   109.8800469 414.216000
   2929   2933   2935     1   109.8800469 414.216000
   2929   2936   2937     1   109.8800469 414.216000
   2929   2936   2938     1   109.8800469 414.216000
   2930   2942   2943     1   109.8000471 387.438400
   2930   2942   2944     1   109.8000471 387.438400
   2931   2930   2942     1   109.5600471 388.275200
   2931   2930   2932     1   108.4600466 328.025600
   2932   2930   2942     1   109.5600471 388.275200
   2933   2945   2946     1   109.8000471 387.438400
   2933   2945   2947     1   109.8000471 387.438400
   2934   2933   2945     1   109.5600471 388.275200
   2934   2933   2935     1   108.4600466 328.025600
   2935   2933   2945     1   109.5600471 388.275200
   2936   2939   2940     1   109.8000471 387.438400
   2936   2939   2941     1   109.8000471 387.438400
   2937   2936   2939     1   109.5600471 388.275200
   2937   2936   2938     1   108.4600466 328.025600
   2938   2936   2939     1   109.5600471 388.275200
   2939   2948   2949     1   109.5600471 388.275200
   2939   2948   2950     1   109.5600471 388.275200
   2940   2939   2948     1   109.8000471 387.438400
   2940   2939   2941     1   107.5800459 329.699200
   2941   2939   2948     1   109.8000471 387.438400
   2942   2954   2955     1   109.5600471 388.275200
   2942   2954   2956     1   109.5600471 388.275200
   2943   2942   2954     1   109.8000471 387.438400
   2943   2942   2944     1   107.5800459 329.699200
   2944   2942   2954     1   109.8000471 387.438400
   2945   2951   2952     1   109.5600471 388.275200
   2945   2951   2953     1   109.5600471 388.275200
   2946   2945   2951     1   109.8000471 387.438400
   2946   2945   2947     1   107.5800459 329.699200
   2947   2945   2951     1   109.8000471 387.438400
   2949   2948   2957     1   109.7800468 425.094400
   2949   2948   2950     1   108.4600466 328.025600
   2950   2948   2957     1   109.7800468 425.094400
   2952   2951   5944     1   109.7800468 425.094400
   2952   2951   2953     1   108.4600466 328.025600
   2953   2951   5944     1   109.7800468 425.094400
   2955   2954   5973     1   109.7800468 425.094400
   2955   2954   2956     1   108.4600466 328.025600
   2956   2954   5973     1   109.7800468 425.094400
   2958   2959   2960     1   109.8800469 414.216000
   2958   2959   2961     1   109.8800469 414.216000
   2958   2962   2963     1   109.8800469 414.216000
   2958   2962   2964     1   109.8800469 414.216000
   2958   2965   2966     1   109.8800469 414.216000
   2958   2965   2967     1   109.8800469 414.216000
   2959   2971   2972     1   109.8000471 387.438400
   2959   2971   2973     1   109.8000471 387.438400
   2960   2959   2971     1   109.5600471 388.275200
   2960   2959   2961     1   108.4600466 328.025600
   2961   2959   2971     1   109.5600471 388.275200
   2962   2974   2975     1   109.8000471 387.438400
   2962   2974   2976     1   109.8000471 387.438400
   2963   2962   2974     1   109.5600471 388.275200
   2963   2962   2964     1   108.4600466 328.025600
   2964   2962   2974     1   109.5600471 388.275200
   2965   2968   2969     1   109.8000471 387.438400
   2965   2968   2970     1   109.8000471 387.438400
   2966   2965   2968     1   109.5600471 388.275200
   2966   2965   2967     1   108.4600466 328.025600
   2967   2965   2968     1   109.5600471 388.275200
   2968   2977   2978     1   109.5600471 388.275200
   2968   2977   2979     1   109.5600471 388.275200
   2969   2968   2977     1   109.8000471 387.438400
   2969   2968   2970     1   107.5800459 329.699200
   2970   2968   2977     1   109.8000471 387.438400
   2971   2983   2984     1   109.5600471 388.275200
   2971   2983   2985     1   109.5600471 388.275200
   2972   2971   2983     1   109.8000471 387.438400
   2972   2971   2973     1   107.5800459 329.699200
   2973   2971   2983     1   109.8000471 387.438400
   2974   2980   2981     1   109.5600471 388.275200
   2974   2980   2982     1   109.5600471 388.275200
   2975   2974   2980     1   109.8000471 387.438400
   2975   2974   2976     1   107.5800459 329.699200
   2976   2974   2980     1   109.8000471 387.438400
   2978   2977   2986     1   109.7800468 425.094400
   2978   2977   2979     1   108.4600466 328.025600
   2979   2977   2986     1   109.7800468 425.094400
   2981   2980   6002     1   109.7800468 425.094400
   2981   2980   2982     1   108.4600466 328.025600
   2982   2980   6002     1   109.7800468 425.094400
   2984   2983   6031     1   109.7800468 425.094400
   2984   2983   2985     1   108.4600466 328.025600
   2985   2983   6031     1   109.7800468 425.094400
   2987   2988   2989     1   109.8800469 414.216000
   2987   2988   2990     1   109.8800469 414.216000
   2987   2991   2992     1   109.8800469 414.216000
   2987   2991   2993     1   109.8800469 414.216000
   2987   2994   2995     1   109.8800469 414.216000
   2987   2994   2996     1   109.8800469 414.216000
   2988   3000   3001     1   109.8000471 387.438400
   2988   3000   3002     1   109.8000471 387.438400
   2989   2988   3000     1   109.5600471 388.275200
   2989   2988   2990     1   108.4600466 328.025600
   2990   2988   3000     1   109.5600471 388.275200
   2991   3003   3004     1   109.8000471 387.438400
   2991   3003   3005     1   109.8000471 387.438400
   2992   2991   3003     1   109.5600471 388.275200
   2992   2991   2993     1   108.4600466 328.025600
   2993   2991   3003     1   109.5600471 388.275200
   2994   2997   2998     1   109.8000471 387.438400
   2994   2997   2999     1   109.8000471 387.438400
   2995   2994   2997     1   109.5600471 388.275200
   2995   2994   2996     1   108.4600466 328.025600
   2996   2994   2997     1   109.5600471 388.275200
   2997   3006   3007     1   109.5600471 388.275200
   2997   3006   3008     1   109.5600471 388.275200
   2998   2997   3006     1   109.8000471 387.438400
   2998   2997   2999     1   107.5800459 329.699200
   2999   2997   3006     1   109.8000471 387.438400
   3000   3012   3013     1   109.5600471 388.275200
   3000   3012   3014     1   109.5600471 388.275200
   3001   3000   3012     1   109.8000471 387.438400
   3001   3000   3002     1   107.5800459 329.699200
   3002   3000   3012     1   109.8000471 387.438400
   3003   3009   3010     1   109.5600471 388.275200
   3003   3009   3011     1   109.5600471 388.275200
   3004   3003   3009     1   109.8000471 387.438400
   3004   3003   3005     1   107.5800459 329.699200
   3005   3003   3009     1   109.8000471 387.438400
   3007   3006   3015     1   109.7800468 425.094400
   3007   3006   3008     1   108.4600466 328.025600
   3008   3006   3015     1   109.7800468 425.094400
   3010   3009   6060     1   109.7800468 425.094400
   3010   3009   3011     1   108.4600466 328.025600
   3011   3009   6060     1   109.7800468 425.094400
   3013   3012   6089     1   109.7800468 425.094400
   3013   3012   3014     1   108.4600466 328.025600
   3014   3012   6089     1   109.7800468 425.094400
   3016   3017   3018     1   109.8800469 414.216000
   3016   3017   3019     1   109.8800469 414.216000
   3016   3020   3021     1   109.8800469 414.216000
   3016   3020   3022     1   109.8800469 414.216000
   3016   3023   3024     1   109.8800469 414.216000
   3016   3023   3025     1   109.8800469 414.216000
   3017   3029   3030     1   109.8000471 387.438400
   3017   3029   3031     1   109.8000471 387.438400
   3018   3017   3029     1   109.5600471 388.275200
   3018   3017   3019     1   108.4600466 328.025600
   3019   3017   3029     1   109.5600471 388.275200
   3020   3032   3033     1   109.8000471 387.438400
   3020   3032   3034     1   109.8000471 387.438400
   3021   3020   3032     1   109.5600471 388.275200
   3021   3020   3022     1   108.4600466 328.025600
   3022   3020   3032     1   109.5600471 388.275200
   3023   3026   3027     1   109.8000471 387.438400
   3023   3026   3028     1   109.8000471 387.438400
   3024   3023   3026     1   109.5600471 388.275200
   3024   3023   3025     1   108.4600466 328.025600
   3025   3023   3026     1   109.5600471 388.275200
   3026   3035   3036     1   109.5600471 388.275200
   3026   3035   3037     1   109.5600471 388.275200
   3027   3026   3035     1   109.8000471 387.438400
   3027   3026   3028     1   107.5800459 329.699200
   3028   3026   3035     1   109.8000471 387.438400
   3029   3041   3042     1   109.5600471 388.275200
   3029   3041   3043     1   109.5600471 388.275200
   3030   3029   3041     1   109.8000471 387.438400
   3030   3029   3031     1   107.5800459 329.699200
   3031   3029   3041     1   109.8000471 387.438400
   3032   3038   3039     1   109.5600471 388.275200
   3032   3038   3040     1   109.5600471 388.275200
   3033   3032   3038     1   109.8000471 387.438400
   3033   3032   3034     1   107.5800459 329.699200
   3034   3032   3038     1   109.8000471 387.438400
   3036   3035   3044     1   109.7800468 425.094400
   3036   3035   3037     1   108.4600466 328.025600
   3037   3035   3044     1   109.7800468 425.094400
   3039   3038   6118     1   109.7800468 425.094400
   3039   3038   3040     1   108.4600466 328.025600
   3040   3038   6118     1   109.7800468 425.094400
   3042   3041   6147     1   109.7800468 425.094400
   3042   3041   3043     1   108.4600466 328.025600
   3043   3041   6147     1   109.7800468 425.094400
   3045   3046   3047     1   109.8800469 414.216000
   3045   3046   3048     1   109.8800469 414.216000
   3045   3049   3050     1   109.8800469 414.216000
   3045   3049   3051     1   109.8800469 414.216000
   3045   3052   3053     1   109.8800469 414.216000
   3045   3052   3054     1   109.8800469 414.216000
   3046   3058   3059     1   109.8000471 387.438400
   3046   3058   3060     1   109.8000471 387.438400
   3047   3046   3058     1   109.5600471 388.275200
   3047   3046   3048     1   108.4600466 328.025600
   3048   3046   3058     1   109.5600471 388.275200
   3049   3061   3062     1   109.8000471 387.438400
   3049   3061   3063     1   109.8000471 387.438400
   3050   3049   3061     1   109.5600471 388.275200
   3050   3049   3051     1   108.4600466 328.025600
   3051   3049   3061     1   109.5600471 388.275200
   3052   3055   3056     1   109.8000471 387.438400
   3052   3055   3057     1   109.8000471 387.438400
   3053   3052   3055     1   109.5600471 388.275200
   3053   3052   3054     1   108.4600466 328.025600
   3054   3052   3055     1   109.5600471 388.275200
   3055   3064   3065     1   109.5600471 388.275200
   3055   3064   3066     1   109.5600471 388.275200
   3056   3055   3064     1   109.8000471 387.438400
   3056   3055   3057     1   107.5800459 329.699200
   3057   3055   3064     1   109.8000471 387.438400
   3058   3070   3071     1   109.5600471 388.275200
   3058   3070   3072     1   109.5600471 388.275200
   3059   3058   3070     1   109.8000471 387.438400
   3059   3058   3060     1   107.5800459 329.699200
   3060   3058   3070     1   109.8000471 387.438400
   3061   3067   3068     1   109.5600471 388.275200
   3061   3067   3069     1   109.5600471 388.275200
   3062   3061   3067     1   109.8000471 387.438400
   3062   3061   3063     1   107.5800459 329.699200
   3063   3061   3067     1   109.8000471 387.438400
   3065   3064   3073     1   109.7800468 425.094400
   3065   3064   3066     1   108.4600466 328.025600
   3066   3064   3073     1   109.7800468 425.094400
   3068   3067   6176     1   109.7800468 425.094400
   3068   3067   3069     1   108.4600466 328.025600
   3069   3067   6176     1   109.7800468 425.094400
   3071   3070   6205     1   109.7800468 425.094400
   3071   3070   3072     1   108.4600466 328.025600
   3072   3070   6205     1   109.7800468 425.094400
   3074   3075   3076     1   109.8800469 414.216000
   3074   3075   3077     1   109.8800469 414.216000
   3074   3078   3079     1   109.8800469 414.216000
   3074   3078   3080     1   109.8800469 414.216000
   3074   3081   3082     1   109.8800469 414.216000
   3074   3081   3083     1   109.8800469 414.216000
   3075   3087   3088     1   109.8000471 387.438400
   3075   3087   3089     1   109.8000471 387.438400
   3076   3075   3087     1   109.5600471 388.275200
   3076   3075   3077     1   108.4600466 328.025600
   3077   3075   3087     1   109.5600471 388.275200
   3078   3090   3091     1   109.8000471 387.438400
   3078   3090   3092     1   109.8000471 387.438400
   3079   3078   3090     1   109.5600471 388.275200
   3079   3078   3080     1   108.4600466 328.025600
   3080   3078   3090     1   109.5600471 388.275200
   3081   3084   3085     1   109.8000471 387.438400
   3081   3084   3086     1   109.8000471 387.438400
   3082   3081   3084     1   109.5600471 388.275200
   3082   3081   3083     1   108.4600466 328.025600
   3083   3081   3084     1   109.5600471 388.275200
   3084   3093   3094     1   109.5600471 388.275200
   3084   3093   3095     1   109.5600471 388.275200
   3085   3084   3093     1   109.8000471 387.438400
   3085   3084   3086     1   107.5800459 329.699200
   3086   3084   3093     1   109.8000471 387.438400
   3087   3099   3100     1   109.5600471 388.275200
   3087   3099   3101     1   109.5600471 388.275200
   3088   3087   3099     1   109.8000471 387.438400
   3088   3087   3089     1   107.5800459 329.699200
   3089   3087   3099     1   109.8000471 387.438400
   3090   3096   3097     1   109.5600471 388.275200
   3090   3096   3098     1   109.5600471 388.275200
   3091   3090   3096     1   109.8000471 387.438400
   3091   3090   3092     1   107.5800459 329.699200
   3092   3090   3096     1   109.8000471 387.438400
   3094   3093   3102     1   109.7800468 425.094400
   3094   3093   3095     1   108.4600466 328.025600
   3095   3093   3102     1   109.7800468 425.094400
   3097   3096   6234     1   109.7800468 425.094400
   3097   3096   3098     1   108.4600466 328.025600
   3098   3096   6234     1   109.7800468 425.094400
   3100   3099   6263     1   109.7800468 425.094400
   3100   3099   3101     1   108.4600466 328.025600
   3101   3099   6263     1   109.7800468 425.094400
   3103   3104   3105     1   109.8800469 414.216000
   3103   3104   3106     1   109.8800469 414.216000
   3103   3107   3108     1   109.8800469 414.216000
   3103   3107   3109     1   109.8800469 414.216000
   3103   3110   3111     1   109.8800469 414.216000
   3103   3110   3112     1   109.8800469 414.216000
   3104   3116   3117     1   109.8000471 387.438400
   3104   3116   3118     1   109.8000471 387.438400
   3105   3104   3116     1   109.5600471 388.275200
   3105   3104   3106     1   108.4600466 328.025600
   3106   3104   3116     1   109.5600471 388.275200
   3107   3119   3120     1   109.8000471 387.438400
   3107   3119   3121     1   109.8000471 387.438400
   3108   3107   3119     1   109.5600471 388.275200
   3108   3107   3109     1   108.4600466 328.025600
   3109   3107   3119     1   109.5600471 388.275200
   3110   3113   3114     1   109.8000471 387.438400
   3110   3113   3115     1   109.8000471 387.438400
   3111   3110   3113     1   109.5600471 388.275200
   3111   3110   3112     1   108.4600466 328.025600
   3112   3110   3113     1   109.5600471 388.275200
   3113   3122   3123     1   109.5600471 388.275200
   3113   3122   3124     1   109.5600471 388.275200
   3114   3113   3122     1   109.8000471 387.438400
   3114   3113   3115     1   107.5800459 329.699200
   3115   3113   3122     1   109.8000471 387.438400
   3116   3128   3129     1   109.5600471 388.275200
   3116   3128   3130     1   109.5600471 388.275200
   3117   3116   3128     1   109.8000471 387.438400
   3117   3116   3118     1   107.5800459 329.699200
   3118   3116   3128     1   109.8000471 387.438400
   3119   3125   3126     1   109.5600471 388.275200
   3119   3125   3127     1   109.5600471 388.275200
   3120   3119   3125     1   109.8000471 387.438400
   3120   3119   3121     1   107.5800459 329.699200
   3121   3119   3125     1   109.8000471 387.438400
   3123   3122   3131     1   109.7800468 425.094400
   3123   3122   3124     1   108.4600466 328.025600
   3124   3122   3131     1   109.7800468 425.094400
   3126   3125   6292     1   109.7800468 425.094400
   3126   3125   3127     1   108.4600466 328.025600
   3127   3125   6292     1   109.7800468 425.094400
   3129   3128   6321     1   109.7800468 425.094400
   3129   3128   3130     1   108.4600466 328.025600
   3130   3128   6321     1   109.7800468 425.094400
   3132   3133   3134     1   109.8800469 414.216000
   3132   3133   3135     1   109.8800469 414.216000
   3132   3136   3137     1   109.8800469 414.216000
   3132   3136   3138     1   109.8800469 414.216000
   3132   3139   3140     1   109.8800469 414.216000
   3132   3139   3141     1   109.8800469 414.216000
   3133   3145   3146     1   109.8000471 387.438400
   3133   3145   3147     1   109.8000471 387.438400
   3134   3133   3145     1   109.5600471 388.275200
   3134   3133   3135     1   108.4600466 328.025600
   3135   3133   3145     1   109.5600471 388.275200
   3136   3148   3149     1   109.8000471 387.438400
   3136   3148   3150     1   109.8000471 387.438400
   3137   3136   3148     1   109.5600471 388.275200
   3137   3136   3138     1   108.4600466 328.025600
   3138   3136   3148     1   109.5600471 388.275200
   3139   3142   3143     1   109.8000471 387.438400
   3139   3142   3144     1   109.8000471 387.438400
   3140   3139   3142     1   109.5600471 388.275200
   3140   3139   3141     1   108.4600466 328.025600
   3141   3139   3142     1   109.5600471 388.275200
   3142   3151   3152     1   109.5600471 388.275200
   3142   3151   3153     1   109.5600471 388.275200
   3143   3142   3151     1   109.8000471 387.438400
   3143   3142   3144     1   107.5800459 329.699200
   3144   3142   3151     1   109.8000471 387.438400
   3145   3157   3158     1   109.5600471 388.275200
   3145   3157   3159     1   109.5600471 388.275200
   3146   3145   3157     1   109.8000471 387.438400
   3146   3145   3147     1   107.5800459 329.699200
   3147   3145   3157     1   109.8000471 387.438400
   3148   3154   3155     1   109.5600471 388.275200
   3148   3154   3156     1   109.5600471 388.275200
   3149   3148   3154     1   109.8000471 387.438400
   3149   3148   3150     1   107.5800459 329.699200
   3150   3148   3154     1   109.8000471 387.438400
   3152   3151   3160     1   109.7800468 425.094400
   3152   3151   3153     1   108.4600466 328.025600
   3153   3151   3160     1   109.7800468 425.094400
   3155   3154   6350     1   109.7800468 425.094400
   3155   3154   3156     1   108.4600466 328.025600
   3156   3154   6350     1   109.7800468 425.094400
   3158   3157   6379     1   109.7800468 425.094400
   3158   3157   3159     1   108.4600466 328.025600
   3159   3157   6379     1   109.7800468 425.094400
   3161   3162   3163     1   109.8800469 414.216000
   3161   3162   3164     1   109.8800469 414.216000
   3161   3165   3166     1   109.8800469 414.216000
   3161   3165   3167     1   109.8800469 414.216000
   3161   3168   3169     1   109.8800469 414.216000
   3161   3168   3170     1   109.8800469 414.216000
   3162   3174   3175     1   109.8000471 387.438400
   3162   3174   3176     1   109.8000471 387.438400
   3163   3162   3174     1   109.5600471 388.275200
   3163   3162   3164     1   108.4600466 328.025600
   3164   3162   3174     1   109.5600471 388.275200
   3165   3177   3178     1   109.8000471 387.438400
   3165   3177   3179     1   109.8000471 387.438400
   3166   3165   3177     1   109.5600471 388.275200
   3166   3165   3167     1   108.4600466 328.025600
   3167   3165   3177     1   109.5600471 388.275200
   3168   3171   3172     1   109.8000471 387.438400
   3168   3171   3173     1   109.8000471 387.438400
   3169   3168   3171     1   109.5600471 388.275200
   3169   3168   3170     1   108.4600466 328.025600
   3170   3168   3171     1   109.5600471 388.275200
   3171   3180   3181     1   109.5600471 388.275200
   3171   3180   3182     1   109.5600471 388.275200
   3172   3171   3180     1   109.8000471 387.438400
   3172   3171   3173     1   107.5800459 329.699200
   3173   3171   3180     1   109.8000471 387.438400
   3174   3186   3187     1   109.5600471 388.275200
   3174   3186   3188     1   109.5600471 388.275200
   3175   3174   3186     1   109.8000471 387.438400
   3175   3174   3176     1   107.5800459 329.699200
   3176   3174   3186     1   109.8000471 387.438400
   3177   3183   3184     1   109.5600471 388.275200
   3177   3183   3185     1   109.5600471 388.275200
   3178   3177   3183     1   109.8000471 387.438400
   3178   3177   3179     1   107.5800459 329.699200
   3179   3177   3183     1   109.8000471 387.438400
   3181   3180   3189     1   109.7800468 425.094400
   3181   3180   3182     1   108.4600466 328.025600
   3182   3180   3189     1   109.7800468 425.094400
   3184   3183   6408     1   109.7800468 425.094400
   3184   3183   3185     1   108.4600466 328.025600
   3185   3183   6408     1   109.7800468 425.094400
   3187   3186   6437     1   109.7800468 425.094400
   3187   3186   3188     1   108.4600466 328.025600
   3188   3186   6437     1   109.7800468 425.094400
   3190   3191   3192     1   109.8800469 414.216000
   3190   3191   3193     1   109.8800469 414.216000
   3190   3194   3195     1   109.8800469 414.216000
   3190   3194   3196     1   109.8800469 414.216000
   3190   3197   3198     1   109.8800469 414.216000
   3190   3197   3199     1   109.8800469 414.216000
   3191   3203   3204     1   109.8000471 387.438400
   3191   3203   3205     1   109.8000471 387.438400
   3192   3191   3203     1   109.5600471 388.275200
   3192   3191   3193     1   108.4600466 328.025600
   3193   3191   3203     1   109.5600471 388.275200
   3194   3206   3207     1   109.8000471 387.438400
   3194   3206   3208     1   109.8000471 387.438400
   3195   3194   3206     1   109.5600471 388.275200
   3195   3194   3196     1   108.4600466 328.025600
   3196   3194   3206     1   109.5600471 388.275200
   3197   3200   3201     1   109.8000471 387.438400
   3197   3200   3202     1   109.8000471 387.438400
   3198   3197   3200     1   109.5600471 388.275200
   3198   3197   3199     1   108.4600466 328.025600
   3199   3197   3200     1   109.5600471 388.275200
   3200   3209   3210     1   109.5600471 388.275200
   3200   3209   3211     1   109.5600471 388.275200
   3201   3200   3209     1   109.8000471 387.438400
   3201   3200   3202     1   107.5800459 329.699200
   3202   3200   3209     1   109.8000471 387.438400
   3203   3215   3216     1   109.5600471 388.275200
   3203   3215   3217     1   109.5600471 388.275200
   3204   3203   3215     1   109.8000471 387.438400
   3204   3203   3205     1   107.5800459 329.699200
   3205   3203   3215     1   109.8000471 387.438400
   3206   3212   3213     1   109.5600471 388.275200
   3206   3212   3214     1   109.5600471 388.275200
   3207   3206   3212     1   109.8000471 387.438400
   3207   3206   3208     1   107.5800459 329.699200
   3208   3206   3212     1   109.8000471 387.438400
   3210   3209   3218     1   109.7800468 425.094400
   3210   3209   3211     1   108.4600466 328.025600
   3211   3209   3218     1   109.7800468 425.094400
   3213   3212   6466     1   109.7800468 425.094400
   3213   3212   3214     1   108.4600466 328.025600
   3214   3212   6466     1   109.7800468 425.094400
   3216   3215   6495     1   109.7800468 425.094400
   3216   3215   3217     1   108.4600466 328.025600
   3217   3215   6495     1   109.7800468 425.094400
   3219   3220   3221     1   109.8800469 414.216000
   3219   3220   3222     1   109.8800469 414.216000
   3219   3223   3224     1   109.8800469 414.216000
   3219   3223   3225     1   109.8800469 414.216000
   3219   3226   3227     1   109.8800469 414.216000
   3219   3226   3228     1   109.8800469 414.216000
   3220   3232   3233     1   109.8000471 387.438400
   3220   3232   3234     1   109.8000471 387.438400
   3221   3220   3232     1   109.5600471 388.275200
   3221   3220   3222     1   108.4600466 328.025600
   3222   3220   3232     1   109.5600471 388.275200
   3223   3235   3236     1   109.8000471 387.438400
   3223   3235   3237     1   109.8000471 387.438400
   3224   3223   3235     1   109.5600471 388.275200
   3224   3223   3225     1   108.4600466 328.025600
   3225   3223   3235     1   109.5600471 388.275200
   3226   3229   3230     1   109.8000471 387.438400
   3226   3229   3231     1   109.8000471 387.438400
   3227   3226   3229     1   109.5600471 388.275200
   3227   3226   3228     1   108.4600466 328.025600
   3228   3226   3229     1   109.5600471 388.275200
   3229   3238   3239     1   109.5600471 388.275200
   3229   3238   3240     1   109.5600471 388.275200
   3230   3229   3238     1   109.8000471 387.438400
   3230   3229   3231     1   107.5800459 329.699200
   3231   3229   3238     1   109.8000471 387.438400
   3232   3244   3245     1   109.5600471 388.275200
   3232   3244   3246     1   109.5600471 388.275200
   3233   3232   3244     1   109.8000471 387.438400
   3233   3232   3234     1   107.5800459 329.699200
   3234   3232   3244     1   109.8000471 387.438400
   3235   3241   3242     1   109.5600471 388.275200
   3235   3241   3243     1   109.5600471 388.275200
   3236   3235   3241     1   109.8000471 387.438400
   3236   3235   3237     1   107.5800459 329.699200
   3237   3235   3241     1   109.8000471 387.438400
   3239   3238   3247     1   109.7800468 425.094400
   3239   3238   3240     1   108.4600466 328.025600
   3240   3238   3247     1   109.7800468 425.094400
   3242   3241   6524     1   109.7800468 425.094400
   3242   3241   3243     1   108.4600466 328.025600
   3243   3241   6524     1   109.7800468 425.094400
   3245   3244   6553     1   109.7800468 425.094400
   3245   3244   3246     1   108.4600466 328.025600
   3246   3244   6553     1   109.7800468 425.094400
   3248   3249   3250     1   109.8800469 414.216000
   3248   3249   3251     1   109.8800469 414.216000
   3248   3252   3253     1   109.8800469 414.216000
   3248   3252   3254     1   109.8800469 414.216000
   3248   3255   3256     1   109.8800469 414.216000
   3248   3255   3257     1   109.8800469 414.216000
   3249   3261   3262     1   109.8000471 387.438400
   3249   3261   3263     1   109.8000471 387.438400
   3250   3249   3261     1   109.5600471 388.275200
   3250   3249   3251     1   108.4600466 328.025600
   3251   3249   3261     1   109.5600471 388.275200
   3252   3264   3265     1   109.8000471 387.438400
   3252   3264   3266     1   109.8000471 387.438400
   3253   3252   3264     1   109.5600471 388.275200
   3253   3252   3254     1   108.4600466 328.025600
   3254   3252   3264     1   109.5600471 388.275200
   3255   3258   3259     1   109.8000471 387.438400
   3255   3258   3260     1   109.8000471 387.438400
   3256   3255   3258     1   109.5600471 388.275200
   3256   3255   3257     1   108.4600466 328.025600
   3257   3255   3258     1   109.5600471 388.275200
   3258   3267   3268     1   109.5600471 388.275200
   3258   3267   3269     1   109.5600471 388.275200
   3259   3258   3267     1   109.8000471 387.438400
   3259   3258   3260     1   107.5800459 329.699200
   3260   3258   3267     1   109.8000471 387.438400
   3261   3273   3274     1   109.5600471 388.275200
   3261   3273   3275     1   109.5600471 388.275200
   3262   3261   3273     1   109.8000471 387.438400
   3262   3261   3263     1   107.5800459 329.699200
   3263   3261   3273     1   109.8000471 387.438400
   3264   3270   3271     1   109.5600471 388.275200
   3264   3270   3272     1   109.5600471 388.275200
   3265   3264   3270     1   109.8000471 387.438400
   3265   3264   3266     1   107.5800459 329.699200
   3266   3264   3270     1   109.8000471 387.438400
   3268   3267   3276     1   109.7800468 425.094400
   3268   3267   3269     1   108.4600466 328.025600
   3269   3267   3276     1   109.7800468 425.094400
   3271   3270   6582     1   109.7800468 425.094400
   3271   3270   3272     1   108.4600466 328.025600
   3272   3270   6582     1   109.7800468 425.094400
   3274   3273   6611     1   109.7800468 425.094400
   3274   3273   3275     1   108.4600466 328.025600
   3275   3273   6611     1   109.7800468 425.094400
   3277   3278   3279     1   109.8800469 414.216000
   3277   3278   3280     1   109.8800469 414.216000
   3277   3281   3282     1   109.8800469 414.216000
   3277   3281   3283     1   109.8800469 414.216000
   3277   3284   3285     1   109.8800469 414.216000
   3277   3284   3286     1   109.8800469 414.216000
   3278   3290   3291     1   109.8000471 387.438400
   3278   3290   3292     1   109.8000471 387.438400
   3279   3278   3290     1   109.5600471 388.275200
   3279   3278   3280     1   108.4600466 328.025600
   3280   3278   3290     1   109.5600471 388.275200
   3281   3293   3294     1   109.8000471 387.438400
   3281   3293   3295     1   109.8000471 387.438400
   3282   3281   3293     1   109.5600471 388.275200
   3282   3281   3283     1   108.4600466 328.025600
   3283   3281   3293     1   109.5600471 388.275200
   3284   3287   3288     1   109.8000471 387.438400
   3284   3287   3289     1   109.8000471 387.438400
   3285   3284   3287     1   109.5600471 388.275200
   3285   3284   3286     1   108.4600466 328.025600
   3286   3284   3287     1   109.5600471 388.275200
   3287   3296   3297     1   109.5600471 388.275200
   3287   3296   3298     1   109.5600471 388.275200
   3288   3287   3296     1   109.8000471 387.438400
   3288   3287   3289     1   107.5800459 329.699200
   3289   3287   3296     1   109.8000471 387.438400
   3290   3302   3303     1   109.5600471 388.275200
   3290   3302   3304     1   109.5600471 388.275200
   3291   3290   3302     1   109.8000471 387.438400
   3291   3290   3292     1   107.5800459 329.699200
   3292   3290   3302     1   109.8000471 387.438400
   3293   3299   3300     1   109.5600471 388.275200
   3293   3299   3301     1   109.5600471 388.275200
   3294   3293   3299     1   109.8000471 387.438400
   3294   3293   3295     1   107.5800459 329.699200
   3295   3293   3299     1   109.8000471 387.438400
   3297   3296   3305     1   109.7800468 425.094400
   3297   3296   3298     1   108.4600466 328.025600
   3298   3296   3305     1   109.7800468 425.094400
   3300   3299   6640     1   109.7800468 425.094400
   3300   3299   3301     1   108.4600466 328.025600
   3301   3299   6640     1   109.7800468 425.094400
   3303   3302   6669     1   109.7800468 425.094400
   3303   3302   3304     1   108.4600466 328.025600
   3304   3302   6669     1   109.7800468 425.094400
   3306   3307   3308     1   109.8800469 414.216000
   3306   3307   3309     1   109.8800469 414.216000
   3306   3310   3311     1   109.8800469 414.216000
   3306   3310   3312     1   109.8800469 414.216000
   3306   3313   3314     1   109.8800469 414.216000
   3306   3313   3315     1   109.8800469 414.216000
   3307   3319   3320     1   109.8000471 387.438400
   3307   3319   3321     1   109.8000471 387.438400
   3308   3307   3319     1   109.5600471 388.275200
   3308   3307   3309     1   108.4600466 328.025600
   3309   3307   3319     1   109.5600471 388.275200
   3310   3322   3323     1   109.8000471 387.438400
   3310   3322   3324     1   109.8000471 387.438400
   3311   3310   3322     1   109.5600471 388.275200
   3311   3310   3312     1   108.4600466 328.025600
   3312   3310   3322     1   109.5600471 388.275200
   3313   3316   3317     1   109.8000471 387.438400
   3313   3316   3318     1   109.8000471 387.438400
   3314   3313   3316     1   109.5600471 388.275200
   3314   3313   3315     1   108.4600466 328.025600
   3315   3313   3316     1   109.5600471 388.275200
   3316   3325   3326     1   109.5600471 388.275200
   3316   3325   3327     1   109.5600471 388.275200
   3317   3316   3325     1   109.8000471 387.438400
   3317   3316   3318     1   107.5800459 329.699200
   3318   3316   3325     1   109.8000471 387.438400
   3319   3331   3332     1   109.5600471 388.275200
   3319   3331   3333     1   109.5600471 388.275200
   3320   3319   3331     1   109.8000471 387.438400
   3320   3319   3321     1   107.5800459 329.699200
   3321   3319   3331     1   109.8000471 387.438400
   3322   3328   3329     1   109.5600471 388.275200
   3322   3328   3330     1   109.5600471 388.275200
   3323   3322   3328     1   109.8000471 387.438400
   3323   3322   3324     1   107.5800459 329.699200
   3324   3322   3328     1   109.8000471 387.438400
   3326   3325   3334     1   109.7800468 425.094400
   3326   3325   3327     1   108.4600466 328.025600
   3327   3325   3334     1   109.7800468 425.094400
   3329   3328   6698     1   109.7800468 425.094400
   3329   3328   3330     1   108.4600466 328.025600
   3330   3328   6698     1   109.7800468 425.094400
   3332   3331   6727     1   109.7800468 425.094400
   3332   3331   3333     1   108.4600466 328.025600
   3333   3331   6727     1   109.7800468 425.094400
   3335   3336   3337     1   109.8800469 414.216000
   3335   3336   3338     1   109.8800469 414.216000
   3335   3339   3340     1   109.8800469 414.216000
   3335   3339   3341     1   109.8800469 414.216000
   3335   3342   3343     1   109.8800469 414.216000
   3335   3342   3344     1   109.8800469 414.216000
   3336   3348   3349     1   109.8000471 387.438400
   3336   3348   3350     1   109.8000471 387.438400
   3337   3336   3348     1   109.5600471 388.275200
   3337   3336   3338     1   108.4600466 328.025600
   3338   3336   3348     1   109.5600471 388.275200
   3339   3351   3352     1   109.8000471 387.438400
   3339   3351   3353     1   109.8000471 387.438400
   3340   3339   3351     1   109.5600471 388.275200
   3340   3339   3341     1   108.4600466 328.025600
   3341   3339   3351     1   109.5600471 388.275200
   3342   3345   3346     1   109.8000471 387.438400
   3342   3345   3347     1   109.8000471 387.438400
   3343   3342   3345     1   109.5600471 388.275200
   3343   3342   3344     1   108.4600466 328.025600
   3344   3342   3345     1   109.5600471 388.275200
   3345   3354   3355     1   109.5600471 388.275200
   3345   3354   3356     1   109.5600471 388.275200
   3346   3345   3354     1   109.8000471 387.438400
   3346   3345   3347     1   107.5800459 329.699200
   3347   3345   3354     1   109.8000471 387.438400
   3348   3360   3361     1   109.5600471 388.275200
   3348   3360   3362     1   109.5600471 388.275200
   3349   3348   3360     1   109.8000471 387.438400
   3349   3348   3350     1   107.5800459 329.699200
   3350   3348   3360     1   109.8000471 387.438400
   3351   3357   3358     1   109.5600471 388.275200
   3351   3357   3359     1   109.5600471 388.275200
   3352   3351   3357     1   109.8000471 387.438400
   3352   3351   3353     1   107.5800459 329.699200
   3353   3351   3357     1   109.8000471 387.438400
   3355   3354   3363     1   109.7800468 425.094400
   3355   3354   3356     1   108.4600466 328.025600
   3356   3354   3363     1   109.7800468 425.094400
   3358   3357   6756     1   109.7800468 425.094400
   3358   3357   3359     1   108.4600466 328.025600
   3359   3357   6756     1   109.7800468 425.094400
   3361   3360   6785     1   109.7800468 425.094400
   3361   3360   3362     1   108.4600466 328.025600
   3362   3360   6785     1   109.7800468 425.094400
   3364   3365   3366     1   109.8800469 414.216000
   3364   3365   3367     1   109.8800469 414.216000
   3364   3368   3369     1   109.8800469 414.216000
   3364   3368   3370     1   109.8800469 414.216000
   3364   3371   3372     1   109.8800469 414.216000
   3364   3371   3373     1   109.8800469 414.216000
   3365   3377   3378     1   109.8000471 387.438400
   3365   3377   3379     1   109.8000471 387.438400
   3366   3365   3377     1   109.5600471 388.275200
   3366   3365   3367     1   108.4600466 328.025600
   3367   3365   3377     1   109.5600471 388.275200
   3368   3380   3381     1   109.8000471 387.438400
   3368   3380   3382     1   109.8000471 387.438400
   3369   3368   3380     1   109.5600471 388.275200
   3369   3368   3370     1   108.4600466 328.025600
   3370   3368   3380     1   109.5600471 388.275200
   3371   3374   3375     1   109.8000471 387.438400
   3371   3374   3376     1   109.8000471 387.438400
   3372   3371   3374     1   109.5600471 388.275200
   3372   3371   3373     1   108.4600466 328.025600
   3373   3371   3374     1   109.5600471 388.275200
   3374   3383   3384     1   109.5600471 388.275200
   3374   3383   3385     1   109.5600471 388.275200
   3375   3374   3383     1   109.8000471 387.438400
   3375   3374   3376     1   107.5800459 329.699200
   3376   3374   3383     1   109.8000471 387.438400
   3377   3389   3390     1   109.5600471 388.275200
   3377   3389   3391     1   109.5600471 388.275200
   3378   3377   3389     1   109.8000471 387.438400
   3378   3377   3379     1   107.5800459 329.699200
   3379   3377   3389     1   109.8000471 387.438400
   3380   3386   3387     1   109.5600471 388.275200
   3380   3386   3388     1   109.5600471 388.275200
   3381   3380   3386     1   109.8000471 387.438400
   3381   3380   3382     1   107.5800459 329.699200
   3382   3380   3386     1   109.8000471 387.438400
   3384   3383   3392     1   109.7800468 425.094400
   3384   3383   3385     1   108.4600466 328.025600
   3385   3383   3392     1   109.7800468 425.094400
   3387   3386   6814     1   109.7800468 425.094400
   3387   3386   3388     1   108.4600466 328.025600
   3388   3386   6814     1   109.7800468 425.094400
   3390   3389   6843     1   109.7800468 425.094400
   3390   3389   3391     1   108.4600466 328.025600
   3391   3389   6843     1   109.7800468 425.094400
   3393   3394   3395     1   109.8800469 414.216000
   3393   3394   3396     1   109.8800469 414.216000
   3393   3397   3398     1   109.8800469 414.216000
   3393   3397   3399     1   109.8800469 414.216000
   3393   3400   3401     1   109.8800469 414.216000
   3393   3400   3402     1   109.8800469 414.216000
   3394   3406   3407     1   109.8000471 387.438400
   3394   3406   3408     1   109.8000471 387.438400
   3395   3394   3406     1   109.5600471 388.275200
   3395   3394   3396     1   108.4600466 328.025600
   3396   3394   3406     1   109.5600471 388.275200
   3397   3409   3410     1   109.8000471 387.438400
   3397   3409   3411     1   109.8000471 387.438400
   3398   3397   3409     1   109.5600471 388.275200
   3398   3397   3399     1   108.4600466 328.025600
   3399   3397   3409     1   109.5600471 388.275200
   3400   3403   3404     1   109.8000471 387.438400
   3400   3403   3405     1   109.8000471 387.438400
   3401   3400   3403     1   109.5600471 388.275200
   3401   3400   3402     1   108.4600466 328.025600
   3402   3400   3403     1   109.5600471 388.275200
   3403   3412   3413     1   109.5600471 388.275200
   3403   3412   3414     1   109.5600471 388.275200
   3404   3403   3412     1   109.8000471 387.438400
   3404   3403   3405     1   107.5800459 329.699200
   3405   3403   3412     1   109.8000471 387.438400
   3406   3418   3419     1   109.5600471 388.275200
   3406   3418   3420     1   109.5600471 388.275200
   3407   3406   3418     1   109.8000471 387.438400
   3407   3406   3408     1   107.5800459 329.699200
   3408   3406   3418     1   109.8000471 387.438400
   3409   3415   3416     1   109.5600471 388.275200
   3409   3415   3417     1   109.5600471 388.275200
   3410   3409   3415     1   109.8000471 387.438400
   3410   3409   3411     1   107.5800459 329.699200
   3411   3409   3415     1   109.8000471 387.438400
   3413   3412   3421     1   109.7800468 425.094400
   3413   3412   3414     1   108.4600466 328.025600
   3414   3412   3421     1   109.7800468 425.094400
   3416   3415   6872     1   109.7800468 425.094400
   3416   3415   3417     1   108.4600466 328.025600
   3417   3415   6872     1   109.7800468 425.094400
   3419   3418   6901     1   109.7800468 425.094400
   3419   3418   3420     1   108.4600466 328.025600
   3420   3418   6901     1   109.7800468 425.094400
   3422   3423   3424     1   109.8800469 414.216000
   3422   3423   3425     1   109.8800469 414.216000
   3422   3426   3427     1   109.8800469 414.216000
   3422   3426   3428     1   109.8800469 414.216000
   3422   3429   3430     1   109.8800469 414.216000
   3422   3429   3431     1   109.8800469 414.216000
   3423   3435   3436     1   109.8000471 387.438400
   3423   3435   3437     1   109.8000471 387.438400
   3424   3423   3435     1   109.5600471 388.275200
   3424   3423   3425     1   108.4600466 328.025600
   3425   3423   3435     1   109.5600471 388.275200
   3426   3438   3439     1   109.8000471 387.438400
   3426   3438   3440     1   109.8000471 387.438400
   3427   3426   3438     1   109.5600471 388.275200
   3427   3426   3428     1   108.4600466 328.025600
   3428   3426   3438     1   109.5600471 388.275200
   3429   3432   3433     1   109.8000471 387.438400
   3429   3432   3434     1   109.8000471 387.438400
   3430   3429   3432     1   109.5600471 388.275200
   3430   3429   3431     1   108.4600466 328.025600
   3431   3429   3432     1   109.5600471 388.275200
   3432   3441   3442     1   109.5600471 388.275200
   3432   3441   3443     1   109.5600471 388.275200
   3433   3432   3441     1   109.8000471 387.438400
   3433   3432   3434     1   107.5800459 329.699200
   3434   3432   3441     1   109.8000471 387.438400
   3435   3447   3448     1   109.5600471 388.275200
   3435   3447   3449     1   109.5600471 388.275200
   3436   3435   3447     1   109.8000471 387.438400
   3436   3435   3437     1   107.5800459 329.699200
   3437   3435   3447     1   109.8000471 387.438400
   3438   3444   3445     1   109.5600471 388.275200
   3438   3444   3446     1   109.5600471 388.275200
   3439   3438   3444     1   109.8000471 387.438400
   3439   3438   3440     1   107.5800459 329.699200
   3440   3438   3444     1   109.8000471 387.438400
   3442   3441   3450     1   109.7800468 425.094400
   3442   3441   3443     1   108.4600466 328.025600
   3443   3441   3450     1   109.7800468 425.094400
   3445   3444   6930     1   109.7800468 425.094400
   3445   3444   3446     1   108.4600466 328.025600
   3446   3444   6930     1   109.7800468 425.094400
   3448   3447   6959     1   109.7800468 425.094400
   3448   3447   3449     1   108.4600466 328.025600
   3449   3447   6959     1   109.7800468 425.094400
   3451   3452   3453     1   109.8800469 414.216000
   3451   3452   3454     1   109.8800469 414.216000
   3451   3455   3456     1   109.8800469 414.216000
   3451   3455   3457     1   109.8800469 414.216000
   3451   3458   3459     1   109.8800469 414.216000
   3451   3458   3460     1   109.8800469 414.216000
   3452   3464   3465     1   109.8000471 387.438400
   3452   3464   3466     1   109.8000471 387.438400
   3453   3452   3464     1   109.5600471 388.275200
   3453   3452   3454     1   108.4600466 328.025600
   3454   3452   3464     1   109.5600471 388.275200
   3455   3467   3468     1   109.8000471 387.438400
   3455   3467   3469     1   109.8000471 387.438400
   3456   3455   3467     1   109.5600471 388.275200
   3456   3455   3457     1   108.4600466 328.025600
   3457   3455   3467     1   109.5600471 388.275200
   3458   3461   3462     1   109.8000471 387.438400
   3458   3461   3463     1   109.8000471 387.438400
   3459   3458   3461     1   109.5600471 388.275200
   3459   3458   3460     1   108.4600466 328.025600
   3460   3458   3461     1   109.5600471 388.275200
   3461   3470   3471     1   109.5600471 388.275200
   3461   3470   3472     1   109.5600471 388.275200
   3462   3461   3470     1   109.8000471 387.438400
   3462   3461   3463     1   107.5800459 329.699200
   3463   3461   3470     1   109.8000471 387.438400
   3464   3476   3477     1   109.5600471 388.275200
   3464   3476   3478     1   109.5600471 388.275200
   3465   3464   3476     1   109.8000471 387.438400
   3465   3464   3466     1   107.5800459 329.699200
   3466   3464   3476     1   109.8000471 387.438400
   3467   3473   3474     1   109.5600471 388.275200
   3467   3473   3475     1   109.5600471 388.275200
   3468   3467   3473     1   109.8000471 387.438400
   3468   3467   3469     1   107.5800459 329.699200
   3469   3467   3473     1   109.8000471 387.438400
   3471   3470   3479     1   109.7800468 425.094400
   3471   3470   3472     1   108.4600466 328.025600
   3472   3470   3479     1   109.7800468 425.094400
   3474   3473   6988     1   109.7800468 425.094400
   3474   3473   3475     1   108.4600466 328.025600
   3475   3473   6988     1   109.7800468 425.094400
   3477   3476   7017     1   109.7800468 425.094400
   3477   3476   3478     1   108.4600466 328.025600
   3478   3476   7017     1   109.7800468 425.094400
   3480   3481   3482     1   109.8800469 414.216000
   3480   3481   3483     1   109.8800469 414.216000
   3480   3484   3485     1   109.8800469 414.216000
   3480   3484   3486     1   109.8800469 414.216000
   3480   3487   3488     1   109.8800469 414.216000
   3480   3487   3489     1   109.8800469 414.216000
   3481   3493   3494     1   109.8000471 387.438400
   3481   3493   3495     1   109.8000471 387.438400
   3482   3481   3493     1   109.5600471 388.275200
   3482   3481   3483     1   108.4600466 328.025600
   3483   3481   3493     1   109.5600471 388.275200
   3484   3496   3497     1   109.8000471 387.438400
   3484   3496   3498     1   109.8000471 387.438400
   3485   3484   3496     1   109.5600471 388.275200
   3485   3484   3486     1   108.4600466 328.025600
   3486   3484   3496     1   109.5600471 388.275200
   3487   3490   3491     1   109.8000471 387.438400
   3487   3490   3492     1   109.8000471 387.438400
   3488   3487   3490     1   109.5600471 388.275200
   3488   3487   3489     1   108.4600466 328.025600
   3489   3487   3490     1   109.5600471 388.275200
   3490   3499   3500     1   109.5600471 388.275200
   3490   3499   3501     1   109.5600471 388.275200
   3491   3490   3499     1   109.8000471 387.438400
   3491   3490   3492     1   107.5800459 329.699200
   3492   3490   3499     1   109.8000471 387.438400
   3493   3505   3506     1   109.5600471 388.275200
   3493   3505   3507     1   109.5600471 388.275200
   3494   3493   3505     1   109.8000471 387.438400
   3494   3493   3495     1   107.5800459 329.699200
   3495   3493   3505     1   109.8000471 387.438400
   3496   3502   3503     1   109.5600471 388.275200
   3496   3502   3504     1   109.5600471 388.275200
   3497   3496   3502     1   109.8000471 387.438400
   3497   3496   3498     1   107.5800459 329.699200
   3498   3496   3502     1   109.8000471 387.438400
   3500   3499   3508     1   109.7800468 425.094400
   3500   3499   3501     1   108.4600466 328.025600
   3501   3499   3508     1   109.7800468 425.094400
   3503   3502   7046     1   109.7800468 425.094400
   3503   3502   3504     1   108.4600466 328.025600
   3504   3502   7046     1   109.7800468 425.094400
   3506   3505   7075     1   109.7800468 425.094400
   3506   3505   3507     1   108.4600466 328.025600
   3507   3505   7075     1   109.7800468 425.094400
   3509   3510   3511     1   109.8800469 414.216000
   3509   3510   3512     1   109.8800469 414.216000
   3509   3513   3514     1   109.8800469 414.216000
   3509   3513   3515     1   109.8800469 414.216000
   3509   3516   3517     1   109.8800469 414.216000
   3509   3516   3518     1   109.8800469 414.216000
   3510   3522   3523     1   109.8000471 387.438400
   3510   3522   3524     1   109.8000471 387.438400
   3511   3510   3522     1   109.5600471 388.275200
   3511   3510   3512     1   108.4600466 328.025600
   3512   3510   3522     1   109.5600471 388.275200
   3513   3525   3526     1   109.8000471 387.438400
   3513   3525   3527     1   109.8000471 387.438400
   3514   3513   3525     1   109.5600471 388.275200
   3514   3513   3515     1   108.4600466 328.025600
   3515   3513   3525     1   109.5600471 388.275200
   3516   3519   3520     1   109.8000471 387.438400
   3516   3519   3521     1   109.8000471 387.438400
   3517   3516   3519     1   109.5600471 388.275200
   3517   3516   3518     1   108.4600466 328.025600
   3518   3516   3519     1   109.5600471 388.275200
   3519   3528   3529     1   109.5600471 388.275200
   3519   3528   3530     1   109.5600471 388.275200
   3520   3519   3528     1   109.8000471 387.438400
   3520   3519   3521     1   107.5800459 329.699200
   3521   3519   3528     1   109.8000471 387.438400
   3522   3534   3535     1   109.5600471 388.275200
   3522   3534   3536     1   109.5600471 388.275200
   3523   3522   3534     1   109.8000471 387.438400
   3523   3522   3524     1   107.5800459 329.699200
   3524   3522   3534     1   109.8000471 387.438400
   3525   3531   3532     1   109.5600471 388.275200
   3525   3531   3533     1   109.5600471 388.275200
   3526   3525   3531     1   109.8000471 387.438400
   3526   3525   3527     1   107.5800459 329.699200
   3527   3525   3531     1   109.8000471 387.438400
   3529   3528   3537     1   109.7800468 425.094400
   3529   3528   3530     1   108.4600466 328.025600
   3530   3528   3537     1   109.7800468 425.094400
   3532   3531   7104     1   109.7800468 425.094400
   3532   3531   3533     1   108.4600466 328.025600
   3533   3531   7104     1   109.7800468 425.094400
   3535   3534   7133     1   109.7800468 425.094400
   3535   3534   3536     1   108.4600466 328.025600
   3536   3534   7133     1   109.7800468 425.094400
   3538   3539   3540     1   109.8800469 414.216000
   3538   3539   3541     1   109.8800469 414.216000
   3538   3542   3543     1   109.8800469 414.216000
   3538   3542   3544     1   109.8800469 414.216000
   3538   3545   3546     1   109.8800469 414.216000
   3538   3545   3547     1   109.8800469 414.216000
   3539   3551   3552     1   109.8000471 387.438400
   3539   3551   3553     1   109.8000471 387.438400
   3540   3539   3551     1   109.5600471 388.275200
   3540   3539   3541     1   108.4600466 328.025600
   3541   3539   3551     1   109.5600471 388.275200
   3542   3554   3555     1   109.8000471 387.438400
   3542   3554   3556     1   109.8000471 387.438400
   3543   3542   3554     1   109.5600471 388.275200
   3543   3542   3544     1   108.4600466 328.025600
   3544   3542   3554     1   109.5600471 388.275200
   3545   3548   3549     1   109.8000471 387.438400
   3545   3548   3550     1   109.8000471 387.438400
   3546   3545   3548     1   109.5600471 388.275200
   3546   3545   3547     1   108.4600466 328.025600
   3547   3545   3548     1   109.5600471 388.275200
   3548   3557   3558     1   109.5600471 388.275200
   3548   3557   3559     1   109.5600471 388.275200
   3549   3548   3557     1   109.8000471 387.438400
   3549   3548   3550     1   107.5800459 329.699200
   3550   3548   3557     1   109.8000471 387.438400
   3551   3563   3564     1   109.5600471 388.275200
   3551   3563   3565     1   109.5600471 388.275200
   3552   3551   3563     1   109.8000471 387.438400
   3552   3551   3553     1   107.5800459 329.699200
   3553   3551   3563     1   109.8000471 387.438400
   3554   3560   3561     1   109.5600471 388.275200
   3554   3560   3562     1   109.5600471 388.275200
   3555   3554   3560     1   109.8000471 387.438400
   3555   3554   3556     1   107.5800459 329.699200
   3556   3554   3560     1   109.8000471 387.438400
   3558   3557   3566     1   109.7800468 425.094400
   3558   3557   3559     1   108.4600466 328.025600
   3559   3557   3566     1   109.7800468 425.094400
   3561   3560   7162     1   109.7800468 425.094400
   3561   3560   3562     1   108.4600466 328.025600
   3562   3560   7162     1   109.7800468 425.094400
   3564   3563   7191     1   109.7800468 425.094400
   3564   3563   3565     1   108.4600466 328.025600
   3565   3563   7191     1   109.7800468 425.094400
   3567   3568   3569     1   109.8800469 414.216000
   3567   3568   3570     1   109.8800469 414.216000
   3567   3571   3572     1   109.8800469 414.216000
   3567   3571   3573     1   109.8800469 414.216000
   3567   3574   3575     1   109.8800469 414.216000
   3567   3574   3576     1   109.8800469 414.216000
   3568   3580   3581     1   109.8000471 387.438400
   3568   3580   3582     1   109.8000471 387.438400
   3569   3568   3580     1   109.5600471 388.275200
   3569   3568   3570     1   108.4600466 328.025600
   3570   3568   3580     1   109.5600471 388.275200
   3571   3583   3584     1   109.8000471 387.438400
   3571   3583   3585     1   109.8000471 387.438400
   3572   3571   3583     1   109.5600471 388.275200
   3572   3571   3573     1   108.4600466 328.025600
   3573   3571   3583     1   109.5600471 388.275200
   3574   3577   3578     1   109.8000471 387.438400
   3574   3577   3579     1   109.8000471 387.438400
   3575   3574   3577     1   109.5600471 388.275200
   3575   3574   3576     1   108.4600466 328.025600
   3576   3574   3577     1   109.5600471 388.275200
   3577   3586   3587     1   109.5600471 388.275200
   3577   3586   3588     1   109.5600471 388.275200
   3578   3577   3586     1   109.8000471 387.438400
   3578   3577   3579     1   107.5800459 329.699200
   3579   3577   3586     1   109.8000471 387.438400
   3580   3592   3593     1   109.5600471 388.275200
   3580   3592   3594     1   109.5600471 388.275200
   3581   3580   3592     1   109.8000471 387.438400
   3581   3580   3582     1   107.5800459 329.699200
   3582   3580   3592     1   109.8000471 387.438400
   3583   3589   3590     1   109.5600471 388.275200
   3583   3589   3591     1   109.5600471 388.275200
   3584   3583   3589     1   109.8000471 387.438400
   3584   3583   3585     1   107.5800459 329.699200
   3585   3583   3589     1   109.8000471 387.438400
   3587   3586   3595     1   109.7800468 425.094400
   3587   3586   3588     1   108.4600466 328.025600
   3588   3586   3595     1   109.7800468 425.094400
   3590   3589   7220     1   109.7800468 425.094400
   3590   3589   3591     1   108.4600466 328.025600
   3591   3589   7220     1   109.7800468 425.094400
   3593   3592   7249     1   109.7800468 425.094400
   3593   3592   3594     1   108.4600466 328.025600
   3594   3592   7249     1   109.7800468 425.094400
   3596   3597   3598     1   109.8800469 414.216000
   3596   3597   3599     1   109.8800469 414.216000
   3596   3600   3601     1   109.8800469 414.216000
   3596   3600   3602     1   109.8800469 414.216000
   3596   3603   3604     1   109.8800469 414.216000
   3596   3603   3605     1   109.8800469 414.216000
   3597   3609   3610     1   109.8000471 387.438400
   3597   3609   3611     1   109.8000471 387.438400
   3598   3597   3609     1   109.5600471 388.275200
   3598   3597   3599     1   108.4600466 328.025600
   3599   3597   3609     1   109.5600471 388.275200
   3600   3612   3613     1   109.8000471 387.438400
   3600   3612   3614     1   109.8000471 387.438400
   3601   3600   3612     1   109.5600471 388.275200
   3601   3600   3602     1   108.4600466 328.025600
   3602   3600   3612     1   109.5600471 388.275200
   3603   3606   3607     1   109.8000471 387.438400
   3603   3606   3608     1   109.8000471 387.438400
   3604   3603   3606     1   109.5600471 388.275200
   3604   3603   3605     1   108.4600466 328.025600
   3605   3603   3606     1   109.5600471 388.275200
   3606   3615   3616     1   109.5600471 388.275200
   3606   3615   3617     1   109.5600471 388.275200
   3607   3606   3615     1   109.8000471 387.438400
   3607   3606   3608     1   107.5800459 329.699200
   3608   3606   3615     1   109.8000471 387.438400
   3609   3621   3622     1   109.5600471 388.275200
   3609   3621   3623     1   109.5600471 388.275200
   3610   3609   3621     1   109.8000471 387.438400
   3610   3609   3611     1   107.5800459 329.699200
   3611   3609   3621     1   109.8000471 387.438400
   3612   3618   3619     1   109.5600471 388.275200
   3612   3618   3620     1   109.5600471 388.275200
   3613   3612   3618     1   109.8000471 387.438400
   3613   3612   3614     1   107.5800459 329.699200
   3614   3612   3618     1   109.8000471 387.438400
   3616   3615   3624     1   109.7800468 425.094400
   3616   3615   3617     1   108.4600466 328.025600
   3617   3615   3624     1   109.7800468 425.094400
   3619   3618   7278     1   109.7800468 425.094400
   3619   3618   3620     1   108.4600466 328.025600
   3620   3618   7278     1   109.7800468 425.094400
   3622   3621   7307     1   109.7800468 425.094400
   3622   3621   3623     1   108.4600466 328.025600
   3623   3621   7307     1   109.7800468 425.094400
   3625   3626   3627     1   109.8800469 414.216000
   3625   3626   3628     1   109.8800469 414.216000
   3625   3629   3630     1   109.8800469 414.216000
   3625   3629   3631     1   109.8800469 414.216000
   3625   3632   3633     1   109.8800469 414.216000
   3625   3632   3634     1   109.8800469 414.216000
   3626   3638   3639     1   109.8000471 387.438400
   3626   3638   3640     1   109.8000471 387.438400
   3627   3626   3638     1   109.5600471 388.275200
   3627   3626   3628     1   108.4600466 328.025600
   3628   3626   3638     1   109.5600471 388.275200
   3629   3641   3642     1   109.8000471 387.438400
   3629   3641   3643     1   109.8000471 387.438400
   3630   3629   3641     1   109.5600471 388.275200
   3630   3629   3631     1   108.4600466 328.025600
   3631   3629   3641     1   109.5600471 388.275200
   3632   3635   3636     1   109.8000471 387.438400
   3632   3635   3637     1   109.8000471 387.438400
   3633   3632   3635     1   109.5600471 388.275200
   3633   3632   3634     1   108.4600466 328.025600
   3634   3632   3635     1   109.5600471 388.275200
   3635   3644   3645     1   109.5600471 388.275200
   3635   3644   3646     1   109.5600471 388.275200
   3636   3635   3644     1   109.8000471 387.438400
   3636   3635   3637     1   107.5800459 329.699200
   3637   3635   3644     1   109.8000471 387.438400
   3638   3650   3651     1   109.5600471 388.275200
   3638   3650   3652     1   109.5600471 388.275200
   3639   3638   3650     1   109.8000471 387.438400
   3639   3638   3640     1   107.5800459 329.699200
   3640   3638   3650     1   109.8000471 387.438400
   3641   3647   3648     1   109.5600471 388.275200
   3641   3647   3649     1   109.5600471 388.275200
   3642   3641   3647     1   109.8000471 387.438400
   3642   3641   3643     1   107.5800459 329.699200
   3643   3641   3647     1   109.8000471 387.438400
   3645   3644   3653     1   109.7800468 425.094400
   3645   3644   3646     1   108.4600466 328.025600
   3646   3644   3653     1   109.7800468 425.094400
   3648   3647   7336     1   109.7800468 425.094400
   3648   3647   3649     1   108.4600466 328.025600
   3649   3647   7336     1   109.7800468 425.094400
   3651   3650   7365     1   109.7800468 425.094400
   3651   3650   3652     1   108.4600466 328.025600
   3652   3650   7365     1   109.7800468 425.094400
   3654   3655   3656     1   109.8800469 414.216000
   3654   3655   3657     1   109.8800469 414.216000
   3654   3658   3659     1   109.8800469 414.216000
   3654   3658   3660     1   109.8800469 414.216000
   3654   3661   3662     1   109.8800469 414.216000
   3654   3661   3663     1   109.8800469 414.216000
   3655   3667   3668     1   109.8000471 387.438400
   3655   3667   3669     1   109.8000471 387.438400
   3656   3655   3667     1   109.5600471 388.275200
   3656   3655   3657     1   108.4600466 328.025600
   3657   3655   3667     1   109.5600471 388.275200
   3658   3670   3671     1   109.8000471 387.438400
   3658   3670   3672     1   109.8000471 387.438400
   3659   3658   3670     1   109.5600471 388.275200
   3659   3658   3660     1   108.4600466 328.025600
   3660   3658   3670     1   109.5600471 388.275200
   3661   3664   3665     1   109.8000471 387.438400
   3661   3664   3666     1   109.8000471 387.438400
   3662   3661   3664     1   109.5600471 388.275200
   3662   3661   3663     1   108.4600466 328.025600
   3663   3661   3664     1   109.5600471 388.275200
   3664   3673   3674     1   109.5600471 388.275200
   3664   3673   3675     1   109.5600471 388.275200
   3665   3664   3673     1   109.8000471 387.438400
   3665   3664   3666     1   107.5800459 329.699200
   3666   3664   3673     1   109.8000471 387.438400
   3667   3679   3680     1   109.5600471 388.275200
   3667   3679   3681     1   109.5600471 388.275200
   3668   3667   3679     1   109.8000471 387.438400
   3668   3667   3669     1   107.5800459 329.699200
   3669   3667   3679     1   109.8000471 387.438400
   3670   3676   3677     1   109.5600471 388.275200
   3670   3676   3678     1   109.5600471 388.275200
   3671   3670   3676     1   109.8000471 387.438400
   3671   3670   3672     1   107.5800459 329.699200
   3672   3670   3676     1   109.8000471 387.438400
   3674   3673   3682     1   109.7800468 425.094400
   3674   3673   3675     1   108.4600466 328.025600
   3675   3673   3682     1   109.7800468 425.094400
   3677   3676   7394     1   109.7800468 425.094400
   3677   3676   3678     1   108.4600466 328.025600
   3678   3676   7394     1   109.7800468 425.094400
   3680   3679   7423     1   109.7800468 425.094400
   3680   3679   3681     1   108.4600466 328.025600
   3681   3679   7423     1   109.7800468 425.094400
   3683   3684   3685     1   109.8800469 414.216000
   3683   3684   3686     1   109.8800469 414.216000
   3683   3687   3688     1   109.8800469 414.216000
   3683   3687   3689     1   109.8800469 414.216000
   3683   3690   3691     1   109.8800469 414.216000
   3683   3690   3692     1   109.8800469 414.216000
   3684   3696   3697     1   109.8000471 387.438400
   3684   3696   3698     1   109.8000471 387.438400
   3685   3684   3696     1   109.5600471 388.275200
   3685   3684   3686     1   108.4600466 328.025600
   3686   3684   3696     1   109.5600471 388.275200
   3687   3699   3700     1   109.8000471 387.438400
   3687   3699   3701     1   109.8000471 387.438400
   3688   3687   3699     1   109.5600471 388.275200
   3688   3687   3689     1   108.4600466 328.025600
   3689   3687   3699     1   109.5600471 388.275200
   3690   3693   3694     1   109.8000471 387.438400
   3690   3693   3695     1   109.8000471 387.438400
   3691   3690   3693     1   109.5600471 388.275200
   3691   3690   3692     1   108.4600466 328.025600
   3692   3690   3693     1   109.5600471 388.275200
   3693   3702   3703     1   109.5600471 388.275200
   3693   3702   3704     1   109.5600471 388.275200
   3694   3693   3702     1   109.8000471 387.438400
   3694   3693   3695     1   107.5800459 329.699200
   3695   3693   3702     1   109.8000471 387.438400
   3696   3708   3709     1   109.5600471 388.275200
   3696   3708   3710     1   109.5600471 388.275200
   3697   3696   3708     1   109.8000471 387.438400
   3697   3696   3698     1   107.5800459 329.699200
   3698   3696   3708     1   109.8000471 387.438400
   3699   3705   3706     1   109.5600471 388.275200
   3699   3705   3707     1   109.5600471 388.275200
   3700   3699   3705     1   109.8000471 387.438400
   3700   3699   3701     1   107.5800459 329.699200
   3701   3699   3705     1   109.8000471 387.438400
   3703   3702   3711     1   109.7800468 425.094400
   3703   3702   3704     1   108.4600466 328.025600
   3704   3702   3711     1   109.7800468 425.094400
   3706   3705   7452     1   109.7800468 425.094400
   3706   3705   3707     1   108.4600466 328.025600
   3707   3705   7452     1   109.7800468 425.094400
   3709   3708   7481     1   109.7800468 425.094400
   3709   3708   3710     1   108.4600466 328.025600
   3710   3708   7481     1   109.7800468 425.094400
   3712   3713   3714     1   109.8800469 414.216000
   3712   3713   3715     1   109.8800469 414.216000
   3712   3716   3717     1   109.8800469 414.216000
   3712   3716   3718     1   109.8800469 414.216000
   3712   3719   3720     1   109.8800469 414.216000
   3712   3719   3721     1   109.8800469 414.216000
   3713   3725   3726     1   109.8000471 387.438400
   3713   3725   3727     1   109.8000471 387.438400
   3714   3713   3725     1   109.5600471 388.275200
   3714   3713   3715     1   108.4600466 328.025600
   3715   3713   3725     1   109.5600471 388.275200
   3716   3728   3729     1   109.8000471 387.438400
   3716   3728   3730     1   109.8000471 387.438400
   3717   3716   3728     1   109.5600471 388.275200
   3717   3716   3718     1   108.4600466 328.025600
   3718   3716   3728     1   109.5600471 388.275200
   3719   3722   3723     1   109.8000471 387.438400
   3719   3722   3724     1   109.8000471 387.438400
   3720   3719   3722     1   109.5600471 388.275200
   3720   3719   3721     1   108.4600466 328.025600
   3721   3719   3722     1   109.5600471 388.275200
   3722   3731   3732     1   109.5600471 388.275200
   3722   3731   3733     1   109.5600471 388.275200
   3723   3722   3731     1   109.8000471 387.438400
   3723   3722   3724     1   107.5800459 329.699200
   3724   3722   3731     1   109.8000471 387.438400
   3725   3737   3738     1   109.5600471 388.275200
   3725   3737   3739     1   109.5600471 388.275200
   3726   3725   3737     1   109.8000471 387.438400
   3726   3725   3727     1   107.5800459 329.699200
   3727   3725   3737     1   109.8000471 387.438400
   3728   3734   3735     1   109.5600471 388.275200
   3728   3734   3736     1   109.5600471 388.275200
   3729   3728   3734     1   109.8000471 387.438400
   3729   3728   3730     1   107.5800459 329.699200
   3730   3728   3734     1   109.8000471 387.438400
   3732   3731   3740     1   109.7800468 425.094400
   3732   3731   3733     1   108.4600466 328.025600
   3733   3731   3740     1   109.7800468 425.094400
   3735   3734   7510     1   109.7800468 425.094400
   3735   3734   3736     1   108.4600466 328.025600
   3736   3734   7510     1   109.7800468 425.094400
   3738   3737   7539     1   109.7800468 425.094400
   3738   3737   3739     1   108.4600466 328.025600
   3739   3737   7539     1   109.7800468 425.094400
   3741   3742   3743     1   109.8800469 414.216000
   3741   3742   3744     1   109.8800469 414.216000
   3741   3745   3746     1   109.8800469 414.216000
   3741   3745   3747     1   109.8800469 414.216000
   3741   3748   3749     1   109.8800469 414.216000
   3741   3748   3750     1   109.8800469 414.216000
   3742   3754   3755     1   109.8000471 387.438400
   3742   3754   3756     1   109.8000471 387.438400
   3743   3742   3754     1   109.5600471 388.275200
   3743   3742   3744     1   108.4600466 328.025600
   3744   3742   3754     1   109.5600471 388.275200
   3745   3757   3758     1   109.8000471 387.438400
   3745   3757   3759     1   109.8000471 387.438400
   3746   3745   3757     1   109.5600471 388.275200
   3746   3745   3747     1   108.4600466 328.025600
   3747   3745   3757     1   109.5600471 388.275200
   3748   3751   3752     1   109.8000471 387.438400
   3748   3751   3753     1   109.8000471 387.438400
   3749   3748   3751     1   109.5600471 388.275200
   3749   3748   3750     1   108.4600466 328.025600
   3750   3748   3751     1   109.5600471 388.275200
   3751   3760   3761     1   109.5600471 388.275200
   3751   3760   3762     1   109.5600471 388.275200
   3752   3751   3760     1   109.8000471 387.438400
   3752   3751   3753     1   107.5800459 329.699200
   3753   3751   3760     1   109.8000471 387.438400
   3754   3766   3767     1   109.5600471 388.275200
   3754   3766   3768     1   109.5600471 388.275200
   3755   3754   3766     1   109.8000471 387.438400
   3755   3754   3756     1   107.5800459 329.699200
   3756   3754   3766     1   109.8000471 387.438400
   3757   3763   3764     1   109.5600471 388.275200
   3757   3763   3765     1   109.5600471 388.275200
   3758   3757   3763     1   109.8000471 387.438400
   3758   3757   3759     1   107.5800459 329.699200
   3759   3757   3763     1   109.8000471 387.438400
   3761   3760   3769     1   109.7800468 425.094400
   3761   3760   3762     1   108.4600466 328.025600
   3762   3760   3769     1   109.7800468 425.094400
   3764   3763   7568     1   109.7800468 425.094400
   3764   3763   3765     1   108.4600466 328.025600
   3765   3763   7568     1   109.7800468 425.094400
   3767   3766   7597     1   109.7800468 425.094400
   3767   3766   3768     1   108.4600466 328.025600
   3768   3766   7597     1   109.7800468 425.094400
   3770   3771   3772     1   109.8800469 414.216000
   3770   3771   3773     1   109.8800469 414.216000
   3770   3774   3775     1   109.8800469 414.216000
   3770   3774   3776     1   109.8800469 414.216000
   3770   3777   3778     1   109.8800469 414.216000
   3770   3777   3779     1   109.8800469 414.216000
   3771   3783   3784     1   109.8000471 387.438400
   3771   3783   3785     1   109.8000471 387.438400
   3772   3771   3783     1   109.5600471 388.275200
   3772   3771   3773     1   108.4600466 328.025600
   3773   3771   3783     1   109.5600471 388.275200
   3774   3786   3787     1   109.8000471 387.438400
   3774   3786   3788     1   109.8000471 387.438400
   3775   3774   3786     1   109.5600471 388.275200
   3775   3774   3776     1   108.4600466 328.025600
   3776   3774   3786     1   109.5600471 388.275200
   3777   3780   3781     1   109.8000471 387.438400
   3777   3780   3782     1   109.8000471 387.438400
   3778   3777   3780     1   109.5600471 388.275200
   3778   3777   3779     1   108.4600466 328.025600
   3779   3777   3780     1   109.5600471 388.275200
   3780   3789   3790     1   109.5600471 388.275200
   3780   3789   3791     1   109.5600471 388.275200
   3781   3780   3789     1   109.8000471 387.438400
   3781   3780   3782     1   107.5800459 329.699200
   3782   3780   3789     1   109.8000471 387.438400
   3783   3795   3796     1   109.5600471 388.275200
   3783   3795   3797     1   109.5600471 388.275200
   3784   3783   3795     1   109.8000471 387.438400
   3784   3783   3785     1   107.5800459 329.699200
   3785   3783   3795     1   109.8000471 387.438400
   3786   3792   3793     1   109.5600471 388.275200
   3786   3792   3794     1   109.5600471 388.275200
   3787   3786   3792     1   109.8000471 387.438400
   3787   3786   3788     1   107.5800459 329.699200
   3788   3786   3792     1   109.8000471 387.438400
   3790   3789   3798     1   109.7800468 425.094400
   3790   3789   3791     1   108.4600466 328.025600
   3791   3789   3798     1   109.7800468 425.094400
   3793   3792   7626     1   109.7800468 425.094400
   3793   3792   3794     1   108.4600466 328.025600
   3794   3792   7626     1   109.7800468 425.094400
   3796   3795   7655     1   109.7800468 425.094400
   3796   3795   3797     1   108.4600466 328.025600
   3797   3795   7655     1   109.7800468 425.094400
   3799   3800   3801     1   109.8800469 414.216000
   3799   3800   3802     1   109.8800469 414.216000
   3799   3803   3804     1   109.8800469 414.216000
   3799   3803   3805     1   109.8800469 414.216000
   3799   3806   3807     1   109.8800469 414.216000
   3799   3806   3808     1   109.8800469 414.216000
   3800   3812   3813     1   109.8000471 387.438400
   3800   3812   3814     1   109.8000471 387.438400
   3801   3800   3812     1   109.5600471 388.275200
   3801   3800   3802     1   108.4600466 328.025600
   3802   3800   3812     1   109.5600471 388.275200
   3803   3815   3816     1   109.8000471 387.438400
   3803   3815   3817     1   109.8000471 387.438400
   3804   3803   3815     1   109.5600471 388.275200
   3804   3803   3805     1   108.4600466 328.025600
   3805   3803   3815     1   109.5600471 388.275200
   3806   3809   3810     1   109.8000471 387.438400
   3806   3809   3811     1   109.8000471 387.438400
   3807   3806   3809     1   109.5600471 388.275200
   3807   3806   3808     1   108.4600466 328.025600
   3808   3806   3809     1   109.5600471 388.275200
   3809   3818   3819     1   109.5600471 388.275200
   3809   3818   3820     1   109.5600471 388.275200
   3810   3809   3818     1   109.8000471 387.438400
   3810   3809   3811     1   107.5800459 329.699200
   3811   3809   3818     1   109.8000471 387.438400
   3812   3824   3825     1   109.5600471 388.275200
   3812   3824   3826     1   109.5600471 388.275200
   3813   3812   3824     1   109.8000471 387.438400
   3813   3812   3814     1   107.5800459 329.699200
   3814   3812   3824     1   109.8000471 387.438400
   3815   3821   3822     1   109.5600471 388.275200
   3815   3821   3823     1   109.5600471 388.275200
   3816   3815   3821     1   109.8000471 387.438400
   3816   3815   3817     1   107.5800459 329.699200
   3817   3815   3821     1   109.8000471 387.438400
   3819   3818   3827     1   109.7800468 425.094400
   3819   3818   3820     1   108.4600466 328.025600
   3820   3818   3827     1   109.7800468 425.094400
   3822   3821   7684     1   109.7800468 425.094400
   3822   3821   3823     1   108.4600466 328.025600
   3823   3821   7684     1   109.7800468 425.094400
   3825   3824   7713     1   109.7800468 425.094400
   3825   3824   3826     1   108.4600466 328.025600
   3826   3824   7713     1   109.7800468 425.094400
   3828   3829   3830     1   109.8800469 414.216000
   3828   3829   3831     1   109.8800469 414.216000
   3828   3832   3833     1   109.8800469 414.216000
   3828   3832   3834     1   109.8800469 414.216000
   3828   3835   3836     1   109.8800469 414.216000
   3828   3835   3837     1   109.8800469 414.216000
   3829   3841   3842     1   109.8000471 387.438400
   3829   3841   3843     1   109.8000471 387.438400
   3830   3829   3841     1   109.5600471 388.275200
   3830   3829   3831     1   108.4600466 328.025600
   3831   3829   3841     1   109.5600471 388.275200
   3832   3844   3845     1   109.8000471 387.438400
   3832   3844   3846     1   109.8000471 387.438400
   3833   3832   3844     1   109.5600471 388.275200
   3833   3832   3834     1   108.4600466 328.025600
   3834   3832   3844     1   109.5600471 388.275200
   3835   3838   3839     1   109.8000471 387.438400
   3835   3838   3840     1   109.8000471 387.438400
   3836   3835   3838     1   109.5600471 388.275200
   3836   3835   3837     1   108.4600466 328.025600
   3837   3835   3838     1   109.5600471 388.275200
   3838   3847   3848     1   109.5600471 388.275200
   3838   3847   3849     1   109.5600471 388.275200
   3839   3838   3847     1   109.8000471 387.438400
   3839   3838   3840     1   107.5800459 329.699200
   3840   3838   3847     1   109.8000471 387.438400
   3841   3853   3854     1   109.5600471 388.275200
   3841   3853   3855     1   109.5600471 388.275200
   3842   3841   3853     1   109.8000471 387.438400
   3842   3841   3843     1   107.5800459 329.699200
   3843   3841   3853     1   109.8000471 387.438400
   3844   3850   3851     1   109.5600471 388.275200
   3844   3850   3852     1   109.5600471 388.275200
   3845   3844   3850     1   109.8000471 387.438400
   3845   3844   3846     1   107.5800459 329.699200
   3846   3844   3850     1   109.8000471 387.438400
   3848   3847   3856     1   109.7800468 425.094400
   3848   3847   3849     1   108.4600466 328.025600
   3849   3847   3856     1   109.7800468 425.094400
   3851   3850   7742     1   109.7800468 425.094400
   3851   3850   3852     1   108.4600466 328.025600
   3852   3850   7742     1   109.7800468 425.094400
   3854   3853   7771     1   109.7800468 425.094400
   3854   3853   3855     1   108.4600466 328.025600
   3855   3853   7771     1   109.7800468 425.094400
   3857   3858   3859     1   109.8800469 414.216000
   3857   3858   3860     1   109.8800469 414.216000
   3857   3861   3862     1   109.8800469 414.216000
   3857   3861   3863     1   109.8800469 414.216000
   3857   3864   3865     1   109.8800469 414.216000
   3857   3864   3866     1   109.8800469 414.216000
   3858   3870   3871     1   109.8000471 387.438400
   3858   3870   3872     1   109.8000471 387.438400
   3859   3858   3870     1   109.5600471 388.275200
   3859   3858   3860     1   108.4600466 328.025600
   3860   3858   3870     1   109.5600471 388.275200
   3861   3873   3874     1   109.8000471 387.438400
   3861   3873   3875     1   109.8000471 387.438400
   3862   3861   3873     1   109.5600471 388.275200
   3862   3861   3863     1   108.4600466 328.025600
   3863   3861   3873     1   109.5600471 388.275200
   3864   3867   3868     1   109.8000471 387.438400
   3864   3867   3869     1   109.8000471 387.438400
   3865   3864   3867     1   109.5600471 388.275200
   3865   3864   3866     1   108.4600466 328.025600
   3866   3864   3867     1   109.5600471 388.275200
   3867   3876   3877     1   109.5600471 388.275200
   3867   3876   3878     1   109.5600471 388.275200
   3868   3867   3876     1   109.8000471 387.438400
   3868   3867   3869     1   107.5800459 329.699200
   3869   3867   3876     1   109.8000471 387.438400
   3870   3882   3883     1   109.5600471 388.275200
   3870   3882   3884     1   109.5600471 388.275200
   3871   3870   3882     1   109.8000471 387.438400
   3871   3870   3872     1   107.5800459 329.699200
   3872   3870   3882     1   109.8000471 387.438400
   3873   3879   3880     1   109.5600471 388.275200
   3873   3879   3881     1   109.5600471 388.275200
   3874   3873   3879     1   109.8000471 387.438400
   3874   3873   3875     1   107.5800459 329.699200
   3875   3873   3879     1   109.8000471 387.438400
   3877   3876   3885     1   109.7800468 425.094400
   3877   3876   3878     1   108.4600466 328.025600
   3878   3876   3885     1   109.7800468 425.094400
   3880   3879   7800     1   109.7800468 425.094400
   3880   3879   3881     1   108.4600466 328.025600
   3881   3879   7800     1   109.7800468 425.094400
   3883   3882   7829     1   109.7800468 425.094400
   3883   3882   3884     1   108.4600466 328.025600
   3884   3882   7829     1   109.7800468 425.094400
   3886   3887   3888     1   109.8800469 414.216000
   3886   3887   3889     1   109.8800469 414.216000
   3886   3890   3891     1   109.8800469 414.216000
   3886   3890   3892     1   109.8800469 414.216000
   3886   3893   3894     1   109.8800469 414.216000
   3886   3893   3895     1   109.8800469 414.216000
   3887   3899   3900     1   109.8000471 387.438400
   3887   3899   3901     1   109.8000471 387.438400
   3888   3887   3899     1   109.5600471 388.275200
   3888   3887   3889     1   108.4600466 328.025600
   3889   3887   3899     1   109.5600471 388.275200
   3890   3902   3903     1   109.8000471 387.438400
   3890   3902   3904     1   109.8000471 387.438400
   3891   3890   3902     1   109.5600471 388.275200
   3891   3890   3892     1   108.4600466 328.025600
   3892   3890   3902     1   109.5600471 388.275200
   3893   3896   3897     1   109.8000471 387.438400
   3893   3896   3898     1   109.8000471 387.438400
   3894   3893   3896     1   109.5600471 388.275200
   3894   3893   3895     1   108.4600466 328.025600
   3895   3893   3896     1   109.5600471 388.275200
   3896   3905   3906     1   109.5600471 388.275200
   3896   3905   3907     1   109.5600471 388.275200
   3897   3896   3905     1   109.8000471 387.438400
   3897   3896   3898     1   107.5800459 329.699200
   3898   3896   3905     1   109.8000471 387.438400
   3899   3911   3912     1   109.5600471 388.275200
   3899   3911   3913     1   109.5600471 388.275200
   3900   3899   3911     1   109.8000471 387.438400
   3900   3899   3901     1   107.5800459 329.699200
   3901   3899   3911     1   109.8000471 387.438400
   3902   3908   3909     1   109.5600471 388.275200
   3902   3908   3910     1   109.5600471 388.275200
   3903   3902   3908     1   109.8000471 387.438400
   3903   3902   3904     1   107.5800459 329.699200
   3904   3902   3908     1   109.8000471 387.438400
   3906   3905   3914     1   109.7800468 425.094400
   3906   3905   3907     1   108.4600466 328.025600
   3907   3905   3914     1   109.7800468 425.094400
   3909   3908   7858     1   109.7800468 425.094400
   3909   3908   3910     1   108.4600466 328.025600
   3910   3908   7858     1   109.7800468 425.094400
   3912   3911   7887     1   109.7800468 425.094400
   3912   3911   3913     1   108.4600466 328.025600
   3913   3911   7887     1   109.7800468 425.094400
   3915   3916   3917     1   109.8800469 414.216000
   3915   3916   3918     1   109.8800469 414.216000
   3915   3919   3920     1   109.8800469 414.216000
   3915   3919   3921     1   109.8800469 414.216000
   3915   3922   3923     1   109.8800469 414.216000
   3915   3922   3924     1   109.8800469 414.216000
   3916   3928   3929     1   109.8000471 387.438400
   3916   3928   3930     1   109.8000471 387.438400
   3917   3916   3928     1   109.5600471 388.275200
   3917   3916   3918     1   108.4600466 328.025600
   3918   3916   3928     1   109.5600471 388.275200
   3919   3931   3932     1   109.8000471 387.438400
   3919   3931   3933     1   109.8000471 387.438400
   3920   3919   3931     1   109.5600471 388.275200
   3920   3919   3921     1   108.4600466 328.025600
   3921   3919   3931     1   109.5600471 388.275200
   3922   3925   3926     1   109.8000471 387.438400
   3922   3925   3927     1   109.8000471 387.438400
   3923   3922   3925     1   109.5600471 388.275200
   3923   3922   3924     1   108.4600466 328.025600
   3924   3922   3925     1   109.5600471 388.275200
   3925   3934   3935     1   109.5600471 388.275200
   3925   3934   3936     1   109.5600471 388.275200
   3926   3925   3934     1   109.8000471 387.438400
   3926   3925   3927     1   107.5800459 329.699200
   3927   3925   3934     1   109.8000471 387.438400
   3928   3940   3941     1   109.5600471 388.275200
   3928   3940   3942     1   109.5600471 388.275200
   3929   3928   3940     1   109.8000471 387.438400
   3929   3928   3930     1   107.5800459 329.699200
   3930   3928   3940     1   109.8000471 387.438400
   3931   3937   3938     1   109.5600471 388.275200
   3931   3937   3939     1   109.5600471 388.275200
   3932   3931   3937     1   109.8000471 387.438400
   3932   3931   3933     1   107.5800459 329.699200
   3933   3931   3937     1   109.8000471 387.438400
   3935   3934   3943     1   109.7800468 425.094400
   3935   3934   3936     1   108.4600466 328.025600
   3936   3934   3943     1   109.7800468 425.094400
   3938   3937   7916     1   109.7800468 425.094400
   3938   3937   3939     1   108.4600466 328.025600
   3939   3937   7916     1   109.7800468 425.094400
   3941   3940   7945     1   109.7800468 425.094400
   3941   3940   3942     1   108.4600466 328.025600
   3942   3940   7945     1   109.7800468 425.094400
   3944   3945   3946     1   109.8800469 414.216000
   3944   3945   3947     1   109.8800469 414.216000
   3944   3948   3949     1   109.8800469 414.216000
   3944   3948   3950     1   109.8800469 414.216000
   3944   3951   3952     1   109.8800469 414.216000
   3944   3951   3953     1   109.8800469 414.216000
   3945   3957   3958     1   109.8000471 387.438400
   3945   3957   3959     1   109.8000471 387.438400
   3946   3945   3957     1   109.5600471 388.275200
   3946   3945   3947     1   108.4600466 328.025600
   3947   3945   3957     1   109.5600471 388.275200
   3948   3960   3961     1   109.8000471 387.438400
   3948   3960   3962     1   109.8000471 387.438400
   3949   3948   3960     1   109.5600471 388.275200
   3949   3948   3950     1   108.4600466 328.025600
   3950   3948   3960     1   109.5600471 388.275200
   3951   3954   3955     1   109.8000471 387.438400
   3951   3954   3956     1   109.8000471 387.438400
   3952   3951   3954     1   109.5600471 388.275200
   3952   3951   3953     1   108.4600466 328.025600
   3953   3951   3954     1   109.5600471 388.275200
   3954   3963   3964     1   109.5600471 388.275200
   3954   3963   3965     1   109.5600471 388.275200
   3955   3954   3963     1   109.8000471 387.438400
   3955   3954   3956     1   107.5800459 329.699200
   3956   3954   3963     1   109.8000471 387.438400
   3957   3969   3970     1   109.5600471 388.275200
   3957   3969   3971     1   109.5600471 388.275200
   3958   3957   3969     1   109.8000471 387.438400
   3958   3957   3959     1   107.5800459 329.699200
   3959   3957   3969     1   109.8000471 387.438400
   3960   3966   3967     1   109.5600471 388.275200
   3960   3966   3968     1   109.5600471 388.275200
   3961   3960   3966     1   109.8000471 387.438400
   3961   3960   3962     1   107.5800459 329.699200
   3962   3960   3966     1   109.8000471 387.438400
   3964   3963   3972     1   109.7800468 425.094400
   3964   3963   3965     1   108.4600466 328.025600
   3965   3963   3972     1   109.7800468 425.094400
   3967   3966   7974     1   109.7800468 425.094400
   3967   3966   3968     1   108.4600466 328.025600
   3968   3966   7974     1   109.7800468 425.094400
   3970   3969   8003     1   109.7800468 425.094400
   3970   3969   3971     1   108.4600466 328.025600
   3971   3969   8003     1   109.7800468 425.094400
   3973   3974   3975     1   109.8800469 414.216000
   3973   3974   3976     1   109.8800469 414.216000
   3973   3977   3978     1   109.8800469 414.216000
   3973   3977   3979     1   109.8800469 414.216000
   3973   3980   3981     1   109.8800469 414.216000
   3973   3980   3982     1   109.8800469 414.216000
   3974   3986   3987     1   109.8000471 387.438400
   3974   3986   3988     1   109.8000471 387.438400
   3975   3974   3986     1   109.5600471 388.275200
   3975   3974   3976     1   108.4600466 328.025600
   3976   3974   3986     1   109.5600471 388.275200
   3977   3989   3990     1   109.8000471 387.438400
   3977   3989   3991     1   109.8000471 387.438400
   3978   3977   3989     1   109.5600471 388.275200
   3978   3977   3979     1   108.4600466 328.025600
   3979   3977   3989     1   109.5600471 388.275200
   3980   3983   3984     1   109.8000471 387.438400
   3980   3983   3985     1   109.8000471 387.438400
   3981   3980   3983     1   109.5600471 388.275200
   3981   3980   3982     1   108.4600466 328.025600
   3982   3980   3983     1   109.5600471 388.275200
   3983   3992   3993     1   109.5600471 388.275200
   3983   3992   3994     1   109.5600471 388.275200
   3984   3983   3992     1   109.8000471 387.438400
   3984   3983   3985     1   107.5800459 329.699200
   3985   3983   3992     1   109.8000471 387.438400
   3986   3998   3999     1   109.5600471 388.275200
   3986   3998   4000     1   109.5600471 388.275200
   3987   3986   3998     1   109.8000471 387.438400
   3987   3986   3988     1   107.5800459 329.699200
   3988   3986   3998     1   109.8000471 387.438400
   3989   3995   3996     1   109.5600471 388.275200
   3989   3995   3997     1   109.5600471 388.275200
   3990   3989   3995     1   109.8000471 387.438400
   3990   3989   3991     1   107.5800459 329.699200
   3991   3989   3995     1   109.8000471 387.438400
   3993   3992   4001     1   109.7800468 425.094400
   3993   3992   3994     1   108.4600466 328.025600
   3994   3992   4001     1   109.7800468 425.094400
   3996   3995   8032     1   109.7800468 425.094400
   3996   3995   3997     1   108.4600466 328.025600
   3997   3995   8032     1   109.7800468 425.094400
   3999   3998   8061     1   109.7800468 425.094400
   3999   3998   4000     1   108.4600466 328.025600
   4000   3998   8061     1   109.7800468 425.094400
   4002   4003   4004     1   109.8800469 414.216000
   4002   4003   4005     1   109.8800469 414.216000
   4002   4006   4007     1   109.8800469 414.216000
   4002   4006   4008     1   109.8800469 414.216000
   4002   4009   4010     1   109.8800469 414.216000
   4002   4009   4011     1   109.8800469 414.216000
   4003   4015   4016     1   109.8000471 387.438400
   4003   4015   4017     1   109.8000471 387.438400
   4004   4003   4015     1   109.5600471 388.275200
   4004   4003   4005     1   108.4600466 328.025600
   4005   4003   4015     1   109.5600471 388.275200
   4006   4018   4019     1   109.8000471 387.438400
   4006   4018   4020     1   109.8000471 387.438400
   4007   4006   4018     1   109.5600471 388.275200
   4007   4006   4008     1   108.4600466 328.025600
   4008   4006   4018     1   109.5600471 388.275200
   4009   4012   4013     1   109.8000471 387.438400
   4009   4012   4014     1   109.8000471 387.438400
   4010   4009   4012     1   109.5600471 388.275200
   4010   4009   4011     1   108.4600466 328.025600
   4011   4009   4012     1   109.5600471 388.275200
   4012   4021   4022     1   109.5600471 388.275200
   4012   4021   4023     1   109.5600471 388.275200
   4013   4012   4021     1   109.8000471 387.438400
   4013   4012   4014     1   107.5800459 329.699200
   4014   4012   4021     1   109.8000471 387.438400
   4015   4027   4028     1   109.5600471 388.275200
   4015   4027   4029     1   109.5600471 388.275200
   4016   4015   4027     1   109.8000471 387.438400
   4016   4015   4017     1   107.5800459 329.699200
   4017   4015   4027     1   109.8000471 387.438400
   4018   4024   4025     1   109.5600471 388.275200
   4018   4024   4026     1   109.5600471 388.275200
   4019   4018   4024     1   109.8000471 387.438400
   4019   4018   4020     1   107.5800459 329.699200
   4020   4018   4024     1   109.8000471 387.438400
   4022   4021   4030     1   109.7800468 425.094400
   4022   4021   4023     1   108.4600466 328.025600
   4023   4021   4030     1   109.7800468 425.094400
   4025   4024   8090     1   109.7800468 425.094400
   4025   4024   4026     1   108.4600466 328.025600
   4026   4024   8090     1   109.7800468 425.094400
   4028   4027   8119     1   109.7800468 425.094400
   4028   4027   4029     1   108.4600466 328.025600
   4029   4027   8119     1   109.7800468 425.094400
   4031   4032   4033     1   109.8800469 414.216000
   4031   4032   4034     1   109.8800469 414.216000
   4031   4035   4036     1   109.8800469 414.216000
   4031   4035   4037     1   109.8800469 414.216000
   4031   4038   4039     1   109.8800469 414.216000
   4031   4038   4040     1   109.8800469 414.216000
   4032   4044   4045     1   109.8000471 387.438400
   4032   4044   4046     1   109.8000471 387.438400
   4033   4032   4044     1   109.5600471 388.275200
   4033   4032   4034     1   108.4600466 328.025600
   4034   4032   4044     1   109.5600471 388.275200
   4035   4047   4048     1   109.8000471 387.438400
   4035   4047   4049     1   109.8000471 387.438400
   4036   4035   4047     1   109.5600471 388.275200
   4036   4035   4037     1   108.4600466 328.025600
   4037   4035   4047     1   109.5600471 388.275200
   4038   4041   4042     1   109.8000471 387.438400
   4038   4041   4043     1   109.8000471 387.438400
   4039   4038   4041     1   109.5600471 388.275200
   4039   4038   4040     1   108.4600466 328.025600
   4040   4038   4041     1   109.5600471 388.275200
   4041   4050   4051     1   109.5600471 388.275200
   4041   4050   4052     1   109.5600471 388.275200
   4042   4041   4050     1   109.8000471 387.438400
   4042   4041   4043     1   107.5800459 329.699200
   4043   4041   4050     1   109.8000471 387.438400
   4044   4056   4057     1   109.5600471 388.275200
   4044   4056   4058     1   109.5600471 388.275200
   4045   4044   4056     1   109.8000471 387.438400
   4045   4044   4046     1   107.5800459 329.699200
   4046   4044   4056     1   109.8000471 387.438400
   4047   4053   4054     1   109.5600471 388.275200
   4047   4053   4055     1   109.5600471 388.275200
   4048   4047   4053     1   109.8000471 387.438400
   4048   4047   4049     1   107.5800459 329.699200
   4049   4047   4053     1   109.8000471 387.438400
   4051   4050   4059     1   109.7800468 425.094400
   4051   4050   4052     1   108.4600466 328.025600
   4052   4050   4059     1   109.7800468 425.094400
   4054   4053   8148     1   109.7800468 425.094400
   4054   4053   4055     1   108.4600466 328.025600
   4055   4053   8148     1   109.7800468 425.094400
   4057   4056   8177     1   109.7800468 425.094400
   4057   4056   4058     1   108.4600466 328.025600
   4058   4056   8177     1   109.7800468 425.094400
   4060   4061   4062     1   109.8800469 414.216000
   4060   4061   4063     1   109.8800469 414.216000
   4060   4064   4065     1   109.8800469 414.216000
   4060   4064   4066     1   109.8800469 414.216000
   4060   4067   4068     1   109.8800469 414.216000
   4060   4067   4069     1   109.8800469 414.216000
   4061   4073   4074     1   109.8000471 387.438400
   4061   4073   4075     1   109.8000471 387.438400
   4062   4061   4073     1   109.5600471 388.275200
   4062   4061   4063     1   108.4600466 328.025600
   4063   4061   4073     1   109.5600471 388.275200
   4064   4076   4077     1   109.8000471 387.438400
   4064   4076   4078     1   109.8000471 387.438400
   4065   4064   4076     1   109.5600471 388.275200
   4065   4064   4066     1   108.4600466 328.025600
   4066   4064   4076     1   109.5600471 388.275200
   4067   4070   4071     1   109.8000471 387.438400
   4067   4070   4072     1   109.8000471 387.438400
   4068   4067   4070     1   109.5600471 388.275200
   4068   4067   4069     1   108.4600466 328.025600
   4069   4067   4070     1   109.5600471 388.275200
   4070   4079   4080     1   109.5600471 388.275200
   4070   4079   4081     1   109.5600471 388.275200
   4071   4070   4079     1   109.8000471 387.438400
   4071   4070   4072     1   107.5800459 329.699200
   4072   4070   4079     1   109.8000471 387.438400
   4073   4085   4086     1   109.5600471 388.275200
   4073   4085   4087     1   109.5600471 388.275200
   4074   4073   4085     1   109.8000471 387.438400
   4074   4073   4075     1   107.5800459 329.699200
   4075   4073   4085     1   109.8000471 387.438400
   4076   4082   4083     1   109.5600471 388.275200
   4076   4082   4084     1   109.5600471 388.275200
   4077   4076   4082     1   109.8000471 387.438400
   4077   4076   4078     1   107.5800459 329.699200
   4078   4076   4082     1   109.8000471 387.438400
   4080   4079   4088     1   109.7800468 425.094400
   4080   4079   4081     1   108.4600466 328.025600
   4081   4079   4088     1   109.7800468 425.094400
   4083   4082   8206     1   109.7800468 425.094400
   4083   4082   4084     1   108.4600466 328.025600
   4084   4082   8206     1   109.7800468 425.094400
   4086   4085   8235     1   109.7800468 425.094400
   4086   4085   4087     1   108.4600466 328.025600
   4087   4085   8235     1   109.7800468 425.094400
   4089   4090   4091     1   109.8800469 414.216000
   4089   4090   4092     1   109.8800469 414.216000
   4089   4093   4094     1   109.8800469 414.216000
   4089   4093   4095     1   109.8800469 414.216000
   4089   4096   4097     1   109.8800469 414.216000
   4089   4096   4098     1   109.8800469 414.216000
   4090   4102   4103     1   109.8000471 387.438400
   4090   4102   4104     1   109.8000471 387.438400
   4091   4090   4102     1   109.5600471 388.275200
   4091   4090   4092     1   108.4600466 328.025600
   4092   4090   4102     1   109.5600471 388.275200
   4093   4105   4106     1   109.8000471 387.438400
   4093   4105   4107     1   109.8000471 387.438400
   4094   4093   4105     1   109.5600471 388.275200
   4094   4093   4095     1   108.4600466 328.025600
   4095   4093   4105     1   109.5600471 388.275200
   4096   4099   4100     1   109.8000471 387.438400
   4096   4099   4101     1   109.8000471 387.438400
   4097   4096   4099     1   109.5600471 388.275200
   4097   4096   4098     1   108.4600466 328.025600
   4098   4096   4099     1   109.5600471 388.275200
   4099   4108   4109     1   109.5600471 388.275200
   4099   4108   4110     1   109.5600471 388.275200
   4100   4099   4108     1   109.8000471 387.438400
   4100   4099   4101     1   107.5800459 329.699200
   4101   4099   4108     1   109.8000471 387.438400
   4102   4114   4115     1   109.5600471 388.275200
   4102   4114   4116     1   109.5600471 388.275200
   4103   4102   4114     1   109.8000471 387.438400
   4103   4102   4104     1   107.5800459 329.699200
   4104   4102   4114     1   109.8000471 387.438400
   4105   4111   4112     1   109.5600471 388.275200
   4105   4111   4113     1   109.5600471 388.275200
   4106   4105   4111     1   109.8000471 387.438400
   4106   4105   4107     1   107.5800459 329.699200
   4107   4105   4111     1   109.8000471 387.438400
   4109   4108   4117     1   109.7800468 425.094400
   4109   4108   4110     1   108.4600466 328.025600
   4110   4108   4117     1   109.7800468 425.094400
   4112   4111   8264     1   109.7800468 425.094400
   4112   4111   4113     1   108.4600466 328.025600
   4113   4111   8264     1   109.7800468 425.094400
   4115   4114   8293     1   109.7800468 425.094400
   4115   4114   4116     1   108.4600466 328.025600
   4116   4114   8293     1   109.7800468 425.094400
   4118   4119   4120     1   109.8800469 414.216000
   4118   4119   4121     1   109.8800469 414.216000
   4118   4122   4123     1   109.8800469 414.216000
   4118   4122   4124     1   109.8800469 414.216000
   4118   4125   4126     1   109.8800469 414.216000
   4118   4125   4127     1   109.8800469 414.216000
   4119   4131   4132     1   109.8000471 387.438400
   4119   4131   4133     1   109.8000471 387.438400
   4120   4119   4131     1   109.5600471 388.275200
   4120   4119   4121     1   108.4600466 328.025600
   4121   4119   4131     1   109.5600471 388.275200
   4122   4134   4135     1   109.8000471 387.438400
   4122   4134   4136     1   109.8000471 387.438400
   4123   4122   4134     1   109.5600471 388.275200
   4123   4122   4124     1   108.4600466 328.025600
   4124   4122   4134     1   109.5600471 388.275200
   4125   4128   4129     1   109.8000471 387.438400
   4125   4128   4130     1   109.8000471 387.438400
   4126   4125   4128     1   109.5600471 388.275200
   4126   4125   4127     1   108.4600466 328.025600
   4127   4125   4128     1   109.5600471 388.275200
   4128   4137   4138     1   109.5600471 388.275200
   4128   4137   4139     1   109.5600471 388.275200
   4129   4128   4137     1   109.8000471 387.438400
   4129   4128   4130     1   107.5800459 329.699200
   4130   4128   4137     1   109.8000471 387.438400
   4131   4143   4144     1   109.5600471 388.275200
   4131   4143   4145     1   109.5600471 388.275200
   4132   4131   4143     1   109.8000471 387.438400
   4132   4131   4133     1   107.5800459 329.699200
   4133   4131   4143     1   109.8000471 387.438400
   4134   4140   4141     1   109.5600471 388.275200
   4134   4140   4142     1   109.5600471 388.275200
   4135   4134   4140     1   109.8000471 387.438400
   4135   4134   4136     1   107.5800459 329.699200
   4136   4134   4140     1   109.8000471 387.438400
   4138   4137   4146     1   109.7800468 425.094400
   4138   4137   4139     1   108.4600466 328.025600
   4139   4137   4146     1   109.7800468 425.094400
   4141   4140   8322     1   109.7800468 425.094400
   4141   4140   4142     1   108.4600466 328.025600
   4142   4140   8322     1   109.7800468 425.094400
   4144   4143   8351     1   109.7800468 425.094400
   4144   4143   4145     1   108.4600466 328.025600
   4145   4143   8351     1   109.7800468 425.094400
   4147   4148   4149     1   109.8800469 414.216000
   4147   4148   4150     1   109.8800469 414.216000
   4147   4151   4152     1   109.8800469 414.216000
   4147   4151   4153     1   109.8800469 414.216000
   4147   4154   4155     1   109.8800469 414.216000
   4147   4154   4156     1   109.8800469 414.216000
   4148   4160   4161     1   109.8000471 387.438400
   4148   4160   4162     1   109.8000471 387.438400
   4149   4148   4160     1   109.5600471 388.275200
   4149   4148   4150     1   108.4600466 328.025600
   4150   4148   4160     1   109.5600471 388.275200
   4151   4163   4164     1   109.8000471 387.438400
   4151   4163   4165     1   109.8000471 387.438400
   4152   4151   4163     1   109.5600471 388.275200
   4152   4151   4153     1   108.4600466 328.025600
   4153   4151   4163     1   109.5600471 388.275200
   4154   4157   4158     1   109.8000471 387.438400
   4154   4157   4159     1   109.8000471 387.438400
   4155   4154   4157     1   109.5600471 388.275200
   4155   4154   4156     1   108.4600466 328.025600
   4156   4154   4157     1   109.5600471 388.275200
   4157   4166   4167     1   109.5600471 388.275200
   4157   4166   4168     1   109.5600471 388.275200
   4158   4157   4166     1   109.8000471 387.438400
   4158   4157   4159     1   107.5800459 329.699200
   4159   4157   4166     1   109.8000471 387.438400
   4160   4172   4173     1   109.5600471 388.275200
   4160   4172   4174     1   109.5600471 388.275200
   4161   4160   4172     1   109.8000471 387.438400
   4161   4160   4162     1   107.5800459 329.699200
   4162   4160   4172     1   109.8000471 387.438400
   4163   4169   4170     1   109.5600471 388.275200
   4163   4169   4171     1   109.5600471 388.275200
   4164   4163   4169     1   109.8000471 387.438400
   4164   4163   4165     1   107.5800459 329.699200
   4165   4163   4169     1   109.8000471 387.438400
   4167   4166   4175     1   109.7800468 425.094400
   4167   4166   4168     1   108.4600466 328.025600
   4168   4166   4175     1   109.7800468 425.094400
   4170   4169   8380     1   109.7800468 425.094400
   4170   4169   4171     1   108.4600466 328.025600
   4171   4169   8380     1   109.7800468 425.094400
   4173   4172   8409     1   109.7800468 425.094400
   4173   4172   4174     1   108.4600466 328.025600
   4174   4172   8409     1   109.7800468 425.094400
   4176   4177   4178     1   109.8800469 414.216000
   4176   4177   4179     1   109.8800469 414.216000
   4176   4180   4181     1   109.8800469 414.216000
   4176   4180   4182     1   109.8800469 414.216000
   4176   4183   4184     1   109.8800469 414.216000
   4176   4183   4185     1   109.8800469 414.216000
   4177   4189   4190     1   109.8000471 387.438400
   4177   4189   4191     1   109.8000471 387.438400
   4178   4177   4189     1   109.5600471 388.275200
   4178   4177   4179     1   108.4600466 328.025600
   4179   4177   4189     1   109.5600471 388.275200
   4180   4192   4193     1   109.8000471 387.438400
   4180   4192   4194     1   109.8000471 387.438400
   4181   4180   4192     1   109.5600471 388.275200
   4181   4180   4182     1   108.4600466 328.025600
   4182   4180   4192     1   109.5600471 388.275200
   4183   4186   4187     1   109.8000471 387.438400
   4183   4186   4188     1   109.8000471 387.438400
   4184   4183   4186     1   109.5600471 388.275200
   4184   4183   4185     1   108.4600466 328.025600
   4185   4183   4186     1   109.5600471 388.275200
   4186   4195   4196     1   109.5600471 388.275200
   4186   4195   4197     1   109.5600471 388.275200
   4187   4186   4195     1   109.8000471 387.438400
   4187   4186   4188     1   107.5800459 329.699200
   4188   4186   4195     1   109.8000471 387.438400
   4189   4201   4202     1   109.5600471 388.275200
   4189   4201   4203     1   109.5600471 388.275200
   4190   4189   4201     1   109.8000471 387.438400
   4190   4189   4191     1   107.5800459 329.699200
   4191   4189   4201     1   109.8000471 387.438400
   4192   4198   4199     1   109.5600471 388.275200
   4192   4198   4200     1   109.5600471 388.275200
   4193   4192   4198     1   109.8000471 387.438400
   4193   4192   4194     1   107.5800459 329.699200
   4194   4192   4198     1   109.8000471 387.438400
   4196   4195   4204     1   109.7800468 425.094400
   4196   4195   4197     1   108.4600466 328.025600
   4197   4195   4204     1   109.7800468 425.094400
   4199   4198   8438     1   109.7800468 425.094400
   4199   4198   4200     1   108.4600466 328.025600
   4200   4198   8438     1   109.7800468 425.094400
   4202   4201   8467     1   109.7800468 425.094400
   4202   4201   4203     1   108.4600466 328.025600
   4203   4201   8467     1   109.7800468 425.094400
   4205   4206   4207     1   109.8800469 414.216000
   4205   4206   4208     1   109.8800469 414.216000
   4205   4209   4210     1   109.8800469 414.216000
   4205   4209   4211     1   109.8800469 414.216000
   4205   4212   4213     1   109.8800469 414.216000
   4205   4212   4214     1   109.8800469 414.216000
   4206   4218   4219     1   109.8000471 387.438400
   4206   4218   4220     1   109.8000471 387.438400
   4207   4206   4218     1   109.5600471 388.275200
   4207   4206   4208     1   108.4600466 328.025600
   4208   4206   4218     1   109.5600471 388.275200
   4209   4221   4222     1   109.8000471 387.438400
   4209   4221   4223     1   109.8000471 387.438400
   4210   4209   4221     1   109.5600471 388.275200
   4210   4209   4211     1   108.4600466 328.025600
   4211   4209   4221     1   109.5600471 388.275200
   4212   4215   4216     1   109.8000471 387.438400
   4212   4215   4217     1   109.8000471 387.438400
   4213   4212   4215     1   109.5600471 388.275200
   4213   4212   4214     1   108.4600466 328.025600
   4214   4212   4215     1   109.5600471 388.275200
   4215   4224   4225     1   109.5600471 388.275200
   4215   4224   4226     1   109.5600471 388.275200
   4216   4215   4224     1   109.8000471 387.438400
   4216   4215   4217     1   107.5800459 329.699200
   4217   4215   4224     1   109.8000471 387.438400
   4218   4230   4231     1   109.5600471 388.275200
   4218   4230   4232     1   109.5600471 388.275200
   4219   4218   4230     1   109.8000471 387.438400
   4219   4218   4220     1   107.5800459 329.699200
   4220   4218   4230     1   109.8000471 387.438400
   4221   4227   4228     1   109.5600471 388.275200
   4221   4227   4229     1   109.5600471 388.275200
   4222   4221   4227     1   109.8000471 387.438400
   4222   4221   4223     1   107.5800459 329.699200
   4223   4221   4227     1   109.8000471 387.438400
   4225   4224   4233     1   109.7800468 425.094400
   4225   4224   4226     1   108.4600466 328.025600
   4226   4224   4233     1   109.7800468 425.094400
   4228   4227   8496     1   109.7800468 425.094400
   4228   4227   4229     1   108.4600466 328.025600
   4229   4227   8496     1   109.7800468 425.094400
   4231   4230   8525     1   109.7800468 425.094400
   4231   4230   4232     1   108.4600466 328.025600
   4232   4230   8525     1   109.7800468 425.094400
   4234   4235   4236     1   109.8800469 414.216000
   4234   4235   4237     1   109.8800469 414.216000
   4234   4238   4239     1   109.8800469 414.216000
   4234   4238   4240     1   109.8800469 414.216000
   4234   4241   4242     1   109.8800469 414.216000
   4234   4241   4243     1   109.8800469 414.216000
   4235   4247   4248     1   109.8000471 387.438400
   4235   4247   4249     1   109.8000471 387.438400
   4236   4235   4247     1   109.5600471 388.275200
   4236   4235   4237     1   108.4600466 328.025600
   4237   4235   4247     1   109.5600471 388.275200
   4238   4250   4251     1   109.8000471 387.438400
   4238   4250   4252     1   109.8000471 387.438400
   4239   4238   4250     1   109.5600471 388.275200
   4239   4238   4240     1   108.4600466 328.025600
   4240   4238   4250     1   109.5600471 388.275200
   4241   4244   4245     1   109.8000471 387.438400
   4241   4244   4246     1   109.8000471 387.438400
   4242   4241   4244     1   109.5600471 388.275200
   4242   4241   4243     1   108.4600466 328.025600
   4243   4241   4244     1   109.5600471 388.275200
   4244   4253   4254     1   109.5600471 388.275200
   4244   4253   4255     1   109.5600471 388.275200
   4245   4244   4253     1   109.8000471 387.438400
   4245   4244   4246     1   107.5800459 329.699200
   4246   4244   4253     1   109.8000471 387.438400
   4247   4259   4260     1   109.5600471 388.275200
   4247   4259   4261     1   109.5600471 388.275200
   4248   4247   4259     1   109.8000471 387.438400
   4248   4247   4249     1   107.5800459 329.699200
   4249   4247   4259     1   109.8000471 387.438400
   4250   4256   4257     1   109.5600471 388.275200
   4250   4256   4258     1   109.5600471 388.275200
   4251   4250   4256     1   109.8000471 387.438400
   4251   4250   4252     1   107.5800459 329.699200
   4252   4250   4256     1   109.8000471 387.438400
   4254   4253   4262     1   109.7800468 425.094400
   4254   4253   4255     1   108.4600466 328.025600
   4255   4253   4262     1   109.7800468 425.094400
   4257   4256   8554     1   109.7800468 425.094400
   4257   4256   4258     1   108.4600466 328.025600
   4258   4256   8554     1   109.7800468 425.094400
   4260   4259   8583     1   109.7800468 425.094400
   4260   4259   4261     1   108.4600466 328.025600
   4261   4259   8583     1   109.7800468 425.094400
   4263   4264   4265     1   109.8800469 414.216000
   4263   4264   4266     1   109.8800469 414.216000
   4263   4267   4268     1   109.8800469 414.216000
   4263   4267   4269     1   109.8800469 414.216000
   4263   4270   4271     1   109.8800469 414.216000
   4263   4270   4272     1   109.8800469 414.216000
   4264   4276   4277     1   109.8000471 387.438400
   4264   4276   4278     1   109.8000471 387.438400
   4265   4264   4276     1   109.5600471 388.275200
   4265   4264   4266     1   108.4600466 328.025600
   4266   4264   4276     1   109.5600471 388.275200
   4267   4279   4280     1   109.8000471 387.438400
   4267   4279   4281     1   109.8000471 387.438400
   4268   4267   4279     1   109.5600471 388.275200
   4268   4267   4269     1   108.4600466 328.025600
   4269   4267   4279     1   109.5600471 388.275200
   4270   4273   4274     1   109.8000471 387.438400
   4270   4273   4275     1   109.8000471 387.438400
   4271   4270   4273     1   109.5600471 388.275200
   4271   4270   4272     1   108.4600466 328.025600
   4272   4270   4273     1   109.5600471 388.275200
   4273   4282   4283     1   109.5600471 388.275200
   4273   4282   4284     1   109.5600471 388.275200
   4274   4273   4282     1   109.8000471 387.438400
   4274   4273   4275     1   107.5800459 329.699200
   4275   4273   4282     1   109.8000471 387.438400
   4276   4288   4289     1   109.5600471 388.275200
   4276   4288   4290     1   109.5600471 388.275200
   4277   4276   4288     1   109.8000471 387.438400
   4277   4276   4278     1   107.5800459 329.699200
   4278   4276   4288     1   109.8000471 387.438400
   4279   4285   4286     1   109.5600471 388.275200
   4279   4285   4287     1   109.5600471 388.275200
   4280   4279   4285     1   109.8000471 387.438400
   4280   4279   4281     1   107.5800459 329.699200
   4281   4279   4285     1   109.8000471 387.438400
   4283   4282   4291     1   109.7800468 425.094400
   4283   4282   4284     1   108.4600466 328.025600
   4284   4282   4291     1   109.7800468 425.094400
   4286   4285   8612     1   109.7800468 425.094400
   4286   4285   4287     1   108.4600466 328.025600
   4287   4285   8612     1   109.7800468 425.094400
   4289   4288   8641     1   109.7800468 425.094400
   4289   4288   4290     1   108.4600466 328.025600
   4290   4288   8641     1   109.7800468 425.094400
   4292   4293   4294     1   109.8800469 414.216000
   4292   4293   4295     1   109.8800469 414.216000
   4292   4296   4297     1   109.8800469 414.216000
   4292   4296   4298     1   109.8800469 414.216000
   4292   4299   4300     1   109.8800469 414.216000
   4292   4299   4301     1   109.8800469 414.216000
   4293   4305   4306     1   109.8000471 387.438400
   4293   4305   4307     1   109.8000471 387.438400
   4294   4293   4305     1   109.5600471 388.275200
   4294   4293   4295     1   108.4600466 328.025600
   4295   4293   4305     1   109.5600471 388.275200
   4296   4308   4309     1   109.8000471 387.438400
   4296   4308   4310     1   109.8000471 387.438400
   4297   4296   4308     1   109.5600471 388.275200
   4297   4296   4298     1   108.4600466 328.025600
   4298   4296   4308     1   109.5600471 388.275200
   4299   4302   4303     1   109.8000471 387.438400
   4299   4302   4304     1   109.8000471 387.438400
   4300   4299   4302     1   109.5600471 388.275200
   4300   4299   4301     1   108.4600466 328.025600
   4301   4299   4302     1   109.5600471 388.275200
   4302   4311   4312     1   109.5600471 388.275200
   4302   4311   4313     1   109.5600471 388.275200
   4303   4302   4311     1   109.8000471 387.438400
   4303   4302   4304     1   107.5800459 329.699200
   4304   4302   4311     1   109.8000471 387.438400
   4305   4317   4318     1   109.5600471 388.275200
   4305   4317   4319     1   109.5600471 388.275200
   4306   4305   4317     1   109.8000471 387.438400
   4306   4305   4307     1   107.5800459 329.699200
   4307   4305   4317     1   109.8000471 387.438400
   4308   4314   4315     1   109.5600471 388.275200
   4308   4314   4316     1   109.5600471 388.275200
   4309   4308   4314     1   109.8000471 387.438400
   4309   4308   4310     1   107.5800459 329.699200
   4310   4308   4314     1   109.8000471 387.438400
   4312   4311   4320     1   109.7800468 425.094400
   4312   4311   4313     1   108.4600466 328.025600
   4313   4311   4320     1   109.7800468 425.094400
   4315   4314   8670     1   109.7800468 425.094400
   4315   4314   4316     1   108.4600466 328.025600
   4316   4314   8670     1   109.7800468 425.094400
   4318   4317   8699     1   109.7800468 425.094400
   4318   4317   4319     1   108.4600466 328.025600
   4319   4317   8699     1   109.7800468 425.094400
   4321   4322   4323     1   109.8800469 414.216000
   4321   4322   4324     1   109.8800469 414.216000
   4321   4325   4326     1   109.8800469 414.216000
   4321   4325   4327     1   109.8800469 414.216000
   4321   4328   4329     1   109.8800469 414.216000
   4321   4328   4330     1   109.8800469 414.216000
   4322   4334   4335     1   109.8000471 387.438400
   4322   4334   4336     1   109.8000471 387.438400
   4323   4322   4334     1   109.5600471 388.275200
   4323   4322   4324     1   108.4600466 328.025600
   4324   4322   4334     1   109.5600471 388.275200
   4325   4337   4338     1   109.8000471 387.438400
   4325   4337   4339     1   109.8000471 387.438400
   4326   4325   4337     1   109.5600471 388.275200
   4326   4325   4327     1   108.4600466 328.025600
   4327   4325   4337     1   109.5600471 388.275200
   4328   4331   4332     1   109.8000471 387.438400
   4328   4331   4333     1   109.8000471 387.438400
   4329   4328   4331     1   109.5600471 388.275200
   4329   4328   4330     1   108.4600466 328.025600
   4330   4328   4331     1   109.5600471 388.275200
   4331   4340   4341     1   109.5600471 388.275200
   4331   4340   4342     1   109.5600471 388.275200
   4332   4331   4340     1   109.8000471 387.438400
   4332   4331   4333     1   107.5800459 329.699200
   4333   4331   4340     1   109.8000471 387.438400
   4334   4346   4347     1   109.5600471 388.275200
   4334   4346   4348     1   109.5600471 388.275200
   4335   4334   4346     1   109.8000471 387.438400
   4335   4334   4336     1   107.5800459 329.699200
   4336   4334   4346     1   109.8000471 387.438400
   4337   4343   4344     1   109.5600471 388.275200
   4337   4343   4345     1   109.5600471 388.275200
   4338   4337   4343     1   109.8000471 387.438400
   4338   4337   4339     1   107.5800459 329.699200
   4339   4337   4343     1   109.8000471 387.438400
   4341   4340   4349     1   109.7800468 425.094400
   4341   4340   4342     1   108.4600466 328.025600
   4342   4340   4349     1   109.7800468 425.094400
   4344   4343   8728     1   109.7800468 425.094400
   4344   4343   4345     1   108.4600466 328.025600
   4345   4343   8728     1   109.7800468 425.094400
   4347   4346   8757     1   109.7800468 425.094400
   4347   4346   4348     1   108.4600466 328.025600
   4348   4346   8757     1   109.7800468 425.094400
   4350   4351   4352     1   109.8800469 414.216000
   4350   4351   4353     1   109.8800469 414.216000
   4350   4354   4355     1   109.8800469 414.216000
   4350   4354   4356     1   109.8800469 414.216000
   4350   4357   4358     1   109.8800469 414.216000
   4350   4357   4359     1   109.8800469 414.216000
   4351   4363   4364     1   109.8000471 387.438400
   4351   4363   4365     1   109.8000471 387.438400
   4352   4351   4363     1   109.5600471 388.275200
   4352   4351   4353     1   108.4600466 328.025600
   4353   4351   4363     1   109.5600471 388.275200
   4354   4366   4367     1   109.8000471 387.438400
   4354   4366   4368     1   109.8000471 387.438400
   4355   4354   4366     1   109.5600471 388.275200
   4355   4354   4356     1   108.4600466 328.025600
   4356   4354   4366     1   109.5600471 388.275200
   4357   4360   4361     1   109.8000471 387.438400
   4357   4360   4362     1   109.8000471 387.438400
   4358   4357   4360     1   109.5600471 388.275200
   4358   4357   4359     1   108.4600466 328.025600
   4359   4357   4360     1   109.5600471 388.275200
   4360   4369   4370     1   109.5600471 388.275200
   4360   4369   4371     1   109.5600471 388.275200
   4361   4360   4369     1   109.8000471 387.438400
   4361   4360   4362     1   107.5800459 329.699200
   4362   4360   4369     1   109.8000471 387.438400
   4363   4375   4376     1   109.5600471 388.275200
   4363   4375   4377     1   109.5600471 388.275200
   4364   4363   4375     1   109.8000471 387.438400
   4364   4363   4365     1   107.5800459 329.699200
   4365   4363   4375     1   109.8000471 387.438400
   4366   4372   4373     1   109.5600471 388.275200
   4366   4372   4374     1   109.5600471 388.275200
   4367   4366   4372     1   109.8000471 387.438400
   4367   4366   4368     1   107.5800459 329.699200
   4368   4366   4372     1   109.8000471 387.438400
   4370   4369   4378     1   109.7800468 425.094400
   4370   4369   4371     1   108.4600466 328.025600
   4371   4369   4378     1   109.7800468 425.094400
   4373   4372   8786     1   109.7800468 425.094400
   4373   4372   4374     1   108.4600466 328.025600
   4374   4372   8786     1   109.7800468 425.094400
   4376   4375   8815     1   109.7800468 425.094400
   4376   4375   4377     1   108.4600466 328.025600
   4377   4375   8815     1   109.7800468 425.094400
   4379   4380   4381     1   109.8800469 414.216000
   4379   4380   4382     1   109.8800469 414.216000
   4379   4383   4384     1   109.8800469 414.216000
   4379   4383   4385     1   109.8800469 414.216000
   4379   4386   4387     1   109.8800469 414.216000
   4379   4386   4388     1   109.8800469 414.216000
   4380   4392   4393     1   109.8000471 387.438400
   4380   4392   4394     1   109.8000471 387.438400
   4381   4380   4392     1   109.5600471 388.275200
   4381   4380   4382     1   108.4600466 328.025600
   4382   4380   4392     1   109.5600471 388.275200
   4383   4395   4396     1   109.8000471 387.438400
   4383   4395   4397     1   109.8000471 387.438400
   4384   4383   4395     1   109.5600471 388.275200
   4384   4383   4385     1   108.4600466 328.025600
   4385   4383   4395     1   109.5600471 388.275200
   4386   4389   4390     1   109.8000471 387.438400
   4386   4389   4391     1   109.8000471 387.438400
   4387   4386   4389     1   109.5600471 388.275200
   4387   4386   4388     1   108.4600466 328.025600
   4388   4386   4389     1   109.5600471 388.275200
   4389   4398   4399     1   109.5600471 388.275200
   4389   4398   4400     1   109.5600471 388.275200
   4390   4389   4398     1   109.8000471 387.438400
   4390   4389   4391     1   107.5800459 329.699200
   4391   4389   4398     1   109.8000471 387.438400
   4392   4404   4405     1   109.5600471 388.275200
   4392   4404   4406     1   109.5600471 388.275200
   4393   4392   4404     1   109.8000471 387.438400
   4393   4392   4394     1   107.5800459 329.699200
   4394   4392   4404     1   109.8000471 387.438400
   4395   4401   4402     1   109.5600471 388.275200
   4395   4401   4403     1   109.5600471 388.275200
   4396   4395   4401     1   109.8000471 387.438400
   4396   4395   4397     1   107.5800459 329.699200
   4397   4395   4401     1   109.8000471 387.438400
   4399   4398   4407     1   109.7800468 425.094400
   4399   4398   4400     1   108.4600466 328.025600
   4400   4398   4407     1   109.7800468 425.094400
   4402   4401   8844     1   109.7800468 425.094400
   4402   4401   4403     1   108.4600466 328.025600
   4403   4401   8844     1   109.7800468 425.094400
   4405   4404   8873     1   109.7800468 425.094400
   4405   4404   4406     1   108.4600466 328.025600
   4406   4404   8873     1   109.7800468 425.094400
   4408   4409   4410     1   109.8800469 414.216000
   4408   4409   4411     1   109.8800469 414.216000
   4408   4412   4413     1   109.8800469 414.216000
   4408   4412   4414     1   109.8800469 414.216000
   4408   4415   4416     1   109.8800469 414.216000
   4408   4415   4417     1   109.8800469 414.216000
   4409   4421   4422     1   109.8000471 387.438400
   4409   4421   4423     1   109.8000471 387.438400
   4410   4409   4421     1   109.5600471 388.275200
   4410   4409   4411     1   108.4600466 328.025600
   4411   4409   4421     1   109.5600471 388.275200
   4412   4424   4425     1   109.8000471 387.438400
   4412   4424   4426     1   109.8000471 387.438400
   4413   4412   4424     1   109.5600471 388.275200
   4413   4412   4414     1   108.4600466 328.025600
   4414   4412   4424     1   109.5600471 388.275200
   4415   4418   4419     1   109.8000471 387.438400
   4415   4418   4420     1   109.8000471 387.438400
   4416   4415   4418     1   109.5600471 388.275200
   4416   4415   4417     1   108.4600466 328.025600
   4417   4415   4418     1   109.5600471 388.275200
   4418   4427   4428     1   109.5600471 388.275200
   4418   4427   4429     1   109.5600471 388.275200
   4419   4418   4427     1   109.8000471 387.438400
   4419   4418   4420     1   107.5800459 329.699200
   4420   4418   4427     1   109.8000471 387.438400
   4421   4433   4434     1   109.5600471 388.275200
   4421   4433   4435     1   109.5600471 388.275200
   4422   4421   4433     1   109.8000471 387.438400
   4422   4421   4423     1   107.5800459 329.699200
   4423   4421   4433     1   109.8000471 387.438400
   4424   4430   4431     1   109.5600471 388.275200
   4424   4430   4432     1   109.5600471 388.275200
   4425   4424   4430     1   109.8000471 387.438400
   4425   4424   4426     1   107.5800459 329.699200
   4426   4424   4430     1   109.8000471 387.438400
   4428   4427   4436     1   109.7800468 425.094400
   4428   4427   4429     1   108.4600466 328.025600
   4429   4427   4436     1   109.7800468 425.094400
   4431   4430   8902     1   109.7800468 425.094400
   4431   4430   4432     1   108.4600466 328.025600
   4432   4430   8902     1   109.7800468 425.094400
   4434   4433   8931     1   109.7800468 425.094400
   4434   4433   4435     1   108.4600466 328.025600
   4435   4433   8931     1   109.7800468 425.094400
   4437   4438   4439     1   109.8800469 414.216000
   4437   4438   4440     1   109.8800469 414.216000
   4437   4441   4442     1   109.8800469 414.216000
   4437   4441   4443     1   109.8800469 414.216000
   4437   4444   4445     1   109.8800469 414.216000
   4437   4444   4446     1   109.8800469 414.216000
   4438   4450   4451     1   109.8000471 387.438400
   4438   4450   4452     1   109.8000471 387.438400
   4439   4438   4450     1   109.5600471 388.275200
   4439   4438   4440     1   108.4600466 328.025600
   4440   4438   4450     1   109.5600471 388.275200
   4441   4453   4454     1   109.8000471 387.438400
   4441   4453   4455     1   109.8000471 387.438400
   4442   4441   4453     1   109.5600471 388.275200
   4442   4441   4443     1   108.4600466 328.025600
   4443   4441   4453     1   109.5600471 388.275200
   4444   4447   4448     1   109.8000471 387.438400
   4444   4447   4449     1   109.8000471 387.438400
   4445   4444   4447     1   109.5600471 388.275200
   4445   4444   4446     1   108.4600466 328.025600
   4446   4444   4447     1   109.5600471 388.275200
   4447   4456   4457     1   109.5600471 388.275200
   4447   4456   4458     1   109.5600471 388.275200
   4448   4447   4456     1   109.8000471 387.438400
   4448   4447   4449     1   107.5800459 329.699200
   4449   4447   4456     1   109.8000471 387.438400
   4450   4462   4463     1   109.5600471 388.275200
   4450   4462   4464     1   109.5600471 388.275200
   4451   4450   4462     1   109.8000471 387.438400
   4451   4450   4452     1   107.5800459 329.699200
   4452   4450   4462     1   109.8000471 387.438400
   4453   4459   4460     1   109.5600471 388.275200
   4453   4459   4461     1   109.5600471 388.275200
   4454   4453   4459     1   109.8000471 387.438400
   4454   4453   4455     1   107.5800459 329.699200
   4455   4453   4459     1   109.8000471 387.438400
   4457   4456   4465     1   109.7800468 425.094400
   4457   4456   4458     1   108.4600466 328.025600
   4458   4456   4465     1   109.7800468 425.094400
   4460   4459   8960     1   109.7800468 425.094400
   4460   4459   4461     1   108.4600466 328.025600
   4461   4459   8960     1   109.7800468 425.094400
   4463   4462   8989     1   109.7800468 425.094400
   4463   4462   4464     1   108.4600466 328.025600
   4464   4462   8989     1   109.7800468 425.094400
   4466   4467   4468     1   109.8800469 414.216000
   4466   4467   4469     1   109.8800469 414.216000
   4466   4470   4471     1   109.8800469 414.216000
   4466   4470   4472     1   109.8800469 414.216000
   4466   4473   4474     1   109.8800469 414.216000
   4466   4473   4475     1   109.8800469 414.216000
   4467   4479   4480     1   109.8000471 387.438400
   4467   4479   4481     1   109.8000471 387.438400
   4468   4467   4479     1   109.5600471 388.275200
   4468   4467   4469     1   108.4600466 328.025600
   4469   4467   4479     1   109.5600471 388.275200
   4470   4482   4483     1   109.8000471 387.438400
   4470   4482   4484     1   109.8000471 387.438400
   4471   4470   4482     1   109.5600471 388.275200
   4471   4470   4472     1   108.4600466 328.025600
   4472   4470   4482     1   109.5600471 388.275200
   4473   4476   4477     1   109.8000471 387.438400
   4473   4476   4478     1   109.8000471 387.438400
   4474   4473   4476     1   109.5600471 388.275200
   4474   4473   4475     1   108.4600466 328.025600
   4475   4473   4476     1   109.5600471 388.275200
   4476   4485   4486     1   109.5600471 388.275200
   4476   4485   4487     1   109.5600471 388.275200
   4477   4476   4485     1   109.8000471 387.438400
   4477   4476   4478     1   107.5800459 329.699200
   4478   4476   4485     1   109.8000471 387.438400
   4479   4491   4492     1   109.5600471 388.275200
   4479   4491   4493     1   109.5600471 388.275200
   4480   4479   4491     1   109.8000471 387.438400
   4480   4479   4481     1   107.5800459 329.699200
   4481   4479   4491     1   109.8000471 387.438400
   4482   4488   4489     1   109.5600471 388.275200
   4482   4488   4490     1   109.5600471 388.275200
   4483   4482   4488     1   109.8000471 387.438400
   4483   4482   4484     1   107.5800459 329.699200
   4484   4482   4488     1   109.8000471 387.438400
   4486   4485   4494     1   109.7800468 425.094400
   4486   4485   4487     1   108.4600466 328.025600
   4487   4485   4494     1   109.7800468 425.094400
   4489   4488   9018     1   109.7800468 425.094400
   4489   4488   4490     1   108.4600466 328.025600
   4490   4488   9018     1   109.7800468 425.094400
   4492   4491   9047     1   109.7800468 425.094400
   4492   4491   4493     1   108.4600466 328.025600
   4493   4491   9047     1   109.7800468 425.094400
   4495   4496   4497     1   109.8800469 414.216000
   4495   4496   4498     1   109.8800469 414.216000
   4495   4499   4500     1   109.8800469 414.216000
   4495   4499   4501     1   109.8800469 414.216000
   4495   4502   4503     1   109.8800469 414.216000
   4495   4502   4504     1   109.8800469 414.216000
   4496   4508   4509     1   109.8000471 387.438400
   4496   4508   4510     1   109.8000471 387.438400
   4497   4496   4508     1   109.5600471 388.275200
   4497   4496   4498     1   108.4600466 328.025600
   4498   4496   4508     1   109.5600471 388.275200
   4499   4511   4512     1   109.8000471 387.438400
   4499   4511   4513     1   109.8000471 387.438400
   4500   4499   4511     1   109.5600471 388.275200
   4500   4499   4501     1   108.4600466 328.025600
   4501   4499   4511     1   109.5600471 388.275200
   4502   4505   4506     1   109.8000471 387.438400
   4502   4505   4507     1   109.8000471 387.438400
   4503   4502   4505     1   109.5600471 388.275200
   4503   4502   4504     1   108.4600466 328.025600
   4504   4502   4505     1   109.5600471 388.275200
   4505   4514   4515     1   109.5600471 388.275200
   4505   4514   4516     1   109.5600471 388.275200
   4506   4505   4514     1   109.8000471 387.438400
   4506   4505   4507     1   107.5800459 329.699200
   4507   4505   4514     1   109.8000471 387.438400
   4508   4520   4521     1   109.5600471 388.275200
   4508   4520   4522     1   109.5600471 388.275200
   4509   4508   4520     1   109.8000471 387.438400
   4509   4508   4510     1   107.5800459 329.699200
   4510   4508   4520     1   109.8000471 387.438400
   4511   4517   4518     1   109.5600471 388.275200
   4511   4517   4519     1   109.5600471 388.275200
   4512   4511   4517     1   109.8000471 387.438400
   4512   4511   4513     1   107.5800459 329.699200
   4513   4511   4517     1   109.8000471 387.438400
   4515   4514   4523     1   109.7800468 425.094400
   4515   4514   4516     1   108.4600466 328.025600
   4516   4514   4523     1   109.7800468 425.094400
   4518   4517   9076     1   109.7800468 425.094400
   4518   4517   4519     1   108.4600466 328.025600
   4519   4517   9076     1   109.7800468 425.094400
   4521   4520   9105     1   109.7800468 425.094400
   4521   4520   4522     1   108.4600466 328.025600
   4522   4520   9105     1   109.7800468 425.094400
   4524   4525   4526     1   109.8800469 414.216000
   4524   4525   4527     1   109.8800469 414.216000
   4524   4528   4529     1   109.8800469 414.216000
   4524   4528   4530     1   109.8800469 414.216000
   4524   4531   4532     1   109.8800469 414.216000
   4524   4531   4533     1   109.8800469 414.216000
   4525   4537   4538     1   109.8000471 387.438400
   4525   4537   4539     1   109.8000471 387.438400
   4526   4525   4537     1   109.5600471 388.275200
   4526   4525   4527     1   108.4600466 328.025600
   4527   4525   4537     1   109.5600471 388.275200
   4528   4540   4541     1   109.8000471 387.438400
   4528   4540   4542     1   109.8000471 387.438400
   4529   4528   4540     1   109.5600471 388.275200
   4529   4528   4530     1   108.4600466 328.025600
   4530   4528   4540     1   109.5600471 388.275200
   4531   4534   4535     1   109.8000471 387.438400
   4531   4534   4536     1   109.8000471 387.438400
   4532   4531   4534     1   109.5600471 388.275200
   4532   4531   4533     1   108.4600466 328.025600
   4533   4531   4534     1   109.5600471 388.275200
   4534   4543   4544     1   109.5600471 388.275200
   4534   4543   4545     1   109.5600471 388.275200
   4535   4534   4543     1   109.8000471 387.438400
   4535   4534   4536     1   107.5800459 329.699200
   4536   4534   4543     1   109.8000471 387.438400
   4537   4549   4550     1   109.5600471 388.275200
   4537   4549   4551     1   109.5600471 388.275200
   4538   4537   4549     1   109.8000471 387.438400
   4538   4537   4539     1   107.5800459 329.699200
   4539   4537   4549     1   109.8000471 387.438400
   4540   4546   4547     1   109.5600471 388.275200
   4540   4546   4548     1   109.5600471 388.275200
   4541   4540   4546     1   109.8000471 387.438400
   4541   4540   4542     1   107.5800459 329.699200
   4542   4540   4546     1   109.8000471 387.438400
   4544   4543   4552     1   109.7800468 425.094400
   4544   4543   4545     1   108.4600466 328.025600
   4545   4543   4552     1   109.7800468 425.094400
   4547   4546   9134     1   109.7800468 425.094400
   4547   4546   4548     1   108.4600466 328.025600
   4548   4546   9134     1   109.7800468 425.094400
   4550   4549   9163     1   109.7800468 425.094400
   4550   4549   4551     1   108.4600466 328.025600
   4551   4549   9163     1   109.7800468 425.094400
   4553   4554   4555     1   109.8800469 414.216000
   4553   4554   4556     1   109.8800469 414.216000
   4553   4557   4558     1   109.8800469 414.216000
   4553   4557   4559     1   109.8800469 414.216000
   4553   4560   4561     1   109.8800469 414.216000
   4553   4560   4562     1   109.8800469 414.216000
   4554   4566   4567     1   109.8000471 387.438400
   4554   4566   4568     1   109.8000471 387.438400
   4555   4554   4566     1   109.5600471 388.275200
   4555   4554   4556     1   108.4600466 328.025600
   4556   4554   4566     1   109.5600471 388.275200
   4557   4569   4570     1   109.8000471 387.438400
   4557   4569   4571     1   109.8000471 387.438400
   4558   4557   4569     1   109.5600471 388.275200
   4558   4557   4559     1   108.4600466 328.025600
   4559   4557   4569     1   109.5600471 388.275200
   4560   4563   4564     1   109.8000471 387.438400
   4560   4563   4565     1   109.8000471 387.438400
   4561   4560   4563     1   109.5600471 388.275200
   4561   4560   4562     1   108.4600466 328.025600
   4562   4560   4563     1   109.5600471 388.275200
   4563   4572   4573     1   109.5600471 388.275200
   4563   4572   4574     1   109.5600471 388.275200
   4564   4563   4572     1   109.8000471 387.438400
   4564   4563   4565     1   107.5800459 329.699200
   4565   4563   4572     1   109.8000471 387.438400
   4566   4578   4579     1   109.5600471 388.275200
   4566   4578   4580     1   109.5600471 388.275200
   4567   4566   4578     1   109.8000471 387.438400
   4567   4566   4568     1   107.5800459 329.699200
   4568   4566   4578     1   109.8000471 387.438400
   4569   4575   4576     1   109.5600471 388.275200
   4569   4575   4577     1   109.5600471 388.275200
   4570   4569   4575     1   109.8000471 387.438400
   4570   4569   4571     1   107.5800459 329.699200
   4571   4569   4575     1   109.8000471 387.438400
   4573   4572   4581     1   109.7800468 425.094400
   4573   4572   4574     1   108.4600466 328.025600
   4574   4572   4581     1   109.7800468 425.094400
   4576   4575   9192     1   109.7800468 425.094400
   4576   4575   4577     1   108.4600466 328.025600
   4577   4575   9192     1   109.7800468 425.094400
   4579   4578   9221     1   109.7800468 425.094400
   4579   4578   4580     1   108.4600466 328.025600
   4580   4578   9221     1   109.7800468 425.094400
   4582   4583   4584     1   109.8800469 414.216000
   4582   4583   4585     1   109.8800469 414.216000
   4582   4586   4587     1   109.8800469 414.216000
   4582   4586   4588     1   109.8800469 414.216000
   4582   4589   4590     1   109.8800469 414.216000
   4582   4589   4591     1   109.8800469 414.216000
   4583   4595   4596     1   109.8000471 387.438400
   4583   4595   4597     1   109.8000471 387.438400
   4584   4583   4595     1   109.5600471 388.275200
   4584   4583   4585     1   108.4600466 328.025600
   4585   4583   4595     1   109.5600471 388.275200
   4586   4598   4599     1   109.8000471 387.438400
   4586   4598   4600     1   109.8000471 387.438400
   4587   4586   4598     1   109.5600471 388.275200
   4587   4586   4588     1   108.4600466 328.025600
   4588   4586   4598     1   109.5600471 388.275200
   4589   4592   4593     1   109.8000471 387.438400
   4589   4592   4594     1   109.8000471 387.438400
   4590   4589   4592     1   109.5600471 388.275200
   4590   4589   4591     1   108.4600466 328.025600
   4591   4589   4592     1   109.5600471 388.275200
   4592   4601   4602     1   109.5600471 388.275200
   4592   4601   4603     1   109.5600471 388.275200
   4593   4592   4601     1   109.8000471 387.438400
   4593   4592   4594     1   107.5800459 329.699200
   4594   4592   4601     1   109.8000471 387.438400
   4595   4607   4608     1   109.5600471 388.275200
   4595   4607   4609     1   109.5600471 388.275200
   4596   4595   4607     1   109.8000471 387.438400
   4596   4595   4597     1   107.5800459 329.699200
   4597   4595   4607     1   109.8000471 387.438400
   4598   4604   4605     1   109.5600471 388.275200
   4598   4604   4606     1   109.5600471 388.275200
   4599   4598   4604     1   109.8000471 387.438400
   4599   4598   4600     1   107.5800459 329.699200
   4600   4598   4604     1   109.8000471 387.438400
   4602   4601   4610     1   109.7800468 425.094400
   4602   4601   4603     1   108.4600466 328.025600
   4603   4601   4610     1   109.7800468 425.094400
   4605   4604   9250     1   109.7800468 425.094400
   4605   4604   4606     1   108.4600466 328.025600
   4606   4604   9250     1   109.7800468 425.094400
   4608   4607   9279     1   109.7800468 425.094400
   4608   4607   4609     1   108.4600466 328.025600
   4609   4607   9279     1   109.7800468 425.094400
   4611   4612   4613     1   109.8800469 414.216000
   4611   4612   4614     1   109.8800469 414.216000
   4611   4615   4616     1   109.8800469 414.216000
   4611   4615   4617     1   109.8800469 414.216000
   4611   4618   4619     1   109.8800469 414.216000
   4611   4618   4620     1   109.8800469 414.216000
   4612   4624   4625     1   109.8000471 387.438400
   4612   4624   4626     1   109.8000471 387.438400
   4613   4612   4624     1   109.5600471 388.275200
   4613   4612   4614     1   108.4600466 328.025600
   4614   4612   4624     1   109.5600471 388.275200
   4615   4627   4628     1   109.8000471 387.438400
   4615   4627   4629     1   109.8000471 387.438400
   4616   4615   4627     1   109.5600471 388.275200
   4616   4615   4617     1   108.4600466 328.025600
   4617   4615   4627     1   109.5600471 388.275200
   4618   4621   4622     1   109.8000471 387.438400
   4618   4621   4623     1   109.8000471 387.438400
   4619   4618   4621     1   109.5600471 388.275200
   4619   4618   4620     1   108.4600466 328.025600
   4620   4618   4621     1   109.5600471 388.275200
   4621   4630   4631     1   109.5600471 388.275200
   4621   4630   4632     1   109.5600471 388.275200
   4622   4621   4630     1   109.8000471 387.438400
   4622   4621   4623     1   107.5800459 329.699200
   4623   4621   4630     1   109.8000471 387.438400
   4624   4636   4637     1   109.5600471 388.275200
   4624   4636   4638     1   109.5600471 388.275200
   4625   4624   4636     1   109.8000471 387.438400
   4625   4624   4626     1   107.5800459 329.699200
   4626   4624   4636     1   109.8000471 387.438400
   4627   4633   4634     1   109.5600471 388.275200
   4627   4633   4635     1   109.5600471 388.275200
   4628   4627   4633     1   109.8000471 387.438400
   4628   4627   4629     1   107.5800459 329.699200
   4629   4627   4633     1   109.8000471 387.438400
   4631   4630   4639     1   109.7800468 425.094400
   4631   4630   4632     1   108.4600466 328.025600
   4632   4630   4639     1   109.7800468 425.094400
   4634   4633   9308     1   109.7800468 425.094400
   4634   4633   4635     1   108.4600466 328.025600
   4635   4633   9308     1   109.7800468 425.094400
   4637   4636   9337     1   109.7800468 425.094400
   4637   4636   4638     1   108.4600466 328.025600
   4638   4636   9337     1   109.7800468 425.094400
   4640   4641   4642     1   109.8800469 414.216000
   4640   4641   4643     1   109.8800469 414.216000
   4640   4644   4645     1   109.8800469 414.216000
   4640   4644   4646     1   109.8800469 414.216000
   4640   4647   4648     1   109.8800469 414.216000
   4640   4647   4649     1   109.8800469 414.216000
   4641   4653   4654     1   109.8000471 387.438400
   4641   4653   4655     1   109.8000471 387.438400
   4642   4641   4653     1   109.5600471 388.275200
   4642   4641   4643     1   108.4600466 328.025600
   4643   4641   4653     1   109.5600471 388.275200
   4644   4656   4657     1   109.8000471 387.438400
   4644   4656   4658     1   109.8000471 387.438400
   4645   4644   4656     1   109.5600471 388.275200
   4645   4644   4646     1   108.4600466 328.025600
   4646   4644   4656     1   109.5600471 388.275200
   4647   4650   4651     1   109.8000471 387.438400
   4647   4650   4652     1   109.8000471 387.438400
   4648   4647   4650     1   109.5600471 388.275200
   4648   4647   4649     1   108.4600466 328.025600
   4649   4647   4650     1   109.5600471 388.275200
   4650   4659   4660     1   109.5600471 388.275200
   4650   4659   4661     1   109.5600471 388.275200
   4651   4650   4659     1   109.8000471 387.438400
   4651   4650   4652     1   107.5800459 329.699200
   4652   4650   4659     1   109.8000471 387.438400
   4653   4665   4666     1   109.5600471 388.275200
   4653   4665   4667     1   109.5600471 388.275200
   4654   4653   4665     1   109.8000471 387.438400
   4654   4653   4655     1   107.5800459 329.699200
   4655   4653   4665     1   109.8000471 387.438400
   4656   4662   4663     1   109.5600471 388.275200
   4656   4662   4664     1   109.5600471 388.275200
   4657   4656   4662     1   109.8000471 387.438400
   4657   4656   4658     1   107.5800459 329.699200
   4658   4656   4662     1   109.8000471 387.438400
   4660   4659   4668     1   109.7800468 425.094400
   4660   4659   4661     1   108.4600466 328.025600
   4661   4659   4668     1   109.7800468 425.094400
   4663   4662   9366     1   109.7800468 425.094400
   4663   4662   4664     1   108.4600466 328.025600
   4664   4662   9366     1   109.7800468 425.094400
   4666   4665   9395     1   109.7800468 425.094400
   4666   4665   4667     1   108.4600466 328.025600
   4667   4665   9395     1   109.7800468 425.094400
   4669   4670   4671     1   109.8800469 414.216000
   4669   4670   4672     1   109.8800469 414.216000
   4669   4673   4674     1   109.8800469 414.216000
   4669   4673   4675     1   109.8800469 414.216000
   4669   4676   4677     1   109.8800469 414.216000
   4669   4676   4678     1   109.8800469 414.216000
   4670   4682   4683     1   109.8000471 387.438400
   4670   4682   4684     1   109.8000471 387.438400
   4671   4670   4682     1   109.5600471 388.275200
   4671   4670   4672     1   108.4600466 328.025600
   4672   4670   4682     1   109.5600471 388.275200
   4673   4685   4686     1   109.8000471 387.438400
   4673   4685   4687     1   109.8000471 387.438400
   4674   4673   4685     1   109.5600471 388.275200
   4674   4673   4675     1   108.4600466 328.025600
   4675   4673   4685     1   109.5600471 388.275200
   4676   4679   4680     1   109.8000471 387.438400
   4676   4679   4681     1   109.8000471 387.438400
   4677   4676   4679     1   109.5600471 388.275200
   4677   4676   4678     1   108.4600466 328.025600
   4678   4676   4679     1   109.5600471 388.275200
   4679   4688   4689     1   109.5600471 388.275200
   4679   4688   4690     1   109.5600471 388.275200
   4680   4679   4688     1   109.8000471 387.438400
   4680   4679   4681     1   107.5800459 329.699200
   4681   4679   4688     1   109.8000471 387.438400
   4682   4694   4695     1   109.5600471 388.275200
   4682   4694   4696     1   109.5600471 388.275200
   4683   4682   4694     1   109.8000471 387.438400
   4683   4682   4684     1   107.5800459 329.699200
   4684   4682   4694     1   109.8000471 387.438400
   4685   4691   4692     1   109.5600471 388.275200
   4685   4691   4693     1   109.5600471 388.275200
   4686   4685   4691     1   109.8000471 387.438400
   4686   4685   4687     1   107.5800459 329.699200
   4687   4685   4691     1   109.8000471 387.438400
   4689   4688   4697     1   109.7800468 425.094400
   4689   4688   4690     1   108.4600466 328.025600
   4690   4688   4697     1   109.7800468 425.094400
   4692   4691   9424     1   109.7800468 425.094400
   4692   4691   4693     1   108.4600466 328.025600
   4693   4691   9424     1   109.7800468 425.094400
   4695   4694   9453     1   109.7800468 425.094400
   4695   4694   4696     1   108.4600466 328.025600
   4696   4694   9453     1   109.7800468 425.094400
   4698   4699   4700     1   109.8800469 414.216000
   4698   4699   4701     1   109.8800469 414.216000
   4698   4702   4703     1   109.8800469 414.216000
   4698   4702   4704     1   109.8800469 414.216000
   4698   4705   4706     1   109.8800469 414.216000
   4698   4705   4707     1   109.8800469 414.216000
   4699   4711   4712     1   109.8000471 387.438400
   4699   4711   4713     1   109.8000471 387.438400
   4700   4699   4711     1   109.5600471 388.275200
   4700   4699   4701     1   108.4600466 328.025600
   4701   4699   4711     1   109.5600471 388.275200
   4702   4714   4715     1   109.8000471 387.438400
   4702   4714   4716     1   109.8000471 387.438400
   4703   4702   4714     1   109.5600471 388.275200
   4703   4702   4704     1   108.4600466 328.025600
   4704   4702   4714     1   109.5600471 388.275200
   4705   4708   4709     1   109.8000471 387.438400
   4705   4708   4710     1   109.8000471 387.438400
   4706   4705   4708     1   109.5600471 388.275200
   4706   4705   4707     1   108.4600466 328.025600
   4707   4705   4708     1   109.5600471 388.275200
   4708   4717   4718     1   109.5600471 388.275200
   4708   4717   4719     1   109.5600471 388.275200
   4709   4708   4717     1   109.8000471 387.438400
   4709   4708   4710     1   107.5800459 329.699200
   4710   4708   4717     1   109.8000471 387.438400
   4711   4723   4724     1   109.5600471 388.275200
   4711   4723   4725     1   109.5600471 388.275200
   4712   4711   4723     1   109.8000471 387.438400
   4712   4711   4713     1   107.5800459 329.699200
   4713   4711   4723     1   109.8000471 387.438400
   4714   4720   4721     1   109.5600471 388.275200
   4714   4720   4722     1   109.5600471 388.275200
   4715   4714   4720     1   109.8000471 387.438400
   4715   4714   4716     1   107.5800459 329.699200
   4716   4714   4720     1   109.8000471 387.438400
   4718   4717   4726     1   109.7800468 425.094400
   4718   4717   4719     1   108.4600466 328.025600
   4719   4717   4726     1   109.7800468 425.094400
   4721   4720   9482     1   109.7800468 425.094400
   4721   4720   4722     1   108.4600466 328.025600
   4722   4720   9482     1   109.7800468 425.094400
   4724   4723   9511     1   109.7800468 425.094400
   4724   4723   4725     1   108.4600466 328.025600
   4725   4723   9511     1   109.7800468 425.094400
   4727   4728   4729     1   109.8800469 414.216000
   4727   4728   4730     1   109.8800469 414.216000
   4727   4731   4732     1   109.8800469 414.216000
   4727   4731   4733     1   109.8800469 414.216000
   4727   4734   4735     1   109.8800469 414.216000
   4727   4734   4736     1   109.8800469 414.216000
   4728   4740   4741     1   109.8000471 387.438400
   4728   4740   4742     1   109.8000471 387.438400
   4729   4728   4740     1   109.5600471 388.275200
   4729   4728   4730     1   108.4600466 328.025600
   4730   4728   4740     1   109.5600471 388.275200
   4731   4743   4744     1   109.8000471 387.438400
   4731   4743   4745     1   109.8000471 387.438400
   4732   4731   4743     1   109.5600471 388.275200
   4732   4731   4733     1   108.4600466 328.025600
   4733   4731   4743     1   109.5600471 388.275200
   4734   4737   4738     1   109.8000471 387.438400
   4734   4737   4739     1   109.8000471 387.438400
   4735   4734   4737     1   109.5600471 388.275200
   4735   4734   4736     1   108.4600466 328.025600
   4736   4734   4737     1   109.5600471 388.275200
   4737   4746   4747     1   109.5600471 388.275200
   4737   4746   4748     1   109.5600471 388.275200
   4738   4737   4746     1   109.8000471 387.438400
   4738   4737   4739     1   107.5800459 329.699200
   4739   4737   4746     1   109.8000471 387.438400
   4740   4752   4753     1   109.5600471 388.275200
   4740   4752   4754     1   109.5600471 388.275200
   4741   4740   4752     1   109.8000471 387.438400
   4741   4740   4742     1   107.5800459 329.699200
   4742   4740   4752     1   109.8000471 387.438400
   4743   4749   4750     1   109.5600471 388.275200
   4743   4749   4751     1   109.5600471 388.275200
   4744   4743   4749     1   109.8000471 387.438400
   4744   4743   4745     1   107.5800459 329.699200
   4745   4743   4749     1   109.8000471 387.438400
   4747   4746   4755     1   109.7800468 425.094400
   4747   4746   4748     1   108.4600466 328.025600
   4748   4746   4755     1   109.7800468 425.094400
   4750   4749   9540     1   109.7800468 425.094400
   4750   4749   4751     1   108.4600466 328.025600
   4751   4749   9540     1   109.7800468 425.094400
   4753   4752   9569     1   109.7800468 425.094400
   4753   4752   4754     1   108.4600466 328.025600
   4754   4752   9569     1   109.7800468 425.094400
   4756   4757   4758     1   109.8800469 414.216000
   4756   4757   4759     1   109.8800469 414.216000
   4756   4760   4761     1   109.8800469 414.216000
   4756   4760   4762     1   109.8800469 414.216000
   4756   4763   4764     1   109.8800469 414.216000
   4756   4763   4765     1   109.8800469 414.216000
   4757   4769   4770     1   109.8000471 387.438400
   4757   4769   4771     1   109.8000471 387.438400
   4758   4757   4769     1   109.5600471 388.275200
   4758   4757   4759     1   108.4600466 328.025600
   4759   4757   4769     1   109.5600471 388.275200
   4760   4772   4773     1   109.8000471 387.438400
   4760   4772   4774     1   109.8000471 387.438400
   4761   4760   4772     1   109.5600471 388.275200
   4761   4760   4762     1   108.4600466 328.025600
   4762   4760   4772     1   109.5600471 388.275200
   4763   4766   4767     1   109.8000471 387.438400
   4763   4766   4768     1   109.8000471 387.438400
   4764   4763   4766     1   109.5600471 388.275200
   4764   4763   4765     1   108.4600466 328.025600
   4765   4763   4766     1   109.5600471 388.275200
   4766   4775   4776     1   109.5600471 388.275200
   4766   4775   4777     1   109.5600471 388.275200
   4767   4766   4775     1   109.8000471 387.438400
   4767   4766   4768     1   107.5800459 329.699200
   4768   4766   4775     1   109.8000471 387.438400
   4769   4781   4782     1   109.5600471 388.275200
   4769   4781   4783     1   109.5600471 388.275200
   4770   4769   4781     1   109.8000471 387.438400
   4770   4769   4771     1   107.5800459 329.699200
   4771   4769   4781     1   109.8000471 387.438400
   4772   4778   4779     1   109.5600471 388.275200
   4772   4778   4780     1   109.5600471 388.275200
   4773   4772   4778     1   109.8000471 387.438400
   4773   4772   4774     1   107.5800459 329.699200
   4774   4772   4778     1   109.8000471 387.438400
   4776   4775   4784     1   109.7800468 425.094400
   4776   4775   4777     1   108.4600466 328.025600
   4777   4775   4784     1   109.7800468 425.094400
   4779   4778   9598     1   109.7800468 425.094400
   4779   4778   4780     1   108.4600466 328.025600
   4780   4778   9598     1   109.7800468 425.094400
   4782   4781   9627     1   109.7800468 425.094400
   4782   4781   4783     1   108.4600466 328.025600
   4783   4781   9627     1   109.7800468 425.094400
   4785   4786   4787     1   109.8800469 414.216000
   4785   4786   4788     1   109.8800469 414.216000
   4785   4789   4790     1   109.8800469 414.216000
   4785   4789   4791     1   109.8800469 414.216000
   4785   4792   4793     1   109.8800469 414.216000
   4785   4792   4794     1   109.8800469 414.216000
   4786   4798   4799     1   109.8000471 387.438400
   4786   4798   4800     1   109.8000471 387.438400
   4787   4786   4798     1   109.5600471 388.275200
   4787   4786   4788     1   108.4600466 328.025600
   4788   4786   4798     1   109.5600471 388.275200
   4789   4801   4802     1   109.8000471 387.438400
   4789   4801   4803     1   109.8000471 387.438400
   4790   4789   4801     1   109.5600471 388.275200
   4790   4789   4791     1   108.4600466 328.025600
   4791   4789   4801     1   109.5600471 388.275200
   4792   4795   4796     1   109.8000471 387.438400
   4792   4795   4797     1   109.8000471 387.438400
   4793   4792   4795     1   109.5600471 388.275200
   4793   4792   4794     1   108.4600466 328.025600
   4794   4792   4795     1   109.5600471 388.275200
   4795   4804   4805     1   109.5600471 388.275200
   4795   4804   4806     1   109.5600471 388.275200
   4796   4795   4804     1   109.8000471 387.438400
   4796   4795   4797     1   107.5800459 329.699200
   4797   4795   4804     1   109.8000471 387.438400
   4798   4810   4811     1   109.5600471 388.275200
   4798   4810   4812     1   109.5600471 388.275200
   4799   4798   4810     1   109.8000471 387.438400
   4799   4798   4800     1   107.5800459 329.699200
   4800   4798   4810     1   109.8000471 387.438400
   4801   4807   4808     1   109.5600471 388.275200
   4801   4807   4809     1   109.5600471 388.275200
   4802   4801   4807     1   109.8000471 387.438400
   4802   4801   4803     1   107.5800459 329.699200
   4803   4801   4807     1   109.8000471 387.438400
   4805   4804   4813     1   109.7800468 425.094400
   4805   4804   4806     1   108.4600466 328.025600
   4806   4804   4813     1   109.7800468 425.094400
   4808   4807   9656     1   109.7800468 425.094400
   4808   4807   4809     1   108.4600466 328.025600
   4809   4807   9656     1   109.7800468 425.094400
   4811   4810   9685     1   109.7800468 425.094400
   4811   4810   4812     1   108.4600466 328.025600
   4812   4810   9685     1   109.7800468 425.094400
   4814   4815   4816     1   109.8800469 414.216000
   4814   4815   4817     1   109.8800469 414.216000
   4814   4818   4819     1   109.8800469 414.216000
   4814   4818   4820     1   109.8800469 414.216000
   4814   4821   4822     1   109.8800469 414.216000
   4814   4821   4823     1   109.8800469 414.216000
   4815   4827   4828     1   109.8000471 387.438400
   4815   4827   4829     1   109.8000471 387.438400
   4816   4815   4827     1   109.5600471 388.275200
   4816   4815   4817     1   108.4600466 328.025600
   4817   4815   4827     1   109.5600471 388.275200
   4818   4830   4831     1   109.8000471 387.438400
   4818   4830   4832     1   109.8000471 387.438400
   4819   4818   4830     1   109.5600471 388.275200
   4819   4818   4820     1   108.4600466 328.025600
   4820   4818   4830     1   109.5600471 388.275200
   4821   4824   4825     1   109.8000471 387.438400
   4821   4824   4826     1   109.8000471 387.438400
   4822   4821   4824     1   109.5600471 388.275200
   4822   4821   4823     1   108.4600466 328.025600
   4823   4821   4824     1   109.5600471 388.275200
   4824   4833   4834     1   109.5600471 388.275200
   4824   4833   4835     1   109.5600471 388.275200
   4825   4824   4833     1   109.8000471 387.438400
   4825   4824   4826     1   107.5800459 329.699200
   4826   4824   4833     1   109.8000471 387.438400
   4827   4839   4840     1   109.5600471 388.275200
   4827   4839   4841     1   109.5600471 388.275200
   4828   4827   4839     1   109.8000471 387.438400
   4828   4827   4829     1   107.5800459 329.699200
   4829   4827   4839     1   109.8000471 387.438400
   4830   4836   4837     1   109.5600471 388.275200
   4830   4836   4838     1   109.5600471 388.275200
   4831   4830   4836     1   109.8000471 387.438400
   4831   4830   4832     1   107.5800459 329.699200
   4832   4830   4836     1   109.8000471 387.438400
   4834   4833   4842     1   109.7800468 425.094400
   4834   4833   4835     1   108.4600466 328.025600
   4835   4833   4842     1   109.7800468 425.094400
   4837   4836   9714     1   109.7800468 425.094400
   4837   4836   4838     1   108.4600466 328.025600
   4838   4836   9714     1   109.7800468 425.094400
   4840   4839   9743     1   109.7800468 425.094400
   4840   4839   4841     1   108.4600466 328.025600
   4841   4839   9743     1   109.7800468 425.094400
   4843   4844   4845     1   109.8800469 414.216000
   4843   4844   4846     1   109.8800469 414.216000
   4843   4847   4848     1   109.8800469 414.216000
   4843   4847   4849     1   109.8800469 414.216000
   4843   4850   4851     1   109.8800469 414.216000
   4843   4850   4852     1   109.8800469 414.216000
   4844   4856   4857     1   109.8000471 387.438400
   4844   4856   4858     1   109.8000471 387.438400
   4845   4844   4856     1   109.5600471 388.275200
   4845   4844   4846     1   108.4600466 328.025600
   4846   4844   4856     1   109.5600471 388.275200
   4847   4859   4860     1   109.8000471 387.438400
   4847   4859   4861     1   109.8000471 387.438400
   4848   4847   4859     1   109.5600471 388.275200
   4848   4847   4849     1   108.4600466 328.025600
   4849   4847   4859     1   109.5600471 388.275200
   4850   4853   4854     1   109.8000471 387.438400
   4850   4853   4855     1   109.8000471 387.438400
   4851   4850   4853     1   109.5600471 388.275200
   4851   4850   4852     1   108.4600466 328.025600
   4852   4850   4853     1   109.5600471 388.275200
   4853   4862   4863     1   109.5600471 388.275200
   4853   4862   4864     1   109.5600471 388.275200
   4854   4853   4862     1   109.8000471 387.438400
   4854   4853   4855     1   107.5800459 329.699200
   4855   4853   4862     1   109.8000471 387.438400
   4856   4868   4869     1   109.5600471 388.275200
   4856   4868   4870     1   109.5600471 388.275200
   4857   4856   4868     1   109.8000471 387.438400
   4857   4856   4858     1   107.5800459 329.699200
   4858   4856   4868     1   109.8000471 387.438400
   4859   4865   4866     1   109.5600471 388.275200
   4859   4865   4867     1   109.5600471 388.275200
   4860   4859   4865     1   109.8000471 387.438400
   4860   4859   4861     1   107.5800459 329.699200
   4861   4859   4865     1   109.8000471 387.438400
   4863   4862   4871     1   109.7800468 425.094400
   4863   4862   4864     1   108.4600466 328.025600
   4864   4862   4871     1   109.7800468 425.094400
   4866   4865   9772     1   109.7800468 425.094400
   4866   4865   4867     1   108.4600466 328.025600
   4867   4865   9772     1   109.7800468 425.094400
   4869   4868   9801     1   109.7800468 425.094400
   4869   4868   4870     1   108.4600466 328.025600
   4870   4868   9801     1   109.7800468 425.094400
   4872   4873   4874     1   109.8800469 414.216000
   4872   4873   4875     1   109.8800469 414.216000
   4872   4876   4877     1   109.8800469 414.216000
   4872   4876   4878     1   109.8800469 414.216000
   4872   4879   4880     1   109.8800469 414.216000
   4872   4879   4881     1   109.8800469 414.216000
   4873   4885   4886     1   109.8000471 387.438400
   4873   4885   4887     1   109.8000471 387.438400
   4874   4873   4885     1   109.5600471 388.275200
   4874   4873   4875     1   108.4600466 328.025600
   4875   4873   4885     1   109.5600471 388.275200
   4876   4888   4889     1   109.8000471 387.438400
   4876   4888   4890     1   109.8000471 387.438400
   4877   4876   4888     1   109.5600471 388.275200
   4877   4876   4878     1   108.4600466 328.025600
   4878   4876   4888     1   109.5600471 388.275200
   4879   4882   4883     1   109.8000471 387.438400
   4879   4882   4884     1   109.8000471 387.438400
   4880   4879   4882     1   109.5600471 388.275200
   4880   4879   4881     1   108.4600466 328.025600
   4881   4879   4882     1   109.5600471 388.275200
   4882   4891   4892     1   109.5600471 388.275200
   4882   4891   4893     1   109.5600471 388.275200
   4883   4882   4891     1   109.8000471 387.438400
   4883   4882   4884     1   107.5800459 329.699200
   4884   4882   4891     1   109.8000471 387.438400
   4885   4897   4898     1   109.5600471 388.275200
   4885   4897   4899     1   109.5600471 388.275200
   4886   4885   4897     1   109.8000471 387.438400
   4886   4885   4887     1   107.5800459 329.699200
   4887   4885   4897     1   109.8000471 387.438400
   4888   4894   4895     1   109.5600471 388.275200
   4888   4894   4896     1   109.5600471 388.275200
   4889   4888   4894     1   109.8000471 387.438400
   4889   4888   4890     1   107.5800459 329.699200
   4890   4888   4894     1   109.8000471 387.438400
   4892   4891   4900     1   109.7800468 425.094400
   4892   4891   4893     1   108.4600466 328.025600
   4893   4891   4900     1   109.7800468 425.094400
   4895   4894   9830     1   109.7800468 425.094400
   4895   4894   4896     1   108.4600466 328.025600
   4896   4894   9830     1   109.7800468 425.094400
   4898   4897   9859     1   109.7800468 425.094400
   4898   4897   4899     1   108.4600466 328.025600
   4899   4897   9859     1   109.7800468 425.094400
   4901   4902   4903     1   109.8800469 414.216000
   4901   4902   4904     1   109.8800469 414.216000
   4901   4905   4906     1   109.8800469 414.216000
   4901   4905   4907     1   109.8800469 414.216000
   4901   4908   4909     1   109.8800469 414.216000
   4901   4908   4910     1   109.8800469 414.216000
   4902   4914   4915     1   109.8000471 387.438400
   4902   4914   4916     1   109.8000471 387.438400
   4903   4902   4914     1   109.5600471 388.275200
   4903   4902   4904     1   108.4600466 328.025600
   4904   4902   4914     1   109.5600471 388.275200
   4905   4917   4918     1   109.8000471 387.438400
   4905   4917   4919     1   109.8000471 387.438400
   4906   4905   4917     1   109.5600471 388.275200
   4906   4905   4907     1   108.4600466 328.025600
   4907   4905   4917     1   109.5600471 388.275200
   4908   4911   4912     1   109.8000471 387.438400
   4908   4911   4913     1   109.8000471 387.438400
   4909   4908   4911     1   109.5600471 388.275200
   4909   4908   4910     1   108.4600466 328.025600
   4910   4908   4911     1   109.5600471 388.275200
   4911   4920   4921     1   109.5600471 388.275200
   4911   4920   4922     1   109.5600471 388.275200
   4912   4911   4920     1   109.8000471 387.438400
   4912   4911   4913     1   107.5800459 329.699200
   4913   4911   4920     1   109.8000471 387.438400
   4914   4926   4927     1   109.5600471 388.275200
   4914   4926   4928     1   109.5600471 388.275200
   4915   4914   4926     1   109.8000471 387.438400
   4915   4914   4916     1   107.5800459 329.699200
   4916   4914   4926     1   109.8000471 387.438400
   4917   4923   4924     1   109.5600471 388.275200
   4917   4923   4925     1   109.5600471 388.275200
   4918   4917   4923     1   109.8000471 387.438400
   4918   4917   4919     1   107.5800459 329.699200
   4919   4917   4923     1   109.8000471 387.438400
   4921   4920   4929     1   109.7800468 425.094400
   4921   4920   4922     1   108.4600466 328.025600
   4922   4920   4929     1   109.7800468 425.094400
   4924   4923   9888     1   109.7800468 425.094400
   4924   4923   4925     1   108.4600466 328.025600
   4925   4923   9888     1   109.7800468 425.094400
   4927   4926   9917     1   109.7800468 425.094400
   4927   4926   4928     1   108.4600466 328.025600
   4928   4926   9917     1   109.7800468 425.094400
   4930   4931   4932     1   109.8800469 414.216000
   4930   4931   4933     1   109.8800469 414.216000
   4930   4934   4935     1   109.8800469 414.216000
   4930   4934   4936     1   109.8800469 414.216000
   4930   4937   4938     1   109.8800469 414.216000
   4930   4937   4939     1   109.8800469 414.216000
   4931   4943   4944     1   109.8000471 387.438400
   4931   4943   4945     1   109.8000471 387.438400
   4932   4931   4943     1   109.5600471 388.275200
   4932   4931   4933     1   108.4600466 328.025600
   4933   4931   4943     1   109.5600471 388.275200
   4934   4946   4947     1   109.8000471 387.438400
   4934   4946   4948     1   109.8000471 387.438400
   4935   4934   4946     1   109.5600471 388.275200
   4935   4934   4936     1   108.4600466 328.025600
   4936   4934   4946     1   109.5600471 388.275200
   4937   4940   4941     1   109.8000471 387.438400
   4937   4940   4942     1   109.8000471 387.438400
   4938   4937   4940     1   109.5600471 388.275200
   4938   4937   4939     1   108.4600466 328.025600
   4939   4937   4940     1   109.5600471 388.275200
   4940   4949   4950     1   109.5600471 388.275200
   4940   4949   4951     1   109.5600471 388.275200
   4941   4940   4949     1   109.8000471 387.438400
   4941   4940   4942     1   107.5800459 329.699200
   4942   4940   4949     1   109.8000471 387.438400
   4943   4955   4956     1   109.5600471 388.275200
   4943   4955   4957     1   109.5600471 388.275200
   4944   4943   4955     1   109.8000471 387.438400
   4944   4943   4945     1   107.5800459 329.699200
   4945   4943   4955     1   109.8000471 387.438400
   4946   4952   4953     1   109.5600471 388.275200
   4946   4952   4954     1   109.5600471 388.275200
   4947   4946   4952     1   109.8000471 387.438400
   4947   4946   4948     1   107.5800459 329.699200
   4948   4946   4952     1   109.8000471 387.438400
   4950   4949   4958     1   109.7800468 425.094400
   4950   4949   4951     1   108.4600466 328.025600
   4951   4949   4958     1   109.7800468 425.094400
   4953   4952   9946     1   109.7800468 425.094400
   4953   4952   4954     1   108.4600466 328.025600
   4954   4952   9946     1   109.7800468 425.094400
   4956   4955   9975     1   109.7800468 425.094400
   4956   4955   4957     1   108.4600466 328.025600
   4957   4955   9975     1   109.7800468 425.094400
   4959   4960   4961     1   109.8800469 414.216000
   4959   4960   4962     1   109.8800469 414.216000
   4959   4963   4964     1   109.8800469 414.216000
   4959   4963   4965     1   109.8800469 414.216000
   4959   4966   4967     1   109.8800469 414.216000
   4959   4966   4968     1   109.8800469 414.216000
   4960   4972   4973     1   109.8000471 387.438400
   4960   4972   4974     1   109.8000471 387.438400
   4961   4960   4972     1   109.5600471 388.275200
   4961   4960   4962     1   108.4600466 328.025600
   4962   4960   4972     1   109.5600471 388.275200
   4963   4975   4976     1   109.8000471 387.438400
   4963   4975   4977     1   109.8000471 387.438400
   4964   4963   4975     1   109.5600471 388.275200
   4964   4963   4965     1   108.4600466 328.025600
   4965   4963   4975     1   109.5600471 388.275200
   4966   4969   4970     1   109.8000471 387.438400
   4966   4969   4971     1   109.8000471 387.438400
   4967   4966   4969     1   109.5600471 388.275200
   4967   4966   4968     1   108.4600466 328.025600
   4968   4966   4969     1   109.5600471 388.275200
   4969   4978   4979     1   109.5600471 388.275200
   4969   4978   4980     1   109.5600471 388.275200
   4970   4969   4978     1   109.8000471 387.438400
   4970   4969   4971     1   107.5800459 329.699200
   4971   4969   4978     1   109.8000471 387.438400
   4972   4984   4985     1   109.5600471 388.275200
   4972   4984   4986     1   109.5600471 388.275200
   4973   4972   4984     1   109.8000471 387.438400
   4973   4972   4974     1   107.5800459 329.699200
   4974   4972   4984     1   109.8000471 387.438400
   4975   4981   4982     1   109.5600471 388.275200
   4975   4981   4983     1   109.5600471 388.275200
   4976   4975   4981     1   109.8000471 387.438400
   4976   4975   4977     1   107.5800459 329.699200
   4977   4975   4981     1   109.8000471 387.438400
   4979   4978   4987     1   109.7800468 425.094400
   4979   4978   4980     1   108.4600466 328.025600
   4980   4978   4987     1   109.7800468 425.094400
   4982   4981  10004     1   109.7800468 425.094400
   4982   4981   4983     1   108.4600466 328.025600
   4983   4981  10004     1   109.7800468 425.094400
   4985   4984  10033     1   109.7800468 425.094400
   4985   4984   4986     1   108.4600466 328.025600
   4986   4984  10033     1   109.7800468 425.094400
   4988   4989   4990     1   109.8800469 414.216000
   4988   4989   4991     1   109.8800469 414.216000
   4988   4992   4993     1   109.8800469 414.216000
   4988   4992   4994     1   109.8800469 414.216000
   4988   4995   4996     1   109.8800469 414.216000
   4988   4995   4997     1   109.8800469 414.216000
   4989   5001   5002     1   109.8000471 387.438400
   4989   5001   5003     1   109.8000471 387.438400
   4990   4989   5001     1   109.5600471 388.275200
   4990   4989   4991     1   108.4600466 328.025600
   4991   4989   5001     1   109.5600471 388.275200
   4992   5004   5005     1   109.8000471 387.438400
   4992   5004   5006     1   109.8000471 387.438400
   4993   4992   5004     1   109.5600471 388.275200
   4993   4992   4994     1   108.4600466 328.025600
   4994   4992   5004     1   109.5600471 388.275200
   4995   4998   4999     1   109.8000471 387.438400
   4995   4998   5000     1   109.8000471 387.438400
   4996   4995   4998     1   109.5600471 388.275200
   4996   4995   4997     1   108.4600466 328.025600
   4997   4995   4998     1   109.5600471 388.275200
   4998   5007   5008     1   109.5600471 388.275200
   4998   5007   5009     1   109.5600471 388.275200
   4999   4998   5007     1   109.8000471 387.438400
   4999   4998   5000     1   107.5800459 329.699200
   5000   4998   5007     1   109.8000471 387.438400
   5001   5013   5014     1   109.5600471 388.275200
   5001   5013   5015     1   109.5600471 388.275200
   5002   5001   5013     1   109.8000471 387.438400
   5002   5001   5003     1   107.5800459 329.699200
   5003   5001   5013     1   109.8000471 387.438400
   5004   5010   5011     1   109.5600471 388.275200
   5004   5010   5012     1   109.5600471 388.275200
   5005   5004   5010     1   109.8000471 387.438400
   5005   5004   5006     1   107.5800459 329.699200
   5006   5004   5010     1   109.8000471 387.438400
   5008   5007   5016     1   109.7800468 425.094400
   5008   5007   5009     1   108.4600466 328.025600
   5009   5007   5016     1   109.7800468 425.094400
   5011   5010  10062     1   109.7800468 425.094400
   5011   5010   5012     1   108.4600466 328.025600
   5012   5010  10062     1   109.7800468 425.094400
   5014   5013  10091     1   109.7800468 425.094400
   5014   5013   5015     1   108.4600466 328.025600
   5015   5013  10091     1   109.7800468 425.094400
   5017   5018   5019     1   109.8800469 414.216000
   5017   5018   5020     1   109.8800469 414.216000
   5017   5021   5022     1   109.8800469 414.216000
   5017   5021   5023     1   109.8800469 414.216000
   5017   5024   5025     1   109.8800469 414.216000
   5017   5024   5026     1   109.8800469 414.216000
   5018   5030   5031     1   109.8000471 387.438400
   5018   5030   5032     1   109.8000471 387.438400
   5019   5018   5030     1   109.5600471 388.275200
   5019   5018   5020     1   108.4600466 328.025600
   5020   5018   5030     1   109.5600471 388.275200
   5021   5033   5034     1   109.8000471 387.438400
   5021   5033   5035     1   109.8000471 387.438400
   5022   5021   5033     1   109.5600471 388.275200
   5022   5021   5023     1   108.4600466 328.025600
   5023   5021   5033     1   109.5600471 388.275200
   5024   5027   5028     1   109.8000471 387.438400
   5024   5027   5029     1   109.8000471 387.438400
   5025   5024   5027     1   109.5600471 388.275200
   5025   5024   5026     1   108.4600466 328.025600
   5026   5024   5027     1   109.5600471 388.275200
   5027   5036   5037     1   109.5600471 388.275200
   5027   5036   5038     1   109.5600471 388.275200
   5028   5027   5036     1   109.8000471 387.438400
   5028   5027   5029     1   107.5800459 329.699200
   5029   5027   5036     1   109.8000471 387.438400
   5030   5042   5043     1   109.5600471 388.275200
   5030   5042   5044     1   109.5600471 388.275200
   5031   5030   5042     1   109.8000471 387.438400
   5031   5030   5032     1   107.5800459 329.699200
   5032   5030   5042     1   109.8000471 387.438400
   5033   5039   5040     1   109.5600471 388.275200
   5033   5039   5041     1   109.5600471 388.275200
   5034   5033   5039     1   109.8000471 387.438400
   5034   5033   5035     1   107.5800459 329.699200
   5035   5033   5039     1   109.8000471 387.438400
   5037   5036   5045     1   109.7800468 425.094400
   5037   5036   5038     1   108.4600466 328.025600
   5038   5036   5045     1   109.7800468 425.094400
   5040   5039  10120     1   109.7800468 425.094400
   5040   5039   5041     1   108.4600466 328.025600
   5041   5039  10120     1   109.7800468 425.094400
   5043   5042  10149     1   109.7800468 425.094400
   5043   5042   5044     1   108.4600466 328.025600
   5044   5042  10149     1   109.7800468 425.094400
   5046   5047   5048     1   109.8800469 414.216000
   5046   5047   5049     1   109.8800469 414.216000
   5046   5050   5051     1   109.8800469 414.216000
   5046   5050   5052     1   109.8800469 414.216000
   5046   5053   5054     1   109.8800469 414.216000
   5046   5053   5055     1   109.8800469 414.216000
   5047   5059   5060     1   109.8000471 387.438400
   5047   5059   5061     1   109.8000471 387.438400
   5048   5047   5059     1   109.5600471 388.275200
   5048   5047   5049     1   108.4600466 328.025600
   5049   5047   5059     1   109.5600471 388.275200
   5050   5062   5063     1   109.8000471 387.438400
   5050   5062   5064     1   109.8000471 387.438400
   5051   5050   5062     1   109.5600471 388.275200
   5051   5050   5052     1   108.4600466 328.025600
   5052   5050   5062     1   109.5600471 388.275200
   5053   5056   5057     1   109.8000471 387.438400
   5053   5056   5058     1   109.8000471 387.438400
   5054   5053   5056     1   109.5600471 388.275200
   5054   5053   5055     1   108.4600466 328.025600
   5055   5053   5056     1   109.5600471 388.275200
   5056   5065   5066     1   109.5600471 388.275200
   5056   5065   5067     1   109.5600471 388.275200
   5057   5056   5065     1   109.8000471 387.438400
   5057   5056   5058     1   107.5800459 329.699200
   5058   5056   5065     1   109.8000471 387.438400
   5059   5071   5072     1   109.5600471 388.275200
   5059   5071   5073     1   109.5600471 388.275200
   5060   5059   5071     1   109.8000471 387.438400
   5060   5059   5061     1   107.5800459 329.699200
   5061   5059   5071     1   109.8000471 387.438400
   5062   5068   5069     1   109.5600471 388.275200
   5062   5068   5070     1   109.5600471 388.275200
   5063   5062   5068     1   109.8000471 387.438400
   5063   5062   5064     1   107.5800459 329.699200
   5064   5062   5068     1   109.8000471 387.438400
   5066   5065   5074     1   109.7800468 425.094400
   5066   5065   5067     1   108.4600466 328.025600
   5067   5065   5074     1   109.7800468 425.094400
   5069   5068  10178     1   109.7800468 425.094400
   5069   5068   5070     1   108.4600466 328.025600
   5070   5068  10178     1   109.7800468 425.094400
   5072   5071  10207     1   109.7800468 425.094400
   5072   5071   5073     1   108.4600466 328.025600
   5073   5071  10207     1   109.7800468 425.094400
   5075   5076   5077     1   109.8800469 414.216000
   5075   5076   5078     1   109.8800469 414.216000
   5075   5079   5080     1   109.8800469 414.216000
   5075   5079   5081     1   109.8800469 414.216000
   5075   5082   5083     1   109.8800469 414.216000
   5075   5082   5084     1   109.8800469 414.216000
   5076   5088   5089     1   109.8000471 387.438400
   5076   5088   5090     1   109.8000471 387.438400
   5077   5076   5088     1   109.5600471 388.275200
   5077   5076   5078     1   108.4600466 328.025600
   5078   5076   5088     1   109.5600471 388.275200
   5079   5091   5092     1   109.8000471 387.438400
   5079   5091   5093     1   109.8000471 387.438400
   5080   5079   5091     1   109.5600471 388.275200
   5080   5079   5081     1   108.4600466 328.025600
   5081   5079   5091     1   109.5600471 388.275200
   5082   5085   5086     1   109.8000471 387.438400
   5082   5085   5087     1   109.8000471 387.438400
   5083   5082   5085     1   109.5600471 388.275200
   5083   5082   5084     1   108.4600466 328.025600
   5084   5082   5085     1   109.5600471 388.275200
   5085   5094   5095     1   109.5600471 388.275200
   5085   5094   5096     1   109.5600471 388.275200
   5086   5085   5094     1   109.8000471 387.438400
   5086   5085   5087     1   107.5800459 329.699200
   5087   5085   5094     1   109.8000471 387.438400
   5088   5100   5101     1   109.5600471 388.275200
   5088   5100   5102     1   109.5600471 388.275200
   5089   5088   5100     1   109.8000471 387.438400
   5089   5088   5090     1   107.5800459 329.699200
   5090   5088   5100     1   109.8000471 387.438400
   5091   5097   5098     1   109.5600471 388.275200
   5091   5097   5099     1   109.5600471 388.275200
   5092   5091   5097     1   109.8000471 387.438400
   5092   5091   5093     1   107.5800459 329.699200
   5093   5091   5097     1   109.8000471 387.438400
   5095   5094   5103     1   109.7800468 425.094400
   5095   5094   5096     1   108.4600466 328.025600
   5096   5094   5103     1   109.7800468 425.094400
   5098   5097  10236     1   109.7800468 425.094400
   5098   5097   5099     1   108.4600466 328.025600
   5099   5097  10236     1   109.7800468 425.094400
   5101   5100  10265     1   109.7800468 425.094400
   5101   5100   5102     1   108.4600466 328.025600
   5102   5100  10265     1   109.7800468 425.094400
   5104   5105   5106     1   109.8800469 414.216000
   5104   5105   5107     1   109.8800469 414.216000
   5104   5108   5109     1   109.8800469 414.216000
   5104   5108   5110     1   109.8800469 414.216000
   5104   5111   5112     1   109.8800469 414.216000
   5104   5111   5113     1   109.8800469 414.216000
   5105   5117   5118     1   109.8000471 387.438400
   5105   5117   5119     1   109.8000471 387.438400
   5106   5105   5117     1   109.5600471 388.275200
   5106   5105   5107     1   108.4600466 328.025600
   5107   5105   5117     1   109.5600471 388.275200
   5108   5120   5121     1   109.8000471 387.438400
   5108   5120   5122     1   109.8000471 387.438400
   5109   5108   5120     1   109.5600471 388.275200
   5109   5108   5110     1   108.4600466 328.025600
   5110   5108   5120     1   109.5600471 388.275200
   5111   5114   5115     1   109.8000471 387.438400
   5111   5114   5116     1   109.8000471 387.438400
   5112   5111   5114     1   109.5600471 388.275200
   5112   5111   5113     1   108.4600466 328.025600
   5113   5111   5114     1   109.5600471 388.275200
   5114   5123   5124     1   109.5600471 388.275200
   5114   5123   5125     1   109.5600471 388.275200
   5115   5114   5123     1   109.8000471 387.438400
   5115   5114   5116     1   107.5800459 329.699200
   5116   5114   5123     1   109.8000471 387.438400
   5117   5129   5130     1   109.5600471 388.275200
   5117   5129   5131     1   109.5600471 388.275200
   5118   5117   5129     1   109.8000471 387.438400
   5118   5117   5119     1   107.5800459 329.699200
   5119   5117   5129     1   109.8000471 387.438400
   5120   5126   5127     1   109.5600471 388.275200
   5120   5126   5128     1   109.5600471 388.275200
   5121   5120   5126     1   109.8000471 387.438400
   5121   5120   5122     1   107.5800459 329.699200
   5122   5120   5126     1   109.8000471 387.438400
   5124   5123   5132     1   109.7800468 425.094400
   5124   5123   5125     1   108.4600466 328.025600
   5125   5123   5132     1   109.7800468 425.094400
   5127   5126  10294     1   109.7800468 425.094400
   5127   5126   5128     1   108.4600466 328.025600
   5128   5126  10294     1   109.7800468 425.094400
   5130   5129  10323     1   109.7800468 425.094400
   5130   5129   5131     1   108.4600466 328.025600
   5131   5129  10323     1   109.7800468 425.094400
   5133   5134   5135     1   109.8800469 414.216000
   5133   5134   5136     1   109.8800469 414.216000
   5133   5137   5138     1   109.8800469 414.216000
   5133   5137   5139     1   109.8800469 414.216000
   5133   5140   5141     1   109.8800469 414.216000
   5133   5140   5142     1   109.8800469 414.216000
   5134   5146   5147     1   109.8000471 387.438400
   5134   5146   5148     1   109.8000471 387.438400
   5135   5134   5146     1   109.5600471 388.275200
   5135   5134   5136     1   108.4600466 328.025600
   5136   5134   5146     1   109.5600471 388.275200
   5137   5149   5150     1   109.8000471 387.438400
   5137   5149   5151     1   109.8000471 387.438400
   5138   5137   5149     1   109.5600471 388.275200
   5138   5137   5139     1   108.4600466 328.025600
   5139   5137   5149     1   109.5600471 388.275200
   5140   5143   5144     1   109.8000471 387.438400
   5140   5143   5145     1   109.8000471 387.438400
   5141   5140   5143     1   109.5600471 388.275200
   5141   5140   5142     1   108.4600466 328.025600
   5142   5140   5143     1   109.5600471 388.275200
   5143   5152   5153     1   109.5600471 388.275200
   5143   5152   5154     1   109.5600471 388.275200
   5144   5143   5152     1   109.8000471 387.438400
   5144   5143   5145     1   107.5800459 329.699200
   5145   5143   5152     1   109.8000471 387.438400
   5146   5158   5159     1   109.5600471 388.275200
   5146   5158   5160     1   109.5600471 388.275200
   5147   5146   5158     1   109.8000471 387.438400
   5147   5146   5148     1   107.5800459 329.699200
   5148   5146   5158     1   109.8000471 387.438400
   5149   5155   5156     1   109.5600471 388.275200
   5149   5155   5157     1   109.5600471 388.275200
   5150   5149   5155     1   109.8000471 387.438400
   5150   5149   5151     1   107.5800459 329.699200
   5151   5149   5155     1   109.8000471 387.438400
   5153   5152   5161     1   109.7800468 425.094400
   5153   5152   5154     1   108.4600466 328.025600
   5154   5152   5161     1   109.7800468 425.094400
   5156   5155  10352     1   109.7800468 425.094400
   5156   5155   5157     1   108.4600466 328.025600
   5157   5155  10352     1   109.7800468 425.094400
   5159   5158  10381     1   109.7800468 425.094400
   5159   5158   5160     1   108.4600466 328.025600
   5160   5158  10381     1   109.7800468 425.094400
   5162   5163   5164     1   109.8800469 414.216000
   5162   5163   5165     1   109.8800469 414.216000
   5162   5166   5167     1   109.8800469 414.216000
   5162   5166   5168     1   109.8800469 414.216000
   5162   5169   5170     1   109.8800469 414.216000
   5162   5169   5171     1   109.8800469 414.216000
   5163   5175   5176     1   109.8000471 387.438400
   5163   5175   5177     1   109.8000471 387.438400
   5164   5163   5175     1   109.5600471 388.275200
   5164   5163   5165     1   108.4600466 328.025600
   5165   5163   5175     1   109.5600471 388.275200
   5166   5178   5179     1   109.8000471 387.438400
   5166   5178   5180     1   109.8000471 387.438400
   5167   5166   5178     1   109.5600471 388.275200
   5167   5166   5168     1   108.4600466 328.025600
   5168   5166   5178     1   109.5600471 388.275200
   5169   5172   5173     1   109.8000471 387.438400
   5169   5172   5174     1   109.8000471 387.438400
   5170   5169   5172     1   109.5600471 388.275200
   5170   5169   5171     1   108.4600466 328.025600
   5171   5169   5172     1   109.5600471 388.275200
   5172   5181   5182     1   109.5600471 388.275200
   5172   5181   5183     1   109.5600471 388.275200
   5173   5172   5181     1   109.8000471 387.438400
   5173   5172   5174     1   107.5800459 329.699200
   5174   5172   5181     1   109.8000471 387.438400
   5175   5187   5188     1   109.5600471 388.275200
   5175   5187   5189     1   109.5600471 388.275200
   5176   5175   5187     1   109.8000471 387.438400
   5176   5175   5177     1   107.5800459 329.699200
   5177   5175   5187     1   109.8000471 387.438400
   5178   5184   5185     1   109.5600471 388.275200
   5178   5184   5186     1   109.5600471 388.275200
   5179   5178   5184     1   109.8000471 387.438400
   5179   5178   5180     1   107.5800459 329.699200
   5180   5178   5184     1   109.8000471 387.438400
   5182   5181   5190     1   109.7800468 425.094400
   5182   5181   5183     1   108.4600466 328.025600
   5183   5181   5190     1   109.7800468 425.094400
   5185   5184  10410     1   109.7800468 425.094400
   5185   5184   5186     1   108.4600466 328.025600
   5186   5184  10410     1   109.7800468 425.094400
   5188   5187  10439     1   109.7800468 425.094400
   5188   5187   5189     1   108.4600466 328.025600
   5189   5187  10439     1   109.7800468 425.094400
   5191   5192   5193     1   109.8800469 414.216000
   5191   5192   5194     1   109.8800469 414.216000
   5191   5195   5196     1   109.8800469 414.216000
   5191   5195   5197     1   109.8800469 414.216000
   5191   5198   5199     1   109.8800469 414.216000
   5191   5198   5200     1   109.8800469 414.216000
   5192   5204   5205     1   109.8000471 387.438400
   5192   5204   5206     1   109.8000471 387.438400
   5193   5192   5204     1   109.5600471 388.275200
   5193   5192   5194     1   108.4600466 328.025600
   5194   5192   5204     1   109.5600471 388.275200
   5195   5207   5208     1   109.8000471 387.438400
   5195   5207   5209     1   109.8000471 387.438400
   5196   5195   5207     1   109.5600471 388.275200
   5196   5195   5197     1   108.4600466 328.025600
   5197   5195   5207     1   109.5600471 388.275200
   5198   5201   5202     1   109.8000471 387.438400
   5198   5201   5203     1   109.8000471 387.438400
   5199   5198   5201     1   109.5600471 388.275200
   5199   5198   5200     1   108.4600466 328.025600
   5200   5198   5201     1   109.5600471 388.275200
   5201   5210   5211     1   109.5600471 388.275200
   5201   5210   5212     1   109.5600471 388.275200
   5202   5201   5210     1   109.8000471 387.438400
   5202   5201   5203     1   107.5800459 329.699200
   5203   5201   5210     1   109.8000471 387.438400
   5204   5216   5217     1   109.5600471 388.275200
   5204   5216   5218     1   109.5600471 388.275200
   5205   5204   5216     1   109.8000471 387.438400
   5205   5204   5206     1   107.5800459 329.699200
   5206   5204   5216     1   109.8000471 387.438400
   5207   5213   5214     1   109.5600471 388.275200
   5207   5213   5215     1   109.5600471 388.275200
   5208   5207   5213     1   109.8000471 387.438400
   5208   5207   5209     1   107.5800459 329.699200
   5209   5207   5213     1   109.8000471 387.438400
   5211   5210   5219     1   109.7800468 425.094400
   5211   5210   5212     1   108.4600466 328.025600
   5212   5210   5219     1   109.7800468 425.094400
   5214   5213  10468     1   109.7800468 425.094400
   5214   5213   5215     1   108.4600466 328.025600
   5215   5213  10468     1   109.7800468 425.094400
   5217   5216  10497     1   109.7800468 425.094400
   5217   5216   5218     1   108.4600466 328.025600
   5218   5216  10497     1   109.7800468 425.094400
   5220   5221   5222     1   109.8800469 414.216000
   5220   5221   5223     1   109.8800469 414.216000
   5220   5224   5225     1   109.8800469 414.216000
   5220   5224   5226     1   109.8800469 414.216000
   5220   5227   5228     1   109.8800469 414.216000
   5220   5227   5229     1   109.8800469 414.216000
   5221   5233   5234     1   109.8000471 387.438400
   5221   5233   5235     1   109.8000471 387.438400
   5222   5221   5233     1   109.5600471 388.275200
   5222   5221   5223     1   108.4600466 328.025600
   5223   5221   5233     1   109.5600471 388.275200
   5224   5236   5237     1   109.8000471 387.438400
   5224   5236   5238     1   109.8000471 387.438400
   5225   5224   5236     1   109.5600471 388.275200
   5225   5224   5226     1   108.4600466 328.025600
   5226   5224   5236     1   109.5600471 388.275200
   5227   5230   5231     1   109.8000471 387.438400
   5227   5230   5232     1   109.8000471 387.438400
   5228   5227   5230     1   109.5600471 388.275200
   5228   5227   5229     1   108.4600466 328.025600
   5229   5227   5230     1   109.5600471 388.275200
   5230   5239   5240     1   109.5600471 388.275200
   5230   5239   5241     1   109.5600471 388.275200
   5231   5230   5239     1   109.8000471 387.438400
   5231   5230   5232     1   107.5800459 329.699200
   5232   5230   5239     1   109.8000471 387.438400
   5233   5245   5246     1   109.5600471 388.275200
   5233   5245   5247     1   109.5600471 388.275200
   5234   5233   5245     1   109.8000471 387.438400
   5234   5233   5235     1   107.5800459 329.699200
   5235   5233   5245     1   109.8000471 387.438400
   5236   5242   5243     1   109.5600471 388.275200
   5236   5242   5244     1   109.5600471 388.275200
   5237   5236   5242     1   109.8000471 387.438400
   5237   5236   5238     1   107.5800459 329.699200
   5238   5236   5242     1   109.8000471 387.438400
   5240   5239   5248     1   109.7800468 425.094400
   5240   5239   5241     1   108.4600466 328.025600
   5241   5239   5248     1   109.7800468 425.094400
   5243   5242  10526     1   109.7800468 425.094400
   5243   5242   5244     1   108.4600466 328.025600
   5244   5242  10526     1   109.7800468 425.094400
   5246   5245  10555     1   109.7800468 425.094400
   5246   5245   5247     1   108.4600466 328.025600
   5247   5245  10555     1   109.7800468 425.094400
   5249   5250   5251     1   109.8800469 414.216000
   5249   5250   5252     1   109.8800469 414.216000
   5249   5253   5254     1   109.8800469 414.216000
   5249   5253   5255     1   109.8800469 414.216000
   5249   5256   5257     1   109.8800469 414.216000
   5249   5256   5258     1   109.8800469 414.216000
   5250   5262   5263     1   109.8000471 387.438400
   5250   5262   5264     1   109.8000471 387.438400
   5251   5250   5262     1   109.5600471 388.275200
   5251   5250   5252     1   108.4600466 328.025600
   5252   5250   5262     1   109.5600471 388.275200
   5253   5265   5266     1   109.8000471 387.438400
   5253   5265   5267     1   109.8000471 387.438400
   5254   5253   5265     1   109.5600471 388.275200
   5254   5253   5255     1   108.4600466 328.025600
   5255   5253   5265     1   109.5600471 388.275200
   5256   5259   5260     1   109.8000471 387.438400
   5256   5259   5261     1   109.8000471 387.438400
   5257   5256   5259     1   109.5600471 388.275200
   5257   5256   5258     1   108.4600466 328.025600
   5258   5256   5259     1   109.5600471 388.275200
   5259   5268   5269     1   109.5600471 388.275200
   5259   5268   5270     1   109.5600471 388.275200
   5260   5259   5268     1   109.8000471 387.438400
   5260   5259   5261     1   107.5800459 329.699200
   5261   5259   5268     1   109.8000471 387.438400
   5262   5274   5275     1   109.5600471 388.275200
   5262   5274   5276     1   109.5600471 388.275200
   5263   5262   5274     1   109.8000471 387.438400
   5263   5262   5264     1   107.5800459 329.699200
   5264   5262   5274     1   109.8000471 387.438400
   5265   5271   5272     1   109.5600471 388.275200
   5265   5271   5273     1   109.5600471 388.275200
   5266   5265   5271     1   109.8000471 387.438400
   5266   5265   5267     1   107.5800459 329.699200
   5267   5265   5271     1   109.8000471 387.438400
   5269   5268   5277     1   109.7800468 425.094400
   5269   5268   5270     1   108.4600466 328.025600
   5270   5268   5277     1   109.7800468 425.094400
   5272   5271  10584     1   109.7800468 425.094400
   5272   5271   5273     1   108.4600466 328.025600
   5273   5271  10584     1   109.7800468 425.094400
   5275   5274  10613     1   109.7800468 425.094400
   5275   5274   5276     1   108.4600466 328.025600
   5276   5274  10613     1   109.7800468 425.094400
   5278   5279   5280     1   109.8800469 414.216000
   5278   5279   5281     1   109.8800469 414.216000
   5278   5282   5283     1   109.8800469 414.216000
   5278   5282   5284     1   109.8800469 414.216000
   5278   5285   5286     1   109.8800469 414.216000
   5278   5285   5287     1   109.8800469 414.216000
   5279   5291   5292     1   109.8000471 387.438400
   5279   5291   5293     1   109.8000471 387.438400
   5280   5279   5291     1   109.5600471 388.275200
   5280   5279   5281     1   108.4600466 328.025600
   5281   5279   5291     1   109.5600471 388.275200
   5282   5294   5295     1   109.8000471 387.438400
   5282   5294   5296     1   109.8000471 387.438400
   5283   5282   5294     1   109.5600471 388.275200
   5283   5282   5284     1   108.4600466 328.025600
   5284   5282   5294     1   109.5600471 388.275200
   5285   5288   5289     1   109.8000471 387.438400
   5285   5288   5290     1   109.8000471 387.438400
   5286   5285   5288     1   109.5600471 388.275200
   5286   5285   5287     1   108.4600466 328.025600
   5287   5285   5288     1   109.5600471 388.275200
   5288   5297   5298     1   109.5600471 388.275200
   5288   5297   5299     1   109.5600471 388.275200
   5289   5288   5297     1   109.8000471 387.438400
   5289   5288   5290     1   107.5800459 329.699200
   5290   5288   5297     1   109.8000471 387.438400
   5291   5303   5304     1   109.5600471 388.275200
   5291   5303   5305     1   109.5600471 388.275200
   5292   5291   5303     1   109.8000471 387.438400
   5292   5291   5293     1   107.5800459 329.699200
   5293   5291   5303     1   109.8000471 387.438400
   5294   5300   5301     1   109.5600471 388.275200
   5294   5300   5302     1   109.5600471 388.275200
   5295   5294   5300     1   109.8000471 387.438400
   5295   5294   5296     1   107.5800459 329.699200
   5296   5294   5300     1   109.8000471 387.438400
   5298   5297   5306     1   109.7800468 425.094400
   5298   5297   5299     1   108.4600466 328.025600
   5299   5297   5306     1   109.7800468 425.094400
   5301   5300  10642     1   109.7800468 425.094400
   5301   5300   5302     1   108.4600466 328.025600
   5302   5300  10642     1   109.7800468 425.094400
   5304   5303  10671     1   109.7800468 425.094400
   5304   5303   5305     1   108.4600466 328.025600
   5305   5303  10671     1   109.7800468 425.094400
   5307   5308   5309     1   109.8800469 414.216000
   5307   5308   5310     1   109.8800469 414.216000
   5307   5311   5312     1   109.8800469 414.216000
   5307   5311   5313     1   109.8800469 414.216000
   5307   5314   5315     1   109.8800469 414.216000
   5307   5314   5316     1   109.8800469 414.216000
   5308   5320   5321     1   109.8000471 387.438400
   5308   5320   5322     1   109.8000471 387.438400
   5309   5308   5320     1   109.5600471 388.275200
   5309   5308   5310     1   108.4600466 328.025600
   5310   5308   5320     1   109.5600471 388.275200
   5311   5323   5324     1   109.8000471 387.438400
   5311   5323   5325     1   109.8000471 387.438400
   5312   5311   5323     1   109.5600471 388.275200
   5312   5311   5313     1   108.4600466 328.025600
   5313   5311   5323     1   109.5600471 388.275200
   5314   5317   5318     1   109.8000471 387.438400
   5314   5317   5319     1   109.8000471 387.438400
   5315   5314   5317     1   109.5600471 388.275200
   5315   5314   5316     1   108.4600466 328.025600
   5316   5314   5317     1   109.5600471 388.275200
   5317   5326   5327     1   109.5600471 388.275200
   5317   5326   5328     1   109.5600471 388.275200
   5318   5317   5326     1   109.8000471 387.438400
   5318   5317   5319     1   107.5800459 329.699200
   5319   5317   5326     1   109.8000471 387.438400
   5320   5332   5333     1   109.5600471 388.275200
   5320   5332   5334     1   109.5600471 388.275200
   5321   5320   5332     1   109.8000471 387.438400
   5321   5320   5322     1   107.5800459 329.699200
   5322   5320   5332     1   109.8000471 387.438400
   5323   5329   5330     1   109.5600471 388.275200
   5323   5329   5331     1   109.5600471 388.275200
   5324   5323   5329     1   109.8000471 387.438400
   5324   5323   5325     1   107.5800459 329.699200
   5325   5323   5329     1   109.8000471 387.438400
   5327   5326   5335     1   109.7800468 425.094400
   5327   5326   5328     1   108.4600466 328.025600
   5328   5326   5335     1   109.7800468 425.094400
   5330   5329  10700     1   109.7800468 425.094400
   5330   5329   5331     1   108.4600466 328.025600
   5331   5329  10700     1   109.7800468 425.094400
   5333   5332  10729     1   109.7800468 425.094400
   5333   5332   5334     1   108.4600466 328.025600
   5334   5332  10729     1   109.7800468 425.094400
   5336   5337   5338     1   109.8800469 414.216000
   5336   5337   5339     1   109.8800469 414.216000
   5336   5340   5341     1   109.8800469 414.216000
   5336   5340   5342     1   109.8800469 414.216000
   5336   5343   5344     1   109.8800469 414.216000
   5336   5343   5345     1   109.8800469 414.216000
   5337   5349   5350     1   109.8000471 387.438400
   5337   5349   5351     1   109.8000471 387.438400
   5338   5337   5349     1   109.5600471 388.275200
   5338   5337   5339     1   108.4600466 328.025600
   5339   5337   5349     1   109.5600471 388.275200
   5340   5352   5353     1   109.8000471 387.438400
   5340   5352   5354     1   109.8000471 387.438400
   5341   5340   5352     1   109.5600471 388.275200
   5341   5340   5342     1   108.4600466 328.025600
   5342   5340   5352     1   109.5600471 388.275200
   5343   5346   5347     1   109.8000471 387.438400
   5343   5346   5348     1   109.8000471 387.438400
   5344   5343   5346     1   109.5600471 388.275200
   5344   5343   5345     1   108.4600466 328.025600
   5345   5343   5346     1   109.5600471 388.275200
   5346   5355   5356     1   109.5600471 388.275200
   5346   5355   5357     1   109.5600471 388.275200
   5347   5346   5355     1   109.8000471 387.438400
   5347   5346   5348     1   107.5800459 329.699200
   5348   5346   5355     1   109.8000471 387.438400
   5349   5361   5362     1   109.5600471 388.275200
   5349   5361   5363     1   109.5600471 388.275200
   5350   5349   5361     1   109.8000471 387.438400
   5350   5349   5351     1   107.5800459 329.699200
   5351   5349   5361     1   109.8000471 387.438400
   5352   5358   5359     1   109.5600471 388.275200
   5352   5358   5360     1   109.5600471 388.275200
   5353   5352   5358     1   109.8000471 387.438400
   5353   5352   5354     1   107.5800459 329.699200
   5354   5352   5358     1   109.8000471 387.438400
   5356   5355   5364     1   109.7800468 425.094400
   5356   5355   5357     1   108.4600466 328.025600
   5357   5355   5364     1   109.7800468 425.094400
   5359   5358  10758     1   109.7800468 425.094400
   5359   5358   5360     1   108.4600466 328.025600
   5360   5358  10758     1   109.7800468 425.094400
   5362   5361  10787     1   109.7800468 425.094400
   5362   5361   5363     1   108.4600466 328.025600
   5363   5361  10787     1   109.7800468 425.094400
   5365   5366   5367     1   109.8800469 414.216000
   5365   5366   5368     1   109.8800469 414.216000
   5365   5369   5370     1   109.8800469 414.216000
   5365   5369   5371     1   109.8800469 414.216000
   5365   5372   5373     1   109.8800469 414.216000
   5365   5372   5374     1   109.8800469 414.216000
   5366   5378   5379     1   109.8000471 387.438400
   5366   5378   5380     1   109.8000471 387.438400
   5367   5366   5378     1   109.5600471 388.275200
   5367   5366   5368     1   108.4600466 328.025600
   5368   5366   5378     1   109.5600471 388.275200
   5369   5381   5382     1   109.8000471 387.438400
   5369   5381   5383     1   109.8000471 387.438400
   5370   5369   5381     1   109.5600471 388.275200
   5370   5369   5371     1   108.4600466 328.025600
   5371   5369   5381     1   109.5600471 388.275200
   5372   5375   5376     1   109.8000471 387.438400
   5372   5375   5377     1   109.8000471 387.438400
   5373   5372   5375     1   109.5600471 388.275200
   5373   5372   5374     1   108.4600466 328.025600
   5374   5372   5375     1   109.5600471 388.275200
   5375   5384   5385     1   109.5600471 388.275200
   5375   5384   5386     1   109.5600471 388.275200
   5376   5375   5384     1   109.8000471 387.438400
   5376   5375   5377     1   107.5800459 329.699200
   5377   5375   5384     1   109.8000471 387.438400
   5378   5390   5391     1   109.5600471 388.275200
   5378   5390   5392     1   109.5600471 388.275200
   5379   5378   5390     1   109.8000471 387.438400
   5379   5378   5380     1   107.5800459 329.699200
   5380   5378   5390     1   109.8000471 387.438400
   5381   5387   5388     1   109.5600471 388.275200
   5381   5387   5389     1   109.5600471 388.275200
   5382   5381   5387     1   109.8000471 387.438400
   5382   5381   5383     1   107.5800459 329.699200
   5383   5381   5387     1   109.8000471 387.438400
   5385   5384   5393     1   109.7800468 425.094400
   5385   5384   5386     1   108.4600466 328.025600
   5386   5384   5393     1   109.7800468 425.094400
   5388   5387  10816     1   109.7800468 425.094400
   5388   5387   5389     1   108.4600466 328.025600
   5389   5387  10816     1   109.7800468 425.094400
   5391   5390  10845     1   109.7800468 425.094400
   5391   5390   5392     1   108.4600466 328.025600
   5392   5390  10845     1   109.7800468 425.094400
   5394   5395   5396     1   109.8800469 414.216000
   5394   5395   5397     1   109.8800469 414.216000
   5394   5398   5399     1   109.8800469 414.216000
   5394   5398   5400     1   109.8800469 414.216000
   5394   5401   5402     1   109.8800469 414.216000
   5394   5401   5403     1   109.8800469 414.216000
   5395   5407   5408     1   109.8000471 387.438400
   5395   5407   5409     1   109.8000471 387.438400
   5396   5395   5407     1   109.5600471 388.275200
   5396   5395   5397     1   108.4600466 328.025600
   5397   5395   5407     1   109.5600471 388.275200
   5398   5410   5411     1   109.8000471 387.438400
   5398   5410   5412     1   109.8000471 387.438400
   5399   5398   5410     1   109.5600471 388.275200
   5399   5398   5400     1   108.4600466 328.025600
   5400   5398   5410     1   109.5600471 388.275200
   5401   5404   5405     1   109.8000471 387.438400
   5401   5404   5406     1   109.8000471 387.438400
   5402   5401   5404     1   109.5600471 388.275200
   5402   5401   5403     1   108.4600466 328.025600
   5403   5401   5404     1   109.5600471 388.275200
   5404   5413   5414     1   109.5600471 388.275200
   5404   5413   5415     1   109.5600471 388.275200
   5405   5404   5413     1   109.8000471 387.438400
   5405   5404   5406     1   107.5800459 329.699200
   5406   5404   5413     1   109.8000471 387.438400
   5407   5419   5420     1   109.5600471 388.275200
   5407   5419   5421     1   109.5600471 388.275200
   5408   5407   5419     1   109.8000471 387.438400
   5408   5407   5409     1   107.5800459 329.699200
   5409   5407   5419     1   109.8000471 387.438400
   5410   5416   5417     1   109.5600471 388.275200
   5410   5416   5418     1   109.5600471 388.275200
   5411   5410   5416     1   109.8000471 387.438400
   5411   5410   5412     1   107.5800459 329.699200
   5412   5410   5416     1   109.8000471 387.438400
   5414   5413   5422     1   109.7800468 425.094400
   5414   5413   5415     1   108.4600466 328.025600
   5415   5413   5422     1   109.7800468 425.094400
   5417   5416  10874     1   109.7800468 425.094400
   5417   5416   5418     1   108.4600466 328.025600
   5418   5416  10874     1   109.7800468 425.094400
   5420   5419  10903     1   109.7800468 425.094400
   5420   5419   5421     1   108.4600466 328.025600
   5421   5419  10903     1   109.7800468 425.094400
   5423   5424   5425     1   109.8800469 414.216000
   5423   5424   5426     1   109.8800469 414.216000
   5423   5427   5428     1   109.8800469 414.216000
   5423   5427   5429     1   109.8800469 414.216000
   5423   5430   5431     1   109.8800469 414.216000
   5423   5430   5432     1   109.8800469 414.216000
   5424   5436   5437     1   109.8000471 387.438400
   5424   5436   5438     1   109.8000471 387.438400
   5425   5424   5436     1   109.5600471 388.275200
   5425   5424   5426     1   108.4600466 328.025600
   5426   5424   5436     1   109.5600471 388.275200
   5427   5439   5440     1   109.8000471 387.438400
   5427   5439   5441     1   109.8000471 387.438400
   5428   5427   5439     1   109.5600471 388.275200
   5428   5427   5429     1   108.4600466 328.025600
   5429   5427   5439     1   109.5600471 388.275200
   5430   5433   5434     1   109.8000471 387.438400
   5430   5433   5435     1   109.8000471 387.438400
   5431   5430   5433     1   109.5600471 388.275200
   5431   5430   5432     1   108.4600466 328.025600
   5432   5430   5433     1   109.5600471 388.275200
   5433   5442   5443     1   109.5600471 388.275200
   5433   5442   5444     1   109.5600471 388.275200
   5434   5433   5442     1   109.8000471 387.438400
   5434   5433   5435     1   107.5800459 329.699200
   5435   5433   5442     1   109.8000471 387.438400
   5436   5448   5449     1   109.5600471 388.275200
   5436   5448   5450     1   109.5600471 388.275200
   5437   5436   5448     1   109.8000471 387.438400
   5437   5436   5438     1   107.5800459 329.699200
   5438   5436   5448     1   109.8000471 387.438400
   5439   5445   5446     1   109.5600471 388.275200
   5439   5445   5447     1   109.5600471 388.275200
   5440   5439   5445     1   109.8000471 387.438400
   5440   5439   5441     1   107.5800459 329.699200
   5441   5439   5445     1   109.8000471 387.438400
   5443   5442   5451     1   109.7800468 425.094400
   5443   5442   5444     1   108.4600466 328.025600
   5444   5442   5451     1   109.7800468 425.094400
   5446   5445  10932     1   109.7800468 425.094400
   5446   5445   5447     1   108.4600466 328.025600
   5447   5445  10932     1   109.7800468 425.094400
   5449   5448  10961     1   109.7800468 425.094400
   5449   5448   5450     1   108.4600466 328.025600
   5450   5448  10961     1   109.7800468 425.094400
   5452   5453   5454     1   109.8800469 414.216000
   5452   5453   5455     1   109.8800469 414.216000
   5452   5456   5457     1   109.8800469 414.216000
   5452   5456   5458     1   109.8800469 414.216000
   5452   5459   5460     1   109.8800469 414.216000
   5452   5459   5461     1   109.8800469 414.216000
   5453   5465   5466     1   109.8000471 387.438400
   5453   5465   5467     1   109.8000471 387.438400
   5454   5453   5465     1   109.5600471 388.275200
   5454   5453   5455     1   108.4600466 328.025600
   5455   5453   5465     1   109.5600471 388.275200
   5456   5468   5469     1   109.8000471 387.438400
   5456   5468   5470     1   109.8000471 387.438400
   5457   5456   5468     1   109.5600471 388.275200
   5457   5456   5458     1   108.4600466 328.025600
   5458   5456   5468     1   109.5600471 388.275200
   5459   5462   5463     1   109.8000471 387.438400
   5459   5462   5464     1   109.8000471 387.438400
   5460   5459   5462     1   109.5600471 388.275200
   5460   5459   5461     1   108.4600466 328.025600
   5461   5459   5462     1   109.5600471 388.275200
   5462   5471   5472     1   109.5600471 388.275200
   5462   5471   5473     1   109.5600471 388.275200
   5463   5462   5471     1   109.8000471 387.438400
   5463   5462   5464     1   107.5800459 329.699200
   5464   5462   5471     1   109.8000471 387.438400
   5465   5477   5478     1   109.5600471 388.275200
   5465   5477   5479     1   109.5600471 388.275200
   5466   5465   5477     1   109.8000471 387.438400
   5466   5465   5467     1   107.5800459 329.699200
   5467   5465   5477     1   109.8000471 387.438400
   5468   5474   5475     1   109.5600471 388.275200
   5468   5474   5476     1   109.5600471 388.275200
   5469   5468   5474     1   109.8000471 387.438400
   5469   5468   5470     1   107.5800459 329.699200
   5470   5468   5474     1   109.8000471 387.438400
   5472   5471   5480     1   109.7800468 425.094400
   5472   5471   5473     1   108.4600466 328.025600
   5473   5471   5480     1   109.7800468 425.094400
   5475   5474  10990     1   109.7800468 425.094400
   5475   5474   5476     1   108.4600466 328.025600
   5476   5474  10990     1   109.7800468 425.094400
   5478   5477  11019     1   109.7800468 425.094400
   5478   5477   5479     1   108.4600466 328.025600
   5479   5477  11019     1   109.7800468 425.094400
   5481   5482   5483     1   109.8800469 414.216000
   5481   5482   5484     1   109.8800469 414.216000
   5481   5485   5486     1   109.8800469 414.216000
   5481   5485   5487     1   109.8800469 414.216000
   5481   5488   5489     1   109.8800469 414.216000
   5481   5488   5490     1   109.8800469 414.216000
   5482   5494   5495     1   109.8000471 387.438400
   5482   5494   5496     1   109.8000471 387.438400
   5483   5482   5494     1   109.5600471 388.275200
   5483   5482   5484     1   108.4600466 328.025600
   5484   5482   5494     1   109.5600471 388.275200
   5485   5497   5498     1   109.8000471 387.438400
   5485   5497   5499     1   109.8000471 387.438400
   5486   5485   5497     1   109.5600471 388.275200
   5486   5485   5487     1   108.4600466 328.025600
   5487   5485   5497     1   109.5600471 388.275200
   5488   5491   5492     1   109.8000471 387.438400
   5488   5491   5493     1   109.8000471 387.438400
   5489   5488   5491     1   109.5600471 388.275200
   5489   5488   5490     1   108.4600466 328.025600
   5490   5488   5491     1   109.5600471 388.275200
   5491   5500   5501     1   109.5600471 388.275200
   5491   5500   5502     1   109.5600471 388.275200
   5492   5491   5500     1   109.8000471 387.438400
   5492   5491   5493     1   107.5800459 329.699200
   5493   5491   5500     1   109.8000471 387.438400
   5494   5506   5507     1   109.5600471 388.275200
   5494   5506   5508     1   109.5600471 388.275200
   5495   5494   5506     1   109.8000471 387.438400
   5495   5494   5496     1   107.5800459 329.699200
   5496   5494   5506     1   109.8000471 387.438400
   5497   5503   5504     1   109.5600471 388.275200
   5497   5503   5505     1   109.5600471 388.275200
   5498   5497   5503     1   109.8000471 387.438400
   5498   5497   5499     1   107.5800459 329.699200
   5499   5497   5503     1   109.8000471 387.438400
   5501   5500   5509     1   109.7800468 425.094400
   5501   5500   5502     1   108.4600466 328.025600
   5502   5500   5509     1   109.7800468 425.094400
   5504   5503  11048     1   109.7800468 425.094400
   5504   5503   5505     1   108.4600466 328.025600
   5505   5503  11048     1   109.7800468 425.094400
   5507   5506  11077     1   109.7800468 425.094400
   5507   5506   5508     1   108.4600466 328.025600
   5508   5506  11077     1   109.7800468 425.094400
   5510   5511   5512     1   109.8800469 414.216000
   5510   5511   5513     1   109.8800469 414.216000
   5510   5514   5515     1   109.8800469 414.216000
   5510   5514   5516     1   109.8800469 414.216000
   5510   5517   5518     1   109.8800469 414.216000
   5510   5517   5519     1   109.8800469 414.216000
   5511   5523   5524     1   109.8000471 387.438400
   5511   5523   5525     1   109.8000471 387.438400
   5512   5511   5523     1   109.5600471 388.275200
   5512   5511   5513     1   108.4600466 328.025600
   5513   5511   5523     1   109.5600471 388.275200
   5514   5526   5527     1   109.8000471 387.438400
   5514   5526   5528     1   109.8000471 387.438400
   5515   5514   5526     1   109.5600471 388.275200
   5515   5514   5516     1   108.4600466 328.025600
   5516   5514   5526     1   109.5600471 388.275200
   5517   5520   5521     1   109.8000471 387.438400
   5517   5520   5522     1   109.8000471 387.438400
   5518   5517   5520     1   109.5600471 388.275200
   5518   5517   5519     1   108.4600466 328.025600
   5519   5517   5520     1   109.5600471 388.275200
   5520   5529   5530     1   109.5600471 388.275200
   5520   5529   5531     1   109.5600471 388.275200
   5521   5520   5529     1   109.8000471 387.438400
   5521   5520   5522     1   107.5800459 329.699200
   5522   5520   5529     1   109.8000471 387.438400
   5523   5535   5536     1   109.5600471 388.275200
   5523   5535   5537     1   109.5600471 388.275200
   5524   5523   5535     1   109.8000471 387.438400
   5524   5523   5525     1   107.5800459 329.699200
   5525   5523   5535     1   109.8000471 387.438400
   5526   5532   5533     1   109.5600471 388.275200
   5526   5532   5534     1   109.5600471 388.275200
   5527   5526   5532     1   109.8000471 387.438400
   5527   5526   5528     1   107.5800459 329.699200
   5528   5526   5532     1   109.8000471 387.438400
   5530   5529   5538     1   109.7800468 425.094400
   5530   5529   5531     1   108.4600466 328.025600
   5531   5529   5538     1   109.7800468 425.094400
   5533   5532  11088     1   109.7800468 425.094400
   5533   5532   5534     1   108.4600466 328.025600
   5534   5532  11088     1   109.7800468 425.094400
   5536   5535  11111     1   109.7800468 425.094400
   5536   5535   5537     1   108.4600466 328.025600
   5537   5535  11111     1   109.7800468 425.094400
   5539   5540   5541     1   109.8800469 414.216000
   5539   5540   5542     1   109.8800469 414.216000
   5539   5543   5544     1   109.8800469 414.216000
   5539   5543   5545     1   109.8800469 414.216000
   5539   5546   5547     1   109.8800469 414.216000
   5539   5546   5548     1   109.8800469 414.216000
   5540   5552   5553     1   109.8000471 387.438400
   5540   5552   5554     1   109.8000471 387.438400
   5541   5540   5552     1   109.5600471 388.275200
   5541   5540   5542     1   108.4600466 328.025600
   5542   5540   5552     1   109.5600471 388.275200
   5543   5555   5556     1   109.8000471 387.438400
   5543   5555   5557     1   109.8000471 387.438400
   5544   5543   5555     1   109.5600471 388.275200
   5544   5543   5545     1   108.4600466 328.025600
   5545   5543   5555     1   109.5600471 388.275200
   5546   5549   5550     1   109.8000471 387.438400
   5546   5549   5551     1   109.8000471 387.438400
   5547   5546   5549     1   109.5600471 388.275200
   5547   5546   5548     1   108.4600466 328.025600
   5548   5546   5549     1   109.5600471 388.275200
   5549   5558   5559     1   109.5600471 388.275200
   5549   5558   5560     1   109.5600471 388.275200
   5550   5549   5558     1   109.8000471 387.438400
   5550   5549   5551     1   107.5800459 329.699200
   5551   5549   5558     1   109.8000471 387.438400
   5552   5564   5565     1   109.5600471 388.275200
   5552   5564   5566     1   109.5600471 388.275200
   5553   5552   5564     1   109.8000471 387.438400
   5553   5552   5554     1   107.5800459 329.699200
   5554   5552   5564     1   109.8000471 387.438400
   5555   5561   5562     1   109.5600471 388.275200
   5555   5561   5563     1   109.5600471 388.275200
   5556   5555   5561     1   109.8000471 387.438400
   5556   5555   5557     1   107.5800459 329.699200
   5557   5555   5561     1   109.8000471 387.438400
   5559   5558   5567     1   109.7800468 425.094400
   5559   5558   5560     1   108.4600466 328.025600
   5560   5558   5567     1   109.7800468 425.094400
   5562   5561  11134     1   109.7800468 425.094400
   5562   5561   5563     1   108.4600466 328.025600
   5563   5561  11134     1   109.7800468 425.094400
   5565   5564  11157     1   109.7800468 425.094400
   5565   5564   5566     1   108.4600466 328.025600
   5566   5564  11157     1   109.7800468 425.094400
   5568   5569   5570     1   109.8800469 414.216000
   5568   5569   5571     1   109.8800469 414.216000
   5568   5572   5573     1   109.8800469 414.216000
   5568   5572   5574     1   109.8800469 414.216000
   5568   5575   5576     1   109.8800469 414.216000
   5568   5575   5577     1   109.8800469 414.216000
   5569   5581   5582     1   109.8000471 387.438400
   5569   5581   5583     1   109.8000471 387.438400
   5570   5569   5581     1   109.5600471 388.275200
   5570   5569   5571     1   108.4600466 328.025600
   5571   5569   5581     1   109.5600471 388.275200
   5572   5584   5585     1   109.8000471 387.438400
   5572   5584   5586     1   109.8000471 387.438400
   5573   5572   5584     1   109.5600471 388.275200
   5573   5572   5574     1   108.4600466 328.025600
   5574   5572   5584     1   109.5600471 388.275200
   5575   5578   5579     1   109.8000471 387.438400
   5575   5578   5580     1   109.8000471 387.438400
   5576   5575   5578     1   109.5600471 388.275200
   5576   5575   5577     1   108.4600466 328.025600
   5577   5575   5578     1   109.5600471 388.275200
   5578   5587   5588     1   109.5600471 388.275200
   5578   5587   5589     1   109.5600471 388.275200
   5579   5578   5587     1   109.8000471 387.438400
   5579   5578   5580     1   107.5800459 329.699200
   5580   5578   5587     1   109.8000471 387.438400
   5581   5593   5594     1   109.5600471 388.275200
   5581   5593   5595     1   109.5600471 388.275200
   5582   5581   5593     1   109.8000471 387.438400
   5582   5581   5583     1   107.5800459 329.699200
   5583   5581   5593     1   109.8000471 387.438400
   5584   5590   5591     1   109.5600471 388.275200
   5584   5590   5592     1   109.5600471 388.275200
   5585   5584   5590     1   109.8000471 387.438400
   5585   5584   5586     1   107.5800459 329.699200
   5586   5584   5590     1   109.8000471 387.438400
   5588   5587   5596     1   109.7800468 425.094400
   5588   5587   5589     1   108.4600466 328.025600
   5589   5587   5596     1   109.7800468 425.094400
   5591   5590  11180     1   109.7800468 425.094400
   5591   5590   5592     1   108.4600466 328.025600
   5592   5590  11180     1   109.7800468 425.094400
   5594   5593  11203     1   109.7800468 425.094400
   5594   5593   5595     1   108.4600466 328.025600
   5595   5593  11203     1   109.7800468 425.094400
   5597   5598   5599     1   109.8800469 414.216000
   5597   5598   5600     1   109.8800469 414.216000
   5597   5601   5602     1   109.8800469 414.216000
   5597   5601   5603     1   109.8800469 414.216000
   5597   5604   5605     1   109.8800469 414.216000
   5597   5604   5606     1   109.8800469 414.216000
   5598   5610   5611     1   109.8000471 387.438400
   5598   5610   5612     1   109.8000471 387.438400
   5599   5598   5610     1   109.5600471 388.275200
   5599   5598   5600     1   108.4600466 328.025600
   5600   5598   5610     1   109.5600471 388.275200
   5601   5613   5614     1   109.8000471 387.438400
   5601   5613   5615     1   109.8000471 387.438400
   5602   5601   5613     1   109.5600471 388.275200
   5602   5601   5603     1   108.4600466 328.025600
   5603   5601   5613     1   109.5600471 388.275200
   5604   5607   5608     1   109.8000471 387.438400
   5604   5607   5609     1   109.8000471 387.438400
   5605   5604   5607     1   109.5600471 388.275200
   5605   5604   5606     1   108.4600466 328.025600
   5606   5604   5607     1   109.5600471 388.275200
   5607   5616   5617     1   109.5600471 388.275200
   5607   5616   5618     1   109.5600471 388.275200
   5608   5607   5616     1   109.8000471 387.438400
   5608   5607   5609     1   107.5800459 329.699200
   5609   5607   5616     1   109.8000471 387.438400
   5610   5622   5623     1   109.5600471 388.275200
   5610   5622   5624     1   109.5600471 388.275200
   5611   5610   5622     1   109.8000471 387.438400
   5611   5610   5612     1   107.5800459 329.699200
   5612   5610   5622     1   109.8000471 387.438400
   5613   5619   5620     1   109.5600471 388.275200
   5613   5619   5621     1   109.5600471 388.275200
   5614   5613   5619     1   109.8000471 387.438400
   5614   5613   5615     1   107.5800459 329.699200
   5615   5613   5619     1   109.8000471 387.438400
   5617   5616   5625     1   109.7800468 425.094400
   5617   5616   5618     1   108.4600466 328.025600
   5618   5616   5625     1   109.7800468 425.094400
   5620   5619  11226     1   109.7800468 425.094400
   5620   5619   5621     1   108.4600466 328.025600
   5621   5619  11226     1   109.7800468 425.094400
   5623   5622  11249     1   109.7800468 425.094400
   5623   5622   5624     1   108.4600466 328.025600
   5624   5622  11249     1   109.7800468 425.094400
   5626   5627   5628     1   109.8800469 414.216000
   5626   5627   5629     1   109.8800469 414.216000
   5626   5630   5631     1   109.8800469 414.216000
   5626   5630   5632     1   109.8800469 414.216000
   5626   5633   5634     1   109.8800469 414.216000
   5626   5633   5635     1   109.8800469 414.216000
   5627   5639   5640     1   109.8000471 387.438400
   5627   5639   5641     1   109.8000471 387.438400
   5628   5627   5639     1   109.5600471 388.275200
   5628   5627   5629     1   108.4600466 328.025600
   5629   5627   5639     1   109.5600471 388.275200
   5630   5642   5643     1   109.8000471 387.438400
   5630   5642   5644     1   109.8000471 387.438400
   5631   5630   5642     1   109.5600471 388.275200
   5631   5630   5632     1   108.4600466 328.025600
   5632   5630   5642     1   109.5600471 388.275200
   5633   5636   5637     1   109.8000471 387.438400
   5633   5636   5638     1   109.8000471 387.438400
   5634   5633   5636     1   109.5600471 388.275200
   5634   5633   5635     1   108.4600466 328.025600
   5635   5633   5636     1   109.5600471 388.275200
   5636   5645   5646     1   109.5600471 388.275200
   5636   5645   5647     1   109.5600471 388.275200
   5637   5636   5645     1   109.8000471 387.438400
   5637   5636   5638     1   107.5800459 329.699200
   5638   5636   5645     1   109.8000471 387.438400
   5639   5651   5652     1   109.5600471 388.275200
   5639   5651   5653     1   109.5600471 388.275200
   5640   5639   5651     1   109.8000471 387.438400
   5640   5639   5641     1   107.5800459 329.699200
   5641   5639   5651     1   109.8000471 387.438400
   5642   5648   5649     1   109.5600471 388.275200
   5642   5648   5650     1   109.5600471 388.275200
   5643   5642   5648     1   109.8000471 387.438400
   5643   5642   5644     1   107.5800459 329.699200
   5644   5642   5648     1   109.8000471 387.438400
   5646   5645   5654     1   109.7800468 425.094400
   5646   5645   5647     1   108.4600466 328.025600
   5647   5645   5654     1   109.7800468 425.094400
   5649   5648  11272     1   109.7800468 425.094400
   5649   5648   5650     1   108.4600466 328.025600
   5650   5648  11272     1   109.7800468 425.094400
   5652   5651  11295     1   109.7800468 425.094400
   5652   5651   5653     1   108.4600466 328.025600
   5653   5651  11295     1   109.7800468 425.094400
   5655   5656   5657     1   109.8800469 414.216000
   5655   5656   5658     1   109.8800469 414.216000
   5655   5659   5660     1   109.8800469 414.216000
   5655   5659   5661     1   109.8800469 414.216000
   5655   5662   5663     1   109.8800469 414.216000
   5655   5662   5664     1   109.8800469 414.216000
   5656   5668   5669     1   109.8000471 387.438400
   5656   5668   5670     1   109.8000471 387.438400
   5657   5656   5668     1   109.5600471 388.275200
   5657   5656   5658     1   108.4600466 328.025600
   5658   5656   5668     1   109.5600471 388.275200
   5659   5671   5672     1   109.8000471 387.438400
   5659   5671   5673     1   109.8000471 387.438400
   5660   5659   5671     1   109.5600471 388.275200
   5660   5659   5661     1   108.4600466 328.025600
   5661   5659   5671     1   109.5600471 388.275200
   5662   5665   5666     1   109.8000471 387.438400
   5662   5665   5667     1   109.8000471 387.438400
   5663   5662   5665     1   109.5600471 388.275200
   5663   5662   5664     1   108.4600466 328.025600
   5664   5662   5665     1   109.5600471 388.275200
   5665   5674   5675     1   109.5600471 388.275200
   5665   5674   5676     1   109.5600471 388.275200
   5666   5665   5674     1   109.8000471 387.438400
   5666   5665   5667     1   107.5800459 329.699200
   5667   5665   5674     1   109.8000471 387.438400
   5668   5680   5681     1   109.5600471 388.275200
   5668   5680   5682     1   109.5600471 388.275200
   5669   5668   5680     1   109.8000471 387.438400
   5669   5668   5670     1   107.5800459 329.699200
   5670   5668   5680     1   109.8000471 387.438400
   5671   5677   5678     1   109.5600471 388.275200
   5671   5677   5679     1   109.5600471 388.275200
   5672   5671   5677     1   109.8000471 387.438400
   5672   5671   5673     1   107.5800459 329.699200
   5673   5671   5677     1   109.8000471 387.438400
   5675   5674   5683     1   109.7800468 425.094400
   5675   5674   5676     1   108.4600466 328.025600
   5676   5674   5683     1   109.7800468 425.094400
   5678   5677  11318     1   109.7800468 425.094400
   5678   5677   5679     1   108.4600466 328.025600
   5679   5677  11318     1   109.7800468 425.094400
   5681   5680  11341     1   109.7800468 425.094400
   5681   5680   5682     1   108.4600466 328.025600
   5682   5680  11341     1   109.7800468 425.094400
   5684   5685   5686     1   109.8800469 414.216000
   5684   5685   5687     1   109.8800469 414.216000
   5684   5688   5689     1   109.8800469 414.216000
   5684   5688   5690     1   109.8800469 414.216000
   5684   5691   5692     1   109.8800469 414.216000
   5684   5691   5693     1   109.8800469 414.216000
   5685   5697   5698     1   109.8000471 387.438400
   5685   5697   5699     1   109.8000471 387.438400
   5686   5685   5697     1   109.5600471 388.275200
   5686   5685   5687     1   108.4600466 328.025600
   5687   5685   5697     1   109.5600471 388.275200
   5688   5700   5701     1   109.8000471 387.438400
   5688   5700   5702     1   109.8000471 387.438400
   5689   5688   5700     1   109.5600471 388.275200
   5689   5688   5690     1   108.4600466 328.025600
   5690   5688   5700     1   109.5600471 388.275200
   5691   5694   5695     1   109.8000471 387.438400
   5691   5694   5696     1   109.8000471 387.438400
   5692   5691   5694     1   109.5600471 388.275200
   5692   5691   5693     1   108.4600466 328.025600
   5693   5691   5694     1   109.5600471 388.275200
   5694   5703   5704     1   109.5600471 388.275200
   5694   5703   5705     1   109.5600471 388.275200
   5695   5694   5703     1   109.8000471 387.438400
   5695   5694   5696     1   107.5800459 329.699200
   5696   5694   5703     1   109.8000471 387.438400
   5697   5709   5710     1   109.5600471 388.275200
   5697   5709   5711     1   109.5600471 388.275200
   5698   5697   5709     1   109.8000471 387.438400
   5698   5697   5699     1   107.5800459 329.699200
   5699   5697   5709     1   109.8000471 387.438400
   5700   5706   5707     1   109.5600471 388.275200
   5700   5706   5708     1   109.5600471 388.275200
   5701   5700   5706     1   109.8000471 387.438400
   5701   5700   5702     1   107.5800459 329.699200
   5702   5700   5706     1   109.8000471 387.438400
   5704   5703   5712     1   109.7800468 425.094400
   5704   5703   5705     1   108.4600466 328.025600
   5705   5703   5712     1   109.7800468 425.094400
   5707   5706  11364     1   109.7800468 425.094400
   5707   5706   5708     1   108.4600466 328.025600
   5708   5706  11364     1   109.7800468 425.094400
   5710   5709  11387     1   109.7800468 425.094400
   5710   5709   5711     1   108.4600466 328.025600
   5711   5709  11387     1   109.7800468 425.094400
   5713   5714   5715     1   109.8800469 414.216000
   5713   5714   5716     1   109.8800469 414.216000
   5713   5717   5718     1   109.8800469 414.216000
   5713   5717   5719     1   109.8800469 414.216000
   5713   5720   5721     1   109.8800469 414.216000
   5713   5720   5722     1   109.8800469 414.216000
   5714   5726   5727     1   109.8000471 387.438400
   5714   5726   5728     1   109.8000471 387.438400
   5715   5714   5726     1   109.5600471 388.275200
   5715   5714   5716     1   108.4600466 328.025600
   5716   5714   5726     1   109.5600471 388.275200
   5717   5729   5730     1   109.8000471 387.438400
   5717   5729   5731     1   109.8000471 387.438400
   5718   5717   5729     1   109.5600471 388.275200
   5718   5717   5719     1   108.4600466 328.025600
   5719   5717   5729     1   109.5600471 388.275200
   5720   5723   5724     1   109.8000471 387.438400
   5720   5723   5725     1   109.8000471 387.438400
   5721   5720   5723     1   109.5600471 388.275200
   5721   5720   5722     1   108.4600466 328.025600
   5722   5720   5723     1   109.5600471 388.275200
   5723   5732   5733     1   109.5600471 388.275200
   5723   5732   5734     1   109.5600471 388.275200
   5724   5723   5732     1   109.8000471 387.438400
   5724   5723   5725     1   107.5800459 329.699200
   5725   5723   5732     1   109.8000471 387.438400
   5726   5738   5739     1   109.5600471 388.275200
   5726   5738   5740     1   109.5600471 388.275200
   5727   5726   5738     1   109.8000471 387.438400
   5727   5726   5728     1   107.5800459 329.699200
   5728   5726   5738     1   109.8000471 387.438400
   5729   5735   5736     1   109.5600471 388.275200
   5729   5735   5737     1   109.5600471 388.275200
   5730   5729   5735     1   109.8000471 387.438400
   5730   5729   5731     1   107.5800459 329.699200
   5731   5729   5735     1   109.8000471 387.438400
   5733   5732   5741     1   109.7800468 425.094400
   5733   5732   5734     1   108.4600466 328.025600
   5734   5732   5741     1   109.7800468 425.094400
   5736   5735  11410     1   109.7800468 425.094400
   5736   5735   5737     1   108.4600466 328.025600
   5737   5735  11410     1   109.7800468 425.094400
   5739   5738  11433     1   109.7800468 425.094400
   5739   5738   5740     1   108.4600466 328.025600
   5740   5738  11433     1   109.7800468 425.094400
   5742   5743   5744     1   109.8800469 414.216000
   5742   5743   5745     1   109.8800469 414.216000
   5742   5746   5747     1   109.8800469 414.216000
   5742   5746   5748     1   109.8800469 414.216000
   5742   5749   5750     1   109.8800469 414.216000
   5742   5749   5751     1   109.8800469 414.216000
   5743   5755   5756     1   109.8000471 387.438400
   5743   5755   5757     1   109.8000471 387.438400
   5744   5743   5755     1   109.5600471 388.275200
   5744   5743   5745     1   108.4600466 328.025600
   5745   5743   5755     1   109.5600471 388.275200
   5746   5758   5759     1   109.8000471 387.438400
   5746   5758   5760     1   109.8000471 387.438400
   5747   5746   5758     1   109.5600471 388.275200
   5747   5746   5748     1   108.4600466 328.025600
   5748   5746   5758     1   109.5600471 388.275200
   5749   5752   5753     1   109.8000471 387.438400
   5749   5752   5754     1   109.8000471 387.438400
   5750   5749   5752     1   109.5600471 388.275200
   5750   5749   5751     1   108.4600466 328.025600
   5751   5749   5752     1   109.5600471 388.275200
   5752   5761   5762     1   109.5600471 388.275200
   5752   5761   5763     1   109.5600471 388.275200
   5753   5752   5761     1   109.8000471 387.438400
   5753   5752   5754     1   107.5800459 329.699200
   5754   5752   5761     1   109.8000471 387.438400
   5755   5767   5768     1   109.5600471 388.275200
   5755   5767   5769     1   109.5600471 388.275200
   5756   5755   5767     1   109.8000471 387.438400
   5756   5755   5757     1   107.5800459 329.699200
   5757   5755   5767     1   109.8000471 387.438400
   5758   5764   5765     1   109.5600471 388.275200
   5758   5764   5766     1   109.5600471 388.275200
   5759   5758   5764     1   109.8000471 387.438400
   5759   5758   5760     1   107.5800459 329.699200
   5760   5758   5764     1   109.8000471 387.438400
   5762   5761   5770     1   109.7800468 425.094400
   5762   5761   5763     1   108.4600466 328.025600
   5763   5761   5770     1   109.7800468 425.094400
   5765   5764  11456     1   109.7800468 425.094400
   5765   5764   5766     1   108.4600466 328.025600
   5766   5764  11456     1   109.7800468 425.094400
   5768   5767  11479     1   109.7800468 425.094400
   5768   5767   5769     1   108.4600466 328.025600
   5769   5767  11479     1   109.7800468 425.094400
   5771   5772   5773     1   109.8800469 414.216000
   5771   5772   5774     1   109.8800469 414.216000
   5771   5775   5776     1   109.8800469 414.216000
   5771   5775   5777     1   109.8800469 414.216000
   5771   5778   5779     1   109.8800469 414.216000
   5771   5778   5780     1   109.8800469 414.216000
   5772   5784   5785     1   109.8000471 387.438400
   5772   5784   5786     1   109.8000471 387.438400
   5773   5772   5784     1   109.5600471 388.275200
   5773   5772   5774     1   108.4600466 328.025600
   5774   5772   5784     1   109.5600471 388.275200
   5775   5787   5788     1   109.8000471 387.438400
   5775   5787   5789     1   109.8000471 387.438400
   5776   5775   5787     1   109.5600471 388.275200
   5776   5775   5777     1   108.4600466 328.025600
   5777   5775   5787     1   109.5600471 388.275200
   5778   5781   5782     1   109.8000471 387.438400
   5778   5781   5783     1   109.8000471 387.438400
   5779   5778   5781     1   109.5600471 388.275200
   5779   5778   5780     1   108.4600466 328.025600
   5780   5778   5781     1   109.5600471 388.275200
   5781   5790   5791     1   109.5600471 388.275200
   5781   5790   5792     1   109.5600471 388.275200
   5782   5781   5790     1   109.8000471 387.438400
   5782   5781   5783     1   107.5800459 329.699200
   5783   5781   5790     1   109.8000471 387.438400
   5784   5796   5797     1   109.5600471 388.275200
   5784   5796   5798     1   109.5600471 388.275200
   5785   5784   5796     1   109.8000471 387.438400
   5785   5784   5786     1   107.5800459 329.699200
   5786   5784   5796     1   109.8000471 387.438400
   5787   5793   5794     1   109.5600471 388.275200
   5787   5793   5795     1   109.5600471 388.275200
   5788   5787   5793     1   109.8000471 387.438400
   5788   5787   5789     1   107.5800459 329.699200
   5789   5787   5793     1   109.8000471 387.438400
   5791   5790   5799     1   109.7800468 425.094400
   5791   5790   5792     1   108.4600466 328.025600
   5792   5790   5799     1   109.7800468 425.094400
   5794   5793  11502     1   109.7800468 425.094400
   5794   5793   5795     1   108.4600466 328.025600
   5795   5793  11502     1   109.7800468 425.094400
   5797   5796  11525     1   109.7800468 425.094400
   5797   5796   5798     1   108.4600466 328.025600
   5798   5796  11525     1   109.7800468 425.094400
   5800   5801   5802     1   109.8800469 414.216000
   5800   5801   5803     1   109.8800469 414.216000
   5800   5804   5805     1   109.8800469 414.216000
   5800   5804   5806     1   109.8800469 414.216000
   5800   5807   5808     1   109.8800469 414.216000
   5800   5807   5809     1   109.8800469 414.216000
   5801   5813   5814     1   109.8000471 387.438400
   5801   5813   5815     1   109.8000471 387.438400
   5802   5801   5813     1   109.5600471 388.275200
   5802   5801   5803     1   108.4600466 328.025600
   5803   5801   5813     1   109.5600471 388.275200
   5804   5816   5817     1   109.8000471 387.438400
   5804   5816   5818     1   109.8000471 387.438400
   5805   5804   5816     1   109.5600471 388.275200
   5805   5804   5806     1   108.4600466 328.025600
   5806   5804   5816     1   109.5600471 388.275200
   5807   5810   5811     1   109.8000471 387.438400
   5807   5810   5812     1   109.8000471 387.438400
   5808   5807   5810     1   109.5600471 388.275200
   5808   5807   5809     1   108.4600466 328.025600
   5809   5807   5810     1   109.5600471 388.275200
   5810   5819   5820     1   109.5600471 388.275200
   5810   5819   5821     1   109.5600471 388.275200
   5811   5810   5819     1   109.8000471 387.438400
   5811   5810   5812     1   107.5800459 329.699200
   5812   5810   5819     1   109.8000471 387.438400
   5813   5825   5826     1   109.5600471 388.275200
   5813   5825   5827     1   109.5600471 388.275200
   5814   5813   5825     1   109.8000471 387.438400
   5814   5813   5815     1   107.5800459 329.699200
   5815   5813   5825     1   109.8000471 387.438400
   5816   5822   5823     1   109.5600471 388.275200
   5816   5822   5824     1   109.5600471 388.275200
   5817   5816   5822     1   109.8000471 387.438400
   5817   5816   5818     1   107.5800459 329.699200
   5818   5816   5822     1   109.8000471 387.438400
   5820   5819   5828     1   109.7800468 425.094400
   5820   5819   5821     1   108.4600466 328.025600
   5821   5819   5828     1   109.7800468 425.094400
   5823   5822  11548     1   109.7800468 425.094400
   5823   5822   5824     1   108.4600466 328.025600
   5824   5822  11548     1   109.7800468 425.094400
   5826   5825  11571     1   109.7800468 425.094400
   5826   5825   5827     1   108.4600466 328.025600
   5827   5825  11571     1   109.7800468 425.094400
   5829   5830   5831     1   109.8800469 414.216000
   5829   5830   5832     1   109.8800469 414.216000
   5829   5833   5834     1   109.8800469 414.216000
   5829   5833   5835     1   109.8800469 414.216000
   5829   5836   5837     1   109.8800469 414.216000
   5829   5836   5838     1   109.8800469 414.216000
   5830   5842   5843     1   109.8000471 387.438400
   5830   5842   5844     1   109.8000471 387.438400
   5831   5830   5842     1   109.5600471 388.275200
   5831   5830   5832     1   108.4600466 328.025600
   5832   5830   5842     1   109.5600471 388.275200
   5833   5845   5846     1   109.8000471 387.438400
   5833   5845   5847     1   109.8000471 387.438400
   5834   5833   5845     1   109.5600471 388.275200
   5834   5833   5835     1   108.4600466 328.025600
   5835   5833   5845     1   109.5600471 388.275200
   5836   5839   5840     1   109.8000471 387.438400
   5836   5839   5841     1   109.8000471 387.438400
   5837   5836   5839     1   109.5600471 388.275200
   5837   5836   5838     1   108.4600466 328.025600
   5838   5836   5839     1   109.5600471 388.275200
   5839   5848   5849     1   109.5600471 388.275200
   5839   5848   5850     1   109.5600471 388.275200
   5840   5839   5848     1   109.8000471 387.438400
   5840   5839   5841     1   107.5800459 329.699200
   5841   5839   5848     1   109.8000471 387.438400
   5842   5854   5855     1   109.5600471 388.275200
   5842   5854   5856     1   109.5600471 388.275200
   5843   5842   5854     1   109.8000471 387.438400
   5843   5842   5844     1   107.5800459 329.699200
   5844   5842   5854     1   109.8000471 387.438400
   5845   5851   5852     1   109.5600471 388.275200
   5845   5851   5853     1   109.5600471 388.275200
   5846   5845   5851     1   109.8000471 387.438400
   5846   5845   5847     1   107.5800459 329.699200
   5847   5845   5851     1   109.8000471 387.438400
   5849   5848   5857     1   109.7800468 425.094400
   5849   5848   5850     1   108.4600466 328.025600
   5850   5848   5857     1   109.7800468 425.094400
   5852   5851  11594     1   109.7800468 425.094400
   5852   5851   5853     1   108.4600466 328.025600
   5853   5851  11594     1   109.7800468 425.094400
   5855   5854  11617     1   109.7800468 425.094400
   5855   5854   5856     1   108.4600466 328.025600
   5856   5854  11617     1   109.7800468 425.094400
   5858   5859   5860     1   109.8800469 414.216000
   5858   5859   5861     1   109.8800469 414.216000
   5858   5862   5863     1   109.8800469 414.216000
   5858   5862   5864     1   109.8800469 414.216000
   5858   5865   5866     1   109.8800469 414.216000
   5858   5865   5867     1   109.8800469 414.216000
   5859   5871   5872     1   109.8000471 387.438400
   5859   5871   5873     1   109.8000471 387.438400
   5860   5859   5871     1   109.5600471 388.275200
   5860   5859   5861     1   108.4600466 328.025600
   5861   5859   5871     1   109.5600471 388.275200
   5862   5874   5875     1   109.8000471 387.438400
   5862   5874   5876     1   109.8000471 387.438400
   5863   5862   5874     1   109.5600471 388.275200
   5863   5862   5864     1   108.4600466 328.025600
   5864   5862   5874     1   109.5600471 388.275200
   5865   5868   5869     1   109.8000471 387.438400
   5865   5868   5870     1   109.8000471 387.438400
   5866   5865   5868     1   109.5600471 388.275200
   5866   5865   5867     1   108.4600466 328.025600
   5867   5865   5868     1   109.5600471 388.275200
   5868   5877   5878     1   109.5600471 388.275200
   5868   5877   5879     1   109.5600471 388.275200
   5869   5868   5877     1   109.8000471 387.438400
   5869   5868   5870     1   107.5800459 329.699200
   5870   5868   5877     1   109.8000471 387.438400
   5871   5883   5884     1   109.5600471 388.275200
   5871   5883   5885     1   109.5600471 388.275200
   5872   5871   5883     1   109.8000471 387.438400
   5872   5871   5873     1   107.5800459 329.699200
   5873   5871   5883     1   109.8000471 387.438400
   5874   5880   5881     1   109.5600471 388.275200
   5874   5880   5882     1   109.5600471 388.275200
   5875   5874   5880     1   109.8000471 387.438400
   5875   5874   5876     1   107.5800459 329.699200
   5876   5874   5880     1   109.8000471 387.438400
   5878   5877   5886     1   109.7800468 425.094400
   5878   5877   5879     1   108.4600466 328.025600
   5879   5877   5886     1   109.7800468 425.094400
   5881   5880  11640     1   109.7800468 425.094400
   5881   5880   5882     1   108.4600466 328.025600
   5882   5880  11640     1   109.7800468 425.094400
   5884   5883  11663     1   109.7800468 425.094400
   5884   5883   5885     1   108.4600466 328.025600
   5885   5883  11663     1   109.7800468 425.094400
   5887   5888   5889     1   109.8800469 414.216000
   5887   5888   5890     1   109.8800469 414.216000
   5887   5891   5892     1   109.8800469 414.216000
   5887   5891   5893     1   109.8800469 414.216000
   5887   5894   5895     1   109.8800469 414.216000
   5887   5894   5896     1   109.8800469 414.216000
   5888   5900   5901     1   109.8000471 387.438400
   5888   5900   5902     1   109.8000471 387.438400
   5889   5888   5900     1   109.5600471 388.275200
   5889   5888   5890     1   108.4600466 328.025600
   5890   5888   5900     1   109.5600471 388.275200
   5891   5903   5904     1   109.8000471 387.438400
   5891   5903   5905     1   109.8000471 387.438400
   5892   5891   5903     1   109.5600471 388.275200
   5892   5891   5893     1   108.4600466 328.025600
   5893   5891   5903     1   109.5600471 388.275200
   5894   5897   5898     1   109.8000471 387.438400
   5894   5897   5899     1   109.8000471 387.438400
   5895   5894   5897     1   109.5600471 388.275200
   5895   5894   5896     1   108.4600466 328.025600
   5896   5894   5897     1   109.5600471 388.275200
   5897   5906   5907     1   109.5600471 388.275200
   5897   5906   5908     1   109.5600471 388.275200
   5898   5897   5906     1   109.8000471 387.438400
   5898   5897   5899     1   107.5800459 329.699200
   5899   5897   5906     1   109.8000471 387.438400
   5900   5912   5913     1   109.5600471 388.275200
   5900   5912   5914     1   109.5600471 388.275200
   5901   5900   5912     1   109.8000471 387.438400
   5901   5900   5902     1   107.5800459 329.699200
   5902   5900   5912     1   109.8000471 387.438400
   5903   5909   5910     1   109.5600471 388.275200
   5903   5909   5911     1   109.5600471 388.275200
   5904   5903   5909     1   109.8000471 387.438400
   5904   5903   5905     1   107.5800459 329.699200
   5905   5903   5909     1   109.8000471 387.438400
   5907   5906   5915     1   109.7800468 425.094400
   5907   5906   5908     1   108.4600466 328.025600
   5908   5906   5915     1   109.7800468 425.094400
   5910   5909  11686     1   109.7800468 425.094400
   5910   5909   5911     1   108.4600466 328.025600
   5911   5909  11686     1   109.7800468 425.094400
   5913   5912  11709     1   109.7800468 425.094400
   5913   5912   5914     1   108.4600466 328.025600
   5914   5912  11709     1   109.7800468 425.094400
   5916   5917   5918     1   109.8800469 414.216000
   5916   5917   5919     1   109.8800469 414.216000
   5916   5920   5921     1   109.8800469 414.216000
   5916   5920   5922     1   109.8800469 414.216000
   5916   5923   5924     1   109.8800469 414.216000
   5916   5923   5925     1   109.8800469 414.216000
   5917   5929   5930     1   109.8000471 387.438400
   5917   5929   5931     1   109.8000471 387.438400
   5918   5917   5929     1   109.5600471 388.275200
   5918   5917   5919     1   108.4600466 328.025600
   5919   5917   5929     1   109.5600471 388.275200
   5920   5932   5933     1   109.8000471 387.438400
   5920   5932   5934     1   109.8000471 387.438400
   5921   5920   5932     1   109.5600471 388.275200
   5921   5920   5922     1   108.4600466 328.025600
   5922   5920   5932     1   109.5600471 388.275200
   5923   5926   5927     1   109.8000471 387.438400
   5923   5926   5928     1   109.8000471 387.438400
   5924   5923   5926     1   109.5600471 388.275200
   5924   5923   5925     1   108.4600466 328.025600
   5925   5923   5926     1   109.5600471 388.275200
   5926   5935   5936     1   109.5600471 388.275200
   5926   5935   5937     1   109.5600471 388.275200
   5927   5926   5935     1   109.8000471 387.438400
   5927   5926   5928     1   107.5800459 329.699200
   5928   5926   5935     1   109.8000471 387.438400
   5929   5941   5942     1   109.5600471 388.275200
   5929   5941   5943     1   109.5600471 388.275200
   5930   5929   5941     1   109.8000471 387.438400
   5930   5929   5931     1   107.5800459 329.699200
   5931   5929   5941     1   109.8000471 387.438400
   5932   5938   5939     1   109.5600471 388.275200
   5932   5938   5940     1   109.5600471 388.275200
   5933   5932   5938     1   109.8000471 387.438400
   5933   5932   5934     1   107.5800459 329.699200
   5934   5932   5938     1   109.8000471 387.438400
   5936   5935   5944     1   109.7800468 425.094400
   5936   5935   5937     1   108.4600466 328.025600
   5937   5935   5944     1   109.7800468 425.094400
   5939   5938  11732     1   109.7800468 425.094400
   5939   5938   5940     1   108.4600466 328.025600
   5940   5938  11732     1   109.7800468 425.094400
   5942   5941  11755     1   109.7800468 425.094400
   5942   5941   5943     1   108.4600466 328.025600
   5943   5941  11755     1   109.7800468 425.094400
   5945   5946   5947     1   109.8800469 414.216000
   5945   5946   5948     1   109.8800469 414.216000
   5945   5949   5950     1   109.8800469 414.216000
   5945   5949   5951     1   109.8800469 414.216000
   5945   5952   5953     1   109.8800469 414.216000
   5945   5952   5954     1   109.8800469 414.216000
   5946   5958   5959     1   109.8000471 387.438400
   5946   5958   5960     1   109.8000471 387.438400
   5947   5946   5958     1   109.5600471 388.275200
   5947   5946   5948     1   108.4600466 328.025600
   5948   5946   5958     1   109.5600471 388.275200
   5949   5961   5962     1   109.8000471 387.438400
   5949   5961   5963     1   109.8000471 387.438400
   5950   5949   5961     1   109.5600471 388.275200
   5950   5949   5951     1   108.4600466 328.025600
   5951   5949   5961     1   109.5600471 388.275200
   5952   5955   5956     1   109.8000471 387.438400
   5952   5955   5957     1   109.8000471 387.438400
   5953   5952   5955     1   109.5600471 388.275200
   5953   5952   5954     1   108.4600466 328.025600
   5954   5952   5955     1   109.5600471 388.275200
   5955   5964   5965     1   109.5600471 388.275200
   5955   5964   5966     1   109.5600471 388.275200
   5956   5955   5964     1   109.8000471 387.438400
   5956   5955   5957     1   107.5800459 329.699200
   5957   5955   5964     1   109.8000471 387.438400
   5958   5970   5971     1   109.5600471 388.275200
   5958   5970   5972     1   109.5600471 388.275200
   5959   5958   5970     1   109.8000471 387.438400
   5959   5958   5960     1   107.5800459 329.699200
   5960   5958   5970     1   109.8000471 387.438400
   5961   5967   5968     1   109.5600471 388.275200
   5961   5967   5969     1   109.5600471 388.275200
   5962   5961   5967     1   109.8000471 387.438400
   5962   5961   5963     1   107.5800459 329.699200
   5963   5961   5967     1   109.8000471 387.438400
   5965   5964   5973     1   109.7800468 425.094400
   5965   5964   5966     1   108.4600466 328.025600
   5966   5964   5973     1   109.7800468 425.094400
   5968   5967  11778     1   109.7800468 425.094400
   5968   5967   5969     1   108.4600466 328.025600
   5969   5967  11778     1   109.7800468 425.094400
   5971   5970  11801     1   109.7800468 425.094400
   5971   5970   5972     1   108.4600466 328.025600
   5972   5970  11801     1   109.7800468 425.094400
   5974   5975   5976     1   109.8800469 414.216000
   5974   5975   5977     1   109.8800469 414.216000
   5974   5978   5979     1   109.8800469 414.216000
   5974   5978   5980     1   109.8800469 414.216000
   5974   5981   5982     1   109.8800469 414.216000
   5974   5981   5983     1   109.8800469 414.216000
   5975   5987   5988     1   109.8000471 387.438400
   5975   5987   5989     1   109.8000471 387.438400
   5976   5975   5987     1   109.5600471 388.275200
   5976   5975   5977     1   108.4600466 328.025600
   5977   5975   5987     1   109.5600471 388.275200
   5978   5990   5991     1   109.8000471 387.438400
   5978   5990   5992     1   109.8000471 387.438400
   5979   5978   5990     1   109.5600471 388.275200
   5979   5978   5980     1   108.4600466 328.025600
   5980   5978   5990     1   109.5600471 388.275200
   5981   5984   5985     1   109.8000471 387.438400
   5981   5984   5986     1   109.8000471 387.438400
   5982   5981   5984     1   109.5600471 388.275200
   5982   5981   5983     1   108.4600466 328.025600
   5983   5981   5984     1   109.5600471 388.275200
   5984   5993   5994     1   109.5600471 388.275200
   5984   5993   5995     1   109.5600471 388.275200
   5985   5984   5993     1   109.8000471 387.438400
   5985   5984   5986     1   107.5800459 329.699200
   5986   5984   5993     1   109.8000471 387.438400
   5987   5999   6000     1   109.5600471 388.275200
   5987   5999   6001     1   109.5600471 388.275200
   5988   5987   5999     1   109.8000471 387.438400
   5988   5987   5989     1   107.5800459 329.699200
   5989   5987   5999     1   109.8000471 387.438400
   5990   5996   5997     1   109.5600471 388.275200
   5990   5996   5998     1   109.5600471 388.275200
   5991   5990   5996     1   109.8000471 387.438400
   5991   5990   5992     1   107.5800459 329.699200
   5992   5990   5996     1   109.8000471 387.438400
   5994   5993   6002     1   109.7800468 425.094400
   5994   5993   5995     1   108.4600466 328.025600
   5995   5993   6002     1   109.7800468 425.094400
   5997   5996  11824     1   109.7800468 425.094400
   5997   5996   5998     1   108.4600466 328.025600
   5998   5996  11824     1   109.7800468 425.094400
   6000   5999  11847     1   109.7800468 425.094400
   6000   5999   6001     1   108.4600466 328.025600
   6001   5999  11847     1   109.7800468 425.094400
   6003   6004   6005     1   109.8800469 414.216000
   6003   6004   6006     1   109.8800469 414.216000
   6003   6007   6008     1   109.8800469 414.216000
   6003   6007   6009     1   109.8800469 414.216000
   6003   6010   6011     1   109.8800469 414.216000
   6003   6010   6012     1   109.8800469 414.216000
   6004   6016   6017     1   109.8000471 387.438400
   6004   6016   6018     1   109.8000471 387.438400
   6005   6004   6016     1   109.5600471 388.275200
   6005   6004   6006     1   108.4600466 328.025600
   6006   6004   6016     1   109.5600471 388.275200
   6007   6019   6020     1   109.8000471 387.438400
   6007   6019   6021     1   109.8000471 387.438400
   6008   6007   6019     1   109.5600471 388.275200
   6008   6007   6009     1   108.4600466 328.025600
   6009   6007   6019     1   109.5600471 388.275200
   6010   6013   6014     1   109.8000471 387.438400
   6010   6013   6015     1   109.8000471 387.438400
   6011   6010   6013     1   109.5600471 388.275200
   6011   6010   6012     1   108.4600466 328.025600
   6012   6010   6013     1   109.5600471 388.275200
   6013   6022   6023     1   109.5600471 388.275200
   6013   6022   6024     1   109.5600471 388.275200
   6014   6013   6022     1   109.8000471 387.438400
   6014   6013   6015     1   107.5800459 329.699200
   6015   6013   6022     1   109.8000471 387.438400
   6016   6028   6029     1   109.5600471 388.275200
   6016   6028   6030     1   109.5600471 388.275200
   6017   6016   6028     1   109.8000471 387.438400
   6017   6016   6018     1   107.5800459 329.699200
   6018   6016   6028     1   109.8000471 387.438400
   6019   6025   6026     1   109.5600471 388.275200
   6019   6025   6027     1   109.5600471 388.275200
   6020   6019   6025     1   109.8000471 387.438400
   6020   6019   6021     1   107.5800459 329.699200
   6021   6019   6025     1   109.8000471 387.438400
   6023   6022   6031     1   109.7800468 425.094400
   6023   6022   6024     1   108.4600466 328.025600
   6024   6022   6031     1   109.7800468 425.094400
   6026   6025  11870     1   109.7800468 425.094400
   6026   6025   6027     1   108.4600466 328.025600
   6027   6025  11870     1   109.7800468 425.094400
   6029   6028  11893     1   109.7800468 425.094400
   6029   6028   6030     1   108.4600466 328.025600
   6030   6028  11893     1   109.7800468 425.094400
   6032   6033   6034     1   109.8800469 414.216000
   6032   6033   6035     1   109.8800469 414.216000
   6032   6036   6037     1   109.8800469 414.216000
   6032   6036   6038     1   109.8800469 414.216000
   6032   6039   6040     1   109.8800469 414.216000
   6032   6039   6041     1   109.8800469 414.216000
   6033   6045   6046     1   109.8000471 387.438400
   6033   6045   6047     1   109.8000471 387.438400
   6034   6033   6045     1   109.5600471 388.275200
   6034   6033   6035     1   108.4600466 328.025600
   6035   6033   6045     1   109.5600471 388.275200
   6036   6048   6049     1   109.8000471 387.438400
   6036   6048   6050     1   109.8000471 387.438400
   6037   6036   6048     1   109.5600471 388.275200
   6037   6036   6038     1   108.4600466 328.025600
   6038   6036   6048     1   109.5600471 388.275200
   6039   6042   6043     1   109.8000471 387.438400
   6039   6042   6044     1   109.8000471 387.438400
   6040   6039   6042     1   109.5600471 388.275200
   6040   6039   6041     1   108.4600466 328.025600
   6041   6039   6042     1   109.5600471 388.275200
   6042   6051   6052     1   109.5600471 388.275200
   6042   6051   6053     1   109.5600471 388.275200
   6043   6042   6051     1   109.8000471 387.438400
   6043   6042   6044     1   107.5800459 329.699200
   6044   6042   6051     1   109.8000471 387.438400
   6045   6057   6058     1   109.5600471 388.275200
   6045   6057   6059     1   109.5600471 388.275200
   6046   6045   6057     1   109.8000471 387.438400
   6046   6045   6047     1   107.5800459 329.699200
   6047   6045   6057     1   109.8000471 387.438400
   6048   6054   6055     1   109.5600471 388.275200
   6048   6054   6056     1   109.5600471 388.275200
   6049   6048   6054     1   109.8000471 387.438400
   6049   6048   6050     1   107.5800459 329.699200
   6050   6048   6054     1   109.8000471 387.438400
   6052   6051   6060     1   109.7800468 425.094400
   6052   6051   6053     1   108.4600466 328.025600
   6053   6051   6060     1   109.7800468 425.094400
   6055   6054  11916     1   109.7800468 425.094400
   6055   6054   6056     1   108.4600466 328.025600
   6056   6054  11916     1   109.7800468 425.094400
   6058   6057  11939     1   109.7800468 425.094400
   6058   6057   6059     1   108.4600466 328.025600
   6059   6057  11939     1   109.7800468 425.094400
   6061   6062   6063     1   109.8800469 414.216000
   6061   6062   6064     1   109.8800469 414.216000
   6061   6065   6066     1   109.8800469 414.216000
   6061   6065   6067     1   109.8800469 414.216000
   6061   6068   6069     1   109.8800469 414.216000
   6061   6068   6070     1   109.8800469 414.216000
   6062   6074   6075     1   109.8000471 387.438400
   6062   6074   6076     1   109.8000471 387.438400
   6063   6062   6074     1   109.5600471 388.275200
   6063   6062   6064     1   108.4600466 328.025600
   6064   6062   6074     1   109.5600471 388.275200
   6065   6077   6078     1   109.8000471 387.438400
   6065   6077   6079     1   109.8000471 387.438400
   6066   6065   6077     1   109.5600471 388.275200
   6066   6065   6067     1   108.4600466 328.025600
   6067   6065   6077     1   109.5600471 388.275200
   6068   6071   6072     1   109.8000471 387.438400
   6068   6071   6073     1   109.8000471 387.438400
   6069   6068   6071     1   109.5600471 388.275200
   6069   6068   6070     1   108.4600466 328.025600
   6070   6068   6071     1   109.5600471 388.275200
   6071   6080   6081     1   109.5600471 388.275200
   6071   6080   6082     1   109.5600471 388.275200
   6072   6071   6080     1   109.8000471 387.438400
   6072   6071   6073     1   107.5800459 329.699200
   6073   6071   6080     1   109.8000471 387.438400
   6074   6086   6087     1   109.5600471 388.275200
   6074   6086   6088     1   109.5600471 388.275200
   6075   6074   6086     1   109.8000471 387.438400
   6075   6074   6076     1   107.5800459 329.699200
   6076   6074   6086     1   109.8000471 387.438400
   6077   6083   6084     1   109.5600471 388.275200
   6077   6083   6085     1   109.5600471 388.275200
   6078   6077   6083     1   109.8000471 387.438400
   6078   6077   6079     1   107.5800459 329.699200
   6079   6077   6083     1   109.8000471 387.438400
   6081   6080   6089     1   109.7800468 425.094400
   6081   6080   6082     1   108.4600466 328.025600
   6082   6080   6089     1   109.7800468 425.094400
   6084   6083  11962     1   109.7800468 425.094400
   6084   6083   6085     1   108.4600466 328.025600
   6085   6083  11962     1   109.7800468 425.094400
   6087   6086  11985     1   109.7800468 425.094400
   6087   6086   6088     1   108.4600466 328.025600
   6088   6086  11985     1   109.7800468 425.094400
   6090   6091   6092     1   109.8800469 414.216000
   6090   6091   6093     1   109.8800469 414.216000
   6090   6094   6095     1   109.8800469 414.216000
   6090   6094   6096     1   109.8800469 414.216000
   6090   6097   6098     1   109.8800469 414.216000
   6090   6097   6099     1   109.8800469 414.216000
   6091   6103   6104     1   109.8000471 387.438400
   6091   6103   6105     1   109.8000471 387.438400
   6092   6091   6103     1   109.5600471 388.275200
   6092   6091   6093     1   108.4600466 328.025600
   6093   6091   6103     1   109.5600471 388.275200
   6094   6106   6107     1   109.8000471 387.438400
   6094   6106   6108     1   109.8000471 387.438400
   6095   6094   6106     1   109.5600471 388.275200
   6095   6094   6096     1   108.4600466 328.025600
   6096   6094   6106     1   109.5600471 388.275200
   6097   6100   6101     1   109.8000471 387.438400
   6097   6100   6102     1   109.8000471 387.438400
   6098   6097   6100     1   109.5600471 388.275200
   6098   6097   6099     1   108.4600466 328.025600
   6099   6097   6100     1   109.5600471 388.275200
   6100   6109   6110     1   109.5600471 388.275200
   6100   6109   6111     1   109.5600471 388.275200
   6101   6100   6109     1   109.8000471 387.438400
   6101   6100   6102     1   107.5800459 329.699200
   6102   6100   6109     1   109.8000471 387.438400
   6103   6115   6116     1   109.5600471 388.275200
   6103   6115   6117     1   109.5600471 388.275200
   6104   6103   6115     1   109.8000471 387.438400
   6104   6103   6105     1   107.5800459 329.699200
   6105   6103   6115     1   109.8000471 387.438400
   6106   6112   6113     1   109.5600471 388.275200
   6106   6112   6114     1   109.5600471 388.275200
   6107   6106   6112     1   109.8000471 387.438400
   6107   6106   6108     1   107.5800459 329.699200
   6108   6106   6112     1   109.8000471 387.438400
   6110   6109   6118     1   109.7800468 425.094400
   6110   6109   6111     1   108.4600466 328.025600
   6111   6109   6118     1   109.7800468 425.094400
   6113   6112  12008     1   109.7800468 425.094400
   6113   6112   6114     1   108.4600466 328.025600
   6114   6112  12008     1   109.7800468 425.094400
   6116   6115  12031     1   109.7800468 425.094400
   6116   6115   6117     1   108.4600466 328.025600
   6117   6115  12031     1   109.7800468 425.094400
   6119   6120   6121     1   109.8800469 414.216000
   6119   6120   6122     1   109.8800469 414.216000
   6119   6123   6124     1   109.8800469 414.216000
   6119   6123   6125     1   109.8800469 414.216000
   6119   6126   6127     1   109.8800469 414.216000
   6119   6126   6128     1   109.8800469 414.216000
   6120   6132   6133     1   109.8000471 387.438400
   6120   6132   6134     1   109.8000471 387.438400
   6121   6120   6132     1   109.5600471 388.275200
   6121   6120   6122     1   108.4600466 328.025600
   6122   6120   6132     1   109.5600471 388.275200
   6123   6135   6136     1   109.8000471 387.438400
   6123   6135   6137     1   109.8000471 387.438400
   6124   6123   6135     1   109.5600471 388.275200
   6124   6123   6125     1   108.4600466 328.025600
   6125   6123   6135     1   109.5600471 388.275200
   6126   6129   6130     1   109.8000471 387.438400
   6126   6129   6131     1   109.8000471 387.438400
   6127   6126   6129     1   109.5600471 388.275200
   6127   6126   6128     1   108.4600466 328.025600
   6128   6126   6129     1   109.5600471 388.275200
   6129   6138   6139     1   109.5600471 388.275200
   6129   6138   6140     1   109.5600471 388.275200
   6130   6129   6138     1   109.8000471 387.438400
   6130   6129   6131     1   107.5800459 329.699200
   6131   6129   6138     1   109.8000471 387.438400
   6132   6144   6145     1   109.5600471 388.275200
   6132   6144   6146     1   109.5600471 388.275200
   6133   6132   6144     1   109.8000471 387.438400
   6133   6132   6134     1   107.5800459 329.699200
   6134   6132   6144     1   109.8000471 387.438400
   6135   6141   6142     1   109.5600471 388.275200
   6135   6141   6143     1   109.5600471 388.275200
   6136   6135   6141     1   109.8000471 387.438400
   6136   6135   6137     1   107.5800459 329.699200
   6137   6135   6141     1   109.8000471 387.438400
   6139   6138   6147     1   109.7800468 425.094400
   6139   6138   6140     1   108.4600466 328.025600
   6140   6138   6147     1   109.7800468 425.094400
   6142   6141  12054     1   109.7800468 425.094400
   6142   6141   6143     1   108.4600466 328.025600
   6143   6141  12054     1   109.7800468 425.094400
   6145   6144  12077     1   109.7800468 425.094400
   6145   6144   6146     1   108.4600466 328.025600
   6146   6144  12077     1   109.7800468 425.094400
   6148   6149   6150     1   109.8800469 414.216000
   6148   6149   6151     1   109.8800469 414.216000
   6148   6152   6153     1   109.8800469 414.216000
   6148   6152   6154     1   109.8800469 414.216000
   6148   6155   6156     1   109.8800469 414.216000
   6148   6155   6157     1   109.8800469 414.216000
   6149   6161   6162     1   109.8000471 387.438400
   6149   6161   6163     1   109.8000471 387.438400
   6150   6149   6161     1   109.5600471 388.275200
   6150   6149   6151     1   108.4600466 328.025600
   6151   6149   6161     1   109.5600471 388.275200
   6152   6164   6165     1   109.8000471 387.438400
   6152   6164   6166     1   109.8000471 387.438400
   6153   6152   6164     1   109.5600471 388.275200
   6153   6152   6154     1   108.4600466 328.025600
   6154   6152   6164     1   109.5600471 388.275200
   6155   6158   6159     1   109.8000471 387.438400
   6155   6158   6160     1   109.8000471 387.438400
   6156   6155   6158     1   109.5600471 388.275200
   6156   6155   6157     1   108.4600466 328.025600
   6157   6155   6158     1   109.5600471 388.275200
   6158   6167   6168     1   109.5600471 388.275200
   6158   6167   6169     1   109.5600471 388.275200
   6159   6158   6167     1   109.8000471 387.438400
   6159   6158   6160     1   107.5800459 329.699200
   6160   6158   6167     1   109.8000471 387.438400
   6161   6173   6174     1   109.5600471 388.275200
   6161   6173   6175     1   109.5600471 388.275200
   6162   6161   6173     1   109.8000471 387.438400
   6162   6161   6163     1   107.5800459 329.699200
   6163   6161   6173     1   109.8000471 387.438400
   6164   6170   6171     1   109.5600471 388.275200
   6164   6170   6172     1   109.5600471 388.275200
   6165   6164   6170     1   109.8000471 387.438400
   6165   6164   6166     1   107.5800459 329.699200
   6166   6164   6170     1   109.8000471 387.438400
   6168   6167   6176     1   109.7800468 425.094400
   6168   6167   6169     1   108.4600466 328.025600
   6169   6167   6176     1   109.7800468 425.094400
   6171   6170  12100     1   109.7800468 425.094400
   6171   6170   6172     1   108.4600466 328.025600
   6172   6170  12100     1   109.7800468 425.094400
   6174   6173  12123     1   109.7800468 425.094400
   6174   6173   6175     1   108.4600466 328.025600
   6175   6173  12123     1   109.7800468 425.094400
   6177   6178   6179     1   109.8800469 414.216000
   6177   6178   6180     1   109.8800469 414.216000
   6177   6181   6182     1   109.8800469 414.216000
   6177   6181   6183     1   109.8800469 414.216000
   6177   6184   6185     1   109.8800469 414.216000
   6177   6184   6186     1   109.8800469 414.216000
   6178   6190   6191     1   109.8000471 387.438400
   6178   6190   6192     1   109.8000471 387.438400
   6179   6178   6190     1   109.5600471 388.275200
   6179   6178   6180     1   108.4600466 328.025600
   6180   6178   6190     1   109.5600471 388.275200
   6181   6193   6194     1   109.8000471 387.438400
   6181   6193   6195     1   109.8000471 387.438400
   6182   6181   6193     1   109.5600471 388.275200
   6182   6181   6183     1   108.4600466 328.025600
   6183   6181   6193     1   109.5600471 388.275200
   6184   6187   6188     1   109.8000471 387.438400
   6184   6187   6189     1   109.8000471 387.438400
   6185   6184   6187     1   109.5600471 388.275200
   6185   6184   6186     1   108.4600466 328.025600
   6186   6184   6187     1   109.5600471 388.275200
   6187   6196   6197     1   109.5600471 388.275200
   6187   6196   6198     1   109.5600471 388.275200
   6188   6187   6196     1   109.8000471 387.438400
   6188   6187   6189     1   107.5800459 329.699200
   6189   6187   6196     1   109.8000471 387.438400
   6190   6202   6203     1   109.5600471 388.275200
   6190   6202   6204     1   109.5600471 388.275200
   6191   6190   6202     1   109.8000471 387.438400
   6191   6190   6192     1   107.5800459 329.699200
   6192   6190   6202     1   109.8000471 387.438400
   6193   6199   6200     1   109.5600471 388.275200
   6193   6199   6201     1   109.5600471 388.275200
   6194   6193   6199     1   109.8000471 387.438400
   6194   6193   6195     1   107.5800459 329.699200
   6195   6193   6199     1   109.8000471 387.438400
   6197   6196   6205     1   109.7800468 425.094400
   6197   6196   6198     1   108.4600466 328.025600
   6198   6196   6205     1   109.7800468 425.094400
   6200   6199  12146     1   109.7800468 425.094400
   6200   6199   6201     1   108.4600466 328.025600
   6201   6199  12146     1   109.7800468 425.094400
   6203   6202  12169     1   109.7800468 425.094400
   6203   6202   6204     1   108.4600466 328.025600
   6204   6202  12169     1   109.7800468 425.094400
   6206   6207   6208     1   109.8800469 414.216000
   6206   6207   6209     1   109.8800469 414.216000
   6206   6210   6211     1   109.8800469 414.216000
   6206   6210   6212     1   109.8800469 414.216000
   6206   6213   6214     1   109.8800469 414.216000
   6206   6213   6215     1   109.8800469 414.216000
   6207   6219   6220     1   109.8000471 387.438400
   6207   6219   6221     1   109.8000471 387.438400
   6208   6207   6219     1   109.5600471 388.275200
   6208   6207   6209     1   108.4600466 328.025600
   6209   6207   6219     1   109.5600471 388.275200
   6210   6222   6223     1   109.8000471 387.438400
   6210   6222   6224     1   109.8000471 387.438400
   6211   6210   6222     1   109.5600471 388.275200
   6211   6210   6212     1   108.4600466 328.025600
   6212   6210   6222     1   109.5600471 388.275200
   6213   6216   6217     1   109.8000471 387.438400
   6213   6216   6218     1   109.8000471 387.438400
   6214   6213   6216     1   109.5600471 388.275200
   6214   6213   6215     1   108.4600466 328.025600
   6215   6213   6216     1   109.5600471 388.275200
   6216   6225   6226     1   109.5600471 388.275200
   6216   6225   6227     1   109.5600471 388.275200
   6217   6216   6225     1   109.8000471 387.438400
   6217   6216   6218     1   107.5800459 329.699200
   6218   6216   6225     1   109.8000471 387.438400
   6219   6231   6232     1   109.5600471 388.275200
   6219   6231   6233     1   109.5600471 388.275200
   6220   6219   6231     1   109.8000471 387.438400
   6220   6219   6221     1   107.5800459 329.699200
   6221   6219   6231     1   109.8000471 387.438400
   6222   6228   6229     1   109.5600471 388.275200
   6222   6228   6230     1   109.5600471 388.275200
   6223   6222   6228     1   109.8000471 387.438400
   6223   6222   6224     1   107.5800459 329.699200
   6224   6222   6228     1   109.8000471 387.438400
   6226   6225   6234     1   109.7800468 425.094400
   6226   6225   6227     1   108.4600466 328.025600
   6227   6225   6234     1   109.7800468 425.094400
   6229   6228  12192     1   109.7800468 425.094400
   6229   6228   6230     1   108.4600466 328.025600
   6230   6228  12192     1   109.7800468 425.094400
   6232   6231  12215     1   109.7800468 425.094400
   6232   6231   6233     1   108.4600466 328.025600
   6233   6231  12215     1   109.7800468 425.094400
   6235   6236   6237     1   109.8800469 414.216000
   6235   6236   6238     1   109.8800469 414.216000
   6235   6239   6240     1   109.8800469 414.216000
   6235   6239   6241     1   109.8800469 414.216000
   6235   6242   6243     1   109.8800469 414.216000
   6235   6242   6244     1   109.8800469 414.216000
   6236   6248   6249     1   109.8000471 387.438400
   6236   6248   6250     1   109.8000471 387.438400
   6237   6236   6248     1   109.5600471 388.275200
   6237   6236   6238     1   108.4600466 328.025600
   6238   6236   6248     1   109.5600471 388.275200
   6239   6251   6252     1   109.8000471 387.438400
   6239   6251   6253     1   109.8000471 387.438400
   6240   6239   6251     1   109.5600471 388.275200
   6240   6239   6241     1   108.4600466 328.025600
   6241   6239   6251     1   109.5600471 388.275200
   6242   6245   6246     1   109.8000471 387.438400
   6242   6245   6247     1   109.8000471 387.438400
   6243   6242   6245     1   109.5600471 388.275200
   6243   6242   6244     1   108.4600466 328.025600
   6244   6242   6245     1   109.5600471 388.275200
   6245   6254   6255     1   109.5600471 388.275200
   6245   6254   6256     1   109.5600471 388.275200
   6246   6245   6254     1   109.8000471 387.438400
   6246   6245   6247     1   107.5800459 329.699200
   6247   6245   6254     1   109.8000471 387.438400
   6248   6260   6261     1   109.5600471 388.275200
   6248   6260   6262     1   109.5600471 388.275200
   6249   6248   6260     1   109.8000471 387.438400
   6249   6248   6250     1   107.5800459 329.699200
   6250   6248   6260     1   109.8000471 387.438400
   6251   6257   6258     1   109.5600471 388.275200
   6251   6257   6259     1   109.5600471 388.275200
   6252   6251   6257     1   109.8000471 387.438400
   6252   6251   6253     1   107.5800459 329.699200
   6253   6251   6257     1   109.8000471 387.438400
   6255   6254   6263     1   109.7800468 425.094400
   6255   6254   6256     1   108.4600466 328.025600
   6256   6254   6263     1   109.7800468 425.094400
   6258   6257  12238     1   109.7800468 425.094400
   6258   6257   6259     1   108.4600466 328.025600
   6259   6257  12238     1   109.7800468 425.094400
   6261   6260  12261     1   109.7800468 425.094400
   6261   6260   6262     1   108.4600466 328.025600
   6262   6260  12261     1   109.7800468 425.094400
   6264   6265   6266     1   109.8800469 414.216000
   6264   6265   6267     1   109.8800469 414.216000
   6264   6268   6269     1   109.8800469 414.216000
   6264   6268   6270     1   109.8800469 414.216000
   6264   6271   6272     1   109.8800469 414.216000
   6264   6271   6273     1   109.8800469 414.216000
   6265   6277   6278     1   109.8000471 387.438400
   6265   6277   6279     1   109.8000471 387.438400
   6266   6265   6277     1   109.5600471 388.275200
   6266   6265   6267     1   108.4600466 328.025600
   6267   6265   6277     1   109.5600471 388.275200
   6268   6280   6281     1   109.8000471 387.438400
   6268   6280   6282     1   109.8000471 387.438400
   6269   6268   6280     1   109.5600471 388.275200
   6269   6268   6270     1   108.4600466 328.025600
   6270   6268   6280     1   109.5600471 388.275200
   6271   6274   6275     1   109.8000471 387.438400
   6271   6274   6276     1   109.8000471 387.438400
   6272   6271   6274     1   109.5600471 388.275200
   6272   6271   6273     1   108.4600466 328.025600
   6273   6271   6274     1   109.5600471 388.275200
   6274   6283   6284     1   109.5600471 388.275200
   6274   6283   6285     1   109.5600471 388.275200
   6275   6274   6283     1   109.8000471 387.438400
   6275   6274   6276     1   107.5800459 329.699200
   6276   6274   6283     1   109.8000471 387.438400
   6277   6289   6290     1   109.5600471 388.275200
   6277   6289   6291     1   109.5600471 388.275200
   6278   6277   6289     1   109.8000471 387.438400
   6278   6277   6279     1   107.5800459 329.699200
   6279   6277   6289     1   109.8000471 387.438400
   6280   6286   6287     1   109.5600471 388.275200
   6280   6286   6288     1   109.5600471 388.275200
   6281   6280   6286     1   109.8000471 387.438400
   6281   6280   6282     1   107.5800459 329.699200
   6282   6280   6286     1   109.8000471 387.438400
   6284   6283   6292     1   109.7800468 425.094400
   6284   6283   6285     1   108.4600466 328.025600
   6285   6283   6292     1   109.7800468 425.094400
   6287   6286  12284     1   109.7800468 425.094400
   6287   6286   6288     1   108.4600466 328.025600
   6288   6286  12284     1   109.7800468 425.094400
   6290   6289  12307     1   109.7800468 425.094400
   6290   6289   6291     1   108.4600466 328.025600
   6291   6289  12307     1   109.7800468 425.094400
   6293   6294   6295     1   109.8800469 414.216000
   6293   6294   6296     1   109.8800469 414.216000
   6293   6297   6298     1   109.8800469 414.216000
   6293   6297   6299     1   109.8800469 414.216000
   6293   6300   6301     1   109.8800469 414.216000
   6293   6300   6302     1   109.8800469 414.216000
   6294   6306   6307     1   109.8000471 387.438400
   6294   6306   6308     1   109.8000471 387.438400
   6295   6294   6306     1   109.5600471 388.275200
   6295   6294   6296     1   108.4600466 328.025600
   6296   6294   6306     1   109.5600471 388.275200
   6297   6309   6310     1   109.8000471 387.438400
   6297   6309   6311     1   109.8000471 387.438400
   6298   6297   6309     1   109.5600471 388.275200
   6298   6297   6299     1   108.4600466 328.025600
   6299   6297   6309     1   109.5600471 388.275200
   6300   6303   6304     1   109.8000471 387.438400
   6300   6303   6305     1   109.8000471 387.438400
   6301   6300   6303     1   109.5600471 388.275200
   6301   6300   6302     1   108.4600466 328.025600
   6302   6300   6303     1   109.5600471 388.275200
   6303   6312   6313     1   109.5600471 388.275200
   6303   6312   6314     1   109.5600471 388.275200
   6304   6303   6312     1   109.8000471 387.438400
   6304   6303   6305     1   107.5800459 329.699200
   6305   6303   6312     1   109.8000471 387.438400
   6306   6318   6319     1   109.5600471 388.275200
   6306   6318   6320     1   109.5600471 388.275200
   6307   6306   6318     1   109.8000471 387.438400
   6307   6306   6308     1   107.5800459 329.699200
   6308   6306   6318     1   109.8000471 387.438400
   6309   6315   6316     1   109.5600471 388.275200
   6309   6315   6317     1   109.5600471 388.275200
   6310   6309   6315     1   109.8000471 387.438400
   6310   6309   6311     1   107.5800459 329.699200
   6311   6309   6315     1   109.8000471 387.438400
   6313   6312   6321     1   109.7800468 425.094400
   6313   6312   6314     1   108.4600466 328.025600
   6314   6312   6321     1   109.7800468 425.094400
   6316   6315  12330     1   109.7800468 425.094400
   6316   6315   6317     1   108.4600466 328.025600
   6317   6315  12330     1   109.7800468 425.094400
   6319   6318  12353     1   109.7800468 425.094400
   6319   6318   6320     1   108.4600466 328.025600
   6320   6318  12353     1   109.7800468 425.094400
   6322   6323   6324     1   109.8800469 414.216000
   6322   6323   6325     1   109.8800469 414.216000
   6322   6326   6327     1   109.8800469 414.216000
   6322   6326   6328     1   109.8800469 414.216000
   6322   6329   6330     1   109.8800469 414.216000
   6322   6329   6331     1   109.8800469 414.216000
   6323   6335   6336     1   109.8000471 387.438400
   6323   6335   6337     1   109.8000471 387.438400
   6324   6323   6335     1   109.5600471 388.275200
   6324   6323   6325     1   108.4600466 328.025600
   6325   6323   6335     1   109.5600471 388.275200
   6326   6338   6339     1   109.8000471 387.438400
   6326   6338   6340     1   109.8000471 387.438400
   6327   6326   6338     1   109.5600471 388.275200
   6327   6326   6328     1   108.4600466 328.025600
   6328   6326   6338     1   109.5600471 388.275200
   6329   6332   6333     1   109.8000471 387.438400
   6329   6332   6334     1   109.8000471 387.438400
   6330   6329   6332     1   109.5600471 388.275200
   6330   6329   6331     1   108.4600466 328.025600
   6331   6329   6332     1   109.5600471 388.275200
   6332   6341   6342     1   109.5600471 388.275200
   6332   6341   6343     1   109.5600471 388.275200
   6333   6332   6341     1   109.8000471 387.438400
   6333   6332   6334     1   107.5800459 329.699200
   6334   6332   6341     1   109.8000471 387.438400
   6335   6347   6348     1   109.5600471 388.275200
   6335   6347   6349     1   109.5600471 388.275200
   6336   6335   6347     1   109.8000471 387.438400
   6336   6335   6337     1   107.5800459 329.699200
   6337   6335   6347     1   109.8000471 387.438400
   6338   6344   6345     1   109.5600471 388.275200
   6338   6344   6346     1   109.5600471 388.275200
   6339   6338   6344     1   109.8000471 387.438400
   6339   6338   6340     1   107.5800459 329.699200
   6340   6338   6344     1   109.8000471 387.438400
   6342   6341   6350     1   109.7800468 425.094400
   6342   6341   6343     1   108.4600466 328.025600
   6343   6341   6350     1   109.7800468 425.094400
   6345   6344  12376     1   109.7800468 425.094400
   6345   6344   6346     1   108.4600466 328.025600
   6346   6344  12376     1   109.7800468 425.094400
   6348   6347  12399     1   109.7800468 425.094400
   6348   6347   6349     1   108.4600466 328.025600
   6349   6347  12399     1   109.7800468 425.094400
   6351   6352   6353     1   109.8800469 414.216000
   6351   6352   6354     1   109.8800469 414.216000
   6351   6355   6356     1   109.8800469 414.216000
   6351   6355   6357     1   109.8800469 414.216000
   6351   6358   6359     1   109.8800469 414.216000
   6351   6358   6360     1   109.8800469 414.216000
   6352   6364   6365     1   109.8000471 387.438400
   6352   6364   6366     1   109.8000471 387.438400
   6353   6352   6364     1   109.5600471 388.275200
   6353   6352   6354     1   108.4600466 328.025600
   6354   6352   6364     1   109.5600471 388.275200
   6355   6367   6368     1   109.8000471 387.438400
   6355   6367   6369     1   109.8000471 387.438400
   6356   6355   6367     1   109.5600471 388.275200
   6356   6355   6357     1   108.4600466 328.025600
   6357   6355   6367     1   109.5600471 388.275200
   6358   6361   6362     1   109.8000471 387.438400
   6358   6361   6363     1   109.8000471 387.438400
   6359   6358   6361     1   109.5600471 388.275200
   6359   6358   6360     1   108.4600466 328.025600
   6360   6358   6361     1   109.5600471 388.275200
   6361   6370   6371     1   109.5600471 388.275200
   6361   6370   6372     1   109.5600471 388.275200
   6362   6361   6370     1   109.8000471 387.438400
   6362   6361   6363     1   107.5800459 329.699200
   6363   6361   6370     1   109.8000471 387.438400
   6364   6376   6377     1   109.5600471 388.275200
   6364   6376   6378     1   109.5600471 388.275200
   6365   6364   6376     1   109.8000471 387.438400
   6365   6364   6366     1   107.5800459 329.699200
   6366   6364   6376     1   109.8000471 387.438400
   6367   6373   6374     1   109.5600471 388.275200
   6367   6373   6375     1   109.5600471 388.275200
   6368   6367   6373     1   109.8000471 387.438400
   6368   6367   6369     1   107.5800459 329.699200
   6369   6367   6373     1   109.8000471 387.438400
   6371   6370   6379     1   109.7800468 425.094400
   6371   6370   6372     1   108.4600466 328.025600
   6372   6370   6379     1   109.7800468 425.094400
   6374   6373  12422     1   109.7800468 425.094400
   6374   6373   6375     1   108.4600466 328.025600
   6375   6373  12422     1   109.7800468 425.094400
   6377   6376  12445     1   109.7800468 425.094400
   6377   6376   6378     1   108.4600466 328.025600
   6378   6376  12445     1   109.7800468 425.094400
   6380   6381   6382     1   109.8800469 414.216000
   6380   6381   6383     1   109.8800469 414.216000
   6380   6384   6385     1   109.8800469 414.216000
   6380   6384   6386     1   109.8800469 414.216000
   6380   6387   6388     1   109.8800469 414.216000
   6380   6387   6389     1   109.8800469 414.216000
   6381   6393   6394     1   109.8000471 387.438400
   6381   6393   6395     1   109.8000471 387.438400
   6382   6381   6393     1   109.5600471 388.275200
   6382   6381   6383     1   108.4600466 328.025600
   6383   6381   6393     1   109.5600471 388.275200
   6384   6396   6397     1   109.8000471 387.438400
   6384   6396   6398     1   109.8000471 387.438400
   6385   6384   6396     1   109.5600471 388.275200
   6385   6384   6386     1   108.4600466 328.025600
   6386   6384   6396     1   109.5600471 388.275200
   6387   6390   6391     1   109.8000471 387.438400
   6387   6390   6392     1   109.8000471 387.438400
   6388   6387   6390     1   109.5600471 388.275200
   6388   6387   6389     1   108.4600466 328.025600
   6389   6387   6390     1   109.5600471 388.275200
   6390   6399   6400     1   109.5600471 388.275200
   6390   6399   6401     1   109.5600471 388.275200
   6391   6390   6399     1   109.8000471 387.438400
   6391   6390   6392     1   107.5800459 329.699200
   6392   6390   6399     1   109.8000471 387.438400
   6393   6405   6406     1   109.5600471 388.275200
   6393   6405   6407     1   109.5600471 388.275200
   6394   6393   6405     1   109.8000471 387.438400
   6394   6393   6395     1   107.5800459 329.699200
   6395   6393   6405     1   109.8000471 387.438400
   6396   6402   6403     1   109.5600471 388.275200
   6396   6402   6404     1   109.5600471 388.275200
   6397   6396   6402     1   109.8000471 387.438400
   6397   6396   6398     1   107.5800459 329.699200
   6398   6396   6402     1   109.8000471 387.438400
   6400   6399   6408     1   109.7800468 425.094400
   6400   6399   6401     1   108.4600466 328.025600
   6401   6399   6408     1   109.7800468 425.094400
   6403   6402  12468     1   109.7800468 425.094400
   6403   6402   6404     1   108.4600466 328.025600
   6404   6402  12468     1   109.7800468 425.094400
   6406   6405  12491     1   109.7800468 425.094400
   6406   6405   6407     1   108.4600466 328.025600
   6407   6405  12491     1   109.7800468 425.094400
   6409   6410   6411     1   109.8800469 414.216000
   6409   6410   6412     1   109.8800469 414.216000
   6409   6413   6414     1   109.8800469 414.216000
   6409   6413   6415     1   109.8800469 414.216000
   6409   6416   6417     1   109.8800469 414.216000
   6409   6416   6418     1   109.8800469 414.216000
   6410   6422   6423     1   109.8000471 387.438400
   6410   6422   6424     1   109.8000471 387.438400
   6411   6410   6422     1   109.5600471 388.275200
   6411   6410   6412     1   108.4600466 328.025600
   6412   6410   6422     1   109.5600471 388.275200
   6413   6425   6426     1   109.8000471 387.438400
   6413   6425   6427     1   109.8000471 387.438400
   6414   6413   6425     1   109.5600471 388.275200
   6414   6413   6415     1   108.4600466 328.025600
   6415   6413   6425     1   109.5600471 388.275200
   6416   6419   6420     1   109.8000471 387.438400
   6416   6419   6421     1   109.8000471 387.438400
   6417   6416   6419     1   109.5600471 388.275200
   6417   6416   6418     1   108.4600466 328.025600
   6418   6416   6419     1   109.5600471 388.275200
   6419   6428   6429     1   109.5600471 388.275200
   6419   6428   6430     1   109.5600471 388.275200
   6420   6419   6428     1   109.8000471 387.438400
   6420   6419   6421     1   107.5800459 329.699200
   6421   6419   6428     1   109.8000471 387.438400
   6422   6434   6435     1   109.5600471 388.275200
   6422   6434   6436     1   109.5600471 388.275200
   6423   6422   6434     1   109.8000471 387.438400
   6423   6422   6424     1   107.5800459 329.699200
   6424   6422   6434     1   109.8000471 387.438400
   6425   6431   6432     1   109.5600471 388.275200
   6425   6431   6433     1   109.5600471 388.275200
   6426   6425   6431     1   109.8000471 387.438400
   6426   6425   6427     1   107.5800459 329.699200
   6427   6425   6431     1   109.8000471 387.438400
   6429   6428   6437     1   109.7800468 425.094400
   6429   6428   6430     1   108.4600466 328.025600
   6430   6428   6437     1   109.7800468 425.094400
   6432   6431  12514     1   109.7800468 425.094400
   6432   6431   6433     1   108.4600466 328.025600
   6433   6431  12514     1   109.7800468 425.094400
   6435   6434  12537     1   109.7800468 425.094400
   6435   6434   6436     1   108.4600466 328.025600
   6436   6434  12537     1   109.7800468 425.094400
   6438   6439   6440     1   109.8800469 414.216000
   6438   6439   6441     1   109.8800469 414.216000
   6438   6442   6443     1   109.8800469 414.216000
   6438   6442   6444     1   109.8800469 414.216000
   6438   6445   6446     1   109.8800469 414.216000
   6438   6445   6447     1   109.8800469 414.216000
   6439   6451   6452     1   109.8000471 387.438400
   6439   6451   6453     1   109.8000471 387.438400
   6440   6439   6451     1   109.5600471 388.275200
   6440   6439   6441     1   108.4600466 328.025600
   6441   6439   6451     1   109.5600471 388.275200
   6442   6454   6455     1   109.8000471 387.438400
   6442   6454   6456     1   109.8000471 387.438400
   6443   6442   6454     1   109.5600471 388.275200
   6443   6442   6444     1   108.4600466 328.025600
   6444   6442   6454     1   109.5600471 388.275200
   6445   6448   6449     1   109.8000471 387.438400
   6445   6448   6450     1   109.8000471 387.438400
   6446   6445   6448     1   109.5600471 388.275200
   6446   6445   6447     1   108.4600466 328.025600
   6447   6445   6448     1   109.5600471 388.275200
   6448   6457   6458     1   109.5600471 388.275200
   6448   6457   6459     1   109.5600471 388.275200
   6449   6448   6457     1   109.8000471 387.438400
   6449   6448   6450     1   107.5800459 329.699200
   6450   6448   6457     1   109.8000471 387.438400
   6451   6463   6464     1   109.5600471 388.275200
   6451   6463   6465     1   109.5600471 388.275200
   6452   6451   6463     1   109.8000471 387.438400
   6452   6451   6453     1   107.5800459 329.699200
   6453   6451   6463     1   109.8000471 387.438400
   6454   6460   6461     1   109.5600471 388.275200
   6454   6460   6462     1   109.5600471 388.275200
   6455   6454   6460     1   109.8000471 387.438400
   6455   6454   6456     1   107.5800459 329.699200
   6456   6454   6460     1   109.8000471 387.438400
   6458   6457   6466     1   109.7800468 425.094400
   6458   6457   6459     1   108.4600466 328.025600
   6459   6457   6466     1   109.7800468 425.094400
   6461   6460  12560     1   109.7800468 425.094400
   6461   6460   6462     1   108.4600466 328.025600
   6462   6460  12560     1   109.7800468 425.094400
   6464   6463  12583     1   109.7800468 425.094400
   6464   6463   6465     1   108.4600466 328.025600
   6465   6463  12583     1   109.7800468 425.094400
   6467   6468   6469     1   109.8800469 414.216000
   6467   6468   6470     1   109.8800469 414.216000
   6467   6471   6472     1   109.8800469 414.216000
   6467   6471   6473     1   109.8800469 414.216000
   6467   6474   6475     1   109.8800469 414.216000
   6467   6474   6476     1   109.8800469 414.216000
   6468   6480   6481     1   109.8000471 387.438400
   6468   6480   6482     1   109.8000471 387.438400
   6469   6468   6480     1   109.5600471 388.275200
   6469   6468   6470     1   108.4600466 328.025600
   6470   6468   6480     1   109.5600471 388.275200
   6471   6483   6484     1   109.8000471 387.438400
   6471   6483   6485     1   109.8000471 387.438400
   6472   6471   6483     1   109.5600471 388.275200
   6472   6471   6473     1   108.4600466 328.025600
   6473   6471   6483     1   109.5600471 388.275200
   6474   6477   6478     1   109.8000471 387.438400
   6474   6477   6479     1   109.8000471 387.438400
   6475   6474   6477     1   109.5600471 388.275200
   6475   6474   6476     1   108.4600466 328.025600
   6476   6474   6477     1   109.5600471 388.275200
   6477   6486   6487     1   109.5600471 388.275200
   6477   6486   6488     1   109.5600471 388.275200
   6478   6477   6486     1   109.8000471 387.438400
   6478   6477   6479     1   107.5800459 329.699200
   6479   6477   6486     1   109.8000471 387.438400
   6480   6492   6493     1   109.5600471 388.275200
   6480   6492   6494     1   109.5600471 388.275200
   6481   6480   6492     1   109.8000471 387.438400
   6481   6480   6482     1   107.5800459 329.699200
   6482   6480   6492     1   109.8000471 387.438400
   6483   6489   6490     1   109.5600471 388.275200
   6483   6489   6491     1   109.5600471 388.275200
   6484   6483   6489     1   109.8000471 387.438400
   6484   6483   6485     1   107.5800459 329.699200
   6485   6483   6489     1   109.8000471 387.438400
   6487   6486   6495     1   109.7800468 425.094400
   6487   6486   6488     1   108.4600466 328.025600
   6488   6486   6495     1   109.7800468 425.094400
   6490   6489  12606     1   109.7800468 425.094400
   6490   6489   6491     1   108.4600466 328.025600
   6491   6489  12606     1   109.7800468 425.094400
   6493   6492  12629     1   109.7800468 425.094400
   6493   6492   6494     1   108.4600466 328.025600
   6494   6492  12629     1   109.7800468 425.094400
   6496   6497   6498     1   109.8800469 414.216000
   6496   6497   6499     1   109.8800469 414.216000
   6496   6500   6501     1   109.8800469 414.216000
   6496   6500   6502     1   109.8800469 414.216000
   6496   6503   6504     1   109.8800469 414.216000
   6496   6503   6505     1   109.8800469 414.216000
   6497   6509   6510     1   109.8000471 387.438400
   6497   6509   6511     1   109.8000471 387.438400
   6498   6497   6509     1   109.5600471 388.275200
   6498   6497   6499     1   108.4600466 328.025600
   6499   6497   6509     1   109.5600471 388.275200
   6500   6512   6513     1   109.8000471 387.438400
   6500   6512   6514     1   109.8000471 387.438400
   6501   6500   6512     1   109.5600471 388.275200
   6501   6500   6502     1   108.4600466 328.025600
   6502   6500   6512     1   109.5600471 388.275200
   6503   6506   6507     1   109.8000471 387.438400
   6503   6506   6508     1   109.8000471 387.438400
   6504   6503   6506     1   109.5600471 388.275200
   6504   6503   6505     1   108.4600466 328.025600
   6505   6503   6506     1   109.5600471 388.275200
   6506   6515   6516     1   109.5600471 388.275200
   6506   6515   6517     1   109.5600471 388.275200
   6507   6506   6515     1   109.8000471 387.438400
   6507   6506   6508     1   107.5800459 329.699200
   6508   6506   6515     1   109.8000471 387.438400
   6509   6521   6522     1   109.5600471 388.275200
   6509   6521   6523     1   109.5600471 388.275200
   6510   6509   6521     1   109.8000471 387.438400
   6510   6509   6511     1   107.5800459 329.699200
   6511   6509   6521     1   109.8000471 387.438400
   6512   6518   6519     1   109.5600471 388.275200
   6512   6518   6520     1   109.5600471 388.275200
   6513   6512   6518     1   109.8000471 387.438400
   6513   6512   6514     1   107.5800459 329.699200
   6514   6512   6518     1   109.8000471 387.438400
   6516   6515   6524     1   109.7800468 425.094400
   6516   6515   6517     1   108.4600466 328.025600
   6517   6515   6524     1   109.7800468 425.094400
   6519   6518  12652     1   109.7800468 425.094400
   6519   6518   6520     1   108.4600466 328.025600
   6520   6518  12652     1   109.7800468 425.094400
   6522   6521  12675     1   109.7800468 425.094400
   6522   6521   6523     1   108.4600466 328.025600
   6523   6521  12675     1   109.7800468 425.094400
   6525   6526   6527     1   109.8800469 414.216000
   6525   6526   6528     1   109.8800469 414.216000
   6525   6529   6530     1   109.8800469 414.216000
   6525   6529   6531     1   109.8800469 414.216000
   6525   6532   6533     1   109.8800469 414.216000
   6525   6532   6534     1   109.8800469 414.216000
   6526   6538   6539     1   109.8000471 387.438400
   6526   6538   6540     1   109.8000471 387.438400
   6527   6526   6538     1   109.5600471 388.275200
   6527   6526   6528     1   108.4600466 328.025600
   6528   6526   6538     1   109.5600471 388.275200
   6529   6541   6542     1   109.8000471 387.438400
   6529   6541   6543     1   109.8000471 387.438400
   6530   6529   6541     1   109.5600471 388.275200
   6530   6529   6531     1   108.4600466 328.025600
   6531   6529   6541     1   109.5600471 388.275200
   6532   6535   6536     1   109.8000471 387.438400
   6532   6535   6537     1   109.8000471 387.438400
   6533   6532   6535     1   109.5600471 388.275200
   6533   6532   6534     1   108.4600466 328.025600
   6534   6532   6535     1   109.5600471 388.275200
   6535   6544   6545     1   109.5600471 388.275200
   6535   6544   6546     1   109.5600471 388.275200
   6536   6535   6544     1   109.8000471 387.438400
   6536   6535   6537     1   107.5800459 329.699200
   6537   6535   6544     1   109.8000471 387.438400
   6538   6550   6551     1   109.5600471 388.275200
   6538   6550   6552     1   109.5600471 388.275200
   6539   6538   6550     1   109.8000471 387.438400
   6539   6538   6540     1   107.5800459 329.699200
   6540   6538   6550     1   109.8000471 387.438400
   6541   6547   6548     1   109.5600471 388.275200
   6541   6547   6549     1   109.5600471 388.275200
   6542   6541   6547     1   109.8000471 387.438400
   6542   6541   6543     1   107.5800459 329.699200
   6543   6541   6547     1   109.8000471 387.438400
   6545   6544   6553     1   109.7800468 425.094400
   6545   6544   6546     1   108.4600466 328.025600
   6546   6544   6553     1   109.7800468 425.094400
   6548   6547  12698     1   109.7800468 425.094400
   6548   6547   6549     1   108.4600466 328.025600
   6549   6547  12698     1   109.7800468 425.094400
   6551   6550  12721     1   109.7800468 425.094400
   6551   6550   6552     1   108.4600466 328.025600
   6552   6550  12721     1   109.7800468 425.094400
   6554   6555   6556     1   109.8800469 414.216000
   6554   6555   6557     1   109.8800469 414.216000
   6554   6558   6559     1   109.8800469 414.216000
   6554   6558   6560     1   109.8800469 414.216000
   6554   6561   6562     1   109.8800469 414.216000
   6554   6561   6563     1   109.8800469 414.216000
   6555   6567   6568     1   109.8000471 387.438400
   6555   6567   6569     1   109.8000471 387.438400
   6556   6555   6567     1   109.5600471 388.275200
   6556   6555   6557     1   108.4600466 328.025600
   6557   6555   6567     1   109.5600471 388.275200
   6558   6570   6571     1   109.8000471 387.438400
   6558   6570   6572     1   109.8000471 387.438400
   6559   6558   6570     1   109.5600471 388.275200
   6559   6558   6560     1   108.4600466 328.025600
   6560   6558   6570     1   109.5600471 388.275200
   6561   6564   6565     1   109.8000471 387.438400
   6561   6564   6566     1   109.8000471 387.438400
   6562   6561   6564     1   109.5600471 388.275200
   6562   6561   6563     1   108.4600466 328.025600
   6563   6561   6564     1   109.5600471 388.275200
   6564   6573   6574     1   109.5600471 388.275200
   6564   6573   6575     1   109.5600471 388.275200
   6565   6564   6573     1   109.8000471 387.438400
   6565   6564   6566     1   107.5800459 329.699200
   6566   6564   6573     1   109.8000471 387.438400
   6567   6579   6580     1   109.5600471 388.275200
   6567   6579   6581     1   109.5600471 388.275200
   6568   6567   6579     1   109.8000471 387.438400
   6568   6567   6569     1   107.5800459 329.699200
   6569   6567   6579     1   109.8000471 387.438400
   6570   6576   6577     1   109.5600471 388.275200
   6570   6576   6578     1   109.5600471 388.275200
   6571   6570   6576     1   109.8000471 387.438400
   6571   6570   6572     1   107.5800459 329.699200
   6572   6570   6576     1   109.8000471 387.438400
   6574   6573   6582     1   109.7800468 425.094400
   6574   6573   6575     1   108.4600466 328.025600
   6575   6573   6582     1   109.7800468 425.094400
   6577   6576  12744     1   109.7800468 425.094400
   6577   6576   6578     1   108.4600466 328.025600
   6578   6576  12744     1   109.7800468 425.094400
   6580   6579  12767     1   109.7800468 425.094400
   6580   6579   6581     1   108.4600466 328.025600
   6581   6579  12767     1   109.7800468 425.094400
   6583   6584   6585     1   109.8800469 414.216000
   6583   6584   6586     1   109.8800469 414.216000
   6583   6587   6588     1   109.8800469 414.216000
   6583   6587   6589     1   109.8800469 414.216000
   6583   6590   6591     1   109.8800469 414.216000
   6583   6590   6592     1   109.8800469 414.216000
   6584   6596   6597     1   109.8000471 387.438400
   6584   6596   6598     1   109.8000471 387.438400
   6585   6584   6596     1   109.5600471 388.275200
   6585   6584   6586     1   108.4600466 328.025600
   6586   6584   6596     1   109.5600471 388.275200
   6587   6599   6600     1   109.8000471 387.438400
   6587   6599   6601     1   109.8000471 387.438400
   6588   6587   6599     1   109.5600471 388.275200
   6588   6587   6589     1   108.4600466 328.025600
   6589   6587   6599     1   109.5600471 388.275200
   6590   6593   6594     1   109.8000471 387.438400
   6590   6593   6595     1   109.8000471 387.438400
   6591   6590   6593     1   109.5600471 388.275200
   6591   6590   6592     1   108.4600466 328.025600
   6592   6590   6593     1   109.5600471 388.275200
   6593   6602   6603     1   109.5600471 388.275200
   6593   6602   6604     1   109.5600471 388.275200
   6594   6593   6602     1   109.8000471 387.438400
   6594   6593   6595     1   107.5800459 329.699200
   6595   6593   6602     1   109.8000471 387.438400
   6596   6608   6609     1   109.5600471 388.275200
   6596   6608   6610     1   109.5600471 388.275200
   6597   6596   6608     1   109.8000471 387.438400
   6597   6596   6598     1   107.5800459 329.699200
   6598   6596   6608     1   109.8000471 387.438400
   6599   6605   6606     1   109.5600471 388.275200
   6599   6605   6607     1   109.5600471 388.275200
   6600   6599   6605     1   109.8000471 387.438400
   6600   6599   6601     1   107.5800459 329.699200
   6601   6599   6605     1   109.8000471 387.438400
   6603   6602   6611     1   109.7800468 425.094400
   6603   6602   6604     1   108.4600466 328.025600
   6604   6602   6611     1   109.7800468 425.094400
   6606   6605  12790     1   109.7800468 425.094400
   6606   6605   6607     1   108.4600466 328.025600
   6607   6605  12790     1   109.7800468 425.094400
   6609   6608  12813     1   109.7800468 425.094400
   6609   6608   6610     1   108.4600466 328.025600
   6610   6608  12813     1   109.7800468 425.094400
   6612   6613   6614     1   109.8800469 414.216000
   6612   6613   6615     1   109.8800469 414.216000
   6612   6616   6617     1   109.8800469 414.216000
   6612   6616   6618     1   109.8800469 414.216000
   6612   6619   6620     1   109.8800469 414.216000
   6612   6619   6621     1   109.8800469 414.216000
   6613   6625   6626     1   109.8000471 387.438400
   6613   6625   6627     1   109.8000471 387.438400
   6614   6613   6625     1   109.5600471 388.275200
   6614   6613   6615     1   108.4600466 328.025600
   6615   6613   6625     1   109.5600471 388.275200
   6616   6628   6629     1   109.8000471 387.438400
   6616   6628   6630     1   109.8000471 387.438400
   6617   6616   6628     1   109.5600471 388.275200
   6617   6616   6618     1   108.4600466 328.025600
   6618   6616   6628     1   109.5600471 388.275200
   6619   6622   6623     1   109.8000471 387.438400
   6619   6622   6624     1   109.8000471 387.438400
   6620   6619   6622     1   109.5600471 388.275200
   6620   6619   6621     1   108.4600466 328.025600
   6621   6619   6622     1   109.5600471 388.275200
   6622   6631   6632     1   109.5600471 388.275200
   6622   6631   6633     1   109.5600471 388.275200
   6623   6622   6631     1   109.8000471 387.438400
   6623   6622   6624     1   107.5800459 329.699200
   6624   6622   6631     1   109.8000471 387.438400
   6625   6637   6638     1   109.5600471 388.275200
   6625   6637   6639     1   109.5600471 388.275200
   6626   6625   6637     1   109.8000471 387.438400
   6626   6625   6627     1   107.5800459 329.699200
   6627   6625   6637     1   109.8000471 387.438400
   6628   6634   6635     1   109.5600471 388.275200
   6628   6634   6636     1   109.5600471 388.275200
   6629   6628   6634     1   109.8000471 387.438400
   6629   6628   6630     1   107.5800459 329.699200
   6630   6628   6634     1   109.8000471 387.438400
   6632   6631   6640     1   109.7800468 425.094400
   6632   6631   6633     1   108.4600466 328.025600
   6633   6631   6640     1   109.7800468 425.094400
   6635   6634  12836     1   109.7800468 425.094400
   6635   6634   6636     1   108.4600466 328.025600
   6636   6634  12836     1   109.7800468 425.094400
   6638   6637  12859     1   109.7800468 425.094400
   6638   6637   6639     1   108.4600466 328.025600
   6639   6637  12859     1   109.7800468 425.094400
   6641   6642   6643     1   109.8800469 414.216000
   6641   6642   6644     1   109.8800469 414.216000
   6641   6645   6646     1   109.8800469 414.216000
   6641   6645   6647     1   109.8800469 414.216000
   6641   6648   6649     1   109.8800469 414.216000
   6641   6648   6650     1   109.8800469 414.216000
   6642   6654   6655     1   109.8000471 387.438400
   6642   6654   6656     1   109.8000471 387.438400
   6643   6642   6654     1   109.5600471 388.275200
   6643   6642   6644     1   108.4600466 328.025600
   6644   6642   6654     1   109.5600471 388.275200
   6645   6657   6658     1   109.8000471 387.438400
   6645   6657   6659     1   109.8000471 387.438400
   6646   6645   6657     1   109.5600471 388.275200
   6646   6645   6647     1   108.4600466 328.025600
   6647   6645   6657     1   109.5600471 388.275200
   6648   6651   6652     1   109.8000471 387.438400
   6648   6651   6653     1   109.8000471 387.438400
   6649   6648   6651     1   109.5600471 388.275200
   6649   6648   6650     1   108.4600466 328.025600
   6650   6648   6651     1   109.5600471 388.275200
   6651   6660   6661     1   109.5600471 388.275200
   6651   6660   6662     1   109.5600471 388.275200
   6652   6651   6660     1   109.8000471 387.438400
   6652   6651   6653     1   107.5800459 329.699200
   6653   6651   6660     1   109.8000471 387.438400
   6654   6666   6667     1   109.5600471 388.275200
   6654   6666   6668     1   109.5600471 388.275200
   6655   6654   6666     1   109.8000471 387.438400
   6655   6654   6656     1   107.5800459 329.699200
   6656   6654   6666     1   109.8000471 387.438400
   6657   6663   6664     1   109.5600471 388.275200
   6657   6663   6665     1   109.5600471 388.275200
   6658   6657   6663     1   109.8000471 387.438400
   6658   6657   6659     1   107.5800459 329.699200
   6659   6657   6663     1   109.8000471 387.438400
   6661   6660   6669     1   109.7800468 425.094400
   6661   6660   6662     1   108.4600466 328.025600
   6662   6660   6669     1   109.7800468 425.094400
   6664   6663  12882     1   109.7800468 425.094400
   6664   6663   6665     1   108.4600466 328.025600
   6665   6663  12882     1   109.7800468 425.094400
   6667   6666  12905     1   109.7800468 425.094400
   6667   6666   6668     1   108.4600466 328.025600
   6668   6666  12905     1   109.7800468 425.094400
   6670   6671   6672     1   109.8800469 414.216000
   6670   6671   6673     1   109.8800469 414.216000
   6670   6674   6675     1   109.8800469 414.216000
   6670   6674   6676     1   109.8800469 414.216000
   6670   6677   6678     1   109.8800469 414.216000
   6670   6677   6679     1   109.8800469 414.216000
   6671   6683   6684     1   109.8000471 387.438400
   6671   6683   6685     1   109.8000471 387.438400
   6672   6671   6683     1   109.5600471 388.275200
   6672   6671   6673     1   108.4600466 328.025600
   6673   6671   6683     1   109.5600471 388.275200
   6674   6686   6687     1   109.8000471 387.438400
   6674   6686   6688     1   109.8000471 387.438400
   6675   6674   6686     1   109.5600471 388.275200
   6675   6674   6676     1   108.4600466 328.025600
   6676   6674   6686     1   109.5600471 388.275200
   6677   6680   6681     1   109.8000471 387.438400
   6677   6680   6682     1   109.8000471 387.438400
   6678   6677   6680     1   109.5600471 388.275200
   6678   6677   6679     1   108.4600466 328.025600
   6679   6677   6680     1   109.5600471 388.275200
   6680   6689   6690     1   109.5600471 388.275200
   6680   6689   6691     1   109.5600471 388.275200
   6681   6680   6689     1   109.8000471 387.438400
   6681   6680   6682     1   107.5800459 329.699200
   6682   6680   6689     1   109.8000471 387.438400
   6683   6695   6696     1   109.5600471 388.275200
   6683   6695   6697     1   109.5600471 388.275200
   6684   6683   6695     1   109.8000471 387.438400
   6684   6683   6685     1   107.5800459 329.699200
   6685   6683   6695     1   109.8000471 387.438400
   6686   6692   6693     1   109.5600471 388.275200
   6686   6692   6694     1   109.5600471 388.275200
   6687   6686   6692     1   109.8000471 387.438400
   6687   6686   6688     1   107.5800459 329.699200
   6688   6686   6692     1   109.8000471 387.438400
   6690   6689   6698     1   109.7800468 425.094400
   6690   6689   6691     1   108.4600466 328.025600
   6691   6689   6698     1   109.7800468 425.094400
   6693   6692  12928     1   109.7800468 425.094400
   6693   6692   6694     1   108.4600466 328.025600
   6694   6692  12928     1   109.7800468 425.094400
   6696   6695  12951     1   109.7800468 425.094400
   6696   6695   6697     1   108.4600466 328.025600
   6697   6695  12951     1   109.7800468 425.094400
   6699   6700   6701     1   109.8800469 414.216000
   6699   6700   6702     1   109.8800469 414.216000
   6699   6703   6704     1   109.8800469 414.216000
   6699   6703   6705     1   109.8800469 414.216000
   6699   6706   6707     1   109.8800469 414.216000
   6699   6706   6708     1   109.8800469 414.216000
   6700   6712   6713     1   109.8000471 387.438400
   6700   6712   6714     1   109.8000471 387.438400
   6701   6700   6712     1   109.5600471 388.275200
   6701   6700   6702     1   108.4600466 328.025600
   6702   6700   6712     1   109.5600471 388.275200
   6703   6715   6716     1   109.8000471 387.438400
   6703   6715   6717     1   109.8000471 387.438400
   6704   6703   6715     1   109.5600471 388.275200
   6704   6703   6705     1   108.4600466 328.025600
   6705   6703   6715     1   109.5600471 388.275200
   6706   6709   6710     1   109.8000471 387.438400
   6706   6709   6711     1   109.8000471 387.438400
   6707   6706   6709     1   109.5600471 388.275200
   6707   6706   6708     1   108.4600466 328.025600
   6708   6706   6709     1   109.5600471 388.275200
   6709   6718   6719     1   109.5600471 388.275200
   6709   6718   6720     1   109.5600471 388.275200
   6710   6709   6718     1   109.8000471 387.438400
   6710   6709   6711     1   107.5800459 329.699200
   6711   6709   6718     1   109.8000471 387.438400
   6712   6724   6725     1   109.5600471 388.275200
   6712   6724   6726     1   109.5600471 388.275200
   6713   6712   6724     1   109.8000471 387.438400
   6713   6712   6714     1   107.5800459 329.699200
   6714   6712   6724     1   109.8000471 387.438400
   6715   6721   6722     1   109.5600471 388.275200
   6715   6721   6723     1   109.5600471 388.275200
   6716   6715   6721     1   109.8000471 387.438400
   6716   6715   6717     1   107.5800459 329.699200
   6717   6715   6721     1   109.8000471 387.438400
   6719   6718   6727     1   109.7800468 425.094400
   6719   6718   6720     1   108.4600466 328.025600
   6720   6718   6727     1   109.7800468 425.094400
   6722   6721  12974     1   109.7800468 425.094400
   6722   6721   6723     1   108.4600466 328.025600
   6723   6721  12974     1   109.7800468 425.094400
   6725   6724  12997     1   109.7800468 425.094400
   6725   6724   6726     1   108.4600466 328.025600
   6726   6724  12997     1   109.7800468 425.094400
   6728   6729   6730     1   109.8800469 414.216000
   6728   6729   6731     1   109.8800469 414.216000
   6728   6732   6733     1   109.8800469 414.216000
   6728   6732   6734     1   109.8800469 414.216000
   6728   6735   6736     1   109.8800469 414.216000
   6728   6735   6737     1   109.8800469 414.216000
   6729   6741   6742     1   109.8000471 387.438400
   6729   6741   6743     1   109.8000471 387.438400
   6730   6729   6741     1   109.5600471 388.275200
   6730   6729   6731     1   108.4600466 328.025600
   6731   6729   6741     1   109.5600471 388.275200
   6732   6744   6745     1   109.8000471 387.438400
   6732   6744   6746     1   109.8000471 387.438400
   6733   6732   6744     1   109.5600471 388.275200
   6733   6732   6734     1   108.4600466 328.025600
   6734   6732   6744     1   109.5600471 388.275200
   6735   6738   6739     1   109.8000471 387.438400
   6735   6738   6740     1   109.8000471 387.438400
   6736   6735   6738     1   109.5600471 388.275200
   6736   6735   6737     1   108.4600466 328.025600
   6737   6735   6738     1   109.5600471 388.275200
   6738   6747   6748     1   109.5600471 388.275200
   6738   6747   6749     1   109.5600471 388.275200
   6739   6738   6747     1   109.8000471 387.438400
   6739   6738   6740     1   107.5800459 329.699200
   6740   6738   6747     1   109.8000471 387.438400
   6741   6753   6754     1   109.5600471 388.275200
   6741   6753   6755     1   109.5600471 388.275200
   6742   6741   6753     1   109.8000471 387.438400
   6742   6741   6743     1   107.5800459 329.699200
   6743   6741   6753     1   109.8000471 387.438400
   6744   6750   6751     1   109.5600471 388.275200
   6744   6750   6752     1   109.5600471 388.275200
   6745   6744   6750     1   109.8000471 387.438400
   6745   6744   6746     1   107.5800459 329.699200
   6746   6744   6750     1   109.8000471 387.438400
   6748   6747   6756     1   109.7800468 425.094400
   6748   6747   6749     1   108.4600466 328.025600
   6749   6747   6756     1   109.7800468 425.094400
   6751   6750  13020     1   109.7800468 425.094400
   6751   6750   6752     1   108.4600466 328.025600
   6752   6750  13020     1   109.7800468 425.094400
   6754   6753  13043     1   109.7800468 425.094400
   6754   6753   6755     1   108.4600466 328.025600
   6755   6753  13043     1   109.7800468 425.094400
   6757   6758   6759     1   109.8800469 414.216000
   6757   6758   6760     1   109.8800469 414.216000
   6757   6761   6762     1   109.8800469 414.216000
   6757   6761   6763     1   109.8800469 414.216000
   6757   6764   6765     1   109.8800469 414.216000
   6757   6764   6766     1   109.8800469 414.216000
   6758   6770   6771     1   109.8000471 387.438400
   6758   6770   6772     1   109.8000471 387.438400
   6759   6758   6770     1   109.5600471 388.275200
   6759   6758   6760     1   108.4600466 328.025600
   6760   6758   6770     1   109.5600471 388.275200
   6761   6773   6774     1   109.8000471 387.438400
   6761   6773   6775     1   109.8000471 387.438400
   6762   6761   6773     1   109.5600471 388.275200
   6762   6761   6763     1   108.4600466 328.025600
   6763   6761   6773     1   109.5600471 388.275200
   6764   6767   6768     1   109.8000471 387.438400
   6764   6767   6769     1   109.8000471 387.438400
   6765   6764   6767     1   109.5600471 388.275200
   6765   6764   6766     1   108.4600466 328.025600
   6766   6764   6767     1   109.5600471 388.275200
   6767   6776   6777     1   109.5600471 388.275200
   6767   6776   6778     1   109.5600471 388.275200
   6768   6767   6776     1   109.8000471 387.438400
   6768   6767   6769     1   107.5800459 329.699200
   6769   6767   6776     1   109.8000471 387.438400
   6770   6782   6783     1   109.5600471 388.275200
   6770   6782   6784     1   109.5600471 388.275200
   6771   6770   6782     1   109.8000471 387.438400
   6771   6770   6772     1   107.5800459 329.699200
   6772   6770   6782     1   109.8000471 387.438400
   6773   6779   6780     1   109.5600471 388.275200
   6773   6779   6781     1   109.5600471 388.275200
   6774   6773   6779     1   109.8000471 387.438400
   6774   6773   6775     1   107.5800459 329.699200
   6775   6773   6779     1   109.8000471 387.438400
   6777   6776   6785     1   109.7800468 425.094400
   6777   6776   6778     1   108.4600466 328.025600
   6778   6776   6785     1   109.7800468 425.094400
   6780   6779  13066     1   109.7800468 425.094400
   6780   6779   6781     1   108.4600466 328.025600
   6781   6779  13066     1   109.7800468 425.094400
   6783   6782  13089     1   109.7800468 425.094400
   6783   6782   6784     1   108.4600466 328.025600
   6784   6782  13089     1   109.7800468 425.094400
   6786   6787   6788     1   109.8800469 414.216000
   6786   6787   6789     1   109.8800469 414.216000
   6786   6790   6791     1   109.8800469 414.216000
   6786   6790   6792     1   109.8800469 414.216000
   6786   6793   6794     1   109.8800469 414.216000
   6786   6793   6795     1   109.8800469 414.216000
   6787   6799   6800     1   109.8000471 387.438400
   6787   6799   6801     1   109.8000471 387.438400
   6788   6787   6799     1   109.5600471 388.275200
   6788   6787   6789     1   108.4600466 328.025600
   6789   6787   6799     1   109.5600471 388.275200
   6790   6802   6803     1   109.8000471 387.438400
   6790   6802   6804     1   109.8000471 387.438400
   6791   6790   6802     1   109.5600471 388.275200
   6791   6790   6792     1   108.4600466 328.025600
   6792   6790   6802     1   109.5600471 388.275200
   6793   6796   6797     1   109.8000471 387.438400
   6793   6796   6798     1   109.8000471 387.438400
   6794   6793   6796     1   109.5600471 388.275200
   6794   6793   6795     1   108.4600466 328.025600
   6795   6793   6796     1   109.5600471 388.275200
   6796   6805   6806     1   109.5600471 388.275200
   6796   6805   6807     1   109.5600471 388.275200
   6797   6796   6805     1   109.8000471 387.438400
   6797   6796   6798     1   107.5800459 329.699200
   6798   6796   6805     1   109.8000471 387.438400
   6799   6811   6812     1   109.5600471 388.275200
   6799   6811   6813     1   109.5600471 388.275200
   6800   6799   6811     1   109.8000471 387.438400
   6800   6799   6801     1   107.5800459 329.699200
   6801   6799   6811     1   109.8000471 387.438400
   6802   6808   6809     1   109.5600471 388.275200
   6802   6808   6810     1   109.5600471 388.275200
   6803   6802   6808     1   109.8000471 387.438400
   6803   6802   6804     1   107.5800459 329.699200
   6804   6802   6808     1   109.8000471 387.438400
   6806   6805   6814     1   109.7800468 425.094400
   6806   6805   6807     1   108.4600466 328.025600
   6807   6805   6814     1   109.7800468 425.094400
   6809   6808  13112     1   109.7800468 425.094400
   6809   6808   6810     1   108.4600466 328.025600
   6810   6808  13112     1   109.7800468 425.094400
   6812   6811  13135     1   109.7800468 425.094400
   6812   6811   6813     1   108.4600466 328.025600
   6813   6811  13135     1   109.7800468 425.094400
   6815   6816   6817     1   109.8800469 414.216000
   6815   6816   6818     1   109.8800469 414.216000
   6815   6819   6820     1   109.8800469 414.216000
   6815   6819   6821     1   109.8800469 414.216000
   6815   6822   6823     1   109.8800469 414.216000
   6815   6822   6824     1   109.8800469 414.216000
   6816   6828   6829     1   109.8000471 387.438400
   6816   6828   6830     1   109.8000471 387.438400
   6817   6816   6828     1   109.5600471 388.275200
   6817   6816   6818     1   108.4600466 328.025600
   6818   6816   6828     1   109.5600471 388.275200
   6819   6831   6832     1   109.8000471 387.438400
   6819   6831   6833     1   109.8000471 387.438400
   6820   6819   6831     1   109.5600471 388.275200
   6820   6819   6821     1   108.4600466 328.025600
   6821   6819   6831     1   109.5600471 388.275200
   6822   6825   6826     1   109.8000471 387.438400
   6822   6825   6827     1   109.8000471 387.438400
   6823   6822   6825     1   109.5600471 388.275200
   6823   6822   6824     1   108.4600466 328.025600
   6824   6822   6825     1   109.5600471 388.275200
   6825   6834   6835     1   109.5600471 388.275200
   6825   6834   6836     1   109.5600471 388.275200
   6826   6825   6834     1   109.8000471 387.438400
   6826   6825   6827     1   107.5800459 329.699200
   6827   6825   6834     1   109.8000471 387.438400
   6828   6840   6841     1   109.5600471 388.275200
   6828   6840   6842     1   109.5600471 388.275200
   6829   6828   6840     1   109.8000471 387.438400
   6829   6828   6830     1   107.5800459 329.699200
   6830   6828   6840     1   109.8000471 387.438400
   6831   6837   6838     1   109.5600471 388.275200
   6831   6837   6839     1   109.5600471 388.275200
   6832   6831   6837     1   109.8000471 387.438400
   6832   6831   6833     1   107.5800459 329.699200
   6833   6831   6837     1   109.8000471 387.438400
   6835   6834   6843     1   109.7800468 425.094400
   6835   6834   6836     1   108.4600466 328.025600
   6836   6834   6843     1   109.7800468 425.094400
   6838   6837  13158     1   109.7800468 425.094400
   6838   6837   6839     1   108.4600466 328.025600
   6839   6837  13158     1   109.7800468 425.094400
   6841   6840  13181     1   109.7800468 425.094400
   6841   6840   6842     1   108.4600466 328.025600
   6842   6840  13181     1   109.7800468 425.094400
   6844   6845   6846     1   109.8800469 414.216000
   6844   6845   6847     1   109.8800469 414.216000
   6844   6848   6849     1   109.8800469 414.216000
   6844   6848   6850     1   109.8800469 414.216000
   6844   6851   6852     1   109.8800469 414.216000
   6844   6851   6853     1   109.8800469 414.216000
   6845   6857   6858     1   109.8000471 387.438400
   6845   6857   6859     1   109.8000471 387.438400
   6846   6845   6857     1   109.5600471 388.275200
   6846   6845   6847     1   108.4600466 328.025600
   6847   6845   6857     1   109.5600471 388.275200
   6848   6860   6861     1   109.8000471 387.438400
   6848   6860   6862     1   109.8000471 387.438400
   6849   6848   6860     1   109.5600471 388.275200
   6849   6848   6850     1   108.4600466 328.025600
   6850   6848   6860     1   109.5600471 388.275200
   6851   6854   6855     1   109.8000471 387.438400
   6851   6854   6856     1   109.8000471 387.438400
   6852   6851   6854     1   109.5600471 388.275200
   6852   6851   6853     1   108.4600466 328.025600
   6853   6851   6854     1   109.5600471 388.275200
   6854   6863   6864     1   109.5600471 388.275200
   6854   6863   6865     1   109.5600471 388.275200
   6855   6854   6863     1   109.8000471 387.438400
   6855   6854   6856     1   107.5800459 329.699200
   6856   6854   6863     1   109.8000471 387.438400
   6857   6869   6870     1   109.5600471 388.275200
   6857   6869   6871     1   109.5600471 388.275200
   6858   6857   6869     1   109.8000471 387.438400
   6858   6857   6859     1   107.5800459 329.699200
   6859   6857   6869     1   109.8000471 387.438400
   6860   6866   6867     1   109.5600471 388.275200
   6860   6866   6868     1   109.5600471 388.275200
   6861   6860   6866     1   109.8000471 387.438400
   6861   6860   6862     1   107.5800459 329.699200
   6862   6860   6866     1   109.8000471 387.438400
   6864   6863   6872     1   109.7800468 425.094400
   6864   6863   6865     1   108.4600466 328.025600
   6865   6863   6872     1   109.7800468 425.094400
   6867   6866  13204     1   109.7800468 425.094400
   6867   6866   6868     1   108.4600466 328.025600
   6868   6866  13204     1   109.7800468 425.094400
   6870   6869  13227     1   109.7800468 425.094400
   6870   6869   6871     1   108.4600466 328.025600
   6871   6869  13227     1   109.7800468 425.094400
   6873   6874   6875     1   109.8800469 414.216000
   6873   6874   6876     1   109.8800469 414.216000
   6873   6877   6878     1   109.8800469 414.216000
   6873   6877   6879     1   109.8800469 414.216000
   6873   6880   6881     1   109.8800469 414.216000
   6873   6880   6882     1   109.8800469 414.216000
   6874   6886   6887     1   109.8000471 387.438400
   6874   6886   6888     1   109.8000471 387.438400
   6875   6874   6886     1   109.5600471 388.275200
   6875   6874   6876     1   108.4600466 328.025600
   6876   6874   6886     1   109.5600471 388.275200
   6877   6889   6890     1   109.8000471 387.438400
   6877   6889   6891     1   109.8000471 387.438400
   6878   6877   6889     1   109.5600471 388.275200
   6878   6877   6879     1   108.4600466 328.025600
   6879   6877   6889     1   109.5600471 388.275200
   6880   6883   6884     1   109.8000471 387.438400
   6880   6883   6885     1   109.8000471 387.438400
   6881   6880   6883     1   109.5600471 388.275200
   6881   6880   6882     1   108.4600466 328.025600
   6882   6880   6883     1   109.5600471 388.275200
   6883   6892   6893     1   109.5600471 388.275200
   6883   6892   6894     1   109.5600471 388.275200
   6884   6883   6892     1   109.8000471 387.438400
   6884   6883   6885     1   107.5800459 329.699200
   6885   6883   6892     1   109.8000471 387.438400
   6886   6898   6899     1   109.5600471 388.275200
   6886   6898   6900     1   109.5600471 388.275200
   6887   6886   6898     1   109.8000471 387.438400
   6887   6886   6888     1   107.5800459 329.699200
   6888   6886   6898     1   109.8000471 387.438400
   6889   6895   6896     1   109.5600471 388.275200
   6889   6895   6897     1   109.5600471 388.275200
   6890   6889   6895     1   109.8000471 387.438400
   6890   6889   6891     1   107.5800459 329.699200
   6891   6889   6895     1   109.8000471 387.438400
   6893   6892   6901     1   109.7800468 425.094400
   6893   6892   6894     1   108.4600466 328.025600
   6894   6892   6901     1   109.7800468 425.094400
   6896   6895  13250     1   109.7800468 425.094400
   6896   6895   6897     1   108.4600466 328.025600
   6897   6895  13250     1   109.7800468 425.094400
   6899   6898  13273     1   109.7800468 425.094400
   6899   6898   6900     1   108.4600466 328.025600
   6900   6898  13273     1   109.7800468 425.094400
   6902   6903   6904     1   109.8800469 414.216000
   6902   6903   6905     1   109.8800469 414.216000
   6902   6906   6907     1   109.8800469 414.216000
   6902   6906   6908     1   109.8800469 414.216000
   6902   6909   6910     1   109.8800469 414.216000
   6902   6909   6911     1   109.8800469 414.216000
   6903   6915   6916     1   109.8000471 387.438400
   6903   6915   6917     1   109.8000471 387.438400
   6904   6903   6915     1   109.5600471 388.275200
   6904   6903   6905     1   108.4600466 328.025600
   6905   6903   6915     1   109.5600471 388.275200
   6906   6918   6919     1   109.8000471 387.438400
   6906   6918   6920     1   109.8000471 387.438400
   6907   6906   6918     1   109.5600471 388.275200
   6907   6906   6908     1   108.4600466 328.025600
   6908   6906   6918     1   109.5600471 388.275200
   6909   6912   6913     1   109.8000471 387.438400
   6909   6912   6914     1   109.8000471 387.438400
   6910   6909   6912     1   109.5600471 388.275200
   6910   6909   6911     1   108.4600466 328.025600
   6911   6909   6912     1   109.5600471 388.275200
   6912   6921   6922     1   109.5600471 388.275200
   6912   6921   6923     1   109.5600471 388.275200
   6913   6912   6921     1   109.8000471 387.438400
   6913   6912   6914     1   107.5800459 329.699200
   6914   6912   6921     1   109.8000471 387.438400
   6915   6927   6928     1   109.5600471 388.275200
   6915   6927   6929     1   109.5600471 388.275200
   6916   6915   6927     1   109.8000471 387.438400
   6916   6915   6917     1   107.5800459 329.699200
   6917   6915   6927     1   109.8000471 387.438400
   6918   6924   6925     1   109.5600471 388.275200
   6918   6924   6926     1   109.5600471 388.275200
   6919   6918   6924     1   109.8000471 387.438400
   6919   6918   6920     1   107.5800459 329.699200
   6920   6918   6924     1   109.8000471 387.438400
   6922   6921   6930     1   109.7800468 425.094400
   6922   6921   6923     1   108.4600466 328.025600
   6923   6921   6930     1   109.7800468 425.094400
   6925   6924  13296     1   109.7800468 425.094400
   6925   6924   6926     1   108.4600466 328.025600
   6926   6924  13296     1   109.7800468 425.094400
   6928   6927  13319     1   109.7800468 425.094400
   6928   6927   6929     1   108.4600466 328.025600
   6929   6927  13319     1   109.7800468 425.094400
   6931   6932   6933     1   109.8800469 414.216000
   6931   6932   6934     1   109.8800469 414.216000
   6931   6935   6936     1   109.8800469 414.216000
   6931   6935   6937     1   109.8800469 414.216000
   6931   6938   6939     1   109.8800469 414.216000
   6931   6938   6940     1   109.8800469 414.216000
   6932   6944   6945     1   109.8000471 387.438400
   6932   6944   6946     1   109.8000471 387.438400
   6933   6932   6944     1   109.5600471 388.275200
   6933   6932   6934     1   108.4600466 328.025600
   6934   6932   6944     1   109.5600471 388.275200
   6935   6947   6948     1   109.8000471 387.438400
   6935   6947   6949     1   109.8000471 387.438400
   6936   6935   6947     1   109.5600471 388.275200
   6936   6935   6937     1   108.4600466 328.025600
   6937   6935   6947     1   109.5600471 388.275200
   6938   6941   6942     1   109.8000471 387.438400
   6938   6941   6943     1   109.8000471 387.438400
   6939   6938   6941     1   109.5600471 388.275200
   6939   6938   6940     1   108.4600466 328.025600
   6940   6938   6941     1   109.5600471 388.275200
   6941   6950   6951     1   109.5600471 388.275200
   6941   6950   6952     1   109.5600471 388.275200
   6942   6941   6950     1   109.8000471 387.438400
   6942   6941   6943     1   107.5800459 329.699200
   6943   6941   6950     1   109.8000471 387.438400
   6944   6956   6957     1   109.5600471 388.275200
   6944   6956   6958     1   109.5600471 388.275200
   6945   6944   6956     1   109.8000471 387.438400
   6945   6944   6946     1   107.5800459 329.699200
   6946   6944   6956     1   109.8000471 387.438400
   6947   6953   6954     1   109.5600471 388.275200
   6947   6953   6955     1   109.5600471 388.275200
   6948   6947   6953     1   109.8000471 387.438400
   6948   6947   6949     1   107.5800459 329.699200
   6949   6947   6953     1   109.8000471 387.438400
   6951   6950   6959     1   109.7800468 425.094400
   6951   6950   6952     1   108.4600466 328.025600
   6952   6950   6959     1   109.7800468 425.094400
   6954   6953  13342     1   109.7800468 425.094400
   6954   6953   6955     1   108.4600466 328.025600
   6955   6953  13342     1   109.7800468 425.094400
   6957   6956  13365     1   109.7800468 425.094400
   6957   6956   6958     1   108.4600466 328.025600
   6958   6956  13365     1   109.7800468 425.094400
   6960   6961   6962     1   109.8800469 414.216000
   6960   6961   6963     1   109.8800469 414.216000
   6960   6964   6965     1   109.8800469 414.216000
   6960   6964   6966     1   109.8800469 414.216000
   6960   6967   6968     1   109.8800469 414.216000
   6960   6967   6969     1   109.8800469 414.216000
   6961   6973   6974     1   109.8000471 387.438400
   6961   6973   6975     1   109.8000471 387.438400
   6962   6961   6973     1   109.5600471 388.275200
   6962   6961   6963     1   108.4600466 328.025600
   6963   6961   6973     1   109.5600471 388.275200
   6964   6976   6977     1   109.8000471 387.438400
   6964   6976   6978     1   109.8000471 387.438400
   6965   6964   6976     1   109.5600471 388.275200
   6965   6964   6966     1   108.4600466 328.025600
   6966   6964   6976     1   109.5600471 388.275200
   6967   6970   6971     1   109.8000471 387.438400
   6967   6970   6972     1   109.8000471 387.438400
   6968   6967   6970     1   109.5600471 388.275200
   6968   6967   6969     1   108.4600466 328.025600
   6969   6967   6970     1   109.5600471 388.275200
   6970   6979   6980     1   109.5600471 388.275200
   6970   6979   6981     1   109.5600471 388.275200
   6971   6970   6979     1   109.8000471 387.438400
   6971   6970   6972     1   107.5800459 329.699200
   6972   6970   6979     1   109.8000471 387.438400
   6973   6985   6986     1   109.5600471 388.275200
   6973   6985   6987     1   109.5600471 388.275200
   6974   6973   6985     1   109.8000471 387.438400
   6974   6973   6975     1   107.5800459 329.699200
   6975   6973   6985     1   109.8000471 387.438400
   6976   6982   6983     1   109.5600471 388.275200
   6976   6982   6984     1   109.5600471 388.275200
   6977   6976   6982     1   109.8000471 387.438400
   6977   6976   6978     1   107.5800459 329.699200
   6978   6976   6982     1   109.8000471 387.438400
   6980   6979   6988     1   109.7800468 425.094400
   6980   6979   6981     1   108.4600466 328.025600
   6981   6979   6988     1   109.7800468 425.094400
   6983   6982  13388     1   109.7800468 425.094400
   6983   6982   6984     1   108.4600466 328.025600
   6984   6982  13388     1   109.7800468 425.094400
   6986   6985  13411     1   109.7800468 425.094400
   6986   6985   6987     1   108.4600466 328.025600
   6987   6985  13411     1   109.7800468 425.094400
   6989   6990   6991     1   109.8800469 414.216000
   6989   6990   6992     1   109.8800469 414.216000
   6989   6993   6994     1   109.8800469 414.216000
   6989   6993   6995     1   109.8800469 414.216000
   6989   6996   6997     1   109.8800469 414.216000
   6989   6996   6998     1   109.8800469 414.216000
   6990   7002   7003     1   109.8000471 387.438400
   6990   7002   7004     1   109.8000471 387.438400
   6991   6990   7002     1   109.5600471 388.275200
   6991   6990   6992     1   108.4600466 328.025600
   6992   6990   7002     1   109.5600471 388.275200
   6993   7005   7006     1   109.8000471 387.438400
   6993   7005   7007     1   109.8000471 387.438400
   6994   6993   7005     1   109.5600471 388.275200
   6994   6993   6995     1   108.4600466 328.025600
   6995   6993   7005     1   109.5600471 388.275200
   6996   6999   7000     1   109.8000471 387.438400
   6996   6999   7001     1   109.8000471 387.438400
   6997   6996   6999     1   109.5600471 388.275200
   6997   6996   6998     1   108.4600466 328.025600
   6998   6996   6999     1   109.5600471 388.275200
   6999   7008   7009     1   109.5600471 388.275200
   6999   7008   7010     1   109.5600471 388.275200
   7000   6999   7008     1   109.8000471 387.438400
   7000   6999   7001     1   107.5800459 329.699200
   7001   6999   7008     1   109.8000471 387.438400
   7002   7014   7015     1   109.5600471 388.275200
   7002   7014   7016     1   109.5600471 388.275200
   7003   7002   7014     1   109.8000471 387.438400
   7003   7002   7004     1   107.5800459 329.699200
   7004   7002   7014     1   109.8000471 387.438400
   7005   7011   7012     1   109.5600471 388.275200
   7005   7011   7013     1   109.5600471 388.275200
   7006   7005   7011     1   109.8000471 387.438400
   7006   7005   7007     1   107.5800459 329.699200
   7007   7005   7011     1   109.8000471 387.438400
   7009   7008   7017     1   109.7800468 425.094400
   7009   7008   7010     1   108.4600466 328.025600
   7010   7008   7017     1   109.7800468 425.094400
   7012   7011  13434     1   109.7800468 425.094400
   7012   7011   7013     1   108.4600466 328.025600
   7013   7011  13434     1   109.7800468 425.094400
   7015   7014  13457     1   109.7800468 425.094400
   7015   7014   7016     1   108.4600466 328.025600
   7016   7014  13457     1   109.7800468 425.094400
   7018   7019   7020     1   109.8800469 414.216000
   7018   7019   7021     1   109.8800469 414.216000
   7018   7022   7023     1   109.8800469 414.216000
   7018   7022   7024     1   109.8800469 414.216000
   7018   7025   7026     1   109.8800469 414.216000
   7018   7025   7027     1   109.8800469 414.216000
   7019   7031   7032     1   109.8000471 387.438400
   7019   7031   7033     1   109.8000471 387.438400
   7020   7019   7031     1   109.5600471 388.275200
   7020   7019   7021     1   108.4600466 328.025600
   7021   7019   7031     1   109.5600471 388.275200
   7022   7034   7035     1   109.8000471 387.438400
   7022   7034   7036     1   109.8000471 387.438400
   7023   7022   7034     1   109.5600471 388.275200
   7023   7022   7024     1   108.4600466 328.025600
   7024   7022   7034     1   109.5600471 388.275200
   7025   7028   7029     1   109.8000471 387.438400
   7025   7028   7030     1   109.8000471 387.438400
   7026   7025   7028     1   109.5600471 388.275200
   7026   7025   7027     1   108.4600466 328.025600
   7027   7025   7028     1   109.5600471 388.275200
   7028   7037   7038     1   109.5600471 388.275200
   7028   7037   7039     1   109.5600471 388.275200
   7029   7028   7037     1   109.8000471 387.438400
   7029   7028   7030     1   107.5800459 329.699200
   7030   7028   7037     1   109.8000471 387.438400
   7031   7043   7044     1   109.5600471 388.275200
   7031   7043   7045     1   109.5600471 388.275200
   7032   7031   7043     1   109.8000471 387.438400
   7032   7031   7033     1   107.5800459 329.699200
   7033   7031   7043     1   109.8000471 387.438400
   7034   7040   7041     1   109.5600471 388.275200
   7034   7040   7042     1   109.5600471 388.275200
   7035   7034   7040     1   109.8000471 387.438400
   7035   7034   7036     1   107.5800459 329.699200
   7036   7034   7040     1   109.8000471 387.438400
   7038   7037   7046     1   109.7800468 425.094400
   7038   7037   7039     1   108.4600466 328.025600
   7039   7037   7046     1   109.7800468 425.094400
   7041   7040  13480     1   109.7800468 425.094400
   7041   7040   7042     1   108.4600466 328.025600
   7042   7040  13480     1   109.7800468 425.094400
   7044   7043  13503     1   109.7800468 425.094400
   7044   7043   7045     1   108.4600466 328.025600
   7045   7043  13503     1   109.7800468 425.094400
   7047   7048   7049     1   109.8800469 414.216000
   7047   7048   7050     1   109.8800469 414.216000
   7047   7051   7052     1   109.8800469 414.216000
   7047   7051   7053     1   109.8800469 414.216000
   7047   7054   7055     1   109.8800469 414.216000
   7047   7054   7056     1   109.8800469 414.216000
   7048   7060   7061     1   109.8000471 387.438400
   7048   7060   7062     1   109.8000471 387.438400
   7049   7048   7060     1   109.5600471 388.275200
   7049   7048   7050     1   108.4600466 328.025600
   7050   7048   7060     1   109.5600471 388.275200
   7051   7063   7064     1   109.8000471 387.438400
   7051   7063   7065     1   109.8000471 387.438400
   7052   7051   7063     1   109.5600471 388.275200
   7052   7051   7053     1   108.4600466 328.025600
   7053   7051   7063     1   109.5600471 388.275200
   7054   7057   7058     1   109.8000471 387.438400
   7054   7057   7059     1   109.8000471 387.438400
   7055   7054   7057     1   109.5600471 388.275200
   7055   7054   7056     1   108.4600466 328.025600
   7056   7054   7057     1   109.5600471 388.275200
   7057   7066   7067     1   109.5600471 388.275200
   7057   7066   7068     1   109.5600471 388.275200
   7058   7057   7066     1   109.8000471 387.438400
   7058   7057   7059     1   107.5800459 329.699200
   7059   7057   7066     1   109.8000471 387.438400
   7060   7072   7073     1   109.5600471 388.275200
   7060   7072   7074     1   109.5600471 388.275200
   7061   7060   7072     1   109.8000471 387.438400
   7061   7060   7062     1   107.5800459 329.699200
   7062   7060   7072     1   109.8000471 387.438400
   7063   7069   7070     1   109.5600471 388.275200
   7063   7069   7071     1   109.5600471 388.275200
   7064   7063   7069     1   109.8000471 387.438400
   7064   7063   7065     1   107.5800459 329.699200
   7065   7063   7069     1   109.8000471 387.438400
   7067   7066   7075     1   109.7800468 425.094400
   7067   7066   7068     1   108.4600466 328.025600
   7068   7066   7075     1   109.7800468 425.094400
   7070   7069  13526     1   109.7800468 425.094400
   7070   7069   7071     1   108.4600466 328.025600
   7071   7069  13526     1   109.7800468 425.094400
   7073   7072  13549     1   109.7800468 425.094400
   7073   7072   7074     1   108.4600466 328.025600
   7074   7072  13549     1   109.7800468 425.094400
   7076   7077   7078     1   109.8800469 414.216000
   7076   7077   7079     1   109.8800469 414.216000
   7076   7080   7081     1   109.8800469 414.216000
   7076   7080   7082     1   109.8800469 414.216000
   7076   7083   7084     1   109.8800469 414.216000
   7076   7083   7085     1   109.8800469 414.216000
   7077   7089   7090     1   109.8000471 387.438400
   7077   7089   7091     1   109.8000471 387.438400
   7078   7077   7089     1   109.5600471 388.275200
   7078   7077   7079     1   108.4600466 328.025600
   7079   7077   7089     1   109.5600471 388.275200
   7080   7092   7093     1   109.8000471 387.438400
   7080   7092   7094     1   109.8000471 387.438400
   7081   7080   7092     1   109.5600471 388.275200
   7081   7080   7082     1   108.4600466 328.025600
   7082   7080   7092     1   109.5600471 388.275200
   7083   7086   7087     1   109.8000471 387.438400
   7083   7086   7088     1   109.8000471 387.438400
   7084   7083   7086     1   109.5600471 388.275200
   7084   7083   7085     1   108.4600466 328.025600
   7085   7083   7086     1   109.5600471 388.275200
   7086   7095   7096     1   109.5600471 388.275200
   7086   7095   7097     1   109.5600471 388.275200
   7087   7086   7095     1   109.8000471 387.438400
   7087   7086   7088     1   107.5800459 329.699200
   7088   7086   7095     1   109.8000471 387.438400
   7089   7101   7102     1   109.5600471 388.275200
   7089   7101   7103     1   109.5600471 388.275200
   7090   7089   7101     1   109.8000471 387.438400
   7090   7089   7091     1   107.5800459 329.699200
   7091   7089   7101     1   109.8000471 387.438400
   7092   7098   7099     1   109.5600471 388.275200
   7092   7098   7100     1   109.5600471 388.275200
   7093   7092   7098     1   109.8000471 387.438400
   7093   7092   7094     1   107.5800459 329.699200
   7094   7092   7098     1   109.8000471 387.438400
   7096   7095   7104     1   109.7800468 425.094400
   7096   7095   7097     1   108.4600466 328.025600
   7097   7095   7104     1   109.7800468 425.094400
   7099   7098  13572     1   109.7800468 425.094400
   7099   7098   7100     1   108.4600466 328.025600
   7100   7098  13572     1   109.7800468 425.094400
   7102   7101  13595     1   109.7800468 425.094400
   7102   7101   7103     1   108.4600466 328.025600
   7103   7101  13595     1   109.7800468 425.094400
   7105   7106   7107     1   109.8800469 414.216000
   7105   7106   7108     1   109.8800469 414.216000
   7105   7109   7110     1   109.8800469 414.216000
   7105   7109   7111     1   109.8800469 414.216000
   7105   7112   7113     1   109.8800469 414.216000
   7105   7112   7114     1   109.8800469 414.216000
   7106   7118   7119     1   109.8000471 387.438400
   7106   7118   7120     1   109.8000471 387.438400
   7107   7106   7118     1   109.5600471 388.275200
   7107   7106   7108     1   108.4600466 328.025600
   7108   7106   7118     1   109.5600471 388.275200
   7109   7121   7122     1   109.8000471 387.438400
   7109   7121   7123     1   109.8000471 387.438400
   7110   7109   7121     1   109.5600471 388.275200
   7110   7109   7111     1   108.4600466 328.025600
   7111   7109   7121     1   109.5600471 388.275200
   7112   7115   7116     1   109.8000471 387.438400
   7112   7115   7117     1   109.8000471 387.438400
   7113   7112   7115     1   109.5600471 388.275200
   7113   7112   7114     1   108.4600466 328.025600
   7114   7112   7115     1   109.5600471 388.275200
   7115   7124   7125     1   109.5600471 388.275200
   7115   7124   7126     1   109.5600471 388.275200
   7116   7115   7124     1   109.8000471 387.438400
   7116   7115   7117     1   107.5800459 329.699200
   7117   7115   7124     1   109.8000471 387.438400
   7118   7130   7131     1   109.5600471 388.275200
   7118   7130   7132     1   109.5600471 388.275200
   7119   7118   7130     1   109.8000471 387.438400
   7119   7118   7120     1   107.5800459 329.699200
   7120   7118   7130     1   109.8000471 387.438400
   7121   7127   7128     1   109.5600471 388.275200
   7121   7127   7129     1   109.5600471 388.275200
   7122   7121   7127     1   109.8000471 387.438400
   7122   7121   7123     1   107.5800459 329.699200
   7123   7121   7127     1   109.8000471 387.438400
   7125   7124   7133     1   109.7800468 425.094400
   7125   7124   7126     1   108.4600466 328.025600
   7126   7124   7133     1   109.7800468 425.094400
   7128   7127  13618     1   109.7800468 425.094400
   7128   7127   7129     1   108.4600466 328.025600
   7129   7127  13618     1   109.7800468 425.094400
   7131   7130  13641     1   109.7800468 425.094400
   7131   7130   7132     1   108.4600466 328.025600
   7132   7130  13641     1   109.7800468 425.094400
   7134   7135   7136     1   109.8800469 414.216000
   7134   7135   7137     1   109.8800469 414.216000
   7134   7138   7139     1   109.8800469 414.216000
   7134   7138   7140     1   109.8800469 414.216000
   7134   7141   7142     1   109.8800469 414.216000
   7134   7141   7143     1   109.8800469 414.216000
   7135   7147   7148     1   109.8000471 387.438400
   7135   7147   7149     1   109.8000471 387.438400
   7136   7135   7147     1   109.5600471 388.275200
   7136   7135   7137     1   108.4600466 328.025600
   7137   7135   7147     1   109.5600471 388.275200
   7138   7150   7151     1   109.8000471 387.438400
   7138   7150   7152     1   109.8000471 387.438400
   7139   7138   7150     1   109.5600471 388.275200
   7139   7138   7140     1   108.4600466 328.025600
   7140   7138   7150     1   109.5600471 388.275200
   7141   7144   7145     1   109.8000471 387.438400
   7141   7144   7146     1   109.8000471 387.438400
   7142   7141   7144     1   109.5600471 388.275200
   7142   7141   7143     1   108.4600466 328.025600
   7143   7141   7144     1   109.5600471 388.275200
   7144   7153   7154     1   109.5600471 388.275200
   7144   7153   7155     1   109.5600471 388.275200
   7145   7144   7153     1   109.8000471 387.438400
   7145   7144   7146     1   107.5800459 329.699200
   7146   7144   7153     1   109.8000471 387.438400
   7147   7159   7160     1   109.5600471 388.275200
   7147   7159   7161     1   109.5600471 388.275200
   7148   7147   7159     1   109.8000471 387.438400
   7148   7147   7149     1   107.5800459 329.699200
   7149   7147   7159     1   109.8000471 387.438400
   7150   7156   7157     1   109.5600471 388.275200
   7150   7156   7158     1   109.5600471 388.275200
   7151   7150   7156     1   109.8000471 387.438400
   7151   7150   7152     1   107.5800459 329.699200
   7152   7150   7156     1   109.8000471 387.438400
   7154   7153   7162     1   109.7800468 425.094400
   7154   7153   7155     1   108.4600466 328.025600
   7155   7153   7162     1   109.7800468 425.094400
   7157   7156  13664     1   109.7800468 425.094400
   7157   7156   7158     1   108.4600466 328.025600
   7158   7156  13664     1   109.7800468 425.094400
   7160   7159  13687     1   109.7800468 425.094400
   7160   7159   7161     1   108.4600466 328.025600
   7161   7159  13687     1   109.7800468 425.094400
   7163   7164   7165     1   109.8800469 414.216000
   7163   7164   7166     1   109.8800469 414.216000
   7163   7167   7168     1   109.8800469 414.216000
   7163   7167   7169     1   109.8800469 414.216000
   7163   7170   7171     1   109.8800469 414.216000
   7163   7170   7172     1   109.8800469 414.216000
   7164   7176   7177     1   109.8000471 387.438400
   7164   7176   7178     1   109.8000471 387.438400
   7165   7164   7176     1   109.5600471 388.275200
   7165   7164   7166     1   108.4600466 328.025600
   7166   7164   7176     1   109.5600471 388.275200
   7167   7179   7180     1   109.8000471 387.438400
   7167   7179   7181     1   109.8000471 387.438400
   7168   7167   7179     1   109.5600471 388.275200
   7168   7167   7169     1   108.4600466 328.025600
   7169   7167   7179     1   109.5600471 388.275200
   7170   7173   7174     1   109.8000471 387.438400
   7170   7173   7175     1   109.8000471 387.438400
   7171   7170   7173     1   109.5600471 388.275200
   7171   7170   7172     1   108.4600466 328.025600
   7172   7170   7173     1   109.5600471 388.275200
   7173   7182   7183     1   109.5600471 388.275200
   7173   7182   7184     1   109.5600471 388.275200
   7174   7173   7182     1   109.8000471 387.438400
   7174   7173   7175     1   107.5800459 329.699200
   7175   7173   7182     1   109.8000471 387.438400
   7176   7188   7189     1   109.5600471 388.275200
   7176   7188   7190     1   109.5600471 388.275200
   7177   7176   7188     1   109.8000471 387.438400
   7177   7176   7178     1   107.5800459 329.699200
   7178   7176   7188     1   109.8000471 387.438400
   7179   7185   7186     1   109.5600471 388.275200
   7179   7185   7187     1   109.5600471 388.275200
   7180   7179   7185     1   109.8000471 387.438400
   7180   7179   7181     1   107.5800459 329.699200
   7181   7179   7185     1   109.8000471 387.438400
   7183   7182   7191     1   109.7800468 425.094400
   7183   7182   7184     1   108.4600466 328.025600
   7184   7182   7191     1   109.7800468 425.094400
   7186   7185  13710     1   109.7800468 425.094400
   7186   7185   7187     1   108.4600466 328.025600
   7187   7185  13710     1   109.7800468 425.094400
   7189   7188  13733     1   109.7800468 425.094400
   7189   7188   7190     1   108.4600466 328.025600
   7190   7188  13733     1   109.7800468 425.094400
   7192   7193   7194     1   109.8800469 414.216000
   7192   7193   7195     1   109.8800469 414.216000
   7192   7196   7197     1   109.8800469 414.216000
   7192   7196   7198     1   109.8800469 414.216000
   7192   7199   7200     1   109.8800469 414.216000
   7192   7199   7201     1   109.8800469 414.216000
   7193   7205   7206     1   109.8000471 387.438400
   7193   7205   7207     1   109.8000471 387.438400
   7194   7193   7205     1   109.5600471 388.275200
   7194   7193   7195     1   108.4600466 328.025600
   7195   7193   7205     1   109.5600471 388.275200
   7196   7208   7209     1   109.8000471 387.438400
   7196   7208   7210     1   109.8000471 387.438400
   7197   7196   7208     1   109.5600471 388.275200
   7197   7196   7198     1   108.4600466 328.025600
   7198   7196   7208     1   109.5600471 388.275200
   7199   7202   7203     1   109.8000471 387.438400
   7199   7202   7204     1   109.8000471 387.438400
   7200   7199   7202     1   109.5600471 388.275200
   7200   7199   7201     1   108.4600466 328.025600
   7201   7199   7202     1   109.5600471 388.275200
   7202   7211   7212     1   109.5600471 388.275200
   7202   7211   7213     1   109.5600471 388.275200
   7203   7202   7211     1   109.8000471 387.438400
   7203   7202   7204     1   107.5800459 329.699200
   7204   7202   7211     1   109.8000471 387.438400
   7205   7217   7218     1   109.5600471 388.275200
   7205   7217   7219     1   109.5600471 388.275200
   7206   7205   7217     1   109.8000471 387.438400
   7206   7205   7207     1   107.5800459 329.699200
   7207   7205   7217     1   109.8000471 387.438400
   7208   7214   7215     1   109.5600471 388.275200
   7208   7214   7216     1   109.5600471 388.275200
   7209   7208   7214     1   109.8000471 387.438400
   7209   7208   7210     1   107.5800459 329.699200
   7210   7208   7214     1   109.8000471 387.438400
   7212   7211   7220     1   109.7800468 425.094400
   7212   7211   7213     1   108.4600466 328.025600
   7213   7211   7220     1   109.7800468 425.094400
   7215   7214  13756     1   109.7800468 425.094400
   7215   7214   7216     1   108.4600466 328.025600
   7216   7214  13756     1   109.7800468 425.094400
   7218   7217  13779     1   109.7800468 425.094400
   7218   7217   7219     1   108.4600466 328.025600
   7219   7217  13779     1   109.7800468 425.094400
   7221   7222   7223     1   109.8800469 414.216000
   7221   7222   7224     1   109.8800469 414.216000
   7221   7225   7226     1   109.8800469 414.216000
   7221   7225   7227     1   109.8800469 414.216000
   7221   7228   7229     1   109.8800469 414.216000
   7221   7228   7230     1   109.8800469 414.216000
   7222   7234   7235     1   109.8000471 387.438400
   7222   7234   7236     1   109.8000471 387.438400
   7223   7222   7234     1   109.5600471 388.275200
   7223   7222   7224     1   108.4600466 328.025600
   7224   7222   7234     1   109.5600471 388.275200
   7225   7237   7238     1   109.8000471 387.438400
   7225   7237   7239     1   109.8000471 387.438400
   7226   7225   7237     1   109.5600471 388.275200
   7226   7225   7227     1   108.4600466 328.025600
   7227   7225   7237     1   109.5600471 388.275200
   7228   7231   7232     1   109.8000471 387.438400
   7228   7231   7233     1   109.8000471 387.438400
   7229   7228   7231     1   109.5600471 388.275200
   7229   7228   7230     1   108.4600466 328.025600
   7230   7228   7231     1   109.5600471 388.275200
   7231   7240   7241     1   109.5600471 388.275200
   7231   7240   7242     1   109.5600471 388.275200
   7232   7231   7240     1   109.8000471 387.438400
   7232   7231   7233     1   107.5800459 329.699200
   7233   7231   7240     1   109.8000471 387.438400
   7234   7246   7247     1   109.5600471 388.275200
   7234   7246   7248     1   109.5600471 388.275200
   7235   7234   7246     1   109.8000471 387.438400
   7235   7234   7236     1   107.5800459 329.699200
   7236   7234   7246     1   109.8000471 387.438400
   7237   7243   7244     1   109.5600471 388.275200
   7237   7243   7245     1   109.5600471 388.275200
   7238   7237   7243     1   109.8000471 387.438400
   7238   7237   7239     1   107.5800459 329.699200
   7239   7237   7243     1   109.8000471 387.438400
   7241   7240   7249     1   109.7800468 425.094400
   7241   7240   7242     1   108.4600466 328.025600
   7242   7240   7249     1   109.7800468 425.094400
   7244   7243  13802     1   109.7800468 425.094400
   7244   7243   7245     1   108.4600466 328.025600
   7245   7243  13802     1   109.7800468 425.094400
   7247   7246  13825     1   109.7800468 425.094400
   7247   7246   7248     1   108.4600466 328.025600
   7248   7246  13825     1   109.7800468 425.094400
   7250   7251   7252     1   109.8800469 414.216000
   7250   7251   7253     1   109.8800469 414.216000
   7250   7254   7255     1   109.8800469 414.216000
   7250   7254   7256     1   109.8800469 414.216000
   7250   7257   7258     1   109.8800469 414.216000
   7250   7257   7259     1   109.8800469 414.216000
   7251   7263   7264     1   109.8000471 387.438400
   7251   7263   7265     1   109.8000471 387.438400
   7252   7251   7263     1   109.5600471 388.275200
   7252   7251   7253     1   108.4600466 328.025600
   7253   7251   7263     1   109.5600471 388.275200
   7254   7266   7267     1   109.8000471 387.438400
   7254   7266   7268     1   109.8000471 387.438400
   7255   7254   7266     1   109.5600471 388.275200
   7255   7254   7256     1   108.4600466 328.025600
   7256   7254   7266     1   109.5600471 388.275200
   7257   7260   7261     1   109.8000471 387.438400
   7257   7260   7262     1   109.8000471 387.438400
   7258   7257   7260     1   109.5600471 388.275200
   7258   7257   7259     1   108.4600466 328.025600
   7259   7257   7260     1   109.5600471 388.275200
   7260   7269   7270     1   109.5600471 388.275200
   7260   7269   7271     1   109.5600471 388.275200
   7261   7260   7269     1   109.8000471 387.438400
   7261   7260   7262     1   107.5800459 329.699200
   7262   7260   7269     1   109.8000471 387.438400
   7263   7275   7276     1   109.5600471 388.275200
   7263   7275   7277     1   109.5600471 388.275200
   7264   7263   7275     1   109.8000471 387.438400
   7264   7263   7265     1   107.5800459 329.699200
   7265   7263   7275     1   109.8000471 387.438400
   7266   7272   7273     1   109.5600471 388.275200
   7266   7272   7274     1   109.5600471 388.275200
   7267   7266   7272     1   109.8000471 387.438400
   7267   7266   7268     1   107.5800459 329.699200
   7268   7266   7272     1   109.8000471 387.438400
   7270   7269   7278     1   109.7800468 425.094400
   7270   7269   7271     1   108.4600466 328.025600
   7271   7269   7278     1   109.7800468 425.094400
   7273   7272  13848     1   109.7800468 425.094400
   7273   7272   7274     1   108.4600466 328.025600
   7274   7272  13848     1   109.7800468 425.094400
   7276   7275  13871     1   109.7800468 425.094400
   7276   7275   7277     1   108.4600466 328.025600
   7277   7275  13871     1   109.7800468 425.094400
   7279   7280   7281     1   109.8800469 414.216000
   7279   7280   7282     1   109.8800469 414.216000
   7279   7283   7284     1   109.8800469 414.216000
   7279   7283   7285     1   109.8800469 414.216000
   7279   7286   7287     1   109.8800469 414.216000
   7279   7286   7288     1   109.8800469 414.216000
   7280   7292   7293     1   109.8000471 387.438400
   7280   7292   7294     1   109.8000471 387.438400
   7281   7280   7292     1   109.5600471 388.275200
   7281   7280   7282     1   108.4600466 328.025600
   7282   7280   7292     1   109.5600471 388.275200
   7283   7295   7296     1   109.8000471 387.438400
   7283   7295   7297     1   109.8000471 387.438400
   7284   7283   7295     1   109.5600471 388.275200
   7284   7283   7285     1   108.4600466 328.025600
   7285   7283   7295     1   109.5600471 388.275200
   7286   7289   7290     1   109.8000471 387.438400
   7286   7289   7291     1   109.8000471 387.438400
   7287   7286   7289     1   109.5600471 388.275200
   7287   7286   7288     1   108.4600466 328.025600
   7288   7286   7289     1   109.5600471 388.275200
   7289   7298   7299     1   109.5600471 388.275200
   7289   7298   7300     1   109.5600471 388.275200
   7290   7289   7298     1   109.8000471 387.438400
   7290   7289   7291     1   107.5800459 329.699200
   7291   7289   7298     1   109.8000471 387.438400
   7292   7304   7305     1   109.5600471 388.275200
   7292   7304   7306     1   109.5600471 388.275200
   7293   7292   7304     1   109.8000471 387.438400
   7293   7292   7294     1   107.5800459 329.699200
   7294   7292   7304     1   109.8000471 387.438400
   7295   7301   7302     1   109.5600471 388.275200
   7295   7301   7303     1   109.5600471 388.275200
   7296   7295   7301     1   109.8000471 387.438400
   7296   7295   7297     1   107.5800459 329.699200
   7297   7295   7301     1   109.8000471 387.438400
   7299   7298   7307     1   109.7800468 425.094400
   7299   7298   7300     1   108.4600466 328.025600
   7300   7298   7307     1   109.7800468 425.094400
   7302   7301  13894     1   109.7800468 425.094400
   7302   7301   7303     1   108.4600466 328.025600
   7303   7301  13894     1   109.7800468 425.094400
   7305   7304  13917     1   109.7800468 425.094400
   7305   7304   7306     1   108.4600466 328.025600
   7306   7304  13917     1   109.7800468 425.094400
   7308   7309   7310     1   109.8800469 414.216000
   7308   7309   7311     1   109.8800469 414.216000
   7308   7312   7313     1   109.8800469 414.216000
   7308   7312   7314     1   109.8800469 414.216000
   7308   7315   7316     1   109.8800469 414.216000
   7308   7315   7317     1   109.8800469 414.216000
   7309   7321   7322     1   109.8000471 387.438400
   7309   7321   7323     1   109.8000471 387.438400
   7310   7309   7321     1   109.5600471 388.275200
   7310   7309   7311     1   108.4600466 328.025600
   7311   7309   7321     1   109.5600471 388.275200
   7312   7324   7325     1   109.8000471 387.438400
   7312   7324   7326     1   109.8000471 387.438400
   7313   7312   7324     1   109.5600471 388.275200
   7313   7312   7314     1   108.4600466 328.025600
   7314   7312   7324     1   109.5600471 388.275200
   7315   7318   7319     1   109.8000471 387.438400
   7315   7318   7320     1   109.8000471 387.438400
   7316   7315   7318     1   109.5600471 388.275200
   7316   7315   7317     1   108.4600466 328.025600
   7317   7315   7318     1   109.5600471 388.275200
   7318   7327   7328     1   109.5600471 388.275200
   7318   7327   7329     1   109.5600471 388.275200
   7319   7318   7327     1   109.8000471 387.438400
   7319   7318   7320     1   107.5800459 329.699200
   7320   7318   7327     1   109.8000471 387.438400
   7321   7333   7334     1   109.5600471 388.275200
   7321   7333   7335     1   109.5600471 388.275200
   7322   7321   7333     1   109.8000471 387.438400
   7322   7321   7323     1   107.5800459 329.699200
   7323   7321   7333     1   109.8000471 387.438400
   7324   7330   7331     1   109.5600471 388.275200
   7324   7330   7332     1   109.5600471 388.275200
   7325   7324   7330     1   109.8000471 387.438400
   7325   7324   7326     1   107.5800459 329.699200
   7326   7324   7330     1   109.8000471 387.438400
   7328   7327   7336     1   109.7800468 425.094400
   7328   7327   7329     1   108.4600466 328.025600
   7329   7327   7336     1   109.7800468 425.094400
   7331   7330  13940     1   109.7800468 425.094400
   7331   7330   7332     1   108.4600466 328.025600
   7332   7330  13940     1   109.7800468 425.094400
   7334   7333  13963     1   109.7800468 425.094400
   7334   7333   7335     1   108.4600466 328.025600
   7335   7333  13963     1   109.7800468 425.094400
   7337   7338   7339     1   109.8800469 414.216000
   7337   7338   7340     1   109.8800469 414.216000
   7337   7341   7342     1   109.8800469 414.216000
   7337   7341   7343     1   109.8800469 414.216000
   7337   7344   7345     1   109.8800469 414.216000
   7337   7344   7346     1   109.8800469 414.216000
   7338   7350   7351     1   109.8000471 387.438400
   7338   7350   7352     1   109.8000471 387.438400
   7339   7338   7350     1   109.5600471 388.275200
   7339   7338   7340     1   108.4600466 328.025600
   7340   7338   7350     1   109.5600471 388.275200
   7341   7353   7354     1   109.8000471 387.438400
   7341   7353   7355     1   109.8000471 387.438400
   7342   7341   7353     1   109.5600471 388.275200
   7342   7341   7343     1   108.4600466 328.025600
   7343   7341   7353     1   109.5600471 388.275200
   7344   7347   7348     1   109.8000471 387.438400
   7344   7347   7349     1   109.8000471 387.438400
   7345   7344   7347     1   109.5600471 388.275200
   7345   7344   7346     1   108.4600466 328.025600
   7346   7344   7347     1   109.5600471 388.275200
   7347   7356   7357     1   109.5600471 388.275200
   7347   7356   7358     1   109.5600471 388.275200
   7348   7347   7356     1   109.8000471 387.438400
   7348   7347   7349     1   107.5800459 329.699200
   7349   7347   7356     1   109.8000471 387.438400
   7350   7362   7363     1   109.5600471 388.275200
   7350   7362   7364     1   109.5600471 388.275200
   7351   7350   7362     1   109.8000471 387.438400
   7351   7350   7352     1   107.5800459 329.699200
   7352   7350   7362     1   109.8000471 387.438400
   7353   7359   7360     1   109.5600471 388.275200
   7353   7359   7361     1   109.5600471 388.275200
   7354   7353   7359     1   109.8000471 387.438400
   7354   7353   7355     1   107.5800459 329.699200
   7355   7353   7359     1   109.8000471 387.438400
   7357   7356   7365     1   109.7800468 425.094400
   7357   7356   7358     1   108.4600466 328.025600
   7358   7356   7365     1   109.7800468 425.094400
   7360   7359  13986     1   109.7800468 425.094400
   7360   7359   7361     1   108.4600466 328.025600
   7361   7359  13986     1   109.7800468 425.094400
   7363   7362  14009     1   109.7800468 425.094400
   7363   7362   7364     1   108.4600466 328.025600
   7364   7362  14009     1   109.7800468 425.094400
   7366   7367   7368     1   109.8800469 414.216000
   7366   7367   7369     1   109.8800469 414.216000
   7366   7370   7371     1   109.8800469 414.216000
   7366   7370   7372     1   109.8800469 414.216000
   7366   7373   7374     1   109.8800469 414.216000
   7366   7373   7375     1   109.8800469 414.216000
   7367   7379   7380     1   109.8000471 387.438400
   7367   7379   7381     1   109.8000471 387.438400
   7368   7367   7379     1   109.5600471 388.275200
   7368   7367   7369     1   108.4600466 328.025600
   7369   7367   7379     1   109.5600471 388.275200
   7370   7382   7383     1   109.8000471 387.438400
   7370   7382   7384     1   109.8000471 387.438400
   7371   7370   7382     1   109.5600471 388.275200
   7371   7370   7372     1   108.4600466 328.025600
   7372   7370   7382     1   109.5600471 388.275200
   7373   7376   7377     1   109.8000471 387.438400
   7373   7376   7378     1   109.8000471 387.438400
   7374   7373   7376     1   109.5600471 388.275200
   7374   7373   7375     1   108.4600466 328.025600
   7375   7373   7376     1   109.5600471 388.275200
   7376   7385   7386     1   109.5600471 388.275200
   7376   7385   7387     1   109.5600471 388.275200
   7377   7376   7385     1   109.8000471 387.438400
   7377   7376   7378     1   107.5800459 329.699200
   7378   7376   7385     1   109.8000471 387.438400
   7379   7391   7392     1   109.5600471 388.275200
   7379   7391   7393     1   109.5600471 388.275200
   7380   7379   7391     1   109.8000471 387.438400
   7380   7379   7381     1   107.5800459 329.699200
   7381   7379   7391     1   109.8000471 387.438400
   7382   7388   7389     1   109.5600471 388.275200
   7382   7388   7390     1   109.5600471 388.275200
   7383   7382   7388     1   109.8000471 387.438400
   7383   7382   7384     1   107.5800459 329.699200
   7384   7382   7388     1   109.8000471 387.438400
   7386   7385   7394     1   109.7800468 425.094400
   7386   7385   7387     1   108.4600466 328.025600
   7387   7385   7394     1   109.7800468 425.094400
   7389   7388  14032     1   109.7800468 425.094400
   7389   7388   7390     1   108.4600466 328.025600
   7390   7388  14032     1   109.7800468 425.094400
   7392   7391  14055     1   109.7800468 425.094400
   7392   7391   7393     1   108.4600466 328.025600
   7393   7391  14055     1   109.7800468 425.094400
   7395   7396   7397     1   109.8800469 414.216000
   7395   7396   7398     1   109.8800469 414.216000
   7395   7399   7400     1   109.8800469 414.216000
   7395   7399   7401     1   109.8800469 414.216000
   7395   7402   7403     1   109.8800469 414.216000
   7395   7402   7404     1   109.8800469 414.216000
   7396   7408   7409     1   109.8000471 387.438400
   7396   7408   7410     1   109.8000471 387.438400
   7397   7396   7408     1   109.5600471 388.275200
   7397   7396   7398     1   108.4600466 328.025600
   7398   7396   7408     1   109.5600471 388.275200
   7399   7411   7412     1   109.8000471 387.438400
   7399   7411   7413     1   109.8000471 387.438400
   7400   7399   7411     1   109.5600471 388.275200
   7400   7399   7401     1   108.4600466 328.025600
   7401   7399   7411     1   109.5600471 388.275200
   7402   7405   7406     1   109.8000471 387.438400
   7402   7405   7407     1   109.8000471 387.438400
   7403   7402   7405     1   109.5600471 388.275200
   7403   7402   7404     1   108.4600466 328.025600
   7404   7402   7405     1   109.5600471 388.275200
   7405   7414   7415     1   109.5600471 388.275200
   7405   7414   7416     1   109.5600471 388.275200
   7406   7405   7414     1   109.8000471 387.438400
   7406   7405   7407     1   107.5800459 329.699200
   7407   7405   7414     1   109.8000471 387.438400
   7408   7420   7421     1   109.5600471 388.275200
   7408   7420   7422     1   109.5600471 388.275200
   7409   7408   7420     1   109.8000471 387.438400
   7409   7408   7410     1   107.5800459 329.699200
   7410   7408   7420     1   109.8000471 387.438400
   7411   7417   7418     1   109.5600471 388.275200
   7411   7417   7419     1   109.5600471 388.275200
   7412   7411   7417     1   109.8000471 387.438400
   7412   7411   7413     1   107.5800459 329.699200
   7413   7411   7417     1   109.8000471 387.438400
   7415   7414   7423     1   109.7800468 425.094400
   7415   7414   7416     1   108.4600466 328.025600
   7416   7414   7423     1   109.7800468 425.094400
   7418   7417  14078     1   109.7800468 425.094400
   7418   7417   7419     1   108.4600466 328.025600
   7419   7417  14078     1   109.7800468 425.094400
   7421   7420  14101     1   109.7800468 425.094400
   7421   7420   7422     1   108.4600466 328.025600
   7422   7420  14101     1   109.7800468 425.094400
   7424   7425   7426     1   109.8800469 414.216000
   7424   7425   7427     1   109.8800469 414.216000
   7424   7428   7429     1   109.8800469 414.216000
   7424   7428   7430     1   109.8800469 414.216000
   7424   7431   7432     1   109.8800469 414.216000
   7424   7431   7433     1   109.8800469 414.216000
   7425   7437   7438     1   109.8000471 387.438400
   7425   7437   7439     1   109.8000471 387.438400
   7426   7425   7437     1   109.5600471 388.275200
   7426   7425   7427     1   108.4600466 328.025600
   7427   7425   7437     1   109.5600471 388.275200
   7428   7440   7441     1   109.8000471 387.438400
   7428   7440   7442     1   109.8000471 387.438400
   7429   7428   7440     1   109.5600471 388.275200
   7429   7428   7430     1   108.4600466 328.025600
   7430   7428   7440     1   109.5600471 388.275200
   7431   7434   7435     1   109.8000471 387.438400
   7431   7434   7436     1   109.8000471 387.438400
   7432   7431   7434     1   109.5600471 388.275200
   7432   7431   7433     1   108.4600466 328.025600
   7433   7431   7434     1   109.5600471 388.275200
   7434   7443   7444     1   109.5600471 388.275200
   7434   7443   7445     1   109.5600471 388.275200
   7435   7434   7443     1   109.8000471 387.438400
   7435   7434   7436     1   107.5800459 329.699200
   7436   7434   7443     1   109.8000471 387.438400
   7437   7449   7450     1   109.5600471 388.275200
   7437   7449   7451     1   109.5600471 388.275200
   7438   7437   7449     1   109.8000471 387.438400
   7438   7437   7439     1   107.5800459 329.699200
   7439   7437   7449     1   109.8000471 387.438400
   7440   7446   7447     1   109.5600471 388.275200
   7440   7446   7448     1   109.5600471 388.275200
   7441   7440   7446     1   109.8000471 387.438400
   7441   7440   7442     1   107.5800459 329.699200
   7442   7440   7446     1   109.8000471 387.438400
   7444   7443   7452     1   109.7800468 425.094400
   7444   7443   7445     1   108.4600466 328.025600
   7445   7443   7452     1   109.7800468 425.094400
   7447   7446  14124     1   109.7800468 425.094400
   7447   7446   7448     1   108.4600466 328.025600
   7448   7446  14124     1   109.7800468 425.094400
   7450   7449  14147     1   109.7800468 425.094400
   7450   7449   7451     1   108.4600466 328.025600
   7451   7449  14147     1   109.7800468 425.094400
   7453   7454   7455     1   109.8800469 414.216000
   7453   7454   7456     1   109.8800469 414.216000
   7453   7457   7458     1   109.8800469 414.216000
   7453   7457   7459     1   109.8800469 414.216000
   7453   7460   7461     1   109.8800469 414.216000
   7453   7460   7462     1   109.8800469 414.216000
   7454   7466   7467     1   109.8000471 387.438400
   7454   7466   7468     1   109.8000471 387.438400
   7455   7454   7466     1   109.5600471 388.275200
   7455   7454   7456     1   108.4600466 328.025600
   7456   7454   7466     1   109.5600471 388.275200
   7457   7469   7470     1   109.8000471 387.438400
   7457   7469   7471     1   109.8000471 387.438400
   7458   7457   7469     1   109.5600471 388.275200
   7458   7457   7459     1   108.4600466 328.025600
   7459   7457   7469     1   109.5600471 388.275200
   7460   7463   7464     1   109.8000471 387.438400
   7460   7463   7465     1   109.8000471 387.438400
   7461   7460   7463     1   109.5600471 388.275200
   7461   7460   7462     1   108.4600466 328.025600
   7462   7460   7463     1   109.5600471 388.275200
   7463   7472   7473     1   109.5600471 388.275200
   7463   7472   7474     1   109.5600471 388.275200
   7464   7463   7472     1   109.8000471 387.438400
   7464   7463   7465     1   107.5800459 329.699200
   7465   7463   7472     1   109.8000471 387.438400
   7466   7478   7479     1   109.5600471 388.275200
   7466   7478   7480     1   109.5600471 388.275200
   7467   7466   7478     1   109.8000471 387.438400
   7467   7466   7468     1   107.5800459 329.699200
   7468   7466   7478     1   109.8000471 387.438400
   7469   7475   7476     1   109.5600471 388.275200
   7469   7475   7477     1   109.5600471 388.275200
   7470   7469   7475     1   109.8000471 387.438400
   7470   7469   7471     1   107.5800459 329.699200
   7471   7469   7475     1   109.8000471 387.438400
   7473   7472   7481     1   109.7800468 425.094400
   7473   7472   7474     1   108.4600466 328.025600
   7474   7472   7481     1   109.7800468 425.094400
   7476   7475  14170     1   109.7800468 425.094400
   7476   7475   7477     1   108.4600466 328.025600
   7477   7475  14170     1   109.7800468 425.094400
   7479   7478  14193     1   109.7800468 425.094400
   7479   7478   7480     1   108.4600466 328.025600
   7480   7478  14193     1   109.7800468 425.094400
   7482   7483   7484     1   109.8800469 414.216000
   7482   7483   7485     1   109.8800469 414.216000
   7482   7486   7487     1   109.8800469 414.216000
   7482   7486   7488     1   109.8800469 414.216000
   7482   7489   7490     1   109.8800469 414.216000
   7482   7489   7491     1   109.8800469 414.216000
   7483   7495   7496     1   109.8000471 387.438400
   7483   7495   7497     1   109.8000471 387.438400
   7484   7483   7495     1   109.5600471 388.275200
   7484   7483   7485     1   108.4600466 328.025600
   7485   7483   7495     1   109.5600471 388.275200
   7486   7498   7499     1   109.8000471 387.438400
   7486   7498   7500     1   109.8000471 387.438400
   7487   7486   7498     1   109.5600471 388.275200
   7487   7486   7488     1   108.4600466 328.025600
   7488   7486   7498     1   109.5600471 388.275200
   7489   7492   7493     1   109.8000471 387.438400
   7489   7492   7494     1   109.8000471 387.438400
   7490   7489   7492     1   109.5600471 388.275200
   7490   7489   7491     1   108.4600466 328.025600
   7491   7489   7492     1   109.5600471 388.275200
   7492   7501   7502     1   109.5600471 388.275200
   7492   7501   7503     1   109.5600471 388.275200
   7493   7492   7501     1   109.8000471 387.438400
   7493   7492   7494     1   107.5800459 329.699200
   7494   7492   7501     1   109.8000471 387.438400
   7495   7507   7508     1   109.5600471 388.275200
   7495   7507   7509     1   109.5600471 388.275200
   7496   7495   7507     1   109.8000471 387.438400
   7496   7495   7497     1   107.5800459 329.699200
   7497   7495   7507     1   109.8000471 387.438400
   7498   7504   7505     1   109.5600471 388.275200
   7498   7504   7506     1   109.5600471 388.275200
   7499   7498   7504     1   109.8000471 387.438400
   7499   7498   7500     1   107.5800459 329.699200
   7500   7498   7504     1   109.8000471 387.438400
   7502   7501   7510     1   109.7800468 425.094400
   7502   7501   7503     1   108.4600466 328.025600
   7503   7501   7510     1   109.7800468 425.094400
   7505   7504  14216     1   109.7800468 425.094400
   7505   7504   7506     1   108.4600466 328.025600
   7506   7504  14216     1   109.7800468 425.094400
   7508   7507  14239     1   109.7800468 425.094400
   7508   7507   7509     1   108.4600466 328.025600
   7509   7507  14239     1   109.7800468 425.094400
   7511   7512   7513     1   109.8800469 414.216000
   7511   7512   7514     1   109.8800469 414.216000
   7511   7515   7516     1   109.8800469 414.216000
   7511   7515   7517     1   109.8800469 414.216000
   7511   7518   7519     1   109.8800469 414.216000
   7511   7518   7520     1   109.8800469 414.216000
   7512   7524   7525     1   109.8000471 387.438400
   7512   7524   7526     1   109.8000471 387.438400
   7513   7512   7524     1   109.5600471 388.275200
   7513   7512   7514     1   108.4600466 328.025600
   7514   7512   7524     1   109.5600471 388.275200
   7515   7527   7528     1   109.8000471 387.438400
   7515   7527   7529     1   109.8000471 387.438400
   7516   7515   7527     1   109.5600471 388.275200
   7516   7515   7517     1   108.4600466 328.025600
   7517   7515   7527     1   109.5600471 388.275200
   7518   7521   7522     1   109.8000471 387.438400
   7518   7521   7523     1   109.8000471 387.438400
   7519   7518   7521     1   109.5600471 388.275200
   7519   7518   7520     1   108.4600466 328.025600
   7520   7518   7521     1   109.5600471 388.275200
   7521   7530   7531     1   109.5600471 388.275200
   7521   7530   7532     1   109.5600471 388.275200
   7522   7521   7530     1   109.8000471 387.438400
   7522   7521   7523     1   107.5800459 329.699200
   7523   7521   7530     1   109.8000471 387.438400
   7524   7536   7537     1   109.5600471 388.275200
   7524   7536   7538     1   109.5600471 388.275200
   7525   7524   7536     1   109.8000471 387.438400
   7525   7524   7526     1   107.5800459 329.699200
   7526   7524   7536     1   109.8000471 387.438400
   7527   7533   7534     1   109.5600471 388.275200
   7527   7533   7535     1   109.5600471 388.275200
   7528   7527   7533     1   109.8000471 387.438400
   7528   7527   7529     1   107.5800459 329.699200
   7529   7527   7533     1   109.8000471 387.438400
   7531   7530   7539     1   109.7800468 425.094400
   7531   7530   7532     1   108.4600466 328.025600
   7532   7530   7539     1   109.7800468 425.094400
   7534   7533  14262     1   109.7800468 425.094400
   7534   7533   7535     1   108.4600466 328.025600
   7535   7533  14262     1   109.7800468 425.094400
   7537   7536  14285     1   109.7800468 425.094400
   7537   7536   7538     1   108.4600466 328.025600
   7538   7536  14285     1   109.7800468 425.094400
   7540   7541   7542     1   109.8800469 414.216000
   7540   7541   7543     1   109.8800469 414.216000
   7540   7544   7545     1   109.8800469 414.216000
   7540   7544   7546     1   109.8800469 414.216000
   7540   7547   7548     1   109.8800469 414.216000
   7540   7547   7549     1   109.8800469 414.216000
   7541   7553   7554     1   109.8000471 387.438400
   7541   7553   7555     1   109.8000471 387.438400
   7542   7541   7553     1   109.5600471 388.275200
   7542   7541   7543     1   108.4600466 328.025600
   7543   7541   7553     1   109.5600471 388.275200
   7544   7556   7557     1   109.8000471 387.438400
   7544   7556   7558     1   109.8000471 387.438400
   7545   7544   7556     1   109.5600471 388.275200
   7545   7544   7546     1   108.4600466 328.025600
   7546   7544   7556     1   109.5600471 388.275200
   7547   7550   7551     1   109.8000471 387.438400
   7547   7550   7552     1   109.8000471 387.438400
   7548   7547   7550     1   109.5600471 388.275200
   7548   7547   7549     1   108.4600466 328.025600
   7549   7547   7550     1   109.5600471 388.275200
   7550   7559   7560     1   109.5600471 388.275200
   7550   7559   7561     1   109.5600471 388.275200
   7551   7550   7559     1   109.8000471 387.438400
   7551   7550   7552     1   107.5800459 329.699200
   7552   7550   7559     1   109.8000471 387.438400
   7553   7565   7566     1   109.5600471 388.275200
   7553   7565   7567     1   109.5600471 388.275200
   7554   7553   7565     1   109.8000471 387.438400
   7554   7553   7555     1   107.5800459 329.699200
   7555   7553   7565     1   109.8000471 387.438400
   7556   7562   7563     1   109.5600471 388.275200
   7556   7562   7564     1   109.5600471 388.275200
   7557   7556   7562     1   109.8000471 387.438400
   7557   7556   7558     1   107.5800459 329.699200
   7558   7556   7562     1   109.8000471 387.438400
   7560   7559   7568     1   109.7800468 425.094400
   7560   7559   7561     1   108.4600466 328.025600
   7561   7559   7568     1   109.7800468 425.094400
   7563   7562  14308     1   109.7800468 425.094400
   7563   7562   7564     1   108.4600466 328.025600
   7564   7562  14308     1   109.7800468 425.094400
   7566   7565  14331     1   109.7800468 425.094400
   7566   7565   7567     1   108.4600466 328.025600
   7567   7565  14331     1   109.7800468 425.094400
   7569   7570   7571     1   109.8800469 414.216000
   7569   7570   7572     1   109.8800469 414.216000
   7569   7573   7574     1   109.8800469 414.216000
   7569   7573   7575     1   109.8800469 414.216000
   7569   7576   7577     1   109.8800469 414.216000
   7569   7576   7578     1   109.8800469 414.216000
   7570   7582   7583     1   109.8000471 387.438400
   7570   7582   7584     1   109.8000471 387.438400
   7571   7570   7582     1   109.5600471 388.275200
   7571   7570   7572     1   108.4600466 328.025600
   7572   7570   7582     1   109.5600471 388.275200
   7573   7585   7586     1   109.8000471 387.438400
   7573   7585   7587     1   109.8000471 387.438400
   7574   7573   7585     1   109.5600471 388.275200
   7574   7573   7575     1   108.4600466 328.025600
   7575   7573   7585     1   109.5600471 388.275200
   7576   7579   7580     1   109.8000471 387.438400
   7576   7579   7581     1   109.8000471 387.438400
   7577   7576   7579     1   109.5600471 388.275200
   7577   7576   7578     1   108.4600466 328.025600
   7578   7576   7579     1   109.5600471 388.275200
   7579   7588   7589     1   109.5600471 388.275200
   7579   7588   7590     1   109.5600471 388.275200
   7580   7579   7588     1   109.8000471 387.438400
   7580   7579   7581     1   107.5800459 329.699200
   7581   7579   7588     1   109.8000471 387.438400
   7582   7594   7595     1   109.5600471 388.275200
   7582   7594   7596     1   109.5600471 388.275200
   7583   7582   7594     1   109.8000471 387.438400
   7583   7582   7584     1   107.5800459 329.699200
   7584   7582   7594     1   109.8000471 387.438400
   7585   7591   7592     1   109.5600471 388.275200
   7585   7591   7593     1   109.5600471 388.275200
   7586   7585   7591     1   109.8000471 387.438400
   7586   7585   7587     1   107.5800459 329.699200
   7587   7585   7591     1   109.8000471 387.438400
   7589   7588   7597     1   109.7800468 425.094400
   7589   7588   7590     1   108.4600466 328.025600
   7590   7588   7597     1   109.7800468 425.094400
   7592   7591  14354     1   109.7800468 425.094400
   7592   7591   7593     1   108.4600466 328.025600
   7593   7591  14354     1   109.7800468 425.094400
   7595   7594  14377     1   109.7800468 425.094400
   7595   7594   7596     1   108.4600466 328.025600
   7596   7594  14377     1   109.7800468 425.094400
   7598   7599   7600     1   109.8800469 414.216000
   7598   7599   7601     1   109.8800469 414.216000
   7598   7602   7603     1   109.8800469 414.216000
   7598   7602   7604     1   109.8800469 414.216000
   7598   7605   7606     1   109.8800469 414.216000
   7598   7605   7607     1   109.8800469 414.216000
   7599   7611   7612     1   109.8000471 387.438400
   7599   7611   7613     1   109.8000471 387.438400
   7600   7599   7611     1   109.5600471 388.275200
   7600   7599   7601     1   108.4600466 328.025600
   7601   7599   7611     1   109.5600471 388.275200
   7602   7614   7615     1   109.8000471 387.438400
   7602   7614   7616     1   109.8000471 387.438400
   7603   7602   7614     1   109.5600471 388.275200
   7603   7602   7604     1   108.4600466 328.025600
   7604   7602   7614     1   109.5600471 388.275200
   7605   7608   7609     1   109.8000471 387.438400
   7605   7608   7610     1   109.8000471 387.438400
   7606   7605   7608     1   109.5600471 388.275200
   7606   7605   7607     1   108.4600466 328.025600
   7607   7605   7608     1   109.5600471 388.275200
   7608   7617   7618     1   109.5600471 388.275200
   7608   7617   7619     1   109.5600471 388.275200
   7609   7608   7617     1   109.8000471 387.438400
   7609   7608   7610     1   107.5800459 329.699200
   7610   7608   7617     1   109.8000471 387.438400
   7611   7623   7624     1   109.5600471 388.275200
   7611   7623   7625     1   109.5600471 388.275200
   7612   7611   7623     1   109.8000471 387.438400
   7612   7611   7613     1   107.5800459 329.699200
   7613   7611   7623     1   109.8000471 387.438400
   7614   7620   7621     1   109.5600471 388.275200
   7614   7620   7622     1   109.5600471 388.275200
   7615   7614   7620     1   109.8000471 387.438400
   7615   7614   7616     1   107.5800459 329.699200
   7616   7614   7620     1   109.8000471 387.438400
   7618   7617   7626     1   109.7800468 425.094400
   7618   7617   7619     1   108.4600466 328.025600
   7619   7617   7626     1   109.7800468 425.094400
   7621   7620  14400     1   109.7800468 425.094400
   7621   7620   7622     1   108.4600466 328.025600
   7622   7620  14400     1   109.7800468 425.094400
   7624   7623  14423     1   109.7800468 425.094400
   7624   7623   7625     1   108.4600466 328.025600
   7625   7623  14423     1   109.7800468 425.094400
   7627   7628   7629     1   109.8800469 414.216000
   7627   7628   7630     1   109.8800469 414.216000
   7627   7631   7632     1   109.8800469 414.216000
   7627   7631   7633     1   109.8800469 414.216000
   7627   7634   7635     1   109.8800469 414.216000
   7627   7634   7636     1   109.8800469 414.216000
   7628   7640   7641     1   109.8000471 387.438400
   7628   7640   7642     1   109.8000471 387.438400
   7629   7628   7640     1   109.5600471 388.275200
   7629   7628   7630     1   108.4600466 328.025600
   7630   7628   7640     1   109.5600471 388.275200
   7631   7643   7644     1   109.8000471 387.438400
   7631   7643   7645     1   109.8000471 387.438400
   7632   7631   7643     1   109.5600471 388.275200
   7632   7631   7633     1   108.4600466 328.025600
   7633   7631   7643     1   109.5600471 388.275200
   7634   7637   7638     1   109.8000471 387.438400
   7634   7637   7639     1   109.8000471 387.438400
   7635   7634   7637     1   109.5600471 388.275200
   7635   7634   7636     1   108.4600466 328.025600
   7636   7634   7637     1   109.5600471 388.275200
   7637   7646   7647     1   109.5600471 388.275200
   7637   7646   7648     1   109.5600471 388.275200
   7638   7637   7646     1   109.8000471 387.438400
   7638   7637   7639     1   107.5800459 329.699200
   7639   7637   7646     1   109.8000471 387.438400
   7640   7652   7653     1   109.5600471 388.275200
   7640   7652   7654     1   109.5600471 388.275200
   7641   7640   7652     1   109.8000471 387.438400
   7641   7640   7642     1   107.5800459 329.699200
   7642   7640   7652     1   109.8000471 387.438400
   7643   7649   7650     1   109.5600471 388.275200
   7643   7649   7651     1   109.5600471 388.275200
   7644   7643   7649     1   109.8000471 387.438400
   7644   7643   7645     1   107.5800459 329.699200
   7645   7643   7649     1   109.8000471 387.438400
   7647   7646   7655     1   109.7800468 425.094400
   7647   7646   7648     1   108.4600466 328.025600
   7648   7646   7655     1   109.7800468 425.094400
   7650   7649  14446     1   109.7800468 425.094400
   7650   7649   7651     1   108.4600466 328.025600
   7651   7649  14446     1   109.7800468 425.094400
   7653   7652  14469     1   109.7800468 425.094400
   7653   7652   7654     1   108.4600466 328.025600
   7654   7652  14469     1   109.7800468 425.094400
   7656   7657   7658     1   109.8800469 414.216000
   7656   7657   7659     1   109.8800469 414.216000
   7656   7660   7661     1   109.8800469 414.216000
   7656   7660   7662     1   109.8800469 414.216000
   7656   7663   7664     1   109.8800469 414.216000
   7656   7663   7665     1   109.8800469 414.216000
   7657   7669   7670     1   109.8000471 387.438400
   7657   7669   7671     1   109.8000471 387.438400
   7658   7657   7669     1   109.5600471 388.275200
   7658   7657   7659     1   108.4600466 328.025600
   7659   7657   7669     1   109.5600471 388.275200
   7660   7672   7673     1   109.8000471 387.438400
   7660   7672   7674     1   109.8000471 387.438400
   7661   7660   7672     1   109.5600471 388.275200
   7661   7660   7662     1   108.4600466 328.025600
   7662   7660   7672     1   109.5600471 388.275200
   7663   7666   7667     1   109.8000471 387.438400
   7663   7666   7668     1   109.8000471 387.438400
   7664   7663   7666     1   109.5600471 388.275200
   7664   7663   7665     1   108.4600466 328.025600
   7665   7663   7666     1   109.5600471 388.275200
   7666   7675   7676     1   109.5600471 388.275200
   7666   7675   7677     1   109.5600471 388.275200
   7667   7666   7675     1   109.8000471 387.438400
   7667   7666   7668     1   107.5800459 329.699200
   7668   7666   7675     1   109.8000471 387.438400
   7669   7681   7682     1   109.5600471 388.275200
   7669   7681   7683     1   109.5600471 388.275200
   7670   7669   7681     1   109.8000471 387.438400
   7670   7669   7671     1   107.5800459 329.699200
   7671   7669   7681     1   109.8000471 387.438400
   7672   7678   7679     1   109.5600471 388.275200
   7672   7678   7680     1   109.5600471 388.275200
   7673   7672   7678     1   109.8000471 387.438400
   7673   7672   7674     1   107.5800459 329.699200
   7674   7672   7678     1   109.8000471 387.438400
   7676   7675   7684     1   109.7800468 425.094400
   7676   7675   7677     1   108.4600466 328.025600
   7677   7675   7684     1   109.7800468 425.094400
   7679   7678  14492     1   109.7800468 425.094400
   7679   7678   7680     1   108.4600466 328.025600
   7680   7678  14492     1   109.7800468 425.094400
   7682   7681  14515     1   109.7800468 425.094400
   7682   7681   7683     1   108.4600466 328.025600
   7683   7681  14515     1   109.7800468 425.094400
   7685   7686   7687     1   109.8800469 414.216000
   7685   7686   7688     1   109.8800469 414.216000
   7685   7689   7690     1   109.8800469 414.216000
   7685   7689   7691     1   109.8800469 414.216000
   7685   7692   7693     1   109.8800469 414.216000
   7685   7692   7694     1   109.8800469 414.216000
   7686   7698   7699     1   109.8000471 387.438400
   7686   7698   7700     1   109.8000471 387.438400
   7687   7686   7698     1   109.5600471 388.275200
   7687   7686   7688     1   108.4600466 328.025600
   7688   7686   7698     1   109.5600471 388.275200
   7689   7701   7702     1   109.8000471 387.438400
   7689   7701   7703     1   109.8000471 387.438400
   7690   7689   7701     1   109.5600471 388.275200
   7690   7689   7691     1   108.4600466 328.025600
   7691   7689   7701     1   109.5600471 388.275200
   7692   7695   7696     1   109.8000471 387.438400
   7692   7695   7697     1   109.8000471 387.438400
   7693   7692   7695     1   109.5600471 388.275200
   7693   7692   7694     1   108.4600466 328.025600
   7694   7692   7695     1   109.5600471 388.275200
   7695   7704   7705     1   109.5600471 388.275200
   7695   7704   7706     1   109.5600471 388.275200
   7696   7695   7704     1   109.8000471 387.438400
   7696   7695   7697     1   107.5800459 329.699200
   7697   7695   7704     1   109.8000471 387.438400
   7698   7710   7711     1   109.5600471 388.275200
   7698   7710   7712     1   109.5600471 388.275200
   7699   7698   7710     1   109.8000471 387.438400
   7699   7698   7700     1   107.5800459 329.699200
   7700   7698   7710     1   109.8000471 387.438400
   7701   7707   7708     1   109.5600471 388.275200
   7701   7707   7709     1   109.5600471 388.275200
   7702   7701   7707     1   109.8000471 387.438400
   7702   7701   7703     1   107.5800459 329.699200
   7703   7701   7707     1   109.8000471 387.438400
   7705   7704   7713     1   109.7800468 425.094400
   7705   7704   7706     1   108.4600466 328.025600
   7706   7704   7713     1   109.7800468 425.094400
   7708   7707  14538     1   109.7800468 425.094400
   7708   7707   7709     1   108.4600466 328.025600
   7709   7707  14538     1   109.7800468 425.094400
   7711   7710  14561     1   109.7800468 425.094400
   7711   7710   7712     1   108.4600466 328.025600
   7712   7710  14561     1   109.7800468 425.094400
   7714   7715   7716     1   109.8800469 414.216000
   7714   7715   7717     1   109.8800469 414.216000
   7714   7718   7719     1   109.8800469 414.216000
   7714   7718   7720     1   109.8800469 414.216000
   7714   7721   7722     1   109.8800469 414.216000
   7714   7721   7723     1   109.8800469 414.216000
   7715   7727   7728     1   109.8000471 387.438400
   7715   7727   7729     1   109.8000471 387.438400
   7716   7715   7727     1   109.5600471 388.275200
   7716   7715   7717     1   108.4600466 328.025600
   7717   7715   7727     1   109.5600471 388.275200
   7718   7730   7731     1   109.8000471 387.438400
   7718   7730   7732     1   109.8000471 387.438400
   7719   7718   7730     1   109.5600471 388.275200
   7719   7718   7720     1   108.4600466 328.025600
   7720   7718   7730     1   109.5600471 388.275200
   7721   7724   7725     1   109.8000471 387.438400
   7721   7724   7726     1   109.8000471 387.438400
   7722   7721   7724     1   109.5600471 388.275200
   7722   7721   7723     1   108.4600466 328.025600
   7723   7721   7724     1   109.5600471 388.275200
   7724   7733   7734     1   109.5600471 388.275200
   7724   7733   7735     1   109.5600471 388.275200
   7725   7724   7733     1   109.8000471 387.438400
   7725   7724   7726     1   107.5800459 329.699200
   7726   7724   7733     1   109.8000471 387.438400
   7727   7739   7740     1   109.5600471 388.275200
   7727   7739   7741     1   109.5600471 388.275200
   7728   7727   7739     1   109.8000471 387.438400
   7728   7727   7729     1   107.5800459 329.699200
   7729   7727   7739     1   109.8000471 387.438400
   7730   7736   7737     1   109.5600471 388.275200
   7730   7736   7738     1   109.5600471 388.275200
   7731   7730   7736     1   109.8000471 387.438400
   7731   7730   7732     1   107.5800459 329.699200
   7732   7730   7736     1   109.8000471 387.438400
   7734   7733   7742     1   109.7800468 425.094400
   7734   7733   7735     1   108.4600466 328.025600
   7735   7733   7742     1   109.7800468 425.094400
   7737   7736  14584     1   109.7800468 425.094400
   7737   7736   7738     1   108.4600466 328.025600
   7738   7736  14584     1   109.7800468 425.094400
   7740   7739  14607     1   109.7800468 425.094400
   7740   7739   7741     1   108.4600466 328.025600
   7741   7739  14607     1   109.7800468 425.094400
   7743   7744   7745     1   109.8800469 414.216000
   7743   7744   7746     1   109.8800469 414.216000
   7743   7747   7748     1   109.8800469 414.216000
   7743   7747   7749     1   109.8800469 414.216000
   7743   7750   7751     1   109.8800469 414.216000
   7743   7750   7752     1   109.8800469 414.216000
   7744   7756   7757     1   109.8000471 387.438400
   7744   7756   7758     1   109.8000471 387.438400
   7745   7744   7756     1   109.5600471 388.275200
   7745   7744   7746     1   108.4600466 328.025600
   7746   7744   7756     1   109.5600471 388.275200
   7747   7759   7760     1   109.8000471 387.438400
   7747   7759   7761     1   109.8000471 387.438400
   7748   7747   7759     1   109.5600471 388.275200
   7748   7747   7749     1   108.4600466 328.025600
   7749   7747   7759     1   109.5600471 388.275200
   7750   7753   7754     1   109.8000471 387.438400
   7750   7753   7755     1   109.8000471 387.438400
   7751   7750   7753     1   109.5600471 388.275200
   7751   7750   7752     1   108.4600466 328.025600
   7752   7750   7753     1   109.5600471 388.275200
   7753   7762   7763     1   109.5600471 388.275200
   7753   7762   7764     1   109.5600471 388.275200
   7754   7753   7762     1   109.8000471 387.438400
   7754   7753   7755     1   107.5800459 329.699200
   7755   7753   7762     1   109.8000471 387.438400
   7756   7768   7769     1   109.5600471 388.275200
   7756   7768   7770     1   109.5600471 388.275200
   7757   7756   7768     1   109.8000471 387.438400
   7757   7756   7758     1   107.5800459 329.699200
   7758   7756   7768     1   109.8000471 387.438400
   7759   7765   7766     1   109.5600471 388.275200
   7759   7765   7767     1   109.5600471 388.275200
   7760   7759   7765     1   109.8000471 387.438400
   7760   7759   7761     1   107.5800459 329.699200
   7761   7759   7765     1   109.8000471 387.438400
   7763   7762   7771     1   109.7800468 425.094400
   7763   7762   7764     1   108.4600466 328.025600
   7764   7762   7771     1   109.7800468 425.094400
   7766   7765  14630     1   109.7800468 425.094400
   7766   7765   7767     1   108.4600466 328.025600
   7767   7765  14630     1   109.7800468 425.094400
   7769   7768  14653     1   109.7800468 425.094400
   7769   7768   7770     1   108.4600466 328.025600
   7770   7768  14653     1   109.7800468 425.094400
   7772   7773   7774     1   109.8800469 414.216000
   7772   7773   7775     1   109.8800469 414.216000
   7772   7776   7777     1   109.8800469 414.216000
   7772   7776   7778     1   109.8800469 414.216000
   7772   7779   7780     1   109.8800469 414.216000
   7772   7779   7781     1   109.8800469 414.216000
   7773   7785   7786     1   109.8000471 387.438400
   7773   7785   7787     1   109.8000471 387.438400
   7774   7773   7785     1   109.5600471 388.275200
   7774   7773   7775     1   108.4600466 328.025600
   7775   7773   7785     1   109.5600471 388.275200
   7776   7788   7789     1   109.8000471 387.438400
   7776   7788   7790     1   109.8000471 387.438400
   7777   7776   7788     1   109.5600471 388.275200
   7777   7776   7778     1   108.4600466 328.025600
   7778   7776   7788     1   109.5600471 388.275200
   7779   7782   7783     1   109.8000471 387.438400
   7779   7782   7784     1   109.8000471 387.438400
   7780   7779   7782     1   109.5600471 388.275200
   7780   7779   7781     1   108.4600466 328.025600
   7781   7779   7782     1   109.5600471 388.275200
   7782   7791   7792     1   109.5600471 388.275200
   7782   7791   7793     1   109.5600471 388.275200
   7783   7782   7791     1   109.8000471 387.438400
   7783   7782   7784     1   107.5800459 329.699200
   7784   7782   7791     1   109.8000471 387.438400
   7785   7797   7798     1   109.5600471 388.275200
   7785   7797   7799     1   109.5600471 388.275200
   7786   7785   7797     1   109.8000471 387.438400
   7786   7785   7787     1   107.5800459 329.699200
   7787   7785   7797     1   109.8000471 387.438400
   7788   7794   7795     1   109.5600471 388.275200
   7788   7794   7796     1   109.5600471 388.275200
   7789   7788   7794     1   109.8000471 387.438400
   7789   7788   7790     1   107.5800459 329.699200
   7790   7788   7794     1   109.8000471 387.438400
   7792   7791   7800     1   109.7800468 425.094400
   7792   7791   7793     1   108.4600466 328.025600
   7793   7791   7800     1   109.7800468 425.094400
   7795   7794  14676     1   109.7800468 425.094400
   7795   7794   7796     1   108.4600466 328.025600
   7796   7794  14676     1   109.7800468 425.094400
   7798   7797  14699     1   109.7800468 425.094400
   7798   7797   7799     1   108.4600466 328.025600
   7799   7797  14699     1   109.7800468 425.094400
   7801   7802   7803     1   109.8800469 414.216000
   7801   7802   7804     1   109.8800469 414.216000
   7801   7805   7806     1   109.8800469 414.216000
   7801   7805   7807     1   109.8800469 414.216000
   7801   7808   7809     1   109.8800469 414.216000
   7801   7808   7810     1   109.8800469 414.216000
   7802   7814   7815     1   109.8000471 387.438400
   7802   7814   7816     1   109.8000471 387.438400
   7803   7802   7814     1   109.5600471 388.275200
   7803   7802   7804     1   108.4600466 328.025600
   7804   7802   7814     1   109.5600471 388.275200
   7805   7817   7818     1   109.8000471 387.438400
   7805   7817   7819     1   109.8000471 387.438400
   7806   7805   7817     1   109.5600471 388.275200
   7806   7805   7807     1   108.4600466 328.025600
   7807   7805   7817     1   109.5600471 388.275200
   7808   7811   7812     1   109.8000471 387.438400
   7808   7811   7813     1   109.8000471 387.438400
   7809   7808   7811     1   109.5600471 388.275200
   7809   7808   7810     1   108.4600466 328.025600
   7810   7808   7811     1   109.5600471 388.275200
   7811   7820   7821     1   109.5600471 388.275200
   7811   7820   7822     1   109.5600471 388.275200
   7812   7811   7820     1   109.8000471 387.438400
   7812   7811   7813     1   107.5800459 329.699200
   7813   7811   7820     1   109.8000471 387.438400
   7814   7826   7827     1   109.5600471 388.275200
   7814   7826   7828     1   109.5600471 388.275200
   7815   7814   7826     1   109.8000471 387.438400
   7815   7814   7816     1   107.5800459 329.699200
   7816   7814   7826     1   109.8000471 387.438400
   7817   7823   7824     1   109.5600471 388.275200
   7817   7823   7825     1   109.5600471 388.275200
   7818   7817   7823     1   109.8000471 387.438400
   7818   7817   7819     1   107.5800459 329.699200
   7819   7817   7823     1   109.8000471 387.438400
   7821   7820   7829     1   109.7800468 425.094400
   7821   7820   7822     1   108.4600466 328.025600
   7822   7820   7829     1   109.7800468 425.094400
   7824   7823  14722     1   109.7800468 425.094400
   7824   7823   7825     1   108.4600466 328.025600
   7825   7823  14722     1   109.7800468 425.094400
   7827   7826  14745     1   109.7800468 425.094400
   7827   7826   7828     1   108.4600466 328.025600
   7828   7826  14745     1   109.7800468 425.094400
   7830   7831   7832     1   109.8800469 414.216000
   7830   7831   7833     1   109.8800469 414.216000
   7830   7834   7835     1   109.8800469 414.216000
   7830   7834   7836     1   109.8800469 414.216000
   7830   7837   7838     1   109.8800469 414.216000
   7830   7837   7839     1   109.8800469 414.216000
   7831   7843   7844     1   109.8000471 387.438400
   7831   7843   7845     1   109.8000471 387.438400
   7832   7831   7843     1   109.5600471 388.275200
   7832   7831   7833     1   108.4600466 328.025600
   7833   7831   7843     1   109.5600471 388.275200
   7834   7846   7847     1   109.8000471 387.438400
   7834   7846   7848     1   109.8000471 387.438400
   7835   7834   7846     1   109.5600471 388.275200
   7835   7834   7836     1   108.4600466 328.025600
   7836   7834   7846     1   109.5600471 388.275200
   7837   7840   7841     1   109.8000471 387.438400
   7837   7840   7842     1   109.8000471 387.438400
   7838   7837   7840     1   109.5600471 388.275200
   7838   7837   7839     1   108.4600466 328.025600
   7839   7837   7840     1   109.5600471 388.275200
   7840   7849   7850     1   109.5600471 388.275200
   7840   7849   7851     1   109.5600471 388.275200
   7841   7840   7849     1   109.8000471 387.438400
   7841   7840   7842     1   107.5800459 329.699200
   7842   7840   7849     1   109.8000471 387.438400
   7843   7855   7856     1   109.5600471 388.275200
   7843   7855   7857     1   109.5600471 388.275200
   7844   7843   7855     1   109.8000471 387.438400
   7844   7843   7845     1   107.5800459 329.699200
   7845   7843   7855     1   109.8000471 387.438400
   7846   7852   7853     1   109.5600471 388.275200
   7846   7852   7854     1   109.5600471 388.275200
   7847   7846   7852     1   109.8000471 387.438400
   7847   7846   7848     1   107.5800459 329.699200
   7848   7846   7852     1   109.8000471 387.438400
   7850   7849   7858     1   109.7800468 425.094400
   7850   7849   7851     1   108.4600466 328.025600
   7851   7849   7858     1   109.7800468 425.094400
   7853   7852  14768     1   109.7800468 425.094400
   7853   7852   7854     1   108.4600466 328.025600
   7854   7852  14768     1   109.7800468 425.094400
   7856   7855  14791     1   109.7800468 425.094400
   7856   7855   7857     1   108.4600466 328.025600
   7857   7855  14791     1   109.7800468 425.094400
   7859   7860   7861     1   109.8800469 414.216000
   7859   7860   7862     1   109.8800469 414.216000
   7859   7863   7864     1   109.8800469 414.216000
   7859   7863   7865     1   109.8800469 414.216000
   7859   7866   7867     1   109.8800469 414.216000
   7859   7866   7868     1   109.8800469 414.216000
   7860   7872   7873     1   109.8000471 387.438400
   7860   7872   7874     1   109.8000471 387.438400
   7861   7860   7872     1   109.5600471 388.275200
   7861   7860   7862     1   108.4600466 328.025600
   7862   7860   7872     1   109.5600471 388.275200
   7863   7875   7876     1   109.8000471 387.438400
   7863   7875   7877     1   109.8000471 387.438400
   7864   7863   7875     1   109.5600471 388.275200
   7864   7863   7865     1   108.4600466 328.025600
   7865   7863   7875     1   109.5600471 388.275200
   7866   7869   7870     1   109.8000471 387.438400
   7866   7869   7871     1   109.8000471 387.438400
   7867   7866   7869     1   109.5600471 388.275200
   7867   7866   7868     1   108.4600466 328.025600
   7868   7866   7869     1   109.5600471 388.275200
   7869   7878   7879     1   109.5600471 388.275200
   7869   7878   7880     1   109.5600471 388.275200
   7870   7869   7878     1   109.8000471 387.438400
   7870   7869   7871     1   107.5800459 329.699200
   7871   7869   7878     1   109.8000471 387.438400
   7872   7884   7885     1   109.5600471 388.275200
   7872   7884   7886     1   109.5600471 388.275200
   7873   7872   7884     1   109.8000471 387.438400
   7873   7872   7874     1   107.5800459 329.699200
   7874   7872   7884     1   109.8000471 387.438400
   7875   7881   7882     1   109.5600471 388.275200
   7875   7881   7883     1   109.5600471 388.275200
   7876   7875   7881     1   109.8000471 387.438400
   7876   7875   7877     1   107.5800459 329.699200
   7877   7875   7881     1   109.8000471 387.438400
   7879   7878   7887     1   109.7800468 425.094400
   7879   7878   7880     1   108.4600466 328.025600
   7880   7878   7887     1   109.7800468 425.094400
   7882   7881  14814     1   109.7800468 425.094400
   7882   7881   7883     1   108.4600466 328.025600
   7883   7881  14814     1   109.7800468 425.094400
   7885   7884  14837     1   109.7800468 425.094400
   7885   7884   7886     1   108.4600466 328.025600
   7886   7884  14837     1   109.7800468 425.094400
   7888   7889   7890     1   109.8800469 414.216000
   7888   7889   7891     1   109.8800469 414.216000
   7888   7892   7893     1   109.8800469 414.216000
   7888   7892   7894     1   109.8800469 414.216000
   7888   7895   7896     1   109.8800469 414.216000
   7888   7895   7897     1   109.8800469 414.216000
   7889   7901   7902     1   109.8000471 387.438400
   7889   7901   7903     1   109.8000471 387.438400
   7890   7889   7901     1   109.5600471 388.275200
   7890   7889   7891     1   108.4600466 328.025600
   7891   7889   7901     1   109.5600471 388.275200
   7892   7904   7905     1   109.8000471 387.438400
   7892   7904   7906     1   109.8000471 387.438400
   7893   7892   7904     1   109.5600471 388.275200
   7893   7892   7894     1   108.4600466 328.025600
   7894   7892   7904     1   109.5600471 388.275200
   7895   7898   7899     1   109.8000471 387.438400
   7895   7898   7900     1   109.8000471 387.438400
   7896   7895   7898     1   109.5600471 388.275200
   7896   7895   7897     1   108.4600466 328.025600
   7897   7895   7898     1   109.5600471 388.275200
   7898   7907   7908     1   109.5600471 388.275200
   7898   7907   7909     1   109.5600471 388.275200
   7899   7898   7907     1   109.8000471 387.438400
   7899   7898   7900     1   107.5800459 329.699200
   7900   7898   7907     1   109.8000471 387.438400
   7901   7913   7914     1   109.5600471 388.275200
   7901   7913   7915     1   109.5600471 388.275200
   7902   7901   7913     1   109.8000471 387.438400
   7902   7901   7903     1   107.5800459 329.699200
   7903   7901   7913     1   109.8000471 387.438400
   7904   7910   7911     1   109.5600471 388.275200
   7904   7910   7912     1   109.5600471 388.275200
   7905   7904   7910     1   109.8000471 387.438400
   7905   7904   7906     1   107.5800459 329.699200
   7906   7904   7910     1   109.8000471 387.438400
   7908   7907   7916     1   109.7800468 425.094400
   7908   7907   7909     1   108.4600466 328.025600
   7909   7907   7916     1   109.7800468 425.094400
   7911   7910  14860     1   109.7800468 425.094400
   7911   7910   7912     1   108.4600466 328.025600
   7912   7910  14860     1   109.7800468 425.094400
   7914   7913  14883     1   109.7800468 425.094400
   7914   7913   7915     1   108.4600466 328.025600
   7915   7913  14883     1   109.7800468 425.094400
   7917   7918   7919     1   109.8800469 414.216000
   7917   7918   7920     1   109.8800469 414.216000
   7917   7921   7922     1   109.8800469 414.216000
   7917   7921   7923     1   109.8800469 414.216000
   7917   7924   7925     1   109.8800469 414.216000
   7917   7924   7926     1   109.8800469 414.216000
   7918   7930   7931     1   109.8000471 387.438400
   7918   7930   7932     1   109.8000471 387.438400
   7919   7918   7930     1   109.5600471 388.275200
   7919   7918   7920     1   108.4600466 328.025600
   7920   7918   7930     1   109.5600471 388.275200
   7921   7933   7934     1   109.8000471 387.438400
   7921   7933   7935     1   109.8000471 387.438400
   7922   7921   7933     1   109.5600471 388.275200
   7922   7921   7923     1   108.4600466 328.025600
   7923   7921   7933     1   109.5600471 388.275200
   7924   7927   7928     1   109.8000471 387.438400
   7924   7927   7929     1   109.8000471 387.438400
   7925   7924   7927     1   109.5600471 388.275200
   7925   7924   7926     1   108.4600466 328.025600
   7926   7924   7927     1   109.5600471 388.275200
   7927   7936   7937     1   109.5600471 388.275200
   7927   7936   7938     1   109.5600471 388.275200
   7928   7927   7936     1   109.8000471 387.438400
   7928   7927   7929     1   107.5800459 329.699200
   7929   7927   7936     1   109.8000471 387.438400
   7930   7942   7943     1   109.5600471 388.275200
   7930   7942   7944     1   109.5600471 388.275200
   7931   7930   7942     1   109.8000471 387.438400
   7931   7930   7932     1   107.5800459 329.699200
   7932   7930   7942     1   109.8000471 387.438400
   7933   7939   7940     1   109.5600471 388.275200
   7933   7939   7941     1   109.5600471 388.275200
   7934   7933   7939     1   109.8000471 387.438400
   7934   7933   7935     1   107.5800459 329.699200
   7935   7933   7939     1   109.8000471 387.438400
   7937   7936   7945     1   109.7800468 425.094400
   7937   7936   7938     1   108.4600466 328.025600
   7938   7936   7945     1   109.7800468 425.094400
   7940   7939  14906     1   109.7800468 425.094400
   7940   7939   7941     1   108.4600466 328.025600
   7941   7939  14906     1   109.7800468 425.094400
   7943   7942  14929     1   109.7800468 425.094400
   7943   7942   7944     1   108.4600466 328.025600
   7944   7942  14929     1   109.7800468 425.094400
   7946   7947   7948     1   109.8800469 414.216000
   7946   7947   7949     1   109.8800469 414.216000
   7946   7950   7951     1   109.8800469 414.216000
   7946   7950   7952     1   109.8800469 414.216000
   7946   7953   7954     1   109.8800469 414.216000
   7946   7953   7955     1   109.8800469 414.216000
   7947   7959   7960     1   109.8000471 387.438400
   7947   7959   7961     1   109.8000471 387.438400
   7948   7947   7959     1   109.5600471 388.275200
   7948   7947   7949     1   108.4600466 328.025600
   7949   7947   7959     1   109.5600471 388.275200
   7950   7962   7963     1   109.8000471 387.438400
   7950   7962   7964     1   109.8000471 387.438400
   7951   7950   7962     1   109.5600471 388.275200
   7951   7950   7952     1   108.4600466 328.025600
   7952   7950   7962     1   109.5600471 388.275200
   7953   7956   7957     1   109.8000471 387.438400
   7953   7956   7958     1   109.8000471 387.438400
   7954   7953   7956     1   109.5600471 388.275200
   7954   7953   7955     1   108.4600466 328.025600
   7955   7953   7956     1   109.5600471 388.275200
   7956   7965   7966     1   109.5600471 388.275200
   7956   7965   7967     1   109.5600471 388.275200
   7957   7956   7965     1   109.8000471 387.438400
   7957   7956   7958     1   107.5800459 329.699200
   7958   7956   7965     1   109.8000471 387.438400
   7959   7971   7972     1   109.5600471 388.275200
   7959   7971   7973     1   109.5600471 388.275200
   7960   7959   7971     1   109.8000471 387.438400
   7960   7959   7961     1   107.5800459 329.699200
   7961   7959   7971     1   109.8000471 387.438400
   7962   7968   7969     1   109.5600471 388.275200
   7962   7968   7970     1   109.5600471 388.275200
   7963   7962   7968     1   109.8000471 387.438400
   7963   7962   7964     1   107.5800459 329.699200
   7964   7962   7968     1   109.8000471 387.438400
   7966   7965   7974     1   109.7800468 425.094400
   7966   7965   7967     1   108.4600466 328.025600
   7967   7965   7974     1   109.7800468 425.094400
   7969   7968  14952     1   109.7800468 425.094400
   7969   7968   7970     1   108.4600466 328.025600
   7970   7968  14952     1   109.7800468 425.094400
   7972   7971  14975     1   109.7800468 425.094400
   7972   7971   7973     1   108.4600466 328.025600
   7973   7971  14975     1   109.7800468 425.094400
   7975   7976   7977     1   109.8800469 414.216000
   7975   7976   7978     1   109.8800469 414.216000
   7975   7979   7980     1   109.8800469 414.216000
   7975   7979   7981     1   109.8800469 414.216000
   7975   7982   7983     1   109.8800469 414.216000
   7975   7982   7984     1   109.8800469 414.216000
   7976   7988   7989     1   109.8000471 387.438400
   7976   7988   7990     1   109.8000471 387.438400
   7977   7976   7988     1   109.5600471 388.275200
   7977   7976   7978     1   108.4600466 328.025600
   7978   7976   7988     1   109.5600471 388.275200
   7979   7991   7992     1   109.8000471 387.438400
   7979   7991   7993     1   109.8000471 387.438400
   7980   7979   7991     1   109.5600471 388.275200
   7980   7979   7981     1   108.4600466 328.025600
   7981   7979   7991     1   109.5600471 388.275200
   7982   7985   7986     1   109.8000471 387.438400
   7982   7985   7987     1   109.8000471 387.438400
   7983   7982   7985     1   109.5600471 388.275200
   7983   7982   7984     1   108.4600466 328.025600
   7984   7982   7985     1   109.5600471 388.275200
   7985   7994   7995     1   109.5600471 388.275200
   7985   7994   7996     1   109.5600471 388.275200
   7986   7985   7994     1   109.8000471 387.438400
   7986   7985   7987     1   107.5800459 329.699200
   7987   7985   7994     1   109.8000471 387.438400
   7988   8000   8001     1   109.5600471 388.275200
   7988   8000   8002     1   109.5600471 388.275200
   7989   7988   8000     1   109.8000471 387.438400
   7989   7988   7990     1   107.5800459 329.699200
   7990   7988   8000     1   109.8000471 387.438400
   7991   7997   7998     1   109.5600471 388.275200
   7991   7997   7999     1   109.5600471 388.275200
   7992   7991   7997     1   109.8000471 387.438400
   7992   7991   7993     1   107.5800459 329.699200
   7993   7991   7997     1   109.8000471 387.438400
   7995   7994   8003     1   109.7800468 425.094400
   7995   7994   7996     1   108.4600466 328.025600
   7996   7994   8003     1   109.7800468 425.094400
   7998   7997  14998     1   109.7800468 425.094400
   7998   7997   7999     1   108.4600466 328.025600
   7999   7997  14998     1   109.7800468 425.094400
   8001   8000  15021     1   109.7800468 425.094400
   8001   8000   8002     1   108.4600466 328.025600
   8002   8000  15021     1   109.7800468 425.094400
   8004   8005   8006     1   109.8800469 414.216000
   8004   8005   8007     1   109.8800469 414.216000
   8004   8008   8009     1   109.8800469 414.216000
   8004   8008   8010     1   109.8800469 414.216000
   8004   8011   8012     1   109.8800469 414.216000
   8004   8011   8013     1   109.8800469 414.216000
   8005   8017   8018     1   109.8000471 387.438400
   8005   8017   8019     1   109.8000471 387.438400
   8006   8005   8017     1   109.5600471 388.275200
   8006   8005   8007     1   108.4600466 328.025600
   8007   8005   8017     1   109.5600471 388.275200
   8008   8020   8021     1   109.8000471 387.438400
   8008   8020   8022     1   109.8000471 387.438400
   8009   8008   8020     1   109.5600471 388.275200
   8009   8008   8010     1   108.4600466 328.025600
   8010   8008   8020     1   109.5600471 388.275200
   8011   8014   8015     1   109.8000471 387.438400
   8011   8014   8016     1   109.8000471 387.438400
   8012   8011   8014     1   109.5600471 388.275200
   8012   8011   8013     1   108.4600466 328.025600
   8013   8011   8014     1   109.5600471 388.275200
   8014   8023   8024     1   109.5600471 388.275200
   8014   8023   8025     1   109.5600471 388.275200
   8015   8014   8023     1   109.8000471 387.438400
   8015   8014   8016     1   107.5800459 329.699200
   8016   8014   8023     1   109.8000471 387.438400
   8017   8029   8030     1   109.5600471 388.275200
   8017   8029   8031     1   109.5600471 388.275200
   8018   8017   8029     1   109.8000471 387.438400
   8018   8017   8019     1   107.5800459 329.699200
   8019   8017   8029     1   109.8000471 387.438400
   8020   8026   8027     1   109.5600471 388.275200
   8020   8026   8028     1   109.5600471 388.275200
   8021   8020   8026     1   109.8000471 387.438400
   8021   8020   8022     1   107.5800459 329.699200
   8022   8020   8026     1   109.8000471 387.438400
   8024   8023   8032     1   109.7800468 425.094400
   8024   8023   8025     1   108.4600466 328.025600
   8025   8023   8032     1   109.7800468 425.094400
   8027   8026  15044     1   109.7800468 425.094400
   8027   8026   8028     1   108.4600466 328.025600
   8028   8026  15044     1   109.7800468 425.094400
   8030   8029  15067     1   109.7800468 425.094400
   8030   8029   8031     1   108.4600466 328.025600
   8031   8029  15067     1   109.7800468 425.094400
   8033   8034   8035     1   109.8800469 414.216000
   8033   8034   8036     1   109.8800469 414.216000
   8033   8037   8038     1   109.8800469 414.216000
   8033   8037   8039     1   109.8800469 414.216000
   8033   8040   8041     1   109.8800469 414.216000
   8033   8040   8042     1   109.8800469 414.216000
   8034   8046   8047     1   109.8000471 387.438400
   8034   8046   8048     1   109.8000471 387.438400
   8035   8034   8046     1   109.5600471 388.275200
   8035   8034   8036     1   108.4600466 328.025600
   8036   8034   8046     1   109.5600471 388.275200
   8037   8049   8050     1   109.8000471 387.438400
   8037   8049   8051     1   109.8000471 387.438400
   8038   8037   8049     1   109.5600471 388.275200
   8038   8037   8039     1   108.4600466 328.025600
   8039   8037   8049     1   109.5600471 388.275200
   8040   8043   8044     1   109.8000471 387.438400
   8040   8043   8045     1   109.8000471 387.438400
   8041   8040   8043     1   109.5600471 388.275200
   8041   8040   8042     1   108.4600466 328.025600
   8042   8040   8043     1   109.5600471 388.275200
   8043   8052   8053     1   109.5600471 388.275200
   8043   8052   8054     1   109.5600471 388.275200
   8044   8043   8052     1   109.8000471 387.438400
   8044   8043   8045     1   107.5800459 329.699200
   8045   8043   8052     1   109.8000471 387.438400
   8046   8058   8059     1   109.5600471 388.275200
   8046   8058   8060     1   109.5600471 388.275200
   8047   8046   8058     1   109.8000471 387.438400
   8047   8046   8048     1   107.5800459 329.699200
   8048   8046   8058     1   109.8000471 387.438400
   8049   8055   8056     1   109.5600471 388.275200
   8049   8055   8057     1   109.5600471 388.275200
   8050   8049   8055     1   109.8000471 387.438400
   8050   8049   8051     1   107.5800459 329.699200
   8051   8049   8055     1   109.8000471 387.438400
   8053   8052   8061     1   109.7800468 425.094400
   8053   8052   8054     1   108.4600466 328.025600
   8054   8052   8061     1   109.7800468 425.094400
   8056   8055  15090     1   109.7800468 425.094400
   8056   8055   8057     1   108.4600466 328.025600
   8057   8055  15090     1   109.7800468 425.094400
   8059   8058  15113     1   109.7800468 425.094400
   8059   8058   8060     1   108.4600466 328.025600
   8060   8058  15113     1   109.7800468 425.094400
   8062   8063   8064     1   109.8800469 414.216000
   8062   8063   8065     1   109.8800469 414.216000
   8062   8066   8067     1   109.8800469 414.216000
   8062   8066   8068     1   109.8800469 414.216000
   8062   8069   8070     1   109.8800469 414.216000
   8062   8069   8071     1   109.8800469 414.216000
   8063   8075   8076     1   109.8000471 387.438400
   8063   8075   8077     1   109.8000471 387.438400
   8064   8063   8075     1   109.5600471 388.275200
   8064   8063   8065     1   108.4600466 328.025600
   8065   8063   8075     1   109.5600471 388.275200
   8066   8078   8079     1   109.8000471 387.438400
   8066   8078   8080     1   109.8000471 387.438400
   8067   8066   8078     1   109.5600471 388.275200
   8067   8066   8068     1   108.4600466 328.025600
   8068   8066   8078     1   109.5600471 388.275200
   8069   8072   8073     1   109.8000471 387.438400
   8069   8072   8074     1   109.8000471 387.438400
   8070   8069   8072     1   109.5600471 388.275200
   8070   8069   8071     1   108.4600466 328.025600
   8071   8069   8072     1   109.5600471 388.275200
   8072   8081   8082     1   109.5600471 388.275200
   8072   8081   8083     1   109.5600471 388.275200
   8073   8072   8081     1   109.8000471 387.438400
   8073   8072   8074     1   107.5800459 329.699200
   8074   8072   8081     1   109.8000471 387.438400
   8075   8087   8088     1   109.5600471 388.275200
   8075   8087   8089     1   109.5600471 388.275200
   8076   8075   8087     1   109.8000471 387.438400
   8076   8075   8077     1   107.5800459 329.699200
   8077   8075   8087     1   109.8000471 387.438400
   8078   8084   8085     1   109.5600471 388.275200
   8078   8084   8086     1   109.5600471 388.275200
   8079   8078   8084     1   109.8000471 387.438400
   8079   8078   8080     1   107.5800459 329.699200
   8080   8078   8084     1   109.8000471 387.438400
   8082   8081   8090     1   109.7800468 425.094400
   8082   8081   8083     1   108.4600466 328.025600
   8083   8081   8090     1   109.7800468 425.094400
   8085   8084  15136     1   109.7800468 425.094400
   8085   8084   8086     1   108.4600466 328.025600
   8086   8084  15136     1   109.7800468 425.094400
   8088   8087  15159     1   109.7800468 425.094400
   8088   8087   8089     1   108.4600466 328.025600
   8089   8087  15159     1   109.7800468 425.094400
   8091   8092   8093     1   109.8800469 414.216000
   8091   8092   8094     1   109.8800469 414.216000
   8091   8095   8096     1   109.8800469 414.216000
   8091   8095   8097     1   109.8800469 414.216000
   8091   8098   8099     1   109.8800469 414.216000
   8091   8098   8100     1   109.8800469 414.216000
   8092   8104   8105     1   109.8000471 387.438400
   8092   8104   8106     1   109.8000471 387.438400
   8093   8092   8104     1   109.5600471 388.275200
   8093   8092   8094     1   108.4600466 328.025600
   8094   8092   8104     1   109.5600471 388.275200
   8095   8107   8108     1   109.8000471 387.438400
   8095   8107   8109     1   109.8000471 387.438400
   8096   8095   8107     1   109.5600471 388.275200
   8096   8095   8097     1   108.4600466 328.025600
   8097   8095   8107     1   109.5600471 388.275200
   8098   8101   8102     1   109.8000471 387.438400
   8098   8101   8103     1   109.8000471 387.438400
   8099   8098   8101     1   109.5600471 388.275200
   8099   8098   8100     1   108.4600466 328.025600
   8100   8098   8101     1   109.5600471 388.275200
   8101   8110   8111     1   109.5600471 388.275200
   8101   8110   8112     1   109.5600471 388.275200
   8102   8101   8110     1   109.8000471 387.438400
   8102   8101   8103     1   107.5800459 329.699200
   8103   8101   8110     1   109.8000471 387.438400
   8104   8116   8117     1   109.5600471 388.275200
   8104   8116   8118     1   109.5600471 388.275200
   8105   8104   8116     1   109.8000471 387.438400
   8105   8104   8106     1   107.5800459 329.699200
   8106   8104   8116     1   109.8000471 387.438400
   8107   8113   8114     1   109.5600471 388.275200
   8107   8113   8115     1   109.5600471 388.275200
   8108   8107   8113     1   109.8000471 387.438400
   8108   8107   8109     1   107.5800459 329.699200
   8109   8107   8113     1   109.8000471 387.438400
   8111   8110   8119     1   109.7800468 425.094400
   8111   8110   8112     1   108.4600466 328.025600
   8112   8110   8119     1   109.7800468 425.094400
   8114   8113  15182     1   109.7800468 425.094400
   8114   8113   8115     1   108.4600466 328.025600
   8115   8113  15182     1   109.7800468 425.094400
   8117   8116  15205     1   109.7800468 425.094400
   8117   8116   8118     1   108.4600466 328.025600
   8118   8116  15205     1   109.7800468 425.094400
   8120   8121   8122     1   109.8800469 414.216000
   8120   8121   8123     1   109.8800469 414.216000
   8120   8124   8125     1   109.8800469 414.216000
   8120   8124   8126     1   109.8800469 414.216000
   8120   8127   8128     1   109.8800469 414.216000
   8120   8127   8129     1   109.8800469 414.216000
   8121   8133   8134     1   109.8000471 387.438400
   8121   8133   8135     1   109.8000471 387.438400
   8122   8121   8133     1   109.5600471 388.275200
   8122   8121   8123     1   108.4600466 328.025600
   8123   8121   8133     1   109.5600471 388.275200
   8124   8136   8137     1   109.8000471 387.438400
   8124   8136   8138     1   109.8000471 387.438400
   8125   8124   8136     1   109.5600471 388.275200
   8125   8124   8126     1   108.4600466 328.025600
   8126   8124   8136     1   109.5600471 388.275200
   8127   8130   8131     1   109.8000471 387.438400
   8127   8130   8132     1   109.8000471 387.438400
   8128   8127   8130     1   109.5600471 388.275200
   8128   8127   8129     1   108.4600466 328.025600
   8129   8127   8130     1   109.5600471 388.275200
   8130   8139   8140     1   109.5600471 388.275200
   8130   8139   8141     1   109.5600471 388.275200
   8131   8130   8139     1   109.8000471 387.438400
   8131   8130   8132     1   107.5800459 329.699200
   8132   8130   8139     1   109.8000471 387.438400
   8133   8145   8146     1   109.5600471 388.275200
   8133   8145   8147     1   109.5600471 388.275200
   8134   8133   8145     1   109.8000471 387.438400
   8134   8133   8135     1   107.5800459 329.699200
   8135   8133   8145     1   109.8000471 387.438400
   8136   8142   8143     1   109.5600471 388.275200
   8136   8142   8144     1   109.5600471 388.275200
   8137   8136   8142     1   109.8000471 387.438400
   8137   8136   8138     1   107.5800459 329.699200
   8138   8136   8142     1   109.8000471 387.438400
   8140   8139   8148     1   109.7800468 425.094400
   8140   8139   8141     1   108.4600466 328.025600
   8141   8139   8148     1   109.7800468 425.094400
   8143   8142  15228     1   109.7800468 425.094400
   8143   8142   8144     1   108.4600466 328.025600
   8144   8142  15228     1   109.7800468 425.094400
   8146   8145  15251     1   109.7800468 425.094400
   8146   8145   8147     1   108.4600466 328.025600
   8147   8145  15251     1   109.7800468 425.094400
   8149   8150   8151     1   109.8800469 414.216000
   8149   8150   8152     1   109.8800469 414.216000
   8149   8153   8154     1   109.8800469 414.216000
   8149   8153   8155     1   109.8800469 414.216000
   8149   8156   8157     1   109.8800469 414.216000
   8149   8156   8158     1   109.8800469 414.216000
   8150   8162   8163     1   109.8000471 387.438400
   8150   8162   8164     1   109.8000471 387.438400
   8151   8150   8162     1   109.5600471 388.275200
   8151   8150   8152     1   108.4600466 328.025600
   8152   8150   8162     1   109.5600471 388.275200
   8153   8165   8166     1   109.8000471 387.438400
   8153   8165   8167     1   109.8000471 387.438400
   8154   8153   8165     1   109.5600471 388.275200
   8154   8153   8155     1   108.4600466 328.025600
   8155   8153   8165     1   109.5600471 388.275200
   8156   8159   8160     1   109.8000471 387.438400
   8156   8159   8161     1   109.8000471 387.438400
   8157   8156   8159     1   109.5600471 388.275200
   8157   8156   8158     1   108.4600466 328.025600
   8158   8156   8159     1   109.5600471 388.275200
   8159   8168   8169     1   109.5600471 388.275200
   8159   8168   8170     1   109.5600471 388.275200
   8160   8159   8168     1   109.8000471 387.438400
   8160   8159   8161     1   107.5800459 329.699200
   8161   8159   8168     1   109.8000471 387.438400
   8162   8174   8175     1   109.5600471 388.275200
   8162   8174   8176     1   109.5600471 388.275200
   8163   8162   8174     1   109.8000471 387.438400
   8163   8162   8164     1   107.5800459 329.699200
   8164   8162   8174     1   109.8000471 387.438400
   8165   8171   8172     1   109.5600471 388.275200
   8165   8171   8173     1   109.5600471 388.275200
   8166   8165   8171     1   109.8000471 387.438400
   8166   8165   8167     1   107.5800459 329.699200
   8167   8165   8171     1   109.8000471 387.438400
   8169   8168   8177     1   109.7800468 425.094400
   8169   8168   8170     1   108.4600466 328.025600
   8170   8168   8177     1   109.7800468 425.094400
   8172   8171  15274     1   109.7800468 425.094400
   8172   8171   8173     1   108.4600466 328.025600
   8173   8171  15274     1   109.7800468 425.094400
   8175   8174  15297     1   109.7800468 425.094400
   8175   8174   8176     1   108.4600466 328.025600
   8176   8174  15297     1   109.7800468 425.094400
   8178   8179   8180     1   109.8800469 414.216000
   8178   8179   8181     1   109.8800469 414.216000
   8178   8182   8183     1   109.8800469 414.216000
   8178   8182   8184     1   109.8800469 414.216000
   8178   8185   8186     1   109.8800469 414.216000
   8178   8185   8187     1   109.8800469 414.216000
   8179   8191   8192     1   109.8000471 387.438400
   8179   8191   8193     1   109.8000471 387.438400
   8180   8179   8191     1   109.5600471 388.275200
   8180   8179   8181     1   108.4600466 328.025600
   8181   8179   8191     1   109.5600471 388.275200
   8182   8194   8195     1   109.8000471 387.438400
   8182   8194   8196     1   109.8000471 387.438400
   8183   8182   8194     1   109.5600471 388.275200
   8183   8182   8184     1   108.4600466 328.025600
   8184   8182   8194     1   109.5600471 388.275200
   8185   8188   8189     1   109.8000471 387.438400
   8185   8188   8190     1   109.8000471 387.438400
   8186   8185   8188     1   109.5600471 388.275200
   8186   8185   8187     1   108.4600466 328.025600
   8187   8185   8188     1   109.5600471 388.275200
   8188   8197   8198     1   109.5600471 388.275200
   8188   8197   8199     1   109.5600471 388.275200
   8189   8188   8197     1   109.8000471 387.438400
   8189   8188   8190     1   107.5800459 329.699200
   8190   8188   8197     1   109.8000471 387.438400
   8191   8203   8204     1   109.5600471 388.275200
   8191   8203   8205     1   109.5600471 388.275200
   8192   8191   8203     1   109.8000471 387.438400
   8192   8191   8193     1   107.5800459 329.699200
   8193   8191   8203     1   109.8000471 387.438400
   8194   8200   8201     1   109.5600471 388.275200
   8194   8200   8202     1   109.5600471 388.275200
   8195   8194   8200     1   109.8000471 387.438400
   8195   8194   8196     1   107.5800459 329.699200
   8196   8194   8200     1   109.8000471 387.438400
   8198   8197   8206     1   109.7800468 425.094400
   8198   8197   8199     1   108.4600466 328.025600
   8199   8197   8206     1   109.7800468 425.094400
   8201   8200  15320     1   109.7800468 425.094400
   8201   8200   8202     1   108.4600466 328.025600
   8202   8200  15320     1   109.7800468 425.094400
   8204   8203  15343     1   109.7800468 425.094400
   8204   8203   8205     1   108.4600466 328.025600
   8205   8203  15343     1   109.7800468 425.094400
   8207   8208   8209     1   109.8800469 414.216000
   8207   8208   8210     1   109.8800469 414.216000
   8207   8211   8212     1   109.8800469 414.216000
   8207   8211   8213     1   109.8800469 414.216000
   8207   8214   8215     1   109.8800469 414.216000
   8207   8214   8216     1   109.8800469 414.216000
   8208   8220   8221     1   109.8000471 387.438400
   8208   8220   8222     1   109.8000471 387.438400
   8209   8208   8220     1   109.5600471 388.275200
   8209   8208   8210     1   108.4600466 328.025600
   8210   8208   8220     1   109.5600471 388.275200
   8211   8223   8224     1   109.8000471 387.438400
   8211   8223   8225     1   109.8000471 387.438400
   8212   8211   8223     1   109.5600471 388.275200
   8212   8211   8213     1   108.4600466 328.025600
   8213   8211   8223     1   109.5600471 388.275200
   8214   8217   8218     1   109.8000471 387.438400
   8214   8217   8219     1   109.8000471 387.438400
   8215   8214   8217     1   109.5600471 388.275200
   8215   8214   8216     1   108.4600466 328.025600
   8216   8214   8217     1   109.5600471 388.275200
   8217   8226   8227     1   109.5600471 388.275200
   8217   8226   8228     1   109.5600471 388.275200
   8218   8217   8226     1   109.8000471 387.438400
   8218   8217   8219     1   107.5800459 329.699200
   8219   8217   8226     1   109.8000471 387.438400
   8220   8232   8233     1   109.5600471 388.275200
   8220   8232   8234     1   109.5600471 388.275200
   8221   8220   8232     1   109.8000471 387.438400
   8221   8220   8222     1   107.5800459 329.699200
   8222   8220   8232     1   109.8000471 387.438400
   8223   8229   8230     1   109.5600471 388.275200
   8223   8229   8231     1   109.5600471 388.275200
   8224   8223   8229     1   109.8000471 387.438400
   8224   8223   8225     1   107.5800459 329.699200
   8225   8223   8229     1   109.8000471 387.438400
   8227   8226   8235     1   109.7800468 425.094400
   8227   8226   8228     1   108.4600466 328.025600
   8228   8226   8235     1   109.7800468 425.094400
   8230   8229  15366     1   109.7800468 425.094400
   8230   8229   8231     1   108.4600466 328.025600
   8231   8229  15366     1   109.7800468 425.094400
   8233   8232  15389     1   109.7800468 425.094400
   8233   8232   8234     1   108.4600466 328.025600
   8234   8232  15389     1   109.7800468 425.094400
   8236   8237   8238     1   109.8800469 414.216000
   8236   8237   8239     1   109.8800469 414.216000
   8236   8240   8241     1   109.8800469 414.216000
   8236   8240   8242     1   109.8800469 414.216000
   8236   8243   8244     1   109.8800469 414.216000
   8236   8243   8245     1   109.8800469 414.216000
   8237   8249   8250     1   109.8000471 387.438400
   8237   8249   8251     1   109.8000471 387.438400
   8238   8237   8249     1   109.5600471 388.275200
   8238   8237   8239     1   108.4600466 328.025600
   8239   8237   8249     1   109.5600471 388.275200
   8240   8252   8253     1   109.8000471 387.438400
   8240   8252   8254     1   109.8000471 387.438400
   8241   8240   8252     1   109.5600471 388.275200
   8241   8240   8242     1   108.4600466 328.025600
   8242   8240   8252     1   109.5600471 388.275200
   8243   8246   8247     1   109.8000471 387.438400
   8243   8246   8248     1   109.8000471 387.438400
   8244   8243   8246     1   109.5600471 388.275200
   8244   8243   8245     1   108.4600466 328.025600
   8245   8243   8246     1   109.5600471 388.275200
   8246   8255   8256     1   109.5600471 388.275200
   8246   8255   8257     1   109.5600471 388.275200
   8247   8246   8255     1   109.8000471 387.438400
   8247   8246   8248     1   107.5800459 329.699200
   8248   8246   8255     1   109.8000471 387.438400
   8249   8261   8262     1   109.5600471 388.275200
   8249   8261   8263     1   109.5600471 388.275200
   8250   8249   8261     1   109.8000471 387.438400
   8250   8249   8251     1   107.5800459 329.699200
   8251   8249   8261     1   109.8000471 387.438400
   8252   8258   8259     1   109.5600471 388.275200
   8252   8258   8260     1   109.5600471 388.275200
   8253   8252   8258     1   109.8000471 387.438400
   8253   8252   8254     1   107.5800459 329.699200
   8254   8252   8258     1   109.8000471 387.438400
   8256   8255   8264     1   109.7800468 425.094400
   8256   8255   8257     1   108.4600466 328.025600
   8257   8255   8264     1   109.7800468 425.094400
   8259   8258  15412     1   109.7800468 425.094400
   8259   8258   8260     1   108.4600466 328.025600
   8260   8258  15412     1   109.7800468 425.094400
   8262   8261  15435     1   109.7800468 425.094400
   8262   8261   8263     1   108.4600466 328.025600
   8263   8261  15435     1   109.7800468 425.094400
   8265   8266   8267     1   109.8800469 414.216000
   8265   8266   8268     1   109.8800469 414.216000
   8265   8269   8270     1   109.8800469 414.216000
   8265   8269   8271     1   109.8800469 414.216000
   8265   8272   8273     1   109.8800469 414.216000
   8265   8272   8274     1   109.8800469 414.216000
   8266   8278   8279     1   109.8000471 387.438400
   8266   8278   8280     1   109.8000471 387.438400
   8267   8266   8278     1   109.5600471 388.275200
   8267   8266   8268     1   108.4600466 328.025600
   8268   8266   8278     1   109.5600471 388.275200
   8269   8281   8282     1   109.8000471 387.438400
   8269   8281   8283     1   109.8000471 387.438400
   8270   8269   8281     1   109.5600471 388.275200
   8270   8269   8271     1   108.4600466 328.025600
   8271   8269   8281     1   109.5600471 388.275200
   8272   8275   8276     1   109.8000471 387.438400
   8272   8275   8277     1   109.8000471 387.438400
   8273   8272   8275     1   109.5600471 388.275200
   8273   8272   8274     1   108.4600466 328.025600
   8274   8272   8275     1   109.5600471 388.275200
   8275   8284   8285     1   109.5600471 388.275200
   8275   8284   8286     1   109.5600471 388.275200
   8276   8275   8284     1   109.8000471 387.438400
   8276   8275   8277     1   107.5800459 329.699200
   8277   8275   8284     1   109.8000471 387.438400
   8278   8290   8291     1   109.5600471 388.275200
   8278   8290   8292     1   109.5600471 388.275200
   8279   8278   8290     1   109.8000471 387.438400
   8279   8278   8280     1   107.5800459 329.699200
   8280   8278   8290     1   109.8000471 387.438400
   8281   8287   8288     1   109.5600471 388.275200
   8281   8287   8289     1   109.5600471 388.275200
   8282   8281   8287     1   109.8000471 387.438400
   8282   8281   8283     1   107.5800459 329.699200
   8283   8281   8287     1   109.8000471 387.438400
   8285   8284   8293     1   109.7800468 425.094400
   8285   8284   8286     1   108.4600466 328.025600
   8286   8284   8293     1   109.7800468 425.094400
   8288   8287  15458     1   109.7800468 425.094400
   8288   8287   8289     1   108.4600466 328.025600
   8289   8287  15458     1   109.7800468 425.094400
   8291   8290  15481     1   109.7800468 425.094400
   8291   8290   8292     1   108.4600466 328.025600
   8292   8290  15481     1   109.7800468 425.094400
   8294   8295   8296     1   109.8800469 414.216000
   8294   8295   8297     1   109.8800469 414.216000
   8294   8298   8299     1   109.8800469 414.216000
   8294   8298   8300     1   109.8800469 414.216000
   8294   8301   8302     1   109.8800469 414.216000
   8294   8301   8303     1   109.8800469 414.216000
   8295   8307   8308     1   109.8000471 387.438400
   8295   8307   8309     1   109.8000471 387.438400
   8296   8295   8307     1   109.5600471 388.275200
   8296   8295   8297     1   108.4600466 328.025600
   8297   8295   8307     1   109.5600471 388.275200
   8298   8310   8311     1   109.8000471 387.438400
   8298   8310   8312     1   109.8000471 387.438400
   8299   8298   8310     1   109.5600471 388.275200
   8299   8298   8300     1   108.4600466 328.025600
   8300   8298   8310     1   109.5600471 388.275200
   8301   8304   8305     1   109.8000471 387.438400
   8301   8304   8306     1   109.8000471 387.438400
   8302   8301   8304     1   109.5600471 388.275200
   8302   8301   8303     1   108.4600466 328.025600
   8303   8301   8304     1   109.5600471 388.275200
   8304   8313   8314     1   109.5600471 388.275200
   8304   8313   8315     1   109.5600471 388.275200
   8305   8304   8313     1   109.8000471 387.438400
   8305   8304   8306     1   107.5800459 329.699200
   8306   8304   8313     1   109.8000471 387.438400
   8307   8319   8320     1   109.5600471 388.275200
   8307   8319   8321     1   109.5600471 388.275200
   8308   8307   8319     1   109.8000471 387.438400
   8308   8307   8309     1   107.5800459 329.699200
   8309   8307   8319     1   109.8000471 387.438400
   8310   8316   8317     1   109.5600471 388.275200
   8310   8316   8318     1   109.5600471 388.275200
   8311   8310   8316     1   109.8000471 387.438400
   8311   8310   8312     1   107.5800459 329.699200
   8312   8310   8316     1   109.8000471 387.438400
   8314   8313   8322     1   109.7800468 425.094400
   8314   8313   8315     1   108.4600466 328.025600
   8315   8313   8322     1   109.7800468 425.094400
   8317   8316  15504     1   109.7800468 425.094400
   8317   8316   8318     1   108.4600466 328.025600
   8318   8316  15504     1   109.7800468 425.094400
   8320   8319  15527     1   109.7800468 425.094400
   8320   8319   8321     1   108.4600466 328.025600
   8321   8319  15527     1   109.7800468 425.094400
   8323   8324   8325     1   109.8800469 414.216000
   8323   8324   8326     1   109.8800469 414.216000
   8323   8327   8328     1   109.8800469 414.216000
   8323   8327   8329     1   109.8800469 414.216000
   8323   8330   8331     1   109.8800469 414.216000
   8323   8330   8332     1   109.8800469 414.216000
   8324   8336   8337     1   109.8000471 387.438400
   8324   8336   8338     1   109.8000471 387.438400
   8325   8324   8336     1   109.5600471 388.275200
   8325   8324   8326     1   108.4600466 328.025600
   8326   8324   8336     1   109.5600471 388.275200
   8327   8339   8340     1   109.8000471 387.438400
   8327   8339   8341     1   109.8000471 387.438400
   8328   8327   8339     1   109.5600471 388.275200
   8328   8327   8329     1   108.4600466 328.025600
   8329   8327   8339     1   109.5600471 388.275200
   8330   8333   8334     1   109.8000471 387.438400
   8330   8333   8335     1   109.8000471 387.438400
   8331   8330   8333     1   109.5600471 388.275200
   8331   8330   8332     1   108.4600466 328.025600
   8332   8330   8333     1   109.5600471 388.275200
   8333   8342   8343     1   109.5600471 388.275200
   8333   8342   8344     1   109.5600471 388.275200
   8334   8333   8342     1   109.8000471 387.438400
   8334   8333   8335     1   107.5800459 329.699200
   8335   8333   8342     1   109.8000471 387.438400
   8336   8348   8349     1   109.5600471 388.275200
   8336   8348   8350     1   109.5600471 388.275200
   8337   8336   8348     1   109.8000471 387.438400
   8337   8336   8338     1   107.5800459 329.699200
   8338   8336   8348     1   109.8000471 387.438400
   8339   8345   8346     1   109.5600471 388.275200
   8339   8345   8347     1   109.5600471 388.275200
   8340   8339   8345     1   109.8000471 387.438400
   8340   8339   8341     1   107.5800459 329.699200
   8341   8339   8345     1   109.8000471 387.438400
   8343   8342   8351     1   109.7800468 425.094400
   8343   8342   8344     1   108.4600466 328.025600
   8344   8342   8351     1   109.7800468 425.094400
   8346   8345  15550     1   109.7800468 425.094400
   8346   8345   8347     1   108.4600466 328.025600
   8347   8345  15550     1   109.7800468 425.094400
   8349   8348  15573     1   109.7800468 425.094400
   8349   8348   8350     1   108.4600466 328.025600
   8350   8348  15573     1   109.7800468 425.094400
   8352   8353   8354     1   109.8800469 414.216000
   8352   8353   8355     1   109.8800469 414.216000
   8352   8356   8357     1   109.8800469 414.216000
   8352   8356   8358     1   109.8800469 414.216000
   8352   8359   8360     1   109.8800469 414.216000
   8352   8359   8361     1   109.8800469 414.216000
   8353   8365   8366     1   109.8000471 387.438400
   8353   8365   8367     1   109.8000471 387.438400
   8354   8353   8365     1   109.5600471 388.275200
   8354   8353   8355     1   108.4600466 328.025600
   8355   8353   8365     1   109.5600471 388.275200
   8356   8368   8369     1   109.8000471 387.438400
   8356   8368   8370     1   109.8000471 387.438400
   8357   8356   8368     1   109.5600471 388.275200
   8357   8356   8358     1   108.4600466 328.025600
   8358   8356   8368     1   109.5600471 388.275200
   8359   8362   8363     1   109.8000471 387.438400
   8359   8362   8364     1   109.8000471 387.438400
   8360   8359   8362     1   109.5600471 388.275200
   8360   8359   8361     1   108.4600466 328.025600
   8361   8359   8362     1   109.5600471 388.275200
   8362   8371   8372     1   109.5600471 388.275200
   8362   8371   8373     1   109.5600471 388.275200
   8363   8362   8371     1   109.8000471 387.438400
   8363   8362   8364     1   107.5800459 329.699200
   8364   8362   8371     1   109.8000471 387.438400
   8365   8377   8378     1   109.5600471 388.275200
   8365   8377   8379     1   109.5600471 388.275200
   8366   8365   8377     1   109.8000471 387.438400
   8366   8365   8367     1   107.5800459 329.699200
   8367   8365   8377     1   109.8000471 387.438400
   8368   8374   8375     1   109.5600471 388.275200
   8368   8374   8376     1   109.5600471 388.275200
   8369   8368   8374     1   109.8000471 387.438400
   8369   8368   8370     1   107.5800459 329.699200
   8370   8368   8374     1   109.8000471 387.438400
   8372   8371   8380     1   109.7800468 425.094400
   8372   8371   8373     1   108.4600466 328.025600
   8373   8371   8380     1   109.7800468 425.094400
   8375   8374  15596     1   109.7800468 425.094400
   8375   8374   8376     1   108.4600466 328.025600
   8376   8374  15596     1   109.7800468 425.094400
   8378   8377  15619     1   109.7800468 425.094400
   8378   8377   8379     1   108.4600466 328.025600
   8379   8377  15619     1   109.7800468 425.094400
   8381   8382   8383     1   109.8800469 414.216000
   8381   8382   8384     1   109.8800469 414.216000
   8381   8385   8386     1   109.8800469 414.216000
   8381   8385   8387     1   109.8800469 414.216000
   8381   8388   8389     1   109.8800469 414.216000
   8381   8388   8390     1   109.8800469 414.216000
   8382   8394   8395     1   109.8000471 387.438400
   8382   8394   8396     1   109.8000471 387.438400
   8383   8382   8394     1   109.5600471 388.275200
   8383   8382   8384     1   108.4600466 328.025600
   8384   8382   8394     1   109.5600471 388.275200
   8385   8397   8398     1   109.8000471 387.438400
   8385   8397   8399     1   109.8000471 387.438400
   8386   8385   8397     1   109.5600471 388.275200
   8386   8385   8387     1   108.4600466 328.025600
   8387   8385   8397     1   109.5600471 388.275200
   8388   8391   8392     1   109.8000471 387.438400
   8388   8391   8393     1   109.8000471 387.438400
   8389   8388   8391     1   109.5600471 388.275200
   8389   8388   8390     1   108.4600466 328.025600
   8390   8388   8391     1   109.5600471 388.275200
   8391   8400   8401     1   109.5600471 388.275200
   8391   8400   8402     1   109.5600471 388.275200
   8392   8391   8400     1   109.8000471 387.438400
   8392   8391   8393     1   107.5800459 329.699200
   8393   8391   8400     1   109.8000471 387.438400
   8394   8406   8407     1   109.5600471 388.275200
   8394   8406   8408     1   109.5600471 388.275200
   8395   8394   8406     1   109.8000471 387.438400
   8395   8394   8396     1   107.5800459 329.699200
   8396   8394   8406     1   109.8000471 387.438400
   8397   8403   8404     1   109.5600471 388.275200
   8397   8403   8405     1   109.5600471 388.275200
   8398   8397   8403     1   109.8000471 387.438400
   8398   8397   8399     1   107.5800459 329.699200
   8399   8397   8403     1   109.8000471 387.438400
   8401   8400   8409     1   109.7800468 425.094400
   8401   8400   8402     1   108.4600466 328.025600
   8402   8400   8409     1   109.7800468 425.094400
   8404   8403  15642     1   109.7800468 425.094400
   8404   8403   8405     1   108.4600466 328.025600
   8405   8403  15642     1   109.7800468 425.094400
   8407   8406  15665     1   109.7800468 425.094400
   8407   8406   8408     1   108.4600466 328.025600
   8408   8406  15665     1   109.7800468 425.094400
   8410   8411   8412     1   109.8800469 414.216000
   8410   8411   8413     1   109.8800469 414.216000
   8410   8414   8415     1   109.8800469 414.216000
   8410   8414   8416     1   109.8800469 414.216000
   8410   8417   8418     1   109.8800469 414.216000
   8410   8417   8419     1   109.8800469 414.216000
   8411   8423   8424     1   109.8000471 387.438400
   8411   8423   8425     1   109.8000471 387.438400
   8412   8411   8423     1   109.5600471 388.275200
   8412   8411   8413     1   108.4600466 328.025600
   8413   8411   8423     1   109.5600471 388.275200
   8414   8426   8427     1   109.8000471 387.438400
   8414   8426   8428     1   109.8000471 387.438400
   8415   8414   8426     1   109.5600471 388.275200
   8415   8414   8416     1   108.4600466 328.025600
   8416   8414   8426     1   109.5600471 388.275200
   8417   8420   8421     1   109.8000471 387.438400
   8417   8420   8422     1   109.8000471 387.438400
   8418   8417   8420     1   109.5600471 388.275200
   8418   8417   8419     1   108.4600466 328.025600
   8419   8417   8420     1   109.5600471 388.275200
   8420   8429   8430     1   109.5600471 388.275200
   8420   8429   8431     1   109.5600471 388.275200
   8421   8420   8429     1   109.8000471 387.438400
   8421   8420   8422     1   107.5800459 329.699200
   8422   8420   8429     1   109.8000471 387.438400
   8423   8435   8436     1   109.5600471 388.275200
   8423   8435   8437     1   109.5600471 388.275200
   8424   8423   8435     1   109.8000471 387.438400
   8424   8423   8425     1   107.5800459 329.699200
   8425   8423   8435     1   109.8000471 387.438400
   8426   8432   8433     1   109.5600471 388.275200
   8426   8432   8434     1   109.5600471 388.275200
   8427   8426   8432     1   109.8000471 387.438400
   8427   8426   8428     1   107.5800459 329.699200
   8428   8426   8432     1   109.8000471 387.438400
   8430   8429   8438     1   109.7800468 425.094400
   8430   8429   8431     1   108.4600466 328.025600
   8431   8429   8438     1   109.7800468 425.094400
   8433   8432  15688     1   109.7800468 425.094400
   8433   8432   8434     1   108.4600466 328.025600
   8434   8432  15688     1   109.7800468 425.094400
   8436   8435  15711     1   109.7800468 425.094400
   8436   8435   8437     1   108.4600466 328.025600
   8437   8435  15711     1   109.7800468 425.094400
   8439   8440   8441     1   109.8800469 414.216000
   8439   8440   8442     1   109.8800469 414.216000
   8439   8443   8444     1   109.8800469 414.216000
   8439   8443   8445     1   109.8800469 414.216000
   8439   8446   8447     1   109.8800469 414.216000
   8439   8446   8448     1   109.8800469 414.216000
   8440   8452   8453     1   109.8000471 387.438400
   8440   8452   8454     1   109.8000471 387.438400
   8441   8440   8452     1   109.5600471 388.275200
   8441   8440   8442     1   108.4600466 328.025600
   8442   8440   8452     1   109.5600471 388.275200
   8443   8455   8456     1   109.8000471 387.438400
   8443   8455   8457     1   109.8000471 387.438400
   8444   8443   8455     1   109.5600471 388.275200
   8444   8443   8445     1   108.4600466 328.025600
   8445   8443   8455     1   109.5600471 388.275200
   8446   8449   8450     1   109.8000471 387.438400
   8446   8449   8451     1   109.8000471 387.438400
   8447   8446   8449     1   109.5600471 388.275200
   8447   8446   8448     1   108.4600466 328.025600
   8448   8446   8449     1   109.5600471 388.275200
   8449   8458   8459     1   109.5600471 388.275200
   8449   8458   8460     1   109.5600471 388.275200
   8450   8449   8458     1   109.8000471 387.438400
   8450   8449   8451     1   107.5800459 329.699200
   8451   8449   8458     1   109.8000471 387.438400
   8452   8464   8465     1   109.5600471 388.275200
   8452   8464   8466     1   109.5600471 388.275200
   8453   8452   8464     1   109.8000471 387.438400
   8453   8452   8454     1   107.5800459 329.699200
   8454   8452   8464     1   109.8000471 387.438400
   8455   8461   8462     1   109.5600471 388.275200
   8455   8461   8463     1   109.5600471 388.275200
   8456   8455   8461     1   109.8000471 387.438400
   8456   8455   8457     1   107.5800459 329.699200
   8457   8455   8461     1   109.8000471 387.438400
   8459   8458   8467     1   109.7800468 425.094400
   8459   8458   8460     1   108.4600466 328.025600
   8460   8458   8467     1   109.7800468 425.094400
   8462   8461  15734     1   109.7800468 425.094400
   8462   8461   8463     1   108.4600466 328.025600
   8463   8461  15734     1   109.7800468 425.094400
   8465   8464  15757     1   109.7800468 425.094400
   8465   8464   8466     1   108.4600466 328.025600
   8466   8464  15757     1   109.7800468 425.094400
   8468   8469   8470     1   109.8800469 414.216000
   8468   8469   8471     1   109.8800469 414.216000
   8468   8472   8473     1   109.8800469 414.216000
   8468   8472   8474     1   109.8800469 414.216000
   8468   8475   8476     1   109.8800469 414.216000
   8468   8475   8477     1   109.8800469 414.216000
   8469   8481   8482     1   109.8000471 387.438400
   8469   8481   8483     1   109.8000471 387.438400
   8470   8469   8481     1   109.5600471 388.275200
   8470   8469   8471     1   108.4600466 328.025600
   8471   8469   8481     1   109.5600471 388.275200
   8472   8484   8485     1   109.8000471 387.438400
   8472   8484   8486     1   109.8000471 387.438400
   8473   8472   8484     1   109.5600471 388.275200
   8473   8472   8474     1   108.4600466 328.025600
   8474   8472   8484     1   109.5600471 388.275200
   8475   8478   8479     1   109.8000471 387.438400
   8475   8478   8480     1   109.8000471 387.438400
   8476   8475   8478     1   109.5600471 388.275200
   8476   8475   8477     1   108.4600466 328.025600
   8477   8475   8478     1   109.5600471 388.275200
   8478   8487   8488     1   109.5600471 388.275200
   8478   8487   8489     1   109.5600471 388.275200
   8479   8478   8487     1   109.8000471 387.438400
   8479   8478   8480     1   107.5800459 329.699200
   8480   8478   8487     1   109.8000471 387.438400
   8481   8493   8494     1   109.5600471 388.275200
   8481   8493   8495     1   109.5600471 388.275200
   8482   8481   8493     1   109.8000471 387.438400
   8482   8481   8483     1   107.5800459 329.699200
   8483   8481   8493     1   109.8000471 387.438400
   8484   8490   8491     1   109.5600471 388.275200
   8484   8490   8492     1   109.5600471 388.275200
   8485   8484   8490     1   109.8000471 387.438400
   8485   8484   8486     1   107.5800459 329.699200
   8486   8484   8490     1   109.8000471 387.438400
   8488   8487   8496     1   109.7800468 425.094400
   8488   8487   8489     1   108.4600466 328.025600
   8489   8487   8496     1   109.7800468 425.094400
   8491   8490  15780     1   109.7800468 425.094400
   8491   8490   8492     1   108.4600466 328.025600
   8492   8490  15780     1   109.7800468 425.094400
   8494   8493  15803     1   109.7800468 425.094400
   8494   8493   8495     1   108.4600466 328.025600
   8495   8493  15803     1   109.7800468 425.094400
   8497   8498   8499     1   109.8800469 414.216000
   8497   8498   8500     1   109.8800469 414.216000
   8497   8501   8502     1   109.8800469 414.216000
   8497   8501   8503     1   109.8800469 414.216000
   8497   8504   8505     1   109.8800469 414.216000
   8497   8504   8506     1   109.8800469 414.216000
   8498   8510   8511     1   109.8000471 387.438400
   8498   8510   8512     1   109.8000471 387.438400
   8499   8498   8510     1   109.5600471 388.275200
   8499   8498   8500     1   108.4600466 328.025600
   8500   8498   8510     1   109.5600471 388.275200
   8501   8513   8514     1   109.8000471 387.438400
   8501   8513   8515     1   109.8000471 387.438400
   8502   8501   8513     1   109.5600471 388.275200
   8502   8501   8503     1   108.4600466 328.025600
   8503   8501   8513     1   109.5600471 388.275200
   8504   8507   8508     1   109.8000471 387.438400
   8504   8507   8509     1   109.8000471 387.438400
   8505   8504   8507     1   109.5600471 388.275200
   8505   8504   8506     1   108.4600466 328.025600
   8506   8504   8507     1   109.5600471 388.275200
   8507   8516   8517     1   109.5600471 388.275200
   8507   8516   8518     1   109.5600471 388.275200
   8508   8507   8516     1   109.8000471 387.438400
   8508   8507   8509     1   107.5800459 329.699200
   8509   8507   8516     1   109.8000471 387.438400
   8510   8522   8523     1   109.5600471 388.275200
   8510   8522   8524     1   109.5600471 388.275200
   8511   8510   8522     1   109.8000471 387.438400
   8511   8510   8512     1   107.5800459 329.699200
   8512   8510   8522     1   109.8000471 387.438400
   8513   8519   8520     1   109.5600471 388.275200
   8513   8519   8521     1   109.5600471 388.275200
   8514   8513   8519     1   109.8000471 387.438400
   8514   8513   8515     1   107.5800459 329.699200
   8515   8513   8519     1   109.8000471 387.438400
   8517   8516   8525     1   109.7800468 425.094400
   8517   8516   8518     1   108.4600466 328.025600
   8518   8516   8525     1   109.7800468 425.094400
   8520   8519  15826     1   109.7800468 425.094400
   8520   8519   8521     1   108.4600466 328.025600
   8521   8519  15826     1   109.7800468 425.094400
   8523   8522  15849     1   109.7800468 425.094400
   8523   8522   8524     1   108.4600466 328.025600
   8524   8522  15849     1   109.7800468 425.094400
   8526   8527   8528     1   109.8800469 414.216000
   8526   8527   8529     1   109.8800469 414.216000
   8526   8530   8531     1   109.8800469 414.216000
   8526   8530   8532     1   109.8800469 414.216000
   8526   8533   8534     1   109.8800469 414.216000
   8526   8533   8535     1   109.8800469 414.216000
   8527   8539   8540     1   109.8000471 387.438400
   8527   8539   8541     1   109.8000471 387.438400
   8528   8527   8539     1   109.5600471 388.275200
   8528   8527   8529     1   108.4600466 328.025600
   8529   8527   8539     1   109.5600471 388.275200
   8530   8542   8543     1   109.8000471 387.438400
   8530   8542   8544     1   109.8000471 387.438400
   8531   8530   8542     1   109.5600471 388.275200
   8531   8530   8532     1   108.4600466 328.025600
   8532   8530   8542     1   109.5600471 388.275200
   8533   8536   8537     1   109.8000471 387.438400
   8533   8536   8538     1   109.8000471 387.438400
   8534   8533   8536     1   109.5600471 388.275200
   8534   8533   8535     1   108.4600466 328.025600
   8535   8533   8536     1   109.5600471 388.275200
   8536   8545   8546     1   109.5600471 388.275200
   8536   8545   8547     1   109.5600471 388.275200
   8537   8536   8545     1   109.8000471 387.438400
   8537   8536   8538     1   107.5800459 329.699200
   8538   8536   8545     1   109.8000471 387.438400
   8539   8551   8552     1   109.5600471 388.275200
   8539   8551   8553     1   109.5600471 388.275200
   8540   8539   8551     1   109.8000471 387.438400
   8540   8539   8541     1   107.5800459 329.699200
   8541   8539   8551     1   109.8000471 387.438400
   8542   8548   8549     1   109.5600471 388.275200
   8542   8548   8550     1   109.5600471 388.275200
   8543   8542   8548     1   109.8000471 387.438400
   8543   8542   8544     1   107.5800459 329.699200
   8544   8542   8548     1   109.8000471 387.438400
   8546   8545   8554     1   109.7800468 425.094400
   8546   8545   8547     1   108.4600466 328.025600
   8547   8545   8554     1   109.7800468 425.094400
   8549   8548  15872     1   109.7800468 425.094400
   8549   8548   8550     1   108.4600466 328.025600
   8550   8548  15872     1   109.7800468 425.094400
   8552   8551  15895     1   109.7800468 425.094400
   8552   8551   8553     1   108.4600466 328.025600
   8553   8551  15895     1   109.7800468 425.094400
   8555   8556   8557     1   109.8800469 414.216000
   8555   8556   8558     1   109.8800469 414.216000
   8555   8559   8560     1   109.8800469 414.216000
   8555   8559   8561     1   109.8800469 414.216000
   8555   8562   8563     1   109.8800469 414.216000
   8555   8562   8564     1   109.8800469 414.216000
   8556   8568   8569     1   109.8000471 387.438400
   8556   8568   8570     1   109.8000471 387.438400
   8557   8556   8568     1   109.5600471 388.275200
   8557   8556   8558     1   108.4600466 328.025600
   8558   8556   8568     1   109.5600471 388.275200
   8559   8571   8572     1   109.8000471 387.438400
   8559   8571   8573     1   109.8000471 387.438400
   8560   8559   8571     1   109.5600471 388.275200
   8560   8559   8561     1   108.4600466 328.025600
   8561   8559   8571     1   109.5600471 388.275200
   8562   8565   8566     1   109.8000471 387.438400
   8562   8565   8567     1   109.8000471 387.438400
   8563   8562   8565     1   109.5600471 388.275200
   8563   8562   8564     1   108.4600466 328.025600
   8564   8562   8565     1   109.5600471 388.275200
   8565   8574   8575     1   109.5600471 388.275200
   8565   8574   8576     1   109.5600471 388.275200
   8566   8565   8574     1   109.8000471 387.438400
   8566   8565   8567     1   107.5800459 329.699200
   8567   8565   8574     1   109.8000471 387.438400
   8568   8580   8581     1   109.5600471 388.275200
   8568   8580   8582     1   109.5600471 388.275200
   8569   8568   8580     1   109.8000471 387.438400
   8569   8568   8570     1   107.5800459 329.699200
   8570   8568   8580     1   109.8000471 387.438400
   8571   8577   8578     1   109.5600471 388.275200
   8571   8577   8579     1   109.5600471 388.275200
   8572   8571   8577     1   109.8000471 387.438400
   8572   8571   8573     1   107.5800459 329.699200
   8573   8571   8577     1   109.8000471 387.438400
   8575   8574   8583     1   109.7800468 425.094400
   8575   8574   8576     1   108.4600466 328.025600
   8576   8574   8583     1   109.7800468 425.094400
   8578   8577  15918     1   109.7800468 425.094400
   8578   8577   8579     1   108.4600466 328.025600
   8579   8577  15918     1   109.7800468 425.094400
   8581   8580  15941     1   109.7800468 425.094400
   8581   8580   8582     1   108.4600466 328.025600
   8582   8580  15941     1   109.7800468 425.094400
   8584   8585   8586     1   109.8800469 414.216000
   8584   8585   8587     1   109.8800469 414.216000
   8584   8588   8589     1   109.8800469 414.216000
   8584   8588   8590     1   109.8800469 414.216000
   8584   8591   8592     1   109.8800469 414.216000
   8584   8591   8593     1   109.8800469 414.216000
   8585   8597   8598     1   109.8000471 387.438400
   8585   8597   8599     1   109.8000471 387.438400
   8586   8585   8597     1   109.5600471 388.275200
   8586   8585   8587     1   108.4600466 328.025600
   8587   8585   8597     1   109.5600471 388.275200
   8588   8600   8601     1   109.8000471 387.438400
   8588   8600   8602     1   109.8000471 387.438400
   8589   8588   8600     1   109.5600471 388.275200
   8589   8588   8590     1   108.4600466 328.025600
   8590   8588   8600     1   109.5600471 388.275200
   8591   8594   8595     1   109.8000471 387.438400
   8591   8594   8596     1   109.8000471 387.438400
   8592   8591   8594     1   109.5600471 388.275200
   8592   8591   8593     1   108.4600466 328.025600
   8593   8591   8594     1   109.5600471 388.275200
   8594   8603   8604     1   109.5600471 388.275200
   8594   8603   8605     1   109.5600471 388.275200
   8595   8594   8603     1   109.8000471 387.438400
   8595   8594   8596     1   107.5800459 329.699200
   8596   8594   8603     1   109.8000471 387.438400
   8597   8609   8610     1   109.5600471 388.275200
   8597   8609   8611     1   109.5600471 388.275200
   8598   8597   8609     1   109.8000471 387.438400
   8598   8597   8599     1   107.5800459 329.699200
   8599   8597   8609     1   109.8000471 387.438400
   8600   8606   8607     1   109.5600471 388.275200
   8600   8606   8608     1   109.5600471 388.275200
   8601   8600   8606     1   109.8000471 387.438400
   8601   8600   8602     1   107.5800459 329.699200
   8602   8600   8606     1   109.8000471 387.438400
   8604   8603   8612     1   109.7800468 425.094400
   8604   8603   8605     1   108.4600466 328.025600
   8605   8603   8612     1   109.7800468 425.094400
   8607   8606  15964     1   109.7800468 425.094400
   8607   8606   8608     1   108.4600466 328.025600
   8608   8606  15964     1   109.7800468 425.094400
   8610   8609  15987     1   109.7800468 425.094400
   8610   8609   8611     1   108.4600466 328.025600
   8611   8609  15987     1   109.7800468 425.094400
   8613   8614   8615     1   109.8800469 414.216000
   8613   8614   8616     1   109.8800469 414.216000
   8613   8617   8618     1   109.8800469 414.216000
   8613   8617   8619     1   109.8800469 414.216000
   8613   8620   8621     1   109.8800469 414.216000
   8613   8620   8622     1   109.8800469 414.216000
   8614   8626   8627     1   109.8000471 387.438400
   8614   8626   8628     1   109.8000471 387.438400
   8615   8614   8626     1   109.5600471 388.275200
   8615   8614   8616     1   108.4600466 328.025600
   8616   8614   8626     1   109.5600471 388.275200
   8617   8629   8630     1   109.8000471 387.438400
   8617   8629   8631     1   109.8000471 387.438400
   8618   8617   8629     1   109.5600471 388.275200
   8618   8617   8619     1   108.4600466 328.025600
   8619   8617   8629     1   109.5600471 388.275200
   8620   8623   8624     1   109.8000471 387.438400
   8620   8623   8625     1   109.8000471 387.438400
   8621   8620   8623     1   109.5600471 388.275200
   8621   8620   8622     1   108.4600466 328.025600
   8622   8620   8623     1   109.5600471 388.275200
   8623   8632   8633     1   109.5600471 388.275200
   8623   8632   8634     1   109.5600471 388.275200
   8624   8623   8632     1   109.8000471 387.438400
   8624   8623   8625     1   107.5800459 329.699200
   8625   8623   8632     1   109.8000471 387.438400
   8626   8638   8639     1   109.5600471 388.275200
   8626   8638   8640     1   109.5600471 388.275200
   8627   8626   8638     1   109.8000471 387.438400
   8627   8626   8628     1   107.5800459 329.699200
   8628   8626   8638     1   109.8000471 387.438400
   8629   8635   8636     1   109.5600471 388.275200
   8629   8635   8637     1   109.5600471 388.275200
   8630   8629   8635     1   109.8000471 387.438400
   8630   8629   8631     1   107.5800459 329.699200
   8631   8629   8635     1   109.8000471 387.438400
   8633   8632   8641     1   109.7800468 425.094400
   8633   8632   8634     1   108.4600466 328.025600
   8634   8632   8641     1   109.7800468 425.094400
   8636   8635  16010     1   109.7800468 425.094400
   8636   8635   8637     1   108.4600466 328.025600
   8637   8635  16010     1   109.7800468 425.094400
   8639   8638  16033     1   109.7800468 425.094400
   8639   8638   8640     1   108.4600466 328.025600
   8640   8638  16033     1   109.7800468 425.094400
   8642   8643   8644     1   109.8800469 414.216000
   8642   8643   8645     1   109.8800469 414.216000
   8642   8646   8647     1   109.8800469 414.216000
   8642   8646   8648     1   109.8800469 414.216000
   8642   8649   8650     1   109.8800469 414.216000
   8642   8649   8651     1   109.8800469 414.216000
   8643   8655   8656     1   109.8000471 387.438400
   8643   8655   8657     1   109.8000471 387.438400
   8644   8643   8655     1   109.5600471 388.275200
   8644   8643   8645     1   108.4600466 328.025600
   8645   8643   8655     1   109.5600471 388.275200
   8646   8658   8659     1   109.8000471 387.438400
   8646   8658   8660     1   109.8000471 387.438400
   8647   8646   8658     1   109.5600471 388.275200
   8647   8646   8648     1   108.4600466 328.025600
   8648   8646   8658     1   109.5600471 388.275200
   8649   8652   8653     1   109.8000471 387.438400
   8649   8652   8654     1   109.8000471 387.438400
   8650   8649   8652     1   109.5600471 388.275200
   8650   8649   8651     1   108.4600466 328.025600
   8651   8649   8652     1   109.5600471 388.275200
   8652   8661   8662     1   109.5600471 388.275200
   8652   8661   8663     1   109.5600471 388.275200
   8653   8652   8661     1   109.8000471 387.438400
   8653   8652   8654     1   107.5800459 329.699200
   8654   8652   8661     1   109.8000471 387.438400
   8655   8667   8668     1   109.5600471 388.275200
   8655   8667   8669     1   109.5600471 388.275200
   8656   8655   8667     1   109.8000471 387.438400
   8656   8655   8657     1   107.5800459 329.699200
   8657   8655   8667     1   109.8000471 387.438400
   8658   8664   8665     1   109.5600471 388.275200
   8658   8664   8666     1   109.5600471 388.275200
   8659   8658   8664     1   109.8000471 387.438400
   8659   8658   8660     1   107.5800459 329.699200
   8660   8658   8664     1   109.8000471 387.438400
   8662   8661   8670     1   109.7800468 425.094400
   8662   8661   8663     1   108.4600466 328.025600
   8663   8661   8670     1   109.7800468 425.094400
   8665   8664  16056     1   109.7800468 425.094400
   8665   8664   8666     1   108.4600466 328.025600
   8666   8664  16056     1   109.7800468 425.094400
   8668   8667  16079     1   109.7800468 425.094400
   8668   8667   8669     1   108.4600466 328.025600
   8669   8667  16079     1   109.7800468 425.094400
   8671   8672   8673     1   109.8800469 414.216000
   8671   8672   8674     1   109.8800469 414.216000
   8671   8675   8676     1   109.8800469 414.216000
   8671   8675   8677     1   109.8800469 414.216000
   8671   8678   8679     1   109.8800469 414.216000
   8671   8678   8680     1   109.8800469 414.216000
   8672   8684   8685     1   109.8000471 387.438400
   8672   8684   8686     1   109.8000471 387.438400
   8673   8672   8684     1   109.5600471 388.275200
   8673   8672   8674     1   108.4600466 328.025600
   8674   8672   8684     1   109.5600471 388.275200
   8675   8687   8688     1   109.8000471 387.438400
   8675   8687   8689     1   109.8000471 387.438400
   8676   8675   8687     1   109.5600471 388.275200
   8676   8675   8677     1   108.4600466 328.025600
   8677   8675   8687     1   109.5600471 388.275200
   8678   8681   8682     1   109.8000471 387.438400
   8678   8681   8683     1   109.8000471 387.438400
   8679   8678   8681     1   109.5600471 388.275200
   8679   8678   8680     1   108.4600466 328.025600
   8680   8678   8681     1   109.5600471 388.275200
   8681   8690   8691     1   109.5600471 388.275200
   8681   8690   8692     1   109.5600471 388.275200
   8682   8681   8690     1   109.8000471 387.438400
   8682   8681   8683     1   107.5800459 329.699200
   8683   8681   8690     1   109.8000471 387.438400
   8684   8696   8697     1   109.5600471 388.275200
   8684   8696   8698     1   109.5600471 388.275200
   8685   8684   8696     1   109.8000471 387.438400
   8685   8684   8686     1   107.5800459 329.699200
   8686   8684   8696     1   109.8000471 387.438400
   8687   8693   8694     1   109.5600471 388.275200
   8687   8693   8695     1   109.5600471 388.275200
   8688   8687   8693     1   109.8000471 387.438400
   8688   8687   8689     1   107.5800459 329.699200
   8689   8687   8693     1   109.8000471 387.438400
   8691   8690   8699     1   109.7800468 425.094400
   8691   8690   8692     1   108.4600466 328.025600
   8692   8690   8699     1   109.7800468 425.094400
   8694   8693  16102     1   109.7800468 425.094400
   8694   8693   8695     1   108.4600466 328.025600
   8695   8693  16102     1   109.7800468 425.094400
   8697   8696  16125     1   109.7800468 425.094400
   8697   8696   8698     1   108.4600466 328.025600
   8698   8696  16125     1   109.7800468 425.094400
   8700   8701   8702     1   109.8800469 414.216000
   8700   8701   8703     1   109.8800469 414.216000
   8700   8704   8705     1   109.8800469 414.216000
   8700   8704   8706     1   109.8800469 414.216000
   8700   8707   8708     1   109.8800469 414.216000
   8700   8707   8709     1   109.8800469 414.216000
   8701   8713   8714     1   109.8000471 387.438400
   8701   8713   8715     1   109.8000471 387.438400
   8702   8701   8713     1   109.5600471 388.275200
   8702   8701   8703     1   108.4600466 328.025600
   8703   8701   8713     1   109.5600471 388.275200
   8704   8716   8717     1   109.8000471 387.438400
   8704   8716   8718     1   109.8000471 387.438400
   8705   8704   8716     1   109.5600471 388.275200
   8705   8704   8706     1   108.4600466 328.025600
   8706   8704   8716     1   109.5600471 388.275200
   8707   8710   8711     1   109.8000471 387.438400
   8707   8710   8712     1   109.8000471 387.438400
   8708   8707   8710     1   109.5600471 388.275200
   8708   8707   8709     1   108.4600466 328.025600
   8709   8707   8710     1   109.5600471 388.275200
   8710   8719   8720     1   109.5600471 388.275200
   8710   8719   8721     1   109.5600471 388.275200
   8711   8710   8719     1   109.8000471 387.438400
   8711   8710   8712     1   107.5800459 329.699200
   8712   8710   8719     1   109.8000471 387.438400
   8713   8725   8726     1   109.5600471 388.275200
   8713   8725   8727     1   109.5600471 388.275200
   8714   8713   8725     1   109.8000471 387.438400
   8714   8713   8715     1   107.5800459 329.699200
   8715   8713   8725     1   109.8000471 387.438400
   8716   8722   8723     1   109.5600471 388.275200
   8716   8722   8724     1   109.5600471 388.275200
   8717   8716   8722     1   109.8000471 387.438400
   8717   8716   8718     1   107.5800459 329.699200
   8718   8716   8722     1   109.8000471 387.438400
   8720   8719   8728     1   109.7800468 425.094400
   8720   8719   8721     1   108.4600466 328.025600
   8721   8719   8728     1   109.7800468 425.094400
   8723   8722  16148     1   109.7800468 425.094400
   8723   8722   8724     1   108.4600466 328.025600
   8724   8722  16148     1   109.7800468 425.094400
   8726   8725  16171     1   109.7800468 425.094400
   8726   8725   8727     1   108.4600466 328.025600
   8727   8725  16171     1   109.7800468 425.094400
   8729   8730   8731     1   109.8800469 414.216000
   8729   8730   8732     1   109.8800469 414.216000
   8729   8733   8734     1   109.8800469 414.216000
   8729   8733   8735     1   109.8800469 414.216000
   8729   8736   8737     1   109.8800469 414.216000
   8729   8736   8738     1   109.8800469 414.216000
   8730   8742   8743     1   109.8000471 387.438400
   8730   8742   8744     1   109.8000471 387.438400
   8731   8730   8742     1   109.5600471 388.275200
   8731   8730   8732     1   108.4600466 328.025600
   8732   8730   8742     1   109.5600471 388.275200
   8733   8745   8746     1   109.8000471 387.438400
   8733   8745   8747     1   109.8000471 387.438400
   8734   8733   8745     1   109.5600471 388.275200
   8734   8733   8735     1   108.4600466 328.025600
   8735   8733   8745     1   109.5600471 388.275200
   8736   8739   8740     1   109.8000471 387.438400
   8736   8739   8741     1   109.8000471 387.438400
   8737   8736   8739     1   109.5600471 388.275200
   8737   8736   8738     1   108.4600466 328.025600
   8738   8736   8739     1   109.5600471 388.275200
   8739   8748   8749     1   109.5600471 388.275200
   8739   8748   8750     1   109.5600471 388.275200
   8740   8739   8748     1   109.8000471 387.438400
   8740   8739   8741     1   107.5800459 329.699200
   8741   8739   8748     1   109.8000471 387.438400
   8742   8754   8755     1   109.5600471 388.275200
   8742   8754   8756     1   109.5600471 388.275200
   8743   8742   8754     1   109.8000471 387.438400
   8743   8742   8744     1   107.5800459 329.699200
   8744   8742   8754     1   109.8000471 387.438400
   8745   8751   8752     1   109.5600471 388.275200
   8745   8751   8753     1   109.5600471 388.275200
   8746   8745   8751     1   109.8000471 387.438400
   8746   8745   8747     1   107.5800459 329.699200
   8747   8745   8751     1   109.8000471 387.438400
   8749   8748   8757     1   109.7800468 425.094400
   8749   8748   8750     1   108.4600466 328.025600
   8750   8748   8757     1   109.7800468 425.094400
   8752   8751  16194     1   109.7800468 425.094400
   8752   8751   8753     1   108.4600466 328.025600
   8753   8751  16194     1   109.7800468 425.094400
   8755   8754  16217     1   109.7800468 425.094400
   8755   8754   8756     1   108.4600466 328.025600
   8756   8754  16217     1   109.7800468 425.094400
   8758   8759   8760     1   109.8800469 414.216000
   8758   8759   8761     1   109.8800469 414.216000
   8758   8762   8763     1   109.8800469 414.216000
   8758   8762   8764     1   109.8800469 414.216000
   8758   8765   8766     1   109.8800469 414.216000
   8758   8765   8767     1   109.8800469 414.216000
   8759   8771   8772     1   109.8000471 387.438400
   8759   8771   8773     1   109.8000471 387.438400
   8760   8759   8771     1   109.5600471 388.275200
   8760   8759   8761     1   108.4600466 328.025600
   8761   8759   8771     1   109.5600471 388.275200
   8762   8774   8775     1   109.8000471 387.438400
   8762   8774   8776     1   109.8000471 387.438400
   8763   8762   8774     1   109.5600471 388.275200
   8763   8762   8764     1   108.4600466 328.025600
   8764   8762   8774     1   109.5600471 388.275200
   8765   8768   8769     1   109.8000471 387.438400
   8765   8768   8770     1   109.8000471 387.438400
   8766   8765   8768     1   109.5600471 388.275200
   8766   8765   8767     1   108.4600466 328.025600
   8767   8765   8768     1   109.5600471 388.275200
   8768   8777   8778     1   109.5600471 388.275200
   8768   8777   8779     1   109.5600471 388.275200
   8769   8768   8777     1   109.8000471 387.438400
   8769   8768   8770     1   107.5800459 329.699200
   8770   8768   8777     1   109.8000471 387.438400
   8771   8783   8784     1   109.5600471 388.275200
   8771   8783   8785     1   109.5600471 388.275200
   8772   8771   8783     1   109.8000471 387.438400
   8772   8771   8773     1   107.5800459 329.699200
   8773   8771   8783     1   109.8000471 387.438400
   8774   8780   8781     1   109.5600471 388.275200
   8774   8780   8782     1   109.5600471 388.275200
   8775   8774   8780     1   109.8000471 387.438400
   8775   8774   8776     1   107.5800459 329.699200
   8776   8774   8780     1   109.8000471 387.438400
   8778   8777   8786     1   109.7800468 425.094400
   8778   8777   8779     1   108.4600466 328.025600
   8779   8777   8786     1   109.7800468 425.094400
   8781   8780  16240     1   109.7800468 425.094400
   8781   8780   8782     1   108.4600466 328.025600
   8782   8780  16240     1   109.7800468 425.094400
   8784   8783  16263     1   109.7800468 425.094400
   8784   8783   8785     1   108.4600466 328.025600
   8785   8783  16263     1   109.7800468 425.094400
   8787   8788   8789     1   109.8800469 414.216000
   8787   8788   8790     1   109.8800469 414.216000
   8787   8791   8792     1   109.8800469 414.216000
   8787   8791   8793     1   109.8800469 414.216000
   8787   8794   8795     1   109.8800469 414.216000
   8787   8794   8796     1   109.8800469 414.216000
   8788   8800   8801     1   109.8000471 387.438400
   8788   8800   8802     1   109.8000471 387.438400
   8789   8788   8800     1   109.5600471 388.275200
   8789   8788   8790     1   108.4600466 328.025600
   8790   8788   8800     1   109.5600471 388.275200
   8791   8803   8804     1   109.8000471 387.438400
   8791   8803   8805     1   109.8000471 387.438400
   8792   8791   8803     1   109.5600471 388.275200
   8792   8791   8793     1   108.4600466 328.025600
   8793   8791   8803     1   109.5600471 388.275200
   8794   8797   8798     1   109.8000471 387.438400
   8794   8797   8799     1   109.8000471 387.438400
   8795   8794   8797     1   109.5600471 388.275200
   8795   8794   8796     1   108.4600466 328.025600
   8796   8794   8797     1   109.5600471 388.275200
   8797   8806   8807     1   109.5600471 388.275200
   8797   8806   8808     1   109.5600471 388.275200
   8798   8797   8806     1   109.8000471 387.438400
   8798   8797   8799     1   107.5800459 329.699200
   8799   8797   8806     1   109.8000471 387.438400
   8800   8812   8813     1   109.5600471 388.275200
   8800   8812   8814     1   109.5600471 388.275200
   8801   8800   8812     1   109.8000471 387.438400
   8801   8800   8802     1   107.5800459 329.699200
   8802   8800   8812     1   109.8000471 387.438400
   8803   8809   8810     1   109.5600471 388.275200
   8803   8809   8811     1   109.5600471 388.275200
   8804   8803   8809     1   109.8000471 387.438400
   8804   8803   8805     1   107.5800459 329.699200
   8805   8803   8809     1   109.8000471 387.438400
   8807   8806   8815     1   109.7800468 425.094400
   8807   8806   8808     1   108.4600466 328.025600
   8808   8806   8815     1   109.7800468 425.094400
   8810   8809  16286     1   109.7800468 425.094400
   8810   8809   8811     1   108.4600466 328.025600
   8811   8809  16286     1   109.7800468 425.094400
   8813   8812  16309     1   109.7800468 425.094400
   8813   8812   8814     1   108.4600466 328.025600
   8814   8812  16309     1   109.7800468 425.094400
   8816   8817   8818     1   109.8800469 414.216000
   8816   8817   8819     1   109.8800469 414.216000
   8816   8820   8821     1   109.8800469 414.216000
   8816   8820   8822     1   109.8800469 414.216000
   8816   8823   8824     1   109.8800469 414.216000
   8816   8823   8825     1   109.8800469 414.216000
   8817   8829   8830     1   109.8000471 387.438400
   8817   8829   8831     1   109.8000471 387.438400
   8818   8817   8829     1   109.5600471 388.275200
   8818   8817   8819     1   108.4600466 328.025600
   8819   8817   8829     1   109.5600471 388.275200
   8820   8832   8833     1   109.8000471 387.438400
   8820   8832   8834     1   109.8000471 387.438400
   8821   8820   8832     1   109.5600471 388.275200
   8821   8820   8822     1   108.4600466 328.025600
   8822   8820   8832     1   109.5600471 388.275200
   8823   8826   8827     1   109.8000471 387.438400
   8823   8826   8828     1   109.8000471 387.438400
   8824   8823   8826     1   109.5600471 388.275200
   8824   8823   8825     1   108.4600466 328.025600
   8825   8823   8826     1   109.5600471 388.275200
   8826   8835   8836     1   109.5600471 388.275200
   8826   8835   8837     1   109.5600471 388.275200
   8827   8826   8835     1   109.8000471 387.438400
   8827   8826   8828     1   107.5800459 329.699200
   8828   8826   8835     1   109.8000471 387.438400
   8829   8841   8842     1   109.5600471 388.275200
   8829   8841   8843     1   109.5600471 388.275200
   8830   8829   8841     1   109.8000471 387.438400
   8830   8829   8831     1   107.5800459 329.699200
   8831   8829   8841     1   109.8000471 387.438400
   8832   8838   8839     1   109.5600471 388.275200
   8832   8838   8840     1   109.5600471 388.275200
   8833   8832   8838     1   109.8000471 387.438400
   8833   8832   8834     1   107.5800459 329.699200
   8834   8832   8838     1   109.8000471 387.438400
   8836   8835   8844     1   109.7800468 425.094400
   8836   8835   8837     1   108.4600466 328.025600
   8837   8835   8844     1   109.7800468 425.094400
   8839   8838  16332     1   109.7800468 425.094400
   8839   8838   8840     1   108.4600466 328.025600
   8840   8838  16332     1   109.7800468 425.094400
   8842   8841  16355     1   109.7800468 425.094400
   8842   8841   8843     1   108.4600466 328.025600
   8843   8841  16355     1   109.7800468 425.094400
   8845   8846   8847     1   109.8800469 414.216000
   8845   8846   8848     1   109.8800469 414.216000
   8845   8849   8850     1   109.8800469 414.216000
   8845   8849   8851     1   109.8800469 414.216000
   8845   8852   8853     1   109.8800469 414.216000
   8845   8852   8854     1   109.8800469 414.216000
   8846   8858   8859     1   109.8000471 387.438400
   8846   8858   8860     1   109.8000471 387.438400
   8847   8846   8858     1   109.5600471 388.275200
   8847   8846   8848     1   108.4600466 328.025600
   8848   8846   8858     1   109.5600471 388.275200
   8849   8861   8862     1   109.8000471 387.438400
   8849   8861   8863     1   109.8000471 387.438400
   8850   8849   8861     1   109.5600471 388.275200
   8850   8849   8851     1   108.4600466 328.025600
   8851   8849   8861     1   109.5600471 388.275200
   8852   8855   8856     1   109.8000471 387.438400
   8852   8855   8857     1   109.8000471 387.438400
   8853   8852   8855     1   109.5600471 388.275200
   8853   8852   8854     1   108.4600466 328.025600
   8854   8852   8855     1   109.5600471 388.275200
   8855   8864   8865     1   109.5600471 388.275200
   8855   8864   8866     1   109.5600471 388.275200
   8856   8855   8864     1   109.8000471 387.438400
   8856   8855   8857     1   107.5800459 329.699200
   8857   8855   8864     1   109.8000471 387.438400
   8858   8870   8871     1   109.5600471 388.275200
   8858   8870   8872     1   109.5600471 388.275200
   8859   8858   8870     1   109.8000471 387.438400
   8859   8858   8860     1   107.5800459 329.699200
   8860   8858   8870     1   109.8000471 387.438400
   8861   8867   8868     1   109.5600471 388.275200
   8861   8867   8869     1   109.5600471 388.275200
   8862   8861   8867     1   109.8000471 387.438400
   8862   8861   8863     1   107.5800459 329.699200
   8863   8861   8867     1   109.8000471 387.438400
   8865   8864   8873     1   109.7800468 425.094400
   8865   8864   8866     1   108.4600466 328.025600
   8866   8864   8873     1   109.7800468 425.094400
   8868   8867  16378     1   109.7800468 425.094400
   8868   8867   8869     1   108.4600466 328.025600
   8869   8867  16378     1   109.7800468 425.094400
   8871   8870  16401     1   109.7800468 425.094400
   8871   8870   8872     1   108.4600466 328.025600
   8872   8870  16401     1   109.7800468 425.094400
   8874   8875   8876     1   109.8800469 414.216000
   8874   8875   8877     1   109.8800469 414.216000
   8874   8878   8879     1   109.8800469 414.216000
   8874   8878   8880     1   109.8800469 414.216000
   8874   8881   8882     1   109.8800469 414.216000
   8874   8881   8883     1   109.8800469 414.216000
   8875   8887   8888     1   109.8000471 387.438400
   8875   8887   8889     1   109.8000471 387.438400
   8876   8875   8887     1   109.5600471 388.275200
   8876   8875   8877     1   108.4600466 328.025600
   8877   8875   8887     1   109.5600471 388.275200
   8878   8890   8891     1   109.8000471 387.438400
   8878   8890   8892     1   109.8000471 387.438400
   8879   8878   8890     1   109.5600471 388.275200
   8879   8878   8880     1   108.4600466 328.025600
   8880   8878   8890     1   109.5600471 388.275200
   8881   8884   8885     1   109.8000471 387.438400
   8881   8884   8886     1   109.8000471 387.438400
   8882   8881   8884     1   109.5600471 388.275200
   8882   8881   8883     1   108.4600466 328.025600
   8883   8881   8884     1   109.5600471 388.275200
   8884   8893   8894     1   109.5600471 388.275200
   8884   8893   8895     1   109.5600471 388.275200
   8885   8884   8893     1   109.8000471 387.438400
   8885   8884   8886     1   107.5800459 329.699200
   8886   8884   8893     1   109.8000471 387.438400
   8887   8899   8900     1   109.5600471 388.275200
   8887   8899   8901     1   109.5600471 388.275200
   8888   8887   8899     1   109.8000471 387.438400
   8888   8887   8889     1   107.5800459 329.699200
   8889   8887   8899     1   109.8000471 387.438400
   8890   8896   8897     1   109.5600471 388.275200
   8890   8896   8898     1   109.5600471 388.275200
   8891   8890   8896     1   109.8000471 387.438400
   8891   8890   8892     1   107.5800459 329.699200
   8892   8890   8896     1   109.8000471 387.438400
   8894   8893   8902     1   109.7800468 425.094400
   8894   8893   8895     1   108.4600466 328.025600
   8895   8893   8902     1   109.7800468 425.094400
   8897   8896  16424     1   109.7800468 425.094400
   8897   8896   8898     1   108.4600466 328.025600
   8898   8896  16424     1   109.7800468 425.094400
   8900   8899  16447     1   109.7800468 425.094400
   8900   8899   8901     1   108.4600466 328.025600
   8901   8899  16447     1   109.7800468 425.094400
   8903   8904   8905     1   109.8800469 414.216000
   8903   8904   8906     1   109.8800469 414.216000
   8903   8907   8908     1   109.8800469 414.216000
   8903   8907   8909     1   109.8800469 414.216000
   8903   8910   8911     1   109.8800469 414.216000
   8903   8910   8912     1   109.8800469 414.216000
   8904   8916   8917     1   109.8000471 387.438400
   8904   8916   8918     1   109.8000471 387.438400
   8905   8904   8916     1   109.5600471 388.275200
   8905   8904   8906     1   108.4600466 328.025600
   8906   8904   8916     1   109.5600471 388.275200
   8907   8919   8920     1   109.8000471 387.438400
   8907   8919   8921     1   109.8000471 387.438400
   8908   8907   8919     1   109.5600471 388.275200
   8908   8907   8909     1   108.4600466 328.025600
   8909   8907   8919     1   109.5600471 388.275200
   8910   8913   8914     1   109.8000471 387.438400
   8910   8913   8915     1   109.8000471 387.438400
   8911   8910   8913     1   109.5600471 388.275200
   8911   8910   8912     1   108.4600466 328.025600
   8912   8910   8913     1   109.5600471 388.275200
   8913   8922   8923     1   109.5600471 388.275200
   8913   8922   8924     1   109.5600471 388.275200
   8914   8913   8922     1   109.8000471 387.438400
   8914   8913   8915     1   107.5800459 329.699200
   8915   8913   8922     1   109.8000471 387.438400
   8916   8928   8929     1   109.5600471 388.275200
   8916   8928   8930     1   109.5600471 388.275200
   8917   8916   8928     1   109.8000471 387.438400
   8917   8916   8918     1   107.5800459 329.699200
   8918   8916   8928     1   109.8000471 387.438400
   8919   8925   8926     1   109.5600471 388.275200
   8919   8925   8927     1   109.5600471 388.275200
   8920   8919   8925     1   109.8000471 387.438400
   8920   8919   8921     1   107.5800459 329.699200
   8921   8919   8925     1   109.8000471 387.438400
   8923   8922   8931     1   109.7800468 425.094400
   8923   8922   8924     1   108.4600466 328.025600
   8924   8922   8931     1   109.7800468 425.094400
   8926   8925  16470     1   109.7800468 425.094400
   8926   8925   8927     1   108.4600466 328.025600
   8927   8925  16470     1   109.7800468 425.094400
   8929   8928  16493     1   109.7800468 425.094400
   8929   8928   8930     1   108.4600466 328.025600
   8930   8928  16493     1   109.7800468 425.094400
   8932   8933   8934     1   109.8800469 414.216000
   8932   8933   8935     1   109.8800469 414.216000
   8932   8936   8937     1   109.8800469 414.216000
   8932   8936   8938     1   109.8800469 414.216000
   8932   8939   8940     1   109.8800469 414.216000
   8932   8939   8941     1   109.8800469 414.216000
   8933   8945   8946     1   109.8000471 387.438400
   8933   8945   8947     1   109.8000471 387.438400
   8934   8933   8945     1   109.5600471 388.275200
   8934   8933   8935     1   108.4600466 328.025600
   8935   8933   8945     1   109.5600471 388.275200
   8936   8948   8949     1   109.8000471 387.438400
   8936   8948   8950     1   109.8000471 387.438400
   8937   8936   8948     1   109.5600471 388.275200
   8937   8936   8938     1   108.4600466 328.025600
   8938   8936   8948     1   109.5600471 388.275200
   8939   8942   8943     1   109.8000471 387.438400
   8939   8942   8944     1   109.8000471 387.438400
   8940   8939   8942     1   109.5600471 388.275200
   8940   8939   8941     1   108.4600466 328.025600
   8941   8939   8942     1   109.5600471 388.275200
   8942   8951   8952     1   109.5600471 388.275200
   8942   8951   8953     1   109.5600471 388.275200
   8943   8942   8951     1   109.8000471 387.438400
   8943   8942   8944     1   107.5800459 329.699200
   8944   8942   8951     1   109.8000471 387.438400
   8945   8957   8958     1   109.5600471 388.275200
   8945   8957   8959     1   109.5600471 388.275200
   8946   8945   8957     1   109.8000471 387.438400
   8946   8945   8947     1   107.5800459 329.699200
   8947   8945   8957     1   109.8000471 387.438400
   8948   8954   8955     1   109.5600471 388.275200
   8948   8954   8956     1   109.5600471 388.275200
   8949   8948   8954     1   109.8000471 387.438400
   8949   8948   8950     1   107.5800459 329.699200
   8950   8948   8954     1   109.8000471 387.438400
   8952   8951   8960     1   109.7800468 425.094400
   8952   8951   8953     1   108.4600466 328.025600
   8953   8951   8960     1   109.7800468 425.094400
   8955   8954  16516     1   109.7800468 425.094400
   8955   8954   8956     1   108.4600466 328.025600
   8956   8954  16516     1   109.7800468 425.094400
   8958   8957  16539     1   109.7800468 425.094400
   8958   8957   8959     1   108.4600466 328.025600
   8959   8957  16539     1   109.7800468 425.094400
   8961   8962   8963     1   109.8800469 414.216000
   8961   8962   8964     1   109.8800469 414.216000
   8961   8965   8966     1   109.8800469 414.216000
   8961   8965   8967     1   109.8800469 414.216000
   8961   8968   8969     1   109.8800469 414.216000
   8961   8968   8970     1   109.8800469 414.216000
   8962   8974   8975     1   109.8000471 387.438400
   8962   8974   8976     1   109.8000471 387.438400
   8963   8962   8974     1   109.5600471 388.275200
   8963   8962   8964     1   108.4600466 328.025600
   8964   8962   8974     1   109.5600471 388.275200
   8965   8977   8978     1   109.8000471 387.438400
   8965   8977   8979     1   109.8000471 387.438400
   8966   8965   8977     1   109.5600471 388.275200
   8966   8965   8967     1   108.4600466 328.025600
   8967   8965   8977     1   109.5600471 388.275200
   8968   8971   8972     1   109.8000471 387.438400
   8968   8971   8973     1   109.8000471 387.438400
   8969   8968   8971     1   109.5600471 388.275200
   8969   8968   8970     1   108.4600466 328.025600
   8970   8968   8971     1   109.5600471 388.275200
   8971   8980   8981     1   109.5600471 388.275200
   8971   8980   8982     1   109.5600471 388.275200
   8972   8971   8980     1   109.8000471 387.438400
   8972   8971   8973     1   107.5800459 329.699200
   8973   8971   8980     1   109.8000471 387.438400
   8974   8986   8987     1   109.5600471 388.275200
   8974   8986   8988     1   109.5600471 388.275200
   8975   8974   8986     1   109.8000471 387.438400
   8975   8974   8976     1   107.5800459 329.699200
   8976   8974   8986     1   109.8000471 387.438400
   8977   8983   8984     1   109.5600471 388.275200
   8977   8983   8985     1   109.5600471 388.275200
   8978   8977   8983     1   109.8000471 387.438400
   8978   8977   8979     1   107.5800459 329.699200
   8979   8977   8983     1   109.8000471 387.438400
   8981   8980   8989     1   109.7800468 425.094400
   8981   8980   8982     1   108.4600466 328.025600
   8982   8980   8989     1   109.7800468 425.094400
   8984   8983  16562     1   109.7800468 425.094400
   8984   8983   8985     1   108.4600466 328.025600
   8985   8983  16562     1   109.7800468 425.094400
   8987   8986  16585     1   109.7800468 425.094400
   8987   8986   8988     1   108.4600466 328.025600
   8988   8986  16585     1   109.7800468 425.094400
   8990   8991   8992     1   109.8800469 414.216000
   8990   8991   8993     1   109.8800469 414.216000
   8990   8994   8995     1   109.8800469 414.216000
   8990   8994   8996     1   109.8800469 414.216000
   8990   8997   8998     1   109.8800469 414.216000
   8990   8997   8999     1   109.8800469 414.216000
   8991   9003   9004     1   109.8000471 387.438400
   8991   9003   9005     1   109.8000471 387.438400
   8992   8991   9003     1   109.5600471 388.275200
   8992   8991   8993     1   108.4600466 328.025600
   8993   8991   9003     1   109.5600471 388.275200
   8994   9006   9007     1   109.8000471 387.438400
   8994   9006   9008     1   109.8000471 387.438400
   8995   8994   9006     1   109.5600471 388.275200
   8995   8994   8996     1   108.4600466 328.025600
   8996   8994   9006     1   109.5600471 388.275200
   8997   9000   9001     1   109.8000471 387.438400
   8997   9000   9002     1   109.8000471 387.438400
   8998   8997   9000     1   109.5600471 388.275200
   8998   8997   8999     1   108.4600466 328.025600
   8999   8997   9000     1   109.5600471 388.275200
   9000   9009   9010     1   109.5600471 388.275200
   9000   9009   9011     1   109.5600471 388.275200
   9001   9000   9009     1   109.8000471 387.438400
   9001   9000   9002     1   107.5800459 329.699200
   9002   9000   9009     1   109.8000471 387.438400
   9003   9015   9016     1   109.5600471 388.275200
   9003   9015   9017     1   109.5600471 388.275200
   9004   9003   9015     1   109.8000471 387.438400
   9004   9003   9005     1   107.5800459 329.699200
   9005   9003   9015     1   109.8000471 387.438400
   9006   9012   9013     1   109.5600471 388.275200
   9006   9012   9014     1   109.5600471 388.275200
   9007   9006   9012     1   109.8000471 387.438400
   9007   9006   9008     1   107.5800459 329.699200
   9008   9006   9012     1   109.8000471 387.438400
   9010   9009   9018     1   109.7800468 425.094400
   9010   9009   9011     1   108.4600466 328.025600
   9011   9009   9018     1   109.7800468 425.094400
   9013   9012  16608     1   109.7800468 425.094400
   9013   9012   9014     1   108.4600466 328.025600
   9014   9012  16608     1   109.7800468 425.094400
   9016   9015  16631     1   109.7800468 425.094400
   9016   9015   9017     1   108.4600466 328.025600
   9017   9015  16631     1   109.7800468 425.094400
   9019   9020   9021     1   109.8800469 414.216000
   9019   9020   9022     1   109.8800469 414.216000
   9019   9023   9024     1   109.8800469 414.216000
   9019   9023   9025     1   109.8800469 414.216000
   9019   9026   9027     1   109.8800469 414.216000
   9019   9026   9028     1   109.8800469 414.216000
   9020   9032   9033     1   109.8000471 387.438400
   9020   9032   9034     1   109.8000471 387.438400
   9021   9020   9032     1   109.5600471 388.275200
   9021   9020   9022     1   108.4600466 328.025600
   9022   9020   9032     1   109.5600471 388.275200
   9023   9035   9036     1   109.8000471 387.438400
   9023   9035   9037     1   109.8000471 387.438400
   9024   9023   9035     1   109.5600471 388.275200
   9024   9023   9025     1   108.4600466 328.025600
   9025   9023   9035     1   109.5600471 388.275200
   9026   9029   9030     1   109.8000471 387.438400
   9026   9029   9031     1   109.8000471 387.438400
   9027   9026   9029     1   109.5600471 388.275200
   9027   9026   9028     1   108.4600466 328.025600
   9028   9026   9029     1   109.5600471 388.275200
   9029   9038   9039     1   109.5600471 388.275200
   9029   9038   9040     1   109.5600471 388.275200
   9030   9029   9038     1   109.8000471 387.438400
   9030   9029   9031     1   107.5800459 329.699200
   9031   9029   9038     1   109.8000471 387.438400
   9032   9044   9045     1   109.5600471 388.275200
   9032   9044   9046     1   109.5600471 388.275200
   9033   9032   9044     1   109.8000471 387.438400
   9033   9032   9034     1   107.5800459 329.699200
   9034   9032   9044     1   109.8000471 387.438400
   9035   9041   9042     1   109.5600471 388.275200
   9035   9041   9043     1   109.5600471 388.275200
   9036   9035   9041     1   109.8000471 387.438400
   9036   9035   9037     1   107.5800459 329.699200
   9037   9035   9041     1   109.8000471 387.438400
   9039   9038   9047     1   109.7800468 425.094400
   9039   9038   9040     1   108.4600466 328.025600
   9040   9038   9047     1   109.7800468 425.094400
   9042   9041  16654     1   109.7800468 425.094400
   9042   9041   9043     1   108.4600466 328.025600
   9043   9041  16654     1   109.7800468 425.094400
   9045   9044  16677     1   109.7800468 425.094400
   9045   9044   9046     1   108.4600466 328.025600
   9046   9044  16677     1   109.7800468 425.094400
   9048   9049   9050     1   109.8800469 414.216000
   9048   9049   9051     1   109.8800469 414.216000
   9048   9052   9053     1   109.8800469 414.216000
   9048   9052   9054     1   109.8800469 414.216000
   9048   9055   9056     1   109.8800469 414.216000
   9048   9055   9057     1   109.8800469 414.216000
   9049   9061   9062     1   109.8000471 387.438400
   9049   9061   9063     1   109.8000471 387.438400
   9050   9049   9061     1   109.5600471 388.275200
   9050   9049   9051     1   108.4600466 328.025600
   9051   9049   9061     1   109.5600471 388.275200
   9052   9064   9065     1   109.8000471 387.438400
   9052   9064   9066     1   109.8000471 387.438400
   9053   9052   9064     1   109.5600471 388.275200
   9053   9052   9054     1   108.4600466 328.025600
   9054   9052   9064     1   109.5600471 388.275200
   9055   9058   9059     1   109.8000471 387.438400
   9055   9058   9060     1   109.8000471 387.438400
   9056   9055   9058     1   109.5600471 388.275200
   9056   9055   9057     1   108.4600466 328.025600
   9057   9055   9058     1   109.5600471 388.275200
   9058   9067   9068     1   109.5600471 388.275200
   9058   9067   9069     1   109.5600471 388.275200
   9059   9058   9067     1   109.8000471 387.438400
   9059   9058   9060     1   107.5800459 329.699200
   9060   9058   9067     1   109.8000471 387.438400
   9061   9073   9074     1   109.5600471 388.275200
   9061   9073   9075     1   109.5600471 388.275200
   9062   9061   9073     1   109.8000471 387.438400
   9062   9061   9063     1   107.5800459 329.699200
   9063   9061   9073     1   109.8000471 387.438400
   9064   9070   9071     1   109.5600471 388.275200
   9064   9070   9072     1   109.5600471 388.275200
   9065   9064   9070     1   109.8000471 387.438400
   9065   9064   9066     1   107.5800459 329.699200
   9066   9064   9070     1   109.8000471 387.438400
   9068   9067   9076     1   109.7800468 425.094400
   9068   9067   9069     1   108.4600466 328.025600
   9069   9067   9076     1   109.7800468 425.094400
   9071   9070  16700     1   109.7800468 425.094400
   9071   9070   9072     1   108.4600466 328.025600
   9072   9070  16700     1   109.7800468 425.094400
   9074   9073  16723     1   109.7800468 425.094400
   9074   9073   9075     1   108.4600466 328.025600
   9075   9073  16723     1   109.7800468 425.094400
   9077   9078   9079     1   109.8800469 414.216000
   9077   9078   9080     1   109.8800469 414.216000
   9077   9081   9082     1   109.8800469 414.216000
   9077   9081   9083     1   109.8800469 414.216000
   9077   9084   9085     1   109.8800469 414.216000
   9077   9084   9086     1   109.8800469 414.216000
   9078   9090   9091     1   109.8000471 387.438400
   9078   9090   9092     1   109.8000471 387.438400
   9079   9078   9090     1   109.5600471 388.275200
   9079   9078   9080     1   108.4600466 328.025600
   9080   9078   9090     1   109.5600471 388.275200
   9081   9093   9094     1   109.8000471 387.438400
   9081   9093   9095     1   109.8000471 387.438400
   9082   9081   9093     1   109.5600471 388.275200
   9082   9081   9083     1   108.4600466 328.025600
   9083   9081   9093     1   109.5600471 388.275200
   9084   9087   9088     1   109.8000471 387.438400
   9084   9087   9089     1   109.8000471 387.438400
   9085   9084   9087     1   109.5600471 388.275200
   9085   9084   9086     1   108.4600466 328.025600
   9086   9084   9087     1   109.5600471 388.275200
   9087   9096   9097     1   109.5600471 388.275200
   9087   9096   9098     1   109.5600471 388.275200
   9088   9087   9096     1   109.8000471 387.438400
   9088   9087   9089     1   107.5800459 329.699200
   9089   9087   9096     1   109.8000471 387.438400
   9090   9102   9103     1   109.5600471 388.275200
   9090   9102   9104     1   109.5600471 388.275200
   9091   9090   9102     1   109.8000471 387.438400
   9091   9090   9092     1   107.5800459 329.699200
   9092   9090   9102     1   109.8000471 387.438400
   9093   9099   9100     1   109.5600471 388.275200
   9093   9099   9101     1   109.5600471 388.275200
   9094   9093   9099     1   109.8000471 387.438400
   9094   9093   9095     1   107.5800459 329.699200
   9095   9093   9099     1   109.8000471 387.438400
   9097   9096   9105     1   109.7800468 425.094400
   9097   9096   9098     1   108.4600466 328.025600
   9098   9096   9105     1   109.7800468 425.094400
   9100   9099  16746     1   109.7800468 425.094400
   9100   9099   9101     1   108.4600466 328.025600
   9101   9099  16746     1   109.7800468 425.094400
   9103   9102  16769     1   109.7800468 425.094400
   9103   9102   9104     1   108.4600466 328.025600
   9104   9102  16769     1   109.7800468 425.094400
   9106   9107   9108     1   109.8800469 414.216000
   9106   9107   9109     1   109.8800469 414.216000
   9106   9110   9111     1   109.8800469 414.216000
   9106   9110   9112     1   109.8800469 414.216000
   9106   9113   9114     1   109.8800469 414.216000
   9106   9113   9115     1   109.8800469 414.216000
   9107   9119   9120     1   109.8000471 387.438400
   9107   9119   9121     1   109.8000471 387.438400
   9108   9107   9119     1   109.5600471 388.275200
   9108   9107   9109     1   108.4600466 328.025600
   9109   9107   9119     1   109.5600471 388.275200
   9110   9122   9123     1   109.8000471 387.438400
   9110   9122   9124     1   109.8000471 387.438400
   9111   9110   9122     1   109.5600471 388.275200
   9111   9110   9112     1   108.4600466 328.025600
   9112   9110   9122     1   109.5600471 388.275200
   9113   9116   9117     1   109.8000471 387.438400
   9113   9116   9118     1   109.8000471 387.438400
   9114   9113   9116     1   109.5600471 388.275200
   9114   9113   9115     1   108.4600466 328.025600
   9115   9113   9116     1   109.5600471 388.275200
   9116   9125   9126     1   109.5600471 388.275200
   9116   9125   9127     1   109.5600471 388.275200
   9117   9116   9125     1   109.8000471 387.438400
   9117   9116   9118     1   107.5800459 329.699200
   9118   9116   9125     1   109.8000471 387.438400
   9119   9131   9132     1   109.5600471 388.275200
   9119   9131   9133     1   109.5600471 388.275200
   9120   9119   9131     1   109.8000471 387.438400
   9120   9119   9121     1   107.5800459 329.699200
   9121   9119   9131     1   109.8000471 387.438400
   9122   9128   9129     1   109.5600471 388.275200
   9122   9128   9130     1   109.5600471 388.275200
   9123   9122   9128     1   109.8000471 387.438400
   9123   9122   9124     1   107.5800459 329.699200
   9124   9122   9128     1   109.8000471 387.438400
   9126   9125   9134     1   109.7800468 425.094400
   9126   9125   9127     1   108.4600466 328.025600
   9127   9125   9134     1   109.7800468 425.094400
   9129   9128  16792     1   109.7800468 425.094400
   9129   9128   9130     1   108.4600466 328.025600
   9130   9128  16792     1   109.7800468 425.094400
   9132   9131  16815     1   109.7800468 425.094400
   9132   9131   9133     1   108.4600466 328.025600
   9133   9131  16815     1   109.7800468 425.094400
   9135   9136   9137     1   109.8800469 414.216000
   9135   9136   9138     1   109.8800469 414.216000
   9135   9139   9140     1   109.8800469 414.216000
   9135   9139   9141     1   109.8800469 414.216000
   9135   9142   9143     1   109.8800469 414.216000
   9135   9142   9144     1   109.8800469 414.216000
   9136   9148   9149     1   109.8000471 387.438400
   9136   9148   9150     1   109.8000471 387.438400
   9137   9136   9148     1   109.5600471 388.275200
   9137   9136   9138     1   108.4600466 328.025600
   9138   9136   9148     1   109.5600471 388.275200
   9139   9151   9152     1   109.8000471 387.438400
   9139   9151   9153     1   109.8000471 387.438400
   9140   9139   9151     1   109.5600471 388.275200
   9140   9139   9141     1   108.4600466 328.025600
   9141   9139   9151     1   109.5600471 388.275200
   9142   9145   9146     1   109.8000471 387.438400
   9142   9145   9147     1   109.8000471 387.438400
   9143   9142   9145     1   109.5600471 388.275200
   9143   9142   9144     1   108.4600466 328.025600
   9144   9142   9145     1   109.5600471 388.275200
   9145   9154   9155     1   109.5600471 388.275200
   9145   9154   9156     1   109.5600471 388.275200
   9146   9145   9154     1   109.8000471 387.438400
   9146   9145   9147     1   107.5800459 329.699200
   9147   9145   9154     1   109.8000471 387.438400
   9148   9160   9161     1   109.5600471 388.275200
   9148   9160   9162     1   109.5600471 388.275200
   9149   9148   9160     1   109.8000471 387.438400
   9149   9148   9150     1   107.5800459 329.699200
   9150   9148   9160     1   109.8000471 387.438400
   9151   9157   9158     1   109.5600471 388.275200
   9151   9157   9159     1   109.5600471 388.275200
   9152   9151   9157     1   109.8000471 387.438400
   9152   9151   9153     1   107.5800459 329.699200
   9153   9151   9157     1   109.8000471 387.438400
   9155   9154   9163     1   109.7800468 425.094400
   9155   9154   9156     1   108.4600466 328.025600
   9156   9154   9163     1   109.7800468 425.094400
   9158   9157  16838     1   109.7800468 425.094400
   9158   9157   9159     1   108.4600466 328.025600
   9159   9157  16838     1   109.7800468 425.094400
   9161   9160  16861     1   109.7800468 425.094400
   9161   9160   9162     1   108.4600466 328.025600
   9162   9160  16861     1   109.7800468 425.094400
   9164   9165   9166     1   109.8800469 414.216000
   9164   9165   9167     1   109.8800469 414.216000
   9164   9168   9169     1   109.8800469 414.216000
   9164   9168   9170     1   109.8800469 414.216000
   9164   9171   9172     1   109.8800469 414.216000
   9164   9171   9173     1   109.8800469 414.216000
   9165   9177   9178     1   109.8000471 387.438400
   9165   9177   9179     1   109.8000471 387.438400
   9166   9165   9177     1   109.5600471 388.275200
   9166   9165   9167     1   108.4600466 328.025600
   9167   9165   9177     1   109.5600471 388.275200
   9168   9180   9181     1   109.8000471 387.438400
   9168   9180   9182     1   109.8000471 387.438400
   9169   9168   9180     1   109.5600471 388.275200
   9169   9168   9170     1   108.4600466 328.025600
   9170   9168   9180     1   109.5600471 388.275200
   9171   9174   9175     1   109.8000471 387.438400
   9171   9174   9176     1   109.8000471 387.438400
   9172   9171   9174     1   109.5600471 388.275200
   9172   9171   9173     1   108.4600466 328.025600
   9173   9171   9174     1   109.5600471 388.275200
   9174   9183   9184     1   109.5600471 388.275200
   9174   9183   9185     1   109.5600471 388.275200
   9175   9174   9183     1   109.8000471 387.438400
   9175   9174   9176     1   107.5800459 329.699200
   9176   9174   9183     1   109.8000471 387.438400
   9177   9189   9190     1   109.5600471 388.275200
   9177   9189   9191     1   109.5600471 388.275200
   9178   9177   9189     1   109.8000471 387.438400
   9178   9177   9179     1   107.5800459 329.699200
   9179   9177   9189     1   109.8000471 387.438400
   9180   9186   9187     1   109.5600471 388.275200
   9180   9186   9188     1   109.5600471 388.275200
   9181   9180   9186     1   109.8000471 387.438400
   9181   9180   9182     1   107.5800459 329.699200
   9182   9180   9186     1   109.8000471 387.438400
   9184   9183   9192     1   109.7800468 425.094400
   9184   9183   9185     1   108.4600466 328.025600
   9185   9183   9192     1   109.7800468 425.094400
   9187   9186  16884     1   109.7800468 425.094400
   9187   9186   9188     1   108.4600466 328.025600
   9188   9186  16884     1   109.7800468 425.094400
   9190   9189  16907     1   109.7800468 425.094400
   9190   9189   9191     1   108.4600466 328.025600
   9191   9189  16907     1   109.7800468 425.094400
   9193   9194   9195     1   109.8800469 414.216000
   9193   9194   9196     1   109.8800469 414.216000
   9193   9197   9198     1   109.8800469 414.216000
   9193   9197   9199     1   109.8800469 414.216000
   9193   9200   9201     1   109.8800469 414.216000
   9193   9200   9202     1   109.8800469 414.216000
   9194   9206   9207     1   109.8000471 387.438400
   9194   9206   9208     1   109.8000471 387.438400
   9195   9194   9206     1   109.5600471 388.275200
   9195   9194   9196     1   108.4600466 328.025600
   9196   9194   9206     1   109.5600471 388.275200
   9197   9209   9210     1   109.8000471 387.438400
   9197   9209   9211     1   109.8000471 387.438400
   9198   9197   9209     1   109.5600471 388.275200
   9198   9197   9199     1   108.4600466 328.025600
   9199   9197   9209     1   109.5600471 388.275200
   9200   9203   9204     1   109.8000471 387.438400
   9200   9203   9205     1   109.8000471 387.438400
   9201   9200   9203     1   109.5600471 388.275200
   9201   9200   9202     1   108.4600466 328.025600
   9202   9200   9203     1   109.5600471 388.275200
   9203   9212   9213     1   109.5600471 388.275200
   9203   9212   9214     1   109.5600471 388.275200
   9204   9203   9212     1   109.8000471 387.438400
   9204   9203   9205     1   107.5800459 329.699200
   9205   9203   9212     1   109.8000471 387.438400
   9206   9218   9219     1   109.5600471 388.275200
   9206   9218   9220     1   109.5600471 388.275200
   9207   9206   9218     1   109.8000471 387.438400
   9207   9206   9208     1   107.5800459 329.699200
   9208   9206   9218     1   109.8000471 387.438400
   9209   9215   9216     1   109.5600471 388.275200
   9209   9215   9217     1   109.5600471 388.275200
   9210   9209   9215     1   109.8000471 387.438400
   9210   9209   9211     1   107.5800459 329.699200
   9211   9209   9215     1   109.8000471 387.438400
   9213   9212   9221     1   109.7800468 425.094400
   9213   9212   9214     1   108.4600466 328.025600
   9214   9212   9221     1   109.7800468 425.094400
   9216   9215  16930     1   109.7800468 425.094400
   9216   9215   9217     1   108.4600466 328.025600
   9217   9215  16930     1   109.7800468 425.094400
   9219   9218  16953     1   109.7800468 425.094400
   9219   9218   9220     1   108.4600466 328.025600
   9220   9218  16953     1   109.7800468 425.094400
   9222   9223   9224     1   109.8800469 414.216000
   9222   9223   9225     1   109.8800469 414.216000
   9222   9226   9227     1   109.8800469 414.216000
   9222   9226   9228     1   109.8800469 414.216000
   9222   9229   9230     1   109.8800469 414.216000
   9222   9229   9231     1   109.8800469 414.216000
   9223   9235   9236     1   109.8000471 387.438400
   9223   9235   9237     1   109.8000471 387.438400
   9224   9223   9235     1   109.5600471 388.275200
   9224   9223   9225     1   108.4600466 328.025600
   9225   9223   9235     1   109.5600471 388.275200
   9226   9238   9239     1   109.8000471 387.438400
   9226   9238   9240     1   109.8000471 387.438400
   9227   9226   9238     1   109.5600471 388.275200
   9227   9226   9228     1   108.4600466 328.025600
   9228   9226   9238     1   109.5600471 388.275200
   9229   9232   9233     1   109.8000471 387.438400
   9229   9232   9234     1   109.8000471 387.438400
   9230   9229   9232     1   109.5600471 388.275200
   9230   9229   9231     1   108.4600466 328.025600
   9231   9229   9232     1   109.5600471 388.275200
   9232   9241   9242     1   109.5600471 388.275200
   9232   9241   9243     1   109.5600471 388.275200
   9233   9232   9241     1   109.8000471 387.438400
   9233   9232   9234     1   107.5800459 329.699200
   9234   9232   9241     1   109.8000471 387.438400
   9235   9247   9248     1   109.5600471 388.275200
   9235   9247   9249     1   109.5600471 388.275200
   9236   9235   9247     1   109.8000471 387.438400
   9236   9235   9237     1   107.5800459 329.699200
   9237   9235   9247     1   109.8000471 387.438400
   9238   9244   9245     1   109.5600471 388.275200
   9238   9244   9246     1   109.5600471 388.275200
   9239   9238   9244     1   109.8000471 387.438400
   9239   9238   9240     1   107.5800459 329.699200
   9240   9238   9244     1   109.8000471 387.438400
   9242   9241   9250     1   109.7800468 425.094400
   9242   9241   9243     1   108.4600466 328.025600
   9243   9241   9250     1   109.7800468 425.094400
   9245   9244  16976     1   109.7800468 425.094400
   9245   9244   9246     1   108.4600466 328.025600
   9246   9244  16976     1   109.7800468 425.094400
   9248   9247  16999     1   109.7800468 425.094400
   9248   9247   9249     1   108.4600466 328.025600
   9249   9247  16999     1   109.7800468 425.094400
   9251   9252   9253     1   109.8800469 414.216000
   9251   9252   9254     1   109.8800469 414.216000
   9251   9255   9256     1   109.8800469 414.216000
   9251   9255   9257     1   109.8800469 414.216000
   9251   9258   9259     1   109.8800469 414.216000
   9251   9258   9260     1   109.8800469 414.216000
   9252   9264   9265     1   109.8000471 387.438400
   9252   9264   9266     1   109.8000471 387.438400
   9253   9252   9264     1   109.5600471 388.275200
   9253   9252   9254     1   108.4600466 328.025600
   9254   9252   9264     1   109.5600471 388.275200
   9255   9267   9268     1   109.8000471 387.438400
   9255   9267   9269     1   109.8000471 387.438400
   9256   9255   9267     1   109.5600471 388.275200
   9256   9255   9257     1   108.4600466 328.025600
   9257   9255   9267     1   109.5600471 388.275200
   9258   9261   9262     1   109.8000471 387.438400
   9258   9261   9263     1   109.8000471 387.438400
   9259   9258   9261     1   109.5600471 388.275200
   9259   9258   9260     1   108.4600466 328.025600
   9260   9258   9261     1   109.5600471 388.275200
   9261   9270   9271     1   109.5600471 388.275200
   9261   9270   9272     1   109.5600471 388.275200
   9262   9261   9270     1   109.8000471 387.438400
   9262   9261   9263     1   107.5800459 329.699200
   9263   9261   9270     1   109.8000471 387.438400
   9264   9276   9277     1   109.5600471 388.275200
   9264   9276   9278     1   109.5600471 388.275200
   9265   9264   9276     1   109.8000471 387.438400
   9265   9264   9266     1   107.5800459 329.699200
   9266   9264   9276     1   109.8000471 387.438400
   9267   9273   9274     1   109.5600471 388.275200
   9267   9273   9275     1   109.5600471 388.275200
   9268   9267   9273     1   109.8000471 387.438400
   9268   9267   9269     1   107.5800459 329.699200
   9269   9267   9273     1   109.8000471 387.438400
   9271   9270   9279     1   109.7800468 425.094400
   9271   9270   9272     1   108.4600466 328.025600
   9272   9270   9279     1   109.7800468 425.094400
   9274   9273  17022     1   109.7800468 425.094400
   9274   9273   9275     1   108.4600466 328.025600
   9275   9273  17022     1   109.7800468 425.094400
   9277   9276  17045     1   109.7800468 425.094400
   9277   9276   9278     1   108.4600466 328.025600
   9278   9276  17045     1   109.7800468 425.094400
   9280   9281   9282     1   109.8800469 414.216000
   9280   9281   9283     1   109.8800469 414.216000
   9280   9284   9285     1   109.8800469 414.216000
   9280   9284   9286     1   109.8800469 414.216000
   9280   9287   9288     1   109.8800469 414.216000
   9280   9287   9289     1   109.8800469 414.216000
   9281   9293   9294     1   109.8000471 387.438400
   9281   9293   9295     1   109.8000471 387.438400
   9282   9281   9293     1   109.5600471 388.275200
   9282   9281   9283     1   108.4600466 328.025600
   9283   9281   9293     1   109.5600471 388.275200
   9284   9296   9297     1   109.8000471 387.438400
   9284   9296   9298     1   109.8000471 387.438400
   9285   9284   9296     1   109.5600471 388.275200
   9285   9284   9286     1   108.4600466 328.025600
   9286   9284   9296     1   109.5600471 388.275200
   9287   9290   9291     1   109.8000471 387.438400
   9287   9290   9292     1   109.8000471 387.438400
   9288   9287   9290     1   109.5600471 388.275200
   9288   9287   9289     1   108.4600466 328.025600
   9289   9287   9290     1   109.5600471 388.275200
   9290   9299   9300     1   109.5600471 388.275200
   9290   9299   9301     1   109.5600471 388.275200
   9291   9290   9299     1   109.8000471 387.438400
   9291   9290   9292     1   107.5800459 329.699200
   9292   9290   9299     1   109.8000471 387.438400
   9293   9305   9306     1   109.5600471 388.275200
   9293   9305   9307     1   109.5600471 388.275200
   9294   9293   9305     1   109.8000471 387.438400
   9294   9293   9295     1   107.5800459 329.699200
   9295   9293   9305     1   109.8000471 387.438400
   9296   9302   9303     1   109.5600471 388.275200
   9296   9302   9304     1   109.5600471 388.275200
   9297   9296   9302     1   109.8000471 387.438400
   9297   9296   9298     1   107.5800459 329.699200
   9298   9296   9302     1   109.8000471 387.438400
   9300   9299   9308     1   109.7800468 425.094400
   9300   9299   9301     1   108.4600466 328.025600
   9301   9299   9308     1   109.7800468 425.094400
   9303   9302  17068     1   109.7800468 425.094400
   9303   9302   9304     1   108.4600466 328.025600
   9304   9302  17068     1   109.7800468 425.094400
   9306   9305  17091     1   109.7800468 425.094400
   9306   9305   9307     1   108.4600466 328.025600
   9307   9305  17091     1   109.7800468 425.094400
   9309   9310   9311     1   109.8800469 414.216000
   9309   9310   9312     1   109.8800469 414.216000
   9309   9313   9314     1   109.8800469 414.216000
   9309   9313   9315     1   109.8800469 414.216000
   9309   9316   9317     1   109.8800469 414.216000
   9309   9316   9318     1   109.8800469 414.216000
   9310   9322   9323     1   109.8000471 387.438400
   9310   9322   9324     1   109.8000471 387.438400
   9311   9310   9322     1   109.5600471 388.275200
   9311   9310   9312     1   108.4600466 328.025600
   9312   9310   9322     1   109.5600471 388.275200
   9313   9325   9326     1   109.8000471 387.438400
   9313   9325   9327     1   109.8000471 387.438400
   9314   9313   9325     1   109.5600471 388.275200
   9314   9313   9315     1   108.4600466 328.025600
   9315   9313   9325     1   109.5600471 388.275200
   9316   9319   9320     1   109.8000471 387.438400
   9316   9319   9321     1   109.8000471 387.438400
   9317   9316   9319     1   109.5600471 388.275200
   9317   9316   9318     1   108.4600466 328.025600
   9318   9316   9319     1   109.5600471 388.275200
   9319   9328   9329     1   109.5600471 388.275200
   9319   9328   9330     1   109.5600471 388.275200
   9320   9319   9328     1   109.8000471 387.438400
   9320   9319   9321     1   107.5800459 329.699200
   9321   9319   9328     1   109.8000471 387.438400
   9322   9334   9335     1   109.5600471 388.275200
   9322   9334   9336     1   109.5600471 388.275200
   9323   9322   9334     1   109.8000471 387.438400
   9323   9322   9324     1   107.5800459 329.699200
   9324   9322   9334     1   109.8000471 387.438400
   9325   9331   9332     1   109.5600471 388.275200
   9325   9331   9333     1   109.5600471 388.275200
   9326   9325   9331     1   109.8000471 387.438400
   9326   9325   9327     1   107.5800459 329.699200
   9327   9325   9331     1   109.8000471 387.438400
   9329   9328   9337     1   109.7800468 425.094400
   9329   9328   9330     1   108.4600466 328.025600
   9330   9328   9337     1   109.7800468 425.094400
   9332   9331  17114     1   109.7800468 425.094400
   9332   9331   9333     1   108.4600466 328.025600
   9333   9331  17114     1   109.7800468 425.094400
   9335   9334  17137     1   109.7800468 425.094400
   9335   9334   9336     1   108.4600466 328.025600
   9336   9334  17137     1   109.7800468 425.094400
   9338   9339   9340     1   109.8800469 414.216000
   9338   9339   9341     1   109.8800469 414.216000
   9338   9342   9343     1   109.8800469 414.216000
   9338   9342   9344     1   109.8800469 414.216000
   9338   9345   9346     1   109.8800469 414.216000
   9338   9345   9347     1   109.8800469 414.216000
   9339   9351   9352     1   109.8000471 387.438400
   9339   9351   9353     1   109.8000471 387.438400
   9340   9339   9351     1   109.5600471 388.275200
   9340   9339   9341     1   108.4600466 328.025600
   9341   9339   9351     1   109.5600471 388.275200
   9342   9354   9355     1   109.8000471 387.438400
   9342   9354   9356     1   109.8000471 387.438400
   9343   9342   9354     1   109.5600471 388.275200
   9343   9342   9344     1   108.4600466 328.025600
   9344   9342   9354     1   109.5600471 388.275200
   9345   9348   9349     1   109.8000471 387.438400
   9345   9348   9350     1   109.8000471 387.438400
   9346   9345   9348     1   109.5600471 388.275200
   9346   9345   9347     1   108.4600466 328.025600
   9347   9345   9348     1   109.5600471 388.275200
   9348   9357   9358     1   109.5600471 388.275200
   9348   9357   9359     1   109.5600471 388.275200
   9349   9348   9357     1   109.8000471 387.438400
   9349   9348   9350     1   107.5800459 329.699200
   9350   9348   9357     1   109.8000471 387.438400
   9351   9363   9364     1   109.5600471 388.275200
   9351   9363   9365     1   109.5600471 388.275200
   9352   9351   9363     1   109.8000471 387.438400
   9352   9351   9353     1   107.5800459 329.699200
   9353   9351   9363     1   109.8000471 387.438400
   9354   9360   9361     1   109.5600471 388.275200
   9354   9360   9362     1   109.5600471 388.275200
   9355   9354   9360     1   109.8000471 387.438400
   9355   9354   9356     1   107.5800459 329.699200
   9356   9354   9360     1   109.8000471 387.438400
   9358   9357   9366     1   109.7800468 425.094400
   9358   9357   9359     1   108.4600466 328.025600
   9359   9357   9366     1   109.7800468 425.094400
   9361   9360  17160     1   109.7800468 425.094400
   9361   9360   9362     1   108.4600466 328.025600
   9362   9360  17160     1   109.7800468 425.094400
   9364   9363  17183     1   109.7800468 425.094400
   9364   9363   9365     1   108.4600466 328.025600
   9365   9363  17183     1   109.7800468 425.094400
   9367   9368   9369     1   109.8800469 414.216000
   9367   9368   9370     1   109.8800469 414.216000
   9367   9371   9372     1   109.8800469 414.216000
   9367   9371   9373     1   109.8800469 414.216000
   9367   9374   9375     1   109.8800469 414.216000
   9367   9374   9376     1   109.8800469 414.216000
   9368   9380   9381     1   109.8000471 387.438400
   9368   9380   9382     1   109.8000471 387.438400
   9369   9368   9380     1   109.5600471 388.275200
   9369   9368   9370     1   108.4600466 328.025600
   9370   9368   9380     1   109.5600471 388.275200
   9371   9383   9384     1   109.8000471 387.438400
   9371   9383   9385     1   109.8000471 387.438400
   9372   9371   9383     1   109.5600471 388.275200
   9372   9371   9373     1   108.4600466 328.025600
   9373   9371   9383     1   109.5600471 388.275200
   9374   9377   9378     1   109.8000471 387.438400
   9374   9377   9379     1   109.8000471 387.438400
   9375   9374   9377     1   109.5600471 388.275200
   9375   9374   9376     1   108.4600466 328.025600
   9376   9374   9377     1   109.5600471 388.275200
   9377   9386   9387     1   109.5600471 388.275200
   9377   9386   9388     1   109.5600471 388.275200
   9378   9377   9386     1   109.8000471 387.438400
   9378   9377   9379     1   107.5800459 329.699200
   9379   9377   9386     1   109.8000471 387.438400
   9380   9392   9393     1   109.5600471 388.275200
   9380   9392   9394     1   109.5600471 388.275200
   9381   9380   9392     1   109.8000471 387.438400
   9381   9380   9382     1   107.5800459 329.699200
   9382   9380   9392     1   109.8000471 387.438400
   9383   9389   9390     1   109.5600471 388.275200
   9383   9389   9391     1   109.5600471 388.275200
   9384   9383   9389     1   109.8000471 387.438400
   9384   9383   9385     1   107.5800459 329.699200
   9385   9383   9389     1   109.8000471 387.438400
   9387   9386   9395     1   109.7800468 425.094400
   9387   9386   9388     1   108.4600466 328.025600
   9388   9386   9395     1   109.7800468 425.094400
   9390   9389  17206     1   109.7800468 425.094400
   9390   9389   9391     1   108.4600466 328.025600
   9391   9389  17206     1   109.7800468 425.094400
   9393   9392  17229     1   109.7800468 425.094400
   9393   9392   9394     1   108.4600466 328.025600
   9394   9392  17229     1   109.7800468 425.094400
   9396   9397   9398     1   109.8800469 414.216000
   9396   9397   9399     1   109.8800469 414.216000
   9396   9400   9401     1   109.8800469 414.216000
   9396   9400   9402     1   109.8800469 414.216000
   9396   9403   9404     1   109.8800469 414.216000
   9396   9403   9405     1   109.8800469 414.216000
   9397   9409   9410     1   109.8000471 387.438400
   9397   9409   9411     1   109.8000471 387.438400
   9398   9397   9409     1   109.5600471 388.275200
   9398   9397   9399     1   108.4600466 328.025600
   9399   9397   9409     1   109.5600471 388.275200
   9400   9412   9413     1   109.8000471 387.438400
   9400   9412   9414     1   109.8000471 387.438400
   9401   9400   9412     1   109.5600471 388.275200
   9401   9400   9402     1   108.4600466 328.025600
   9402   9400   9412     1   109.5600471 388.275200
   9403   9406   9407     1   109.8000471 387.438400
   9403   9406   9408     1   109.8000471 387.438400
   9404   9403   9406     1   109.5600471 388.275200
   9404   9403   9405     1   108.4600466 328.025600
   9405   9403   9406     1   109.5600471 388.275200
   9406   9415   9416     1   109.5600471 388.275200
   9406   9415   9417     1   109.5600471 388.275200
   9407   9406   9415     1   109.8000471 387.438400
   9407   9406   9408     1   107.5800459 329.699200
   9408   9406   9415     1   109.8000471 387.438400
   9409   9421   9422     1   109.5600471 388.275200
   9409   9421   9423     1   109.5600471 388.275200
   9410   9409   9421     1   109.8000471 387.438400
   9410   9409   9411     1   107.5800459 329.699200
   9411   9409   9421     1   109.8000471 387.438400
   9412   9418   9419     1   109.5600471 388.275200
   9412   9418   9420     1   109.5600471 388.275200
   9413   9412   9418     1   109.8000471 387.438400
   9413   9412   9414     1   107.5800459 329.699200
   9414   9412   9418     1   109.8000471 387.438400
   9416   9415   9424     1   109.7800468 425.094400
   9416   9415   9417     1   108.4600466 328.025600
   9417   9415   9424     1   109.7800468 425.094400
   9419   9418  17252     1   109.7800468 425.094400
   9419   9418   9420     1   108.4600466 328.025600
   9420   9418  17252     1   109.7800468 425.094400
   9422   9421  17275     1   109.7800468 425.094400
   9422   9421   9423     1   108.4600466 328.025600
   9423   9421  17275     1   109.7800468 425.094400
   9425   9426   9427     1   109.8800469 414.216000
   9425   9426   9428     1   109.8800469 414.216000
   9425   9429   9430     1   109.8800469 414.216000
   9425   9429   9431     1   109.8800469 414.216000
   9425   9432   9433     1   109.8800469 414.216000
   9425   9432   9434     1   109.8800469 414.216000
   9426   9438   9439     1   109.8000471 387.438400
   9426   9438   9440     1   109.8000471 387.438400
   9427   9426   9438     1   109.5600471 388.275200
   9427   9426   9428     1   108.4600466 328.025600
   9428   9426   9438     1   109.5600471 388.275200
   9429   9441   9442     1   109.8000471 387.438400
   9429   9441   9443     1   109.8000471 387.438400
   9430   9429   9441     1   109.5600471 388.275200
   9430   9429   9431     1   108.4600466 328.025600
   9431   9429   9441     1   109.5600471 388.275200
   9432   9435   9436     1   109.8000471 387.438400
   9432   9435   9437     1   109.8000471 387.438400
   9433   9432   9435     1   109.5600471 388.275200
   9433   9432   9434     1   108.4600466 328.025600
   9434   9432   9435     1   109.5600471 388.275200
   9435   9444   9445     1   109.5600471 388.275200
   9435   9444   9446     1   109.5600471 388.275200
   9436   9435   9444     1   109.8000471 387.438400
   9436   9435   9437     1   107.5800459 329.699200
   9437   9435   9444     1   109.8000471 387.438400
   9438   9450   9451     1   109.5600471 388.275200
   9438   9450   9452     1   109.5600471 388.275200
   9439   9438   9450     1   109.8000471 387.438400
   9439   9438   9440     1   107.5800459 329.699200
   9440   9438   9450     1   109.8000471 387.438400
   9441   9447   9448     1   109.5600471 388.275200
   9441   9447   9449     1   109.5600471 388.275200
   9442   9441   9447     1   109.8000471 387.438400
   9442   9441   9443     1   107.5800459 329.699200
   9443   9441   9447     1   109.8000471 387.438400
   9445   9444   9453     1   109.7800468 425.094400
   9445   9444   9446     1   108.4600466 328.025600
   9446   9444   9453     1   109.7800468 425.094400
   9448   9447  17298     1   109.7800468 425.094400
   9448   9447   9449     1   108.4600466 328.025600
   9449   9447  17298     1   109.7800468 425.094400
   9451   9450  17321     1   109.7800468 425.094400
   9451   9450   9452     1   108.4600466 328.025600
   9452   9450  17321     1   109.7800468 425.094400
   9454   9455   9456     1   109.8800469 414.216000
   9454   9455   9457     1   109.8800469 414.216000
   9454   9458   9459     1   109.8800469 414.216000
   9454   9458   9460     1   109.8800469 414.216000
   9454   9461   9462     1   109.8800469 414.216000
   9454   9461   9463     1   109.8800469 414.216000
   9455   9467   9468     1   109.8000471 387.438400
   9455   9467   9469     1   109.8000471 387.438400
   9456   9455   9467     1   109.5600471 388.275200
   9456   9455   9457     1   108.4600466 328.025600
   9457   9455   9467     1   109.5600471 388.275200
   9458   9470   9471     1   109.8000471 387.438400
   9458   9470   9472     1   109.8000471 387.438400
   9459   9458   9470     1   109.5600471 388.275200
   9459   9458   9460     1   108.4600466 328.025600
   9460   9458   9470     1   109.5600471 388.275200
   9461   9464   9465     1   109.8000471 387.438400
   9461   9464   9466     1   109.8000471 387.438400
   9462   9461   9464     1   109.5600471 388.275200
   9462   9461   9463     1   108.4600466 328.025600
   9463   9461   9464     1   109.5600471 388.275200
   9464   9473   9474     1   109.5600471 388.275200
   9464   9473   9475     1   109.5600471 388.275200
   9465   9464   9473     1   109.8000471 387.438400
   9465   9464   9466     1   107.5800459 329.699200
   9466   9464   9473     1   109.8000471 387.438400
   9467   9479   9480     1   109.5600471 388.275200
   9467   9479   9481     1   109.5600471 388.275200
   9468   9467   9479     1   109.8000471 387.438400
   9468   9467   9469     1   107.5800459 329.699200
   9469   9467   9479     1   109.8000471 387.438400
   9470   9476   9477     1   109.5600471 388.275200
   9470   9476   9478     1   109.5600471 388.275200
   9471   9470   9476     1   109.8000471 387.438400
   9471   9470   9472     1   107.5800459 329.699200
   9472   9470   9476     1   109.8000471 387.438400
   9474   9473   9482     1   109.7800468 425.094400
   9474   9473   9475     1   108.4600466 328.025600
   9475   9473   9482     1   109.7800468 425.094400
   9477   9476  17344     1   109.7800468 425.094400
   9477   9476   9478     1   108.4600466 328.025600
   9478   9476  17344     1   109.7800468 425.094400
   9480   9479  17367     1   109.7800468 425.094400
   9480   9479   9481     1   108.4600466 328.025600
   9481   9479  17367     1   109.7800468 425.094400
   9483   9484   9485     1   109.8800469 414.216000
   9483   9484   9486     1   109.8800469 414.216000
   9483   9487   9488     1   109.8800469 414.216000
   9483   9487   9489     1   109.8800469 414.216000
   9483   9490   9491     1   109.8800469 414.216000
   9483   9490   9492     1   109.8800469 414.216000
   9484   9496   9497     1   109.8000471 387.438400
   9484   9496   9498     1   109.8000471 387.438400
   9485   9484   9496     1   109.5600471 388.275200
   9485   9484   9486     1   108.4600466 328.025600
   9486   9484   9496     1   109.5600471 388.275200
   9487   9499   9500     1   109.8000471 387.438400
   9487   9499   9501     1   109.8000471 387.438400
   9488   9487   9499     1   109.5600471 388.275200
   9488   9487   9489     1   108.4600466 328.025600
   9489   9487   9499     1   109.5600471 388.275200
   9490   9493   9494     1   109.8000471 387.438400
   9490   9493   9495     1   109.8000471 387.438400
   9491   9490   9493     1   109.5600471 388.275200
   9491   9490   9492     1   108.4600466 328.025600
   9492   9490   9493     1   109.5600471 388.275200
   9493   9502   9503     1   109.5600471 388.275200
   9493   9502   9504     1   109.5600471 388.275200
   9494   9493   9502     1   109.8000471 387.438400
   9494   9493   9495     1   107.5800459 329.699200
   9495   9493   9502     1   109.8000471 387.438400
   9496   9508   9509     1   109.5600471 388.275200
   9496   9508   9510     1   109.5600471 388.275200
   9497   9496   9508     1   109.8000471 387.438400
   9497   9496   9498     1   107.5800459 329.699200
   9498   9496   9508     1   109.8000471 387.438400
   9499   9505   9506     1   109.5600471 388.275200
   9499   9505   9507     1   109.5600471 388.275200
   9500   9499   9505     1   109.8000471 387.438400
   9500   9499   9501     1   107.5800459 329.699200
   9501   9499   9505     1   109.8000471 387.438400
   9503   9502   9511     1   109.7800468 425.094400
   9503   9502   9504     1   108.4600466 328.025600
   9504   9502   9511     1   109.7800468 425.094400
   9506   9505  17390     1   109.7800468 425.094400
   9506   9505   9507     1   108.4600466 328.025600
   9507   9505  17390     1   109.7800468 425.094400
   9509   9508  17413     1   109.7800468 425.094400
   9509   9508   9510     1   108.4600466 328.025600
   9510   9508  17413     1   109.7800468 425.094400
   9512   9513   9514     1   109.8800469 414.216000
   9512   9513   9515     1   109.8800469 414.216000
   9512   9516   9517     1   109.8800469 414.216000
   9512   9516   9518     1   109.8800469 414.216000
   9512   9519   9520     1   109.8800469 414.216000
   9512   9519   9521     1   109.8800469 414.216000
   9513   9525   9526     1   109.8000471 387.438400
   9513   9525   9527     1   109.8000471 387.438400
   9514   9513   9525     1   109.5600471 388.275200
   9514   9513   9515     1   108.4600466 328.025600
   9515   9513   9525     1   109.5600471 388.275200
   9516   9528   9529     1   109.8000471 387.438400
   9516   9528   9530     1   109.8000471 387.438400
   9517   9516   9528     1   109.5600471 388.275200
   9517   9516   9518     1   108.4600466 328.025600
   9518   9516   9528     1   109.5600471 388.275200
   9519   9522   9523     1   109.8000471 387.438400
   9519   9522   9524     1   109.8000471 387.438400
   9520   9519   9522     1   109.5600471 388.275200
   9520   9519   9521     1   108.4600466 328.025600
   9521   9519   9522     1   109.5600471 388.275200
   9522   9531   9532     1   109.5600471 388.275200
   9522   9531   9533     1   109.5600471 388.275200
   9523   9522   9531     1   109.8000471 387.438400
   9523   9522   9524     1   107.5800459 329.699200
   9524   9522   9531     1   109.8000471 387.438400
   9525   9537   9538     1   109.5600471 388.275200
   9525   9537   9539     1   109.5600471 388.275200
   9526   9525   9537     1   109.8000471 387.438400
   9526   9525   9527     1   107.5800459 329.699200
   9527   9525   9537     1   109.8000471 387.438400
   9528   9534   9535     1   109.5600471 388.275200
   9528   9534   9536     1   109.5600471 388.275200
   9529   9528   9534     1   109.8000471 387.438400
   9529   9528   9530     1   107.5800459 329.699200
   9530   9528   9534     1   109.8000471 387.438400
   9532   9531   9540     1   109.7800468 425.094400
   9532   9531   9533     1   108.4600466 328.025600
   9533   9531   9540     1   109.7800468 425.094400
   9535   9534  17436     1   109.7800468 425.094400
   9535   9534   9536     1   108.4600466 328.025600
   9536   9534  17436     1   109.7800468 425.094400
   9538   9537  17459     1   109.7800468 425.094400
   9538   9537   9539     1   108.4600466 328.025600
   9539   9537  17459     1   109.7800468 425.094400
   9541   9542   9543     1   109.8800469 414.216000
   9541   9542   9544     1   109.8800469 414.216000
   9541   9545   9546     1   109.8800469 414.216000
   9541   9545   9547     1   109.8800469 414.216000
   9541   9548   9549     1   109.8800469 414.216000
   9541   9548   9550     1   109.8800469 414.216000
   9542   9554   9555     1   109.8000471 387.438400
   9542   9554   9556     1   109.8000471 387.438400
   9543   9542   9554     1   109.5600471 388.275200
   9543   9542   9544     1   108.4600466 328.025600
   9544   9542   9554     1   109.5600471 388.275200
   9545   9557   9558     1   109.8000471 387.438400
   9545   9557   9559     1   109.8000471 387.438400
   9546   9545   9557     1   109.5600471 388.275200
   9546   9545   9547     1   108.4600466 328.025600
   9547   9545   9557     1   109.5600471 388.275200
   9548   9551   9552     1   109.8000471 387.438400
   9548   9551   9553     1   109.8000471 387.438400
   9549   9548   9551     1   109.5600471 388.275200
   9549   9548   9550     1   108.4600466 328.025600
   9550   9548   9551     1   109.5600471 388.275200
   9551   9560   9561     1   109.5600471 388.275200
   9551   9560   9562     1   109.5600471 388.275200
   9552   9551   9560     1   109.8000471 387.438400
   9552   9551   9553     1   107.5800459 329.699200
   9553   9551   9560     1   109.8000471 387.438400
   9554   9566   9567     1   109.5600471 388.275200
   9554   9566   9568     1   109.5600471 388.275200
   9555   9554   9566     1   109.8000471 387.438400
   9555   9554   9556     1   107.5800459 329.699200
   9556   9554   9566     1   109.8000471 387.438400
   9557   9563   9564     1   109.5600471 388.275200
   9557   9563   9565     1   109.5600471 388.275200
   9558   9557   9563     1   109.8000471 387.438400
   9558   9557   9559     1   107.5800459 329.699200
   9559   9557   9563     1   109.8000471 387.438400
   9561   9560   9569     1   109.7800468 425.094400
   9561   9560   9562     1   108.4600466 328.025600
   9562   9560   9569     1   109.7800468 425.094400
   9564   9563  17482     1   109.7800468 425.094400
   9564   9563   9565     1   108.4600466 328.025600
   9565   9563  17482     1   109.7800468 425.094400
   9567   9566  17505     1   109.7800468 425.094400
   9567   9566   9568     1   108.4600466 328.025600
   9568   9566  17505     1   109.7800468 425.094400
   9570   9571   9572     1   109.8800469 414.216000
   9570   9571   9573     1   109.8800469 414.216000
   9570   9574   9575     1   109.8800469 414.216000
   9570   9574   9576     1   109.8800469 414.216000
   9570   9577   9578     1   109.8800469 414.216000
   9570   9577   9579     1   109.8800469 414.216000
   9571   9583   9584     1   109.8000471 387.438400
   9571   9583   9585     1   109.8000471 387.438400
   9572   9571   9583     1   109.5600471 388.275200
   9572   9571   9573     1   108.4600466 328.025600
   9573   9571   9583     1   109.5600471 388.275200
   9574   9586   9587     1   109.8000471 387.438400
   9574   9586   9588     1   109.8000471 387.438400
   9575   9574   9586     1   109.5600471 388.275200
   9575   9574   9576     1   108.4600466 328.025600
   9576   9574   9586     1   109.5600471 388.275200
   9577   9580   9581     1   109.8000471 387.438400
   9577   9580   9582     1   109.8000471 387.438400
   9578   9577   9580     1   109.5600471 388.275200
   9578   9577   9579     1   108.4600466 328.025600
   9579   9577   9580     1   109.5600471 388.275200
   9580   9589   9590     1   109.5600471 388.275200
   9580   9589   9591     1   109.5600471 388.275200
   9581   9580   9589     1   109.8000471 387.438400
   9581   9580   9582     1   107.5800459 329.699200
   9582   9580   9589     1   109.8000471 387.438400
   9583   9595   9596     1   109.5600471 388.275200
   9583   9595   9597     1   109.5600471 388.275200
   9584   9583   9595     1   109.8000471 387.438400
   9584   9583   9585     1   107.5800459 329.699200
   9585   9583   9595     1   109.8000471 387.438400
   9586   9592   9593     1   109.5600471 388.275200
   9586   9592   9594     1   109.5600471 388.275200
   9587   9586   9592     1   109.8000471 387.438400
   9587   9586   9588     1   107.5800459 329.699200
   9588   9586   9592     1   109.8000471 387.438400
   9590   9589   9598     1   109.7800468 425.094400
   9590   9589   9591     1   108.4600466 328.025600
   9591   9589   9598     1   109.7800468 425.094400
   9593   9592  17528     1   109.7800468 425.094400
   9593   9592   9594     1   108.4600466 328.025600
   9594   9592  17528     1   109.7800468 425.094400
   9596   9595  17551     1   109.7800468 425.094400
   9596   9595   9597     1   108.4600466 328.025600
   9597   9595  17551     1   109.7800468 425.094400
   9599   9600   9601     1   109.8800469 414.216000
   9599   9600   9602     1   109.8800469 414.216000
   9599   9603   9604     1   109.8800469 414.216000
   9599   9603   9605     1   109.8800469 414.216000
   9599   9606   9607     1   109.8800469 414.216000
   9599   9606   9608     1   109.8800469 414.216000
   9600   9612   9613     1   109.8000471 387.438400
   9600   9612   9614     1   109.8000471 387.438400
   9601   9600   9612     1   109.5600471 388.275200
   9601   9600   9602     1   108.4600466 328.025600
   9602   9600   9612     1   109.5600471 388.275200
   9603   9615   9616     1   109.8000471 387.438400
   9603   9615   9617     1   109.8000471 387.438400
   9604   9603   9615     1   109.5600471 388.275200
   9604   9603   9605     1   108.4600466 328.025600
   9605   9603   9615     1   109.5600471 388.275200
   9606   9609   9610     1   109.8000471 387.438400
   9606   9609   9611     1   109.8000471 387.438400
   9607   9606   9609     1   109.5600471 388.275200
   9607   9606   9608     1   108.4600466 328.025600
   9608   9606   9609     1   109.5600471 388.275200
   9609   9618   9619     1   109.5600471 388.275200
   9609   9618   9620     1   109.5600471 388.275200
   9610   9609   9618     1   109.8000471 387.438400
   9610   9609   9611     1   107.5800459 329.699200
   9611   9609   9618     1   109.8000471 387.438400
   9612   9624   9625     1   109.5600471 388.275200
   9612   9624   9626     1   109.5600471 388.275200
   9613   9612   9624     1   109.8000471 387.438400
   9613   9612   9614     1   107.5800459 329.699200
   9614   9612   9624     1   109.8000471 387.438400
   9615   9621   9622     1   109.5600471 388.275200
   9615   9621   9623     1   109.5600471 388.275200
   9616   9615   9621     1   109.8000471 387.438400
   9616   9615   9617     1   107.5800459 329.699200
   9617   9615   9621     1   109.8000471 387.438400
   9619   9618   9627     1   109.7800468 425.094400
   9619   9618   9620     1   108.4600466 328.025600
   9620   9618   9627     1   109.7800468 425.094400
   9622   9621  17574     1   109.7800468 425.094400
   9622   9621   9623     1   108.4600466 328.025600
   9623   9621  17574     1   109.7800468 425.094400
   9625   9624  17597     1   109.7800468 425.094400
   9625   9624   9626     1   108.4600466 328.025600
   9626   9624  17597     1   109.7800468 425.094400
   9628   9629   9630     1   109.8800469 414.216000
   9628   9629   9631     1   109.8800469 414.216000
   9628   9632   9633     1   109.8800469 414.216000
   9628   9632   9634     1   109.8800469 414.216000
   9628   9635   9636     1   109.8800469 414.216000
   9628   9635   9637     1   109.8800469 414.216000
   9629   9641   9642     1   109.8000471 387.438400
   9629   9641   9643     1   109.8000471 387.438400
   9630   9629   9641     1   109.5600471 388.275200
   9630   9629   9631     1   108.4600466 328.025600
   9631   9629   9641     1   109.5600471 388.275200
   9632   9644   9645     1   109.8000471 387.438400
   9632   9644   9646     1   109.8000471 387.438400
   9633   9632   9644     1   109.5600471 388.275200
   9633   9632   9634     1   108.4600466 328.025600
   9634   9632   9644     1   109.5600471 388.275200
   9635   9638   9639     1   109.8000471 387.438400
   9635   9638   9640     1   109.8000471 387.438400
   9636   9635   9638     1   109.5600471 388.275200
   9636   9635   9637     1   108.4600466 328.025600
   9637   9635   9638     1   109.5600471 388.275200
   9638   9647   9648     1   109.5600471 388.275200
   9638   9647   9649     1   109.5600471 388.275200
   9639   9638   9647     1   109.8000471 387.438400
   9639   9638   9640     1   107.5800459 329.699200
   9640   9638   9647     1   109.8000471 387.438400
   9641   9653   9654     1   109.5600471 388.275200
   9641   9653   9655     1   109.5600471 388.275200
   9642   9641   9653     1   109.8000471 387.438400
   9642   9641   9643     1   107.5800459 329.699200
   9643   9641   9653     1   109.8000471 387.438400
   9644   9650   9651     1   109.5600471 388.275200
   9644   9650   9652     1   109.5600471 388.275200
   9645   9644   9650     1   109.8000471 387.438400
   9645   9644   9646     1   107.5800459 329.699200
   9646   9644   9650     1   109.8000471 387.438400
   9648   9647   9656     1   109.7800468 425.094400
   9648   9647   9649     1   108.4600466 328.025600
   9649   9647   9656     1   109.7800468 425.094400
   9651   9650  17620     1   109.7800468 425.094400
   9651   9650   9652     1   108.4600466 328.025600
   9652   9650  17620     1   109.7800468 425.094400
   9654   9653  17643     1   109.7800468 425.094400
   9654   9653   9655     1   108.4600466 328.025600
   9655   9653  17643     1   109.7800468 425.094400
   9657   9658   9659     1   109.8800469 414.216000
   9657   9658   9660     1   109.8800469 414.216000
   9657   9661   9662     1   109.8800469 414.216000
   9657   9661   9663     1   109.8800469 414.216000
   9657   9664   9665     1   109.8800469 414.216000
   9657   9664   9666     1   109.8800469 414.216000
   9658   9670   9671     1   109.8000471 387.438400
   9658   9670   9672     1   109.8000471 387.438400
   9659   9658   9670     1   109.5600471 388.275200
   9659   9658   9660     1   108.4600466 328.025600
   9660   9658   9670     1   109.5600471 388.275200
   9661   9673   9674     1   109.8000471 387.438400
   9661   9673   9675     1   109.8000471 387.438400
   9662   9661   9673     1   109.5600471 388.275200
   9662   9661   9663     1   108.4600466 328.025600
   9663   9661   9673     1   109.5600471 388.275200
   9664   9667   9668     1   109.8000471 387.438400
   9664   9667   9669     1   109.8000471 387.438400
   9665   9664   9667     1   109.5600471 388.275200
   9665   9664   9666     1   108.4600466 328.025600
   9666   9664   9667     1   109.5600471 388.275200
   9667   9676   9677     1   109.5600471 388.275200
   9667   9676   9678     1   109.5600471 388.275200
   9668   9667   9676     1   109.8000471 387.438400
   9668   9667   9669     1   107.5800459 329.699200
   9669   9667   9676     1   109.8000471 387.438400
   9670   9682   9683     1   109.5600471 388.275200
   9670   9682   9684     1   109.5600471 388.275200
   9671   9670   9682     1   109.8000471 387.438400
   9671   9670   9672     1   107.5800459 329.699200
   9672   9670   9682     1   109.8000471 387.438400
   9673   9679   9680     1   109.5600471 388.275200
   9673   9679   9681     1   109.5600471 388.275200
   9674   9673   9679     1   109.8000471 387.438400
   9674   9673   9675     1   107.5800459 329.699200
   9675   9673   9679     1   109.8000471 387.438400
   9677   9676   9685     1   109.7800468 425.094400
   9677   9676   9678     1   108.4600466 328.025600
   9678   9676   9685     1   109.7800468 425.094400
   9680   9679  17666     1   109.7800468 425.094400
   9680   9679   9681     1   108.4600466 328.025600
   9681   9679  17666     1   109.7800468 425.094400
   9683   9682  17689     1   109.7800468 425.094400
   9683   9682   9684     1   108.4600466 328.025600
   9684   9682  17689     1   109.7800468 425.094400
   9686   9687   9688     1   109.8800469 414.216000
   9686   9687   9689     1   109.8800469 414.216000
   9686   9690   9691     1   109.8800469 414.216000
   9686   9690   9692     1   109.8800469 414.216000
   9686   9693   9694     1   109.8800469 414.216000
   9686   9693   9695     1   109.8800469 414.216000
   9687   9699   9700     1   109.8000471 387.438400
   9687   9699   9701     1   109.8000471 387.438400
   9688   9687   9699     1   109.5600471 388.275200
   9688   9687   9689     1   108.4600466 328.025600
   9689   9687   9699     1   109.5600471 388.275200
   9690   9702   9703     1   109.8000471 387.438400
   9690   9702   9704     1   109.8000471 387.438400
   9691   9690   9702     1   109.5600471 388.275200
   9691   9690   9692     1   108.4600466 328.025600
   9692   9690   9702     1   109.5600471 388.275200
   9693   9696   9697     1   109.8000471 387.438400
   9693   9696   9698     1   109.8000471 387.438400
   9694   9693   9696     1   109.5600471 388.275200
   9694   9693   9695     1   108.4600466 328.025600
   9695   9693   9696     1   109.5600471 388.275200
   9696   9705   9706     1   109.5600471 388.275200
   9696   9705   9707     1   109.5600471 388.275200
   9697   9696   9705     1   109.8000471 387.438400
   9697   9696   9698     1   107.5800459 329.699200
   9698   9696   9705     1   109.8000471 387.438400
   9699   9711   9712     1   109.5600471 388.275200
   9699   9711   9713     1   109.5600471 388.275200
   9700   9699   9711     1   109.8000471 387.438400
   9700   9699   9701     1   107.5800459 329.699200
   9701   9699   9711     1   109.8000471 387.438400
   9702   9708   9709     1   109.5600471 388.275200
   9702   9708   9710     1   109.5600471 388.275200
   9703   9702   9708     1   109.8000471 387.438400
   9703   9702   9704     1   107.5800459 329.699200
   9704   9702   9708     1   109.8000471 387.438400
   9706   9705   9714     1   109.7800468 425.094400
   9706   9705   9707     1   108.4600466 328.025600
   9707   9705   9714     1   109.7800468 425.094400
   9709   9708  17712     1   109.7800468 425.094400
   9709   9708   9710     1   108.4600466 328.025600
   9710   9708  17712     1   109.7800468 425.094400
   9712   9711  17735     1   109.7800468 425.094400
   9712   9711   9713     1   108.4600466 328.025600
   9713   9711  17735     1   109.7800468 425.094400
   9715   9716   9717     1   109.8800469 414.216000
   9715   9716   9718     1   109.8800469 414.216000
   9715   9719   9720     1   109.8800469 414.216000
   9715   9719   9721     1   109.8800469 414.216000
   9715   9722   9723     1   109.8800469 414.216000
   9715   9722   9724     1   109.8800469 414.216000
   9716   9728   9729     1   109.8000471 387.438400
   9716   9728   9730     1   109.8000471 387.438400
   9717   9716   9728     1   109.5600471 388.275200
   9717   9716   9718     1   108.4600466 328.025600
   9718   9716   9728     1   109.5600471 388.275200
   9719   9731   9732     1   109.8000471 387.438400
   9719   9731   9733     1   109.8000471 387.438400
   9720   9719   9731     1   109.5600471 388.275200
   9720   9719   9721     1   108.4600466 328.025600
   9721   9719   9731     1   109.5600471 388.275200
   9722   9725   9726     1   109.8000471 387.438400
   9722   9725   9727     1   109.8000471 387.438400
   9723   9722   9725     1   109.5600471 388.275200
   9723   9722   9724     1   108.4600466 328.025600
   9724   9722   9725     1   109.5600471 388.275200
   9725   9734   9735     1   109.5600471 388.275200
   9725   9734   9736     1   109.5600471 388.275200
   9726   9725   9734     1   109.8000471 387.438400
   9726   9725   9727     1   107.5800459 329.699200
   9727   9725   9734     1   109.8000471 387.438400
   9728   9740   9741     1   109.5600471 388.275200
   9728   9740   9742     1   109.5600471 388.275200
   9729   9728   9740     1   109.8000471 387.438400
   9729   9728   9730     1   107.5800459 329.699200
   9730   9728   9740     1   109.8000471 387.438400
   9731   9737   9738     1   109.5600471 388.275200
   9731   9737   9739     1   109.5600471 388.275200
   9732   9731   9737     1   109.8000471 387.438400
   9732   9731   9733     1   107.5800459 329.699200
   9733   9731   9737     1   109.8000471 387.438400
   9735   9734   9743     1   109.7800468 425.094400
   9735   9734   9736     1   108.4600466 328.025600
   9736   9734   9743     1   109.7800468 425.094400
   9738   9737  17758     1   109.7800468 425.094400
   9738   9737   9739     1   108.4600466 328.025600
   9739   9737  17758     1   109.7800468 425.094400
   9741   9740  17781     1   109.7800468 425.094400
   9741   9740   9742     1   108.4600466 328.025600
   9742   9740  17781     1   109.7800468 425.094400
   9744   9745   9746     1   109.8800469 414.216000
   9744   9745   9747     1   109.8800469 414.216000
   9744   9748   9749     1   109.8800469 414.216000
   9744   9748   9750     1   109.8800469 414.216000
   9744   9751   9752     1   109.8800469 414.216000
   9744   9751   9753     1   109.8800469 414.216000
   9745   9757   9758     1   109.8000471 387.438400
   9745   9757   9759     1   109.8000471 387.438400
   9746   9745   9757     1   109.5600471 388.275200
   9746   9745   9747     1   108.4600466 328.025600
   9747   9745   9757     1   109.5600471 388.275200
   9748   9760   9761     1   109.8000471 387.438400
   9748   9760   9762     1   109.8000471 387.438400
   9749   9748   9760     1   109.5600471 388.275200
   9749   9748   9750     1   108.4600466 328.025600
   9750   9748   9760     1   109.5600471 388.275200
   9751   9754   9755     1   109.8000471 387.438400
   9751   9754   9756     1   109.8000471 387.438400
   9752   9751   9754     1   109.5600471 388.275200
   9752   9751   9753     1   108.4600466 328.025600
   9753   9751   9754     1   109.5600471 388.275200
   9754   9763   9764     1   109.5600471 388.275200
   9754   9763   9765     1   109.5600471 388.275200
   9755   9754   9763     1   109.8000471 387.438400
   9755   9754   9756     1   107.5800459 329.699200
   9756   9754   9763     1   109.8000471 387.438400
   9757   9769   9770     1   109.5600471 388.275200
   9757   9769   9771     1   109.5600471 388.275200
   9758   9757   9769     1   109.8000471 387.438400
   9758   9757   9759     1   107.5800459 329.699200
   9759   9757   9769     1   109.8000471 387.438400
   9760   9766   9767     1   109.5600471 388.275200
   9760   9766   9768     1   109.5600471 388.275200
   9761   9760   9766     1   109.8000471 387.438400
   9761   9760   9762     1   107.5800459 329.699200
   9762   9760   9766     1   109.8000471 387.438400
   9764   9763   9772     1   109.7800468 425.094400
   9764   9763   9765     1   108.4600466 328.025600
   9765   9763   9772     1   109.7800468 425.094400
   9767   9766  17804     1   109.7800468 425.094400
   9767   9766   9768     1   108.4600466 328.025600
   9768   9766  17804     1   109.7800468 425.094400
   9770   9769  17827     1   109.7800468 425.094400
   9770   9769   9771     1   108.4600466 328.025600
   9771   9769  17827     1   109.7800468 425.094400
   9773   9774   9775     1   109.8800469 414.216000
   9773   9774   9776     1   109.8800469 414.216000
   9773   9777   9778     1   109.8800469 414.216000
   9773   9777   9779     1   109.8800469 414.216000
   9773   9780   9781     1   109.8800469 414.216000
   9773   9780   9782     1   109.8800469 414.216000
   9774   9786   9787     1   109.8000471 387.438400
   9774   9786   9788     1   109.8000471 387.438400
   9775   9774   9786     1   109.5600471 388.275200
   9775   9774   9776     1   108.4600466 328.025600
   9776   9774   9786     1   109.5600471 388.275200
   9777   9789   9790     1   109.8000471 387.438400
   9777   9789   9791     1   109.8000471 387.438400
   9778   9777   9789     1   109.5600471 388.275200
   9778   9777   9779     1   108.4600466 328.025600
   9779   9777   9789     1   109.5600471 388.275200
   9780   9783   9784     1   109.8000471 387.438400
   9780   9783   9785     1   109.8000471 387.438400
   9781   9780   9783     1   109.5600471 388.275200
   9781   9780   9782     1   108.4600466 328.025600
   9782   9780   9783     1   109.5600471 388.275200
   9783   9792   9793     1   109.5600471 388.275200
   9783   9792   9794     1   109.5600471 388.275200
   9784   9783   9792     1   109.8000471 387.438400
   9784   9783   9785     1   107.5800459 329.699200
   9785   9783   9792     1   109.8000471 387.438400
   9786   9798   9799     1   109.5600471 388.275200
   9786   9798   9800     1   109.5600471 388.275200
   9787   9786   9798     1   109.8000471 387.438400
   9787   9786   9788     1   107.5800459 329.699200
   9788   9786   9798     1   109.8000471 387.438400
   9789   9795   9796     1   109.5600471 388.275200
   9789   9795   9797     1   109.5600471 388.275200
   9790   9789   9795     1   109.8000471 387.438400
   9790   9789   9791     1   107.5800459 329.699200
   9791   9789   9795     1   109.8000471 387.438400
   9793   9792   9801     1   109.7800468 425.094400
   9793   9792   9794     1   108.4600466 328.025600
   9794   9792   9801     1   109.7800468 425.094400
   9796   9795  17850     1   109.7800468 425.094400
   9796   9795   9797     1   108.4600466 328.025600
   9797   9795  17850     1   109.7800468 425.094400
   9799   9798  17873     1   109.7800468 425.094400
   9799   9798   9800     1   108.4600466 328.025600
   9800   9798  17873     1   109.7800468 425.094400
   9802   9803   9804     1   109.8800469 414.216000
   9802   9803   9805     1   109.8800469 414.216000
   9802   9806   9807     1   109.8800469 414.216000
   9802   9806   9808     1   109.8800469 414.216000
   9802   9809   9810     1   109.8800469 414.216000
   9802   9809   9811     1   109.8800469 414.216000
   9803   9815   9816     1   109.8000471 387.438400
   9803   9815   9817     1   109.8000471 387.438400
   9804   9803   9815     1   109.5600471 388.275200
   9804   9803   9805     1   108.4600466 328.025600
   9805   9803   9815     1   109.5600471 388.275200
   9806   9818   9819     1   109.8000471 387.438400
   9806   9818   9820     1   109.8000471 387.438400
   9807   9806   9818     1   109.5600471 388.275200
   9807   9806   9808     1   108.4600466 328.025600
   9808   9806   9818     1   109.5600471 388.275200
   9809   9812   9813     1   109.8000471 387.438400
   9809   9812   9814     1   109.8000471 387.438400
   9810   9809   9812     1   109.5600471 388.275200
   9810   9809   9811     1   108.4600466 328.025600
   9811   9809   9812     1   109.5600471 388.275200
   9812   9821   9822     1   109.5600471 388.275200
   9812   9821   9823     1   109.5600471 388.275200
   9813   9812   9821     1   109.8000471 387.438400
   9813   9812   9814     1   107.5800459 329.699200
   9814   9812   9821     1   109.8000471 387.438400
   9815   9827   9828     1   109.5600471 388.275200
   9815   9827   9829     1   109.5600471 388.275200
   9816   9815   9827     1   109.8000471 387.438400
   9816   9815   9817     1   107.5800459 329.699200
   9817   9815   9827     1   109.8000471 387.438400
   9818   9824   9825     1   109.5600471 388.275200
   9818   9824   9826     1   109.5600471 388.275200
   9819   9818   9824     1   109.8000471 387.438400
   9819   9818   9820     1   107.5800459 329.699200
   9820   9818   9824     1   109.8000471 387.438400
   9822   9821   9830     1   109.7800468 425.094400
   9822   9821   9823     1   108.4600466 328.025600
   9823   9821   9830     1   109.7800468 425.094400
   9825   9824  17896     1   109.7800468 425.094400
   9825   9824   9826     1   108.4600466 328.025600
   9826   9824  17896     1   109.7800468 425.094400
   9828   9827  17919     1   109.7800468 425.094400
   9828   9827   9829     1   108.4600466 328.025600
   9829   9827  17919     1   109.7800468 425.094400
   9831   9832   9833     1   109.8800469 414.216000
   9831   9832   9834     1   109.8800469 414.216000
   9831   9835   9836     1   109.8800469 414.216000
   9831   9835   9837     1   109.8800469 414.216000
   9831   9838   9839     1   109.8800469 414.216000
   9831   9838   9840     1   109.8800469 414.216000
   9832   9844   9845     1   109.8000471 387.438400
   9832   9844   9846     1   109.8000471 387.438400
   9833   9832   9844     1   109.5600471 388.275200
   9833   9832   9834     1   108.4600466 328.025600
   9834   9832   9844     1   109.5600471 388.275200
   9835   9847   9848     1   109.8000471 387.438400
   9835   9847   9849     1   109.8000471 387.438400
   9836   9835   9847     1   109.5600471 388.275200
   9836   9835   9837     1   108.4600466 328.025600
   9837   9835   9847     1   109.5600471 388.275200
   9838   9841   9842     1   109.8000471 387.438400
   9838   9841   9843     1   109.8000471 387.438400
   9839   9838   9841     1   109.5600471 388.275200
   9839   9838   9840     1   108.4600466 328.025600
   9840   9838   9841     1   109.5600471 388.275200
   9841   9850   9851     1   109.5600471 388.275200
   9841   9850   9852     1   109.5600471 388.275200
   9842   9841   9850     1   109.8000471 387.438400
   9842   9841   9843     1   107.5800459 329.699200
   9843   9841   9850     1   109.8000471 387.438400
   9844   9856   9857     1   109.5600471 388.275200
   9844   9856   9858     1   109.5600471 388.275200
   9845   9844   9856     1   109.8000471 387.438400
   9845   9844   9846     1   107.5800459 329.699200
   9846   9844   9856     1   109.8000471 387.438400
   9847   9853   9854     1   109.5600471 388.275200
   9847   9853   9855     1   109.5600471 388.275200
   9848   9847   9853     1   109.8000471 387.438400
   9848   9847   9849     1   107.5800459 329.699200
   9849   9847   9853     1   109.8000471 387.438400
   9851   9850   9859     1   109.7800468 425.094400
   9851   9850   9852     1   108.4600466 328.025600
   9852   9850   9859     1   109.7800468 425.094400
   9854   9853  17942     1   109.7800468 425.094400
   9854   9853   9855     1   108.4600466 328.025600
   9855   9853  17942     1   109.7800468 425.094400
   9857   9856  17965     1   109.7800468 425.094400
   9857   9856   9858     1   108.4600466 328.025600
   9858   9856  17965     1   109.7800468 425.094400
   9860   9861   9862     1   109.8800469 414.216000
   9860   9861   9863     1   109.8800469 414.216000
   9860   9864   9865     1   109.8800469 414.216000
   9860   9864   9866     1   109.8800469 414.216000
   9860   9867   9868     1   109.8800469 414.216000
   9860   9867   9869     1   109.8800469 414.216000
   9861   9873   9874     1   109.8000471 387.438400
   9861   9873   9875     1   109.8000471 387.438400
   9862   9861   9873     1   109.5600471 388.275200
   9862   9861   9863     1   108.4600466 328.025600
   9863   9861   9873     1   109.5600471 388.275200
   9864   9876   9877     1   109.8000471 387.438400
   9864   9876   9878     1   109.8000471 387.438400
   9865   9864   9876     1   109.5600471 388.275200
   9865   9864   9866     1   108.4600466 328.025600
   9866   9864   9876     1   109.5600471 388.275200
   9867   9870   9871     1   109.8000471 387.438400
   9867   9870   9872     1   109.8000471 387.438400
   9868   9867   9870     1   109.5600471 388.275200
   9868   9867   9869     1   108.4600466 328.025600
   9869   9867   9870     1   109.5600471 388.275200
   9870   9879   9880     1   109.5600471 388.275200
   9870   9879   9881     1   109.5600471 388.275200
   9871   9870   9879     1   109.8000471 387.438400
   9871   9870   9872     1   107.5800459 329.699200
   9872   9870   9879     1   109.8000471 387.438400
   9873   9885   9886     1   109.5600471 388.275200
   9873   9885   9887     1   109.5600471 388.275200
   9874   9873   9885     1   109.8000471 387.438400
   9874   9873   9875     1   107.5800459 329.699200
   9875   9873   9885     1   109.8000471 387.438400
   9876   9882   9883     1   109.5600471 388.275200
   9876   9882   9884     1   109.5600471 388.275200
   9877   9876   9882     1   109.8000471 387.438400
   9877   9876   9878     1   107.5800459 329.699200
   9878   9876   9882     1   109.8000471 387.438400
   9880   9879   9888     1   109.7800468 425.094400
   9880   9879   9881     1   108.4600466 328.025600
   9881   9879   9888     1   109.7800468 425.094400
   9883   9882  17988     1   109.7800468 425.094400
   9883   9882   9884     1   108.4600466 328.025600
   9884   9882  17988     1   109.7800468 425.094400
   9886   9885  18011     1   109.7800468 425.094400
   9886   9885   9887     1   108.4600466 328.025600
   9887   9885  18011     1   109.7800468 425.094400
   9889   9890   9891     1   109.8800469 414.216000
   9889   9890   9892     1   109.8800469 414.216000
   9889   9893   9894     1   109.8800469 414.216000
   9889   9893   9895     1   109.8800469 414.216000
   9889   9896   9897     1   109.8800469 414.216000
   9889   9896   9898     1   109.8800469 414.216000
   9890   9902   9903     1   109.8000471 387.438400
   9890   9902   9904     1   109.8000471 387.438400
   9891   9890   9902     1   109.5600471 388.275200
   9891   9890   9892     1   108.4600466 328.025600
   9892   9890   9902     1   109.5600471 388.275200
   9893   9905   9906     1   109.8000471 387.438400
   9893   9905   9907     1   109.8000471 387.438400
   9894   9893   9905     1   109.5600471 388.275200
   9894   9893   9895     1   108.4600466 328.025600
   9895   9893   9905     1   109.5600471 388.275200
   9896   9899   9900     1   109.8000471 387.438400
   9896   9899   9901     1   109.8000471 387.438400
   9897   9896   9899     1   109.5600471 388.275200
   9897   9896   9898     1   108.4600466 328.025600
   9898   9896   9899     1   109.5600471 388.275200
   9899   9908   9909     1   109.5600471 388.275200
   9899   9908   9910     1   109.5600471 388.275200
   9900   9899   9908     1   109.8000471 387.438400
   9900   9899   9901     1   107.5800459 329.699200
   9901   9899   9908     1   109.8000471 387.438400
   9902   9914   9915     1   109.5600471 388.275200
   9902   9914   9916     1   109.5600471 388.275200
   9903   9902   9914     1   109.8000471 387.438400
   9903   9902   9904     1   107.5800459 329.699200
   9904   9902   9914     1   109.8000471 387.438400
   9905   9911   9912     1   109.5600471 388.275200
   9905   9911   9913     1   109.5600471 388.275200
   9906   9905   9911     1   109.8000471 387.438400
   9906   9905   9907     1   107.5800459 329.699200
   9907   9905   9911     1   109.8000471 387.438400
   9909   9908   9917     1   109.7800468 425.094400
   9909   9908   9910     1   108.4600466 328.025600
   9910   9908   9917     1   109.7800468 425.094400
   9912   9911  18034     1   109.7800468 425.094400
   9912   9911   9913     1   108.4600466 328.025600
   9913   9911  18034     1   109.7800468 425.094400
   9915   9914  18057     1   109.7800468 425.094400
   9915   9914   9916     1   108.4600466 328.025600
   9916   9914  18057     1   109.7800468 425.094400
   9918   9919   9920     1   109.8800469 414.216000
   9918   9919   9921     1   109.8800469 414.216000
   9918   9922   9923     1   109.8800469 414.216000
   9918   9922   9924     1   109.8800469 414.216000
   9918   9925   9926     1   109.8800469 414.216000
   9918   9925   9927     1   109.8800469 414.216000
   9919   9931   9932     1   109.8000471 387.438400
   9919   9931   9933     1   109.8000471 387.438400
   9920   9919   9931     1   109.5600471 388.275200
   9920   9919   9921     1   108.4600466 328.025600
   9921   9919   9931     1   109.5600471 388.275200
   9922   9934   9935     1   109.8000471 387.438400
   9922   9934   9936     1   109.8000471 387.438400
   9923   9922   9934     1   109.5600471 388.275200
   9923   9922   9924     1   108.4600466 328.025600
   9924   9922   9934     1   109.5600471 388.275200
   9925   9928   9929     1   109.8000471 387.438400
   9925   9928   9930     1   109.8000471 387.438400
   9926   9925   9928     1   109.5600471 388.275200
   9926   9925   9927     1   108.4600466 328.025600
   9927   9925   9928     1   109.5600471 388.275200
   9928   9937   9938     1   109.5600471 388.275200
   9928   9937   9939     1   109.5600471 388.275200
   9929   9928   9937     1   109.8000471 387.438400
   9929   9928   9930     1   107.5800459 329.699200
   9930   9928   9937     1   109.8000471 387.438400
   9931   9943   9944     1   109.5600471 388.275200
   9931   9943   9945     1   109.5600471 388.275200
   9932   9931   9943     1   109.8000471 387.438400
   9932   9931   9933     1   107.5800459 329.699200
   9933   9931   9943     1   109.8000471 387.438400
   9934   9940   9941     1   109.5600471 388.275200
   9934   9940   9942     1   109.5600471 388.275200
   9935   9934   9940     1   109.8000471 387.438400
   9935   9934   9936     1   107.5800459 329.699200
   9936   9934   9940     1   109.8000471 387.438400
   9938   9937   9946     1   109.7800468 425.094400
   9938   9937   9939     1   108.4600466 328.025600
   9939   9937   9946     1   109.7800468 425.094400
   9941   9940  18080     1   109.7800468 425.094400
   9941   9940   9942     1   108.4600466 328.025600
   9942   9940  18080     1   109.7800468 425.094400
   9944   9943  18103     1   109.7800468 425.094400
   9944   9943   9945     1   108.4600466 328.025600
   9945   9943  18103     1   109.7800468 425.094400
   9947   9948   9949     1   109.8800469 414.216000
   9947   9948   9950     1   109.8800469 414.216000
   9947   9951   9952     1   109.8800469 414.216000
   9947   9951   9953     1   109.8800469 414.216000
   9947   9954   9955     1   109.8800469 414.216000
   9947   9954   9956     1   109.8800469 414.216000
   9948   9960   9961     1   109.8000471 387.438400
   9948   9960   9962     1   109.8000471 387.438400
   9949   9948   9960     1   109.5600471 388.275200
   9949   9948   9950     1   108.4600466 328.025600
   9950   9948   9960     1   109.5600471 388.275200
   9951   9963   9964     1   109.8000471 387.438400
   9951   9963   9965     1   109.8000471 387.438400
   9952   9951   9963     1   109.5600471 388.275200
   9952   9951   9953     1   108.4600466 328.025600
   9953   9951   9963     1   109.5600471 388.275200
   9954   9957   9958     1   109.8000471 387.438400
   9954   9957   9959     1   109.8000471 387.438400
   9955   9954   9957     1   109.5600471 388.275200
   9955   9954   9956     1   108.4600466 328.025600
   9956   9954   9957     1   109.5600471 388.275200
   9957   9966   9967     1   109.5600471 388.275200
   9957   9966   9968     1   109.5600471 388.275200
   9958   9957   9966     1   109.8000471 387.438400
   9958   9957   9959     1   107.5800459 329.699200
   9959   9957   9966     1   109.8000471 387.438400
   9960   9972   9973     1   109.5600471 388.275200
   9960   9972   9974     1   109.5600471 388.275200
   9961   9960   9972     1   109.8000471 387.438400
   9961   9960   9962     1   107.5800459 329.699200
   9962   9960   9972     1   109.8000471 387.438400
   9963   9969   9970     1   109.5600471 388.275200
   9963   9969   9971     1   109.5600471 388.275200
   9964   9963   9969     1   109.8000471 387.438400
   9964   9963   9965     1   107.5800459 329.699200
   9965   9963   9969     1   109.8000471 387.438400
   9967   9966   9975     1   109.7800468 425.094400
   9967   9966   9968     1   108.4600466 328.025600
   9968   9966   9975     1   109.7800468 425.094400
   9970   9969  18126     1   109.7800468 425.094400
   9970   9969   9971     1   108.4600466 328.025600
   9971   9969  18126     1   109.7800468 425.094400
   9973   9972  18149     1   109.7800468 425.094400
   9973   9972   9974     1   108.4600466 328.025600
   9974   9972  18149     1   109.7800468 425.094400
   9976   9977   9978     1   109.8800469 414.216000
   9976   9977   9979     1   109.8800469 414.216000
   9976   9980   9981     1   109.8800469 414.216000
   9976   9980   9982     1   109.8800469 414.216000
   9976   9983   9984     1   109.8800469 414.216000
   9976   9983   9985     1   109.8800469 414.216000
   9977   9989   9990     1   109.8000471 387.438400
   9977   9989   9991     1   109.8000471 387.438400
   9978   9977   9989     1   109.5600471 388.275200
   9978   9977   9979     1   108.4600466 328.025600
   9979   9977   9989     1   109.5600471 388.275200
   9980   9992   9993     1   109.8000471 387.438400
   9980   9992   9994     1   109.8000471 387.438400
   9981   9980   9992     1   109.5600471 388.275200
   9981   9980   9982     1   108.4600466 328.025600
   9982   9980   9992     1   109.5600471 388.275200
   9983   9986   9987     1   109.8000471 387.438400
   9983   9986   9988     1   109.8000471 387.438400
   9984   9983   9986     1   109.5600471 388.275200
   9984   9983   9985     1   108.4600466 328.025600
   9985   9983   9986     1   109.5600471 388.275200
   9986   9995   9996     1   109.5600471 388.275200
   9986   9995   9997     1   109.5600471 388.275200
   9987   9986   9995     1   109.8000471 387.438400
   9987   9986   9988     1   107.5800459 329.699200
   9988   9986   9995     1   109.8000471 387.438400
   9989  10001  10002     1   109.5600471 388.275200
   9989  10001  10003     1   109.5600471 388.275200
   9990   9989  10001     1   109.8000471 387.438400
   9990   9989   9991     1   107.5800459 329.699200
   9991   9989  10001     1   109.8000471 387.438400
   9992   9998   9999     1   109.5600471 388.275200
   9992   9998  10000     1   109.5600471 388.275200
   9993   9992   9998     1   109.8000471 387.438400
   9993   9992   9994     1   107.5800459 329.699200
   9994   9992   9998     1   109.8000471 387.438400
   9996   9995  10004     1   109.7800468 425.094400
   9996   9995   9997     1   108.4600466 328.025600
   9997   9995  10004     1   109.7800468 425.094400
   9999   9998  18172     1   109.7800468 425.094400
   9999   9998  10000     1   108.4600466 328.025600
  10000   9998  18172     1   109.7800468 425.094400
  10002  10001  18195     1   109.7800468 425.094400
  10002  10001  10003     1   108.4600466 328.025600
  10003  10001  18195     1   109.7800468 425.094400
  10005  10006  10007     1   109.8800469 414.216000
  10005  10006  10008     1   109.8800469 414.216000
  10005  10009  10010     1   109.8800469 414.216000
  10005  10009  10011     1   109.8800469 414.216000
  10005  10012  10013     1   109.8800469 414.216000
  10005  10012  10014     1   109.8800469 414.216000
  10006  10018  10019     1   109.8000471 387.438400
  10006  10018  10020     1   109.8000471 387.438400
  10007  10006  10018     1   109.5600471 388.275200
  10007  10006  10008     1   108.4600466 328.025600
  10008  10006  10018     1   109.5600471 388.275200
  10009  10021  10022     1   109.8000471 387.438400
  10009  10021  10023     1   109.8000471 387.438400
  10010  10009  10021     1   109.5600471 388.275200
  10010  10009  10011     1   108.4600466 328.025600
  10011  10009  10021     1   109.5600471 388.275200
  10012  10015  10016     1   109.8000471 387.438400
  10012  10015  10017     1   109.8000471 387.438400
  10013  10012  10015     1   109.5600471 388.275200
  10013  10012  10014     1   108.4600466 328.025600
  10014  10012  10015     1   109.5600471 388.275200
  10015  10024  10025     1   109.5600471 388.275200
  10015  10024  10026     1   109.5600471 388.275200
  10016  10015  10024     1   109.8000471 387.438400
  10016  10015  10017     1   107.5800459 329.699200
  10017  10015  10024     1   109.8000471 387.438400
  10018  10030  10031     1   109.5600471 388.275200
  10018  10030  10032     1   109.5600471 388.275200
  10019  10018  10030     1   109.8000471 387.438400
  10019  10018  10020     1   107.5800459 329.699200
  10020  10018  10030     1   109.8000471 387.438400
  10021  10027  10028     1   109.5600471 388.275200
  10021  10027  10029     1   109.5600471 388.275200
  10022  10021  10027     1   109.8000471 387.438400
  10022  10021  10023     1   107.5800459 329.699200
  10023  10021  10027     1   109.8000471 387.438400
  10025  10024  10033     1   109.7800468 425.094400
  10025  10024  10026     1   108.4600466 328.025600
  10026  10024  10033     1   109.7800468 425.094400
  10028  10027  18218     1   109.7800468 425.094400
  10028  10027  10029     1   108.4600466 328.025600
  10029  10027  18218     1   109.7800468 425.094400
  10031  10030  18241     1   109.7800468 425.094400
  10031  10030  10032     1   108.4600466 328.025600
  10032  10030  18241     1   109.7800468 425.094400
  10034  10035  10036     1   109.8800469 414.216000
  10034  10035  10037     1   109.8800469 414.216000
  10034  10038  10039     1   109.8800469 414.216000
  10034  10038  10040     1   109.8800469 414.216000
  10034  10041  10042     1   109.8800469 414.216000
  10034  10041  10043     1   109.8800469 414.216000
  10035  10047  10048     1   109.8000471 387.438400
  10035  10047  10049     1   109.8000471 387.438400
  10036  10035  10047     1   109.5600471 388.275200
  10036  10035  10037     1   108.4600466 328.025600
  10037  10035  10047     1   109.5600471 388.275200
  10038  10050  10051     1   109.8000471 387.438400
  10038  10050  10052     1   109.8000471 387.438400
  10039  10038  10050     1   109.5600471 388.275200
  10039  10038  10040     1   108.4600466 328.025600
  10040  10038  10050     1   109.5600471 388.275200
  10041  10044  10045     1   109.8000471 387.438400
  10041  10044  10046     1   109.8000471 387.438400
  10042  10041  10044     1   109.5600471 388.275200
  10042  10041  10043     1   108.4600466 328.025600
  10043  10041  10044     1   109.5600471 388.275200
  10044  10053  10054     1   109.5600471 388.275200
  10044  10053  10055     1   109.5600471 388.275200
  10045  10044  10053     1   109.8000471 387.438400
  10045  10044  10046     1   107.5800459 329.699200
  10046  10044  10053     1   109.8000471 387.438400
  10047  10059  10060     1   109.5600471 388.275200
  10047  10059  10061     1   109.5600471 388.275200
  10048  10047  10059     1   109.8000471 387.438400
  10048  10047  10049     1   107.5800459 329.699200
  10049  10047  10059     1   109.8000471 387.438400
  10050  10056  10057     1   109.5600471 388.275200
  10050  10056  10058     1   109.5600471 388.275200
  10051  10050  10056     1   109.8000471 387.438400
  10051  10050  10052     1   107.5800459 329.699200
  10052  10050  10056     1   109.8000471 387.438400
  10054  10053  10062     1   109.7800468 425.094400
  10054  10053  10055     1   108.4600466 328.025600
  10055  10053  10062     1   109.7800468 425.094400
  10057  10056  18264     1   109.7800468 425.094400
  10057  10056  10058     1   108.4600466 328.025600
  10058  10056  18264     1   109.7800468 425.094400
  10060  10059  18287     1   109.7800468 425.094400
  10060  10059  10061     1   108.4600466 328.025600
  10061  10059  18287     1   109.7800468 425.094400
  10063  10064  10065     1   109.8800469 414.216000
  10063  10064  10066     1   109.8800469 414.216000
  10063  10067  10068     1   109.8800469 414.216000
  10063  10067  10069     1   109.8800469 414.216000
  10063  10070  10071     1   109.8800469 414.216000
  10063  10070  10072     1   109.8800469 414.216000
  10064  10076  10077     1   109.8000471 387.438400
  10064  10076  10078     1   109.8000471 387.438400
  10065  10064  10076     1   109.5600471 388.275200
  10065  10064  10066     1   108.4600466 328.025600
  10066  10064  10076     1   109.5600471 388.275200
  10067  10079  10080     1   109.8000471 387.438400
  10067  10079  10081     1   109.8000471 387.438400
  10068  10067  10079     1   109.5600471 388.275200
  10068  10067  10069     1   108.4600466 328.025600
  10069  10067  10079     1   109.5600471 388.275200
  10070  10073  10074     1   109.8000471 387.438400
  10070  10073  10075     1   109.8000471 387.438400
  10071  10070  10073     1   109.5600471 388.275200
  10071  10070  10072     1   108.4600466 328.025600
  10072  10070  10073     1   109.5600471 388.275200
  10073  10082  10083     1   109.5600471 388.275200
  10073  10082  10084     1   109.5600471 388.275200
  10074  10073  10082     1   109.8000471 387.438400
  10074  10073  10075     1   107.5800459 329.699200
  10075  10073  10082     1   109.8000471 387.438400
  10076  10088  10089     1   109.5600471 388.275200
  10076  10088  10090     1   109.5600471 388.275200
  10077  10076  10088     1   109.8000471 387.438400
  10077  10076  10078     1   107.5800459 329.699200
  10078  10076  10088     1   109.8000471 387.438400
  10079  10085  10086     1   109.5600471 388.275200
  10079  10085  10087     1   109.5600471 388.275200
  10080  10079  10085     1   109.8000471 387.438400
  10080  10079  10081     1   107.5800459 329.699200
  10081  10079  10085     1   109.8000471 387.438400
  10083  10082  10091     1   109.7800468 425.094400
  10083  10082  10084     1   108.4600466 328.025600
  10084  10082  10091     1   109.7800468 425.094400
  10086  10085  18310     1   109.7800468 425.094400
  10086  10085  10087     1   108.4600466 328.025600
  10087  10085  18310     1   109.7800468 425.094400
  10089  10088  18333     1   109.7800468 425.094400
  10089  10088  10090     1   108.4600466 328.025600
  10090  10088  18333     1   109.7800468 425.094400
  10092  10093  10094     1   109.8800469 414.216000
  10092  10093  10095     1   109.8800469 414.216000
  10092  10096  10097     1   109.8800469 414.216000
  10092  10096  10098     1   109.8800469 414.216000
  10092  10099  10100     1   109.8800469 414.216000
  10092  10099  10101     1   109.8800469 414.216000
  10093  10105  10106     1   109.8000471 387.438400
  10093  10105  10107     1   109.8000471 387.438400
  10094  10093  10105     1   109.5600471 388.275200
  10094  10093  10095     1   108.4600466 328.025600
  10095  10093  10105     1   109.5600471 388.275200
  10096  10108  10109     1   109.8000471 387.438400
  10096  10108  10110     1   109.8000471 387.438400
  10097  10096  10108     1   109.5600471 388.275200
  10097  10096  10098     1   108.4600466 328.025600
  10098  10096  10108     1   109.5600471 388.275200
  10099  10102  10103     1   109.8000471 387.438400
  10099  10102  10104     1   109.8000471 387.438400
  10100  10099  10102     1   109.5600471 388.275200
  10100  10099  10101     1   108.4600466 328.025600
  10101  10099  10102     1   109.5600471 388.275200
  10102  10111  10112     1   109.5600471 388.275200
  10102  10111  10113     1   109.5600471 388.275200
  10103  10102  10111     1   109.8000471 387.438400
  10103  10102  10104     1   107.5800459 329.699200
  10104  10102  10111     1   109.8000471 387.438400
  10105  10117  10118     1   109.5600471 388.275200
  10105  10117  10119     1   109.5600471 388.275200
  10106  10105  10117     1   109.8000471 387.438400
  10106  10105  10107     1   107.5800459 329.699200
  10107  10105  10117     1   109.8000471 387.438400
  10108  10114  10115     1   109.5600471 388.275200
  10108  10114  10116     1   109.5600471 388.275200
  10109  10108  10114     1   109.8000471 387.438400
  10109  10108  10110     1   107.5800459 329.699200
  10110  10108  10114     1   109.8000471 387.438400
  10112  10111  10120     1   109.7800468 425.094400
  10112  10111  10113     1   108.4600466 328.025600
  10113  10111  10120     1   109.7800468 425.094400
  10115  10114  18356     1   109.7800468 425.094400
  10115  10114  10116     1   108.4600466 328.025600
  10116  10114  18356     1   109.7800468 425.094400
  10118  10117  18379     1   109.7800468 425.094400
  10118  10117  10119     1   108.4600466 328.025600
  10119  10117  18379     1   109.7800468 425.094400
  10121  10122  10123     1   109.8800469 414.216000
  10121  10122  10124     1   109.8800469 414.216000
  10121  10125  10126     1   109.8800469 414.216000
  10121  10125  10127     1   109.8800469 414.216000
  10121  10128  10129     1   109.8800469 414.216000
  10121  10128  10130     1   109.8800469 414.216000
  10122  10134  10135     1   109.8000471 387.438400
  10122  10134  10136     1   109.8000471 387.438400
  10123  10122  10134     1   109.5600471 388.275200
  10123  10122  10124     1   108.4600466 328.025600
  10124  10122  10134     1   109.5600471 388.275200
  10125  10137  10138     1   109.8000471 387.438400
  10125  10137  10139     1   109.8000471 387.438400
  10126  10125  10137     1   109.5600471 388.275200
  10126  10125  10127     1   108.4600466 328.025600
  10127  10125  10137     1   109.5600471 388.275200
  10128  10131  10132     1   109.8000471 387.438400
  10128  10131  10133     1   109.8000471 387.438400
  10129  10128  10131     1   109.5600471 388.275200
  10129  10128  10130     1   108.4600466 328.025600
  10130  10128  10131     1   109.5600471 388.275200
  10131  10140  10141     1   109.5600471 388.275200
  10131  10140  10142     1   109.5600471 388.275200
  10132  10131  10140     1   109.8000471 387.438400
  10132  10131  10133     1   107.5800459 329.699200
  10133  10131  10140     1   109.8000471 387.438400
  10134  10146  10147     1   109.5600471 388.275200
  10134  10146  10148     1   109.5600471 388.275200
  10135  10134  10146     1   109.8000471 387.438400
  10135  10134  10136     1   107.5800459 329.699200
  10136  10134  10146     1   109.8000471 387.438400
  10137  10143  10144     1   109.5600471 388.275200
  10137  10143  10145     1   109.5600471 388.275200
  10138  10137  10143     1   109.8000471 387.438400
  10138  10137  10139     1   107.5800459 329.699200
  10139  10137  10143     1   109.8000471 387.438400
  10141  10140  10149     1   109.7800468 425.094400
  10141  10140  10142     1   108.4600466 328.025600
  10142  10140  10149     1   109.7800468 425.094400
  10144  10143  18402     1   109.7800468 425.094400
  10144  10143  10145     1   108.4600466 328.025600
  10145  10143  18402     1   109.7800468 425.094400
  10147  10146  18425     1   109.7800468 425.094400
  10147  10146  10148     1   108.4600466 328.025600
  10148  10146  18425     1   109.7800468 425.094400
  10150  10151  10152     1   109.8800469 414.216000
  10150  10151  10153     1   109.8800469 414.216000
  10150  10154  10155     1   109.8800469 414.216000
  10150  10154  10156     1   109.8800469 414.216000
  10150  10157  10158     1   109.8800469 414.216000
  10150  10157  10159     1   109.8800469 414.216000
  10151  10163  10164     1   109.8000471 387.438400
  10151  10163  10165     1   109.8000471 387.438400
  10152  10151  10163     1   109.5600471 388.275200
  10152  10151  10153     1   108.4600466 328.025600
  10153  10151  10163     1   109.5600471 388.275200
  10154  10166  10167     1   109.8000471 387.438400
  10154  10166  10168     1   109.8000471 387.438400
  10155  10154  10166     1   109.5600471 388.275200
  10155  10154  10156     1   108.4600466 328.025600
  10156  10154  10166     1   109.5600471 388.275200
  10157  10160  10161     1   109.8000471 387.438400
  10157  10160  10162     1   109.8000471 387.438400
  10158  10157  10160     1   109.5600471 388.275200
  10158  10157  10159     1   108.4600466 328.025600
  10159  10157  10160     1   109.5600471 388.275200
  10160  10169  10170     1   109.5600471 388.275200
  10160  10169  10171     1   109.5600471 388.275200
  10161  10160  10169     1   109.8000471 387.438400
  10161  10160  10162     1   107.5800459 329.699200
  10162  10160  10169     1   109.8000471 387.438400
  10163  10175  10176     1   109.5600471 388.275200
  10163  10175  10177     1   109.5600471 388.275200
  10164  10163  10175     1   109.8000471 387.438400
  10164  10163  10165     1   107.5800459 329.699200
  10165  10163  10175     1   109.8000471 387.438400
  10166  10172  10173     1   109.5600471 388.275200
  10166  10172  10174     1   109.5600471 388.275200
  10167  10166  10172     1   109.8000471 387.438400
  10167  10166  10168     1   107.5800459 329.699200
  10168  10166  10172     1   109.8000471 387.438400
  10170  10169  10178     1   109.7800468 425.094400
  10170  10169  10171     1   108.4600466 328.025600
  10171  10169  10178     1   109.7800468 425.094400
  10173  10172  18448     1   109.7800468 425.094400
  10173  10172  10174     1   108.4600466 328.025600
  10174  10172  18448     1   109.7800468 425.094400
  10176  10175  18471     1   109.7800468 425.094400
  10176  10175  10177     1   108.4600466 328.025600
  10177  10175  18471     1   109.7800468 425.094400
  10179  10180  10181     1   109.8800469 414.216000
  10179  10180  10182     1   109.8800469 414.216000
  10179  10183  10184     1   109.8800469 414.216000
  10179  10183  10185     1   109.8800469 414.216000
  10179  10186  10187     1   109.8800469 414.216000
  10179  10186  10188     1   109.8800469 414.216000
  10180  10192  10193     1   109.8000471 387.438400
  10180  10192  10194     1   109.8000471 387.438400
  10181  10180  10192     1   109.5600471 388.275200
  10181  10180  10182     1   108.4600466 328.025600
  10182  10180  10192     1   109.5600471 388.275200
  10183  10195  10196     1   109.8000471 387.438400
  10183  10195  10197     1   109.8000471 387.438400
  10184  10183  10195     1   109.5600471 388.275200
  10184  10183  10185     1   108.4600466 328.025600
  10185  10183  10195     1   109.5600471 388.275200
  10186  10189  10190     1   109.8000471 387.438400
  10186  10189  10191     1   109.8000471 387.438400
  10187  10186  10189     1   109.5600471 388.275200
  10187  10186  10188     1   108.4600466 328.025600
  10188  10186  10189     1   109.5600471 388.275200
  10189  10198  10199     1   109.5600471 388.275200
  10189  10198  10200     1   109.5600471 388.275200
  10190  10189  10198     1   109.8000471 387.438400
  10190  10189  10191     1   107.5800459 329.699200
  10191  10189  10198     1   109.8000471 387.438400
  10192  10204  10205     1   109.5600471 388.275200
  10192  10204  10206     1   109.5600471 388.275200
  10193  10192  10204     1   109.8000471 387.438400
  10193  10192  10194     1   107.5800459 329.699200
  10194  10192  10204     1   109.8000471 387.438400
  10195  10201  10202     1   109.5600471 388.275200
  10195  10201  10203     1   109.5600471 388.275200
  10196  10195  10201     1   109.8000471 387.438400
  10196  10195  10197     1   107.5800459 329.699200
  10197  10195  10201     1   109.8000471 387.438400
  10199  10198  10207     1   109.7800468 425.094400
  10199  10198  10200     1   108.4600466 328.025600
  10200  10198  10207     1   109.7800468 425.094400
  10202  10201  18494     1   109.7800468 425.094400
  10202  10201  10203     1   108.4600466 328.025600
  10203  10201  18494     1   109.7800468 425.094400
  10205  10204  18517     1   109.7800468 425.094400
  10205  10204  10206     1   108.4600466 328.025600
  10206  10204  18517     1   109.7800468 425.094400
  10208  10209  10210     1   109.8800469 414.216000
  10208  10209  10211     1   109.8800469 414.216000
  10208  10212  10213     1   109.8800469 414.216000
  10208  10212  10214     1   109.8800469 414.216000
  10208  10215  10216     1   109.8800469 414.216000
  10208  10215  10217     1   109.8800469 414.216000
  10209  10221  10222     1   109.8000471 387.438400
  10209  10221  10223     1   109.8000471 387.438400
  10210  10209  10221     1   109.5600471 388.275200
  10210  10209  10211     1   108.4600466 328.025600
  10211  10209  10221     1   109.5600471 388.275200
  10212  10224  10225     1   109.8000471 387.438400
  10212  10224  10226     1   109.8000471 387.438400
  10213  10212  10224     1   109.5600471 388.275200
  10213  10212  10214     1   108.4600466 328.025600
  10214  10212  10224     1   109.5600471 388.275200
  10215  10218  10219     1   109.8000471 387.438400
  10215  10218  10220     1   109.8000471 387.438400
  10216  10215  10218     1   109.5600471 388.275200
  10216  10215  10217     1   108.4600466 328.025600
  10217  10215  10218     1   109.5600471 388.275200
  10218  10227  10228     1   109.5600471 388.275200
  10218  10227  10229     1   109.5600471 388.275200
  10219  10218  10227     1   109.8000471 387.438400
  10219  10218  10220     1   107.5800459 329.699200
  10220  10218  10227     1   109.8000471 387.438400
  10221  10233  10234     1   109.5600471 388.275200
  10221  10233  10235     1   109.5600471 388.275200
  10222  10221  10233     1   109.8000471 387.438400
  10222  10221  10223     1   107.5800459 329.699200
  10223  10221  10233     1   109.8000471 387.438400
  10224  10230  10231     1   109.5600471 388.275200
  10224  10230  10232     1   109.5600471 388.275200
  10225  10224  10230     1   109.8000471 387.438400
  10225  10224  10226     1   107.5800459 329.699200
  10226  10224  10230     1   109.8000471 387.438400
  10228  10227  10236     1   109.7800468 425.094400
  10228  10227  10229     1   108.4600466 328.025600
  10229  10227  10236     1   109.7800468 425.094400
  10231  10230  18540     1   109.7800468 425.094400
  10231  10230  10232     1   108.4600466 328.025600
  10232  10230  18540     1   109.7800468 425.094400
  10234  10233  18563     1   109.7800468 425.094400
  10234  10233  10235     1   108.4600466 328.025600
  10235  10233  18563     1   109.7800468 425.094400
  10237  10238  10239     1   109.8800469 414.216000
  10237  10238  10240     1   109.8800469 414.216000
  10237  10241  10242     1   109.8800469 414.216000
  10237  10241  10243     1   109.8800469 414.216000
  10237  10244  10245     1   109.8800469 414.216000
  10237  10244  10246     1   109.8800469 414.216000
  10238  10250  10251     1   109.8000471 387.438400
  10238  10250  10252     1   109.8000471 387.438400
  10239  10238  10250     1   109.5600471 388.275200
  10239  10238  10240     1   108.4600466 328.025600
  10240  10238  10250     1   109.5600471 388.275200
  10241  10253  10254     1   109.8000471 387.438400
  10241  10253  10255     1   109.8000471 387.438400
  10242  10241  10253     1   109.5600471 388.275200
  10242  10241  10243     1   108.4600466 328.025600
  10243  10241  10253     1   109.5600471 388.275200
  10244  10247  10248     1   109.8000471 387.438400
  10244  10247  10249     1   109.8000471 387.438400
  10245  10244  10247     1   109.5600471 388.275200
  10245  10244  10246     1   108.4600466 328.025600
  10246  10244  10247     1   109.5600471 388.275200
  10247  10256  10257     1   109.5600471 388.275200
  10247  10256  10258     1   109.5600471 388.275200
  10248  10247  10256     1   109.8000471 387.438400
  10248  10247  10249     1   107.5800459 329.699200
  10249  10247  10256     1   109.8000471 387.438400
  10250  10262  10263     1   109.5600471 388.275200
  10250  10262  10264     1   109.5600471 388.275200
  10251  10250  10262     1   109.8000471 387.438400
  10251  10250  10252     1   107.5800459 329.699200
  10252  10250  10262     1   109.8000471 387.438400
  10253  10259  10260     1   109.5600471 388.275200
  10253  10259  10261     1   109.5600471 388.275200
  10254  10253  10259     1   109.8000471 387.438400
  10254  10253  10255     1   107.5800459 329.699200
  10255  10253  10259     1   109.8000471 387.438400
  10257  10256  10265     1   109.7800468 425.094400
  10257  10256  10258     1   108.4600466 328.025600
  10258  10256  10265     1   109.7800468 425.094400
  10260  10259  18586     1   109.7800468 425.094400
  10260  10259  10261     1   108.4600466 328.025600
  10261  10259  18586     1   109.7800468 425.094400
  10263  10262  18609     1   109.7800468 425.094400
  10263  10262  10264     1   108.4600466 328.025600
  10264  10262  18609     1   109.7800468 425.094400
  10266  10267  10268     1   109.8800469 414.216000
  10266  10267  10269     1   109.8800469 414.216000
  10266  10270  10271     1   109.8800469 414.216000
  10266  10270  10272     1   109.8800469 414.216000
  10266  10273  10274     1   109.8800469 414.216000
  10266  10273  10275     1   109.8800469 414.216000
  10267  10279  10280     1   109.8000471 387.438400
  10267  10279  10281     1   109.8000471 387.438400
  10268  10267  10279     1   109.5600471 388.275200
  10268  10267  10269     1   108.4600466 328.025600
  10269  10267  10279     1   109.5600471 388.275200
  10270  10282  10283     1   109.8000471 387.438400
  10270  10282  10284     1   109.8000471 387.438400
  10271  10270  10282     1   109.5600471 388.275200
  10271  10270  10272     1   108.4600466 328.025600
  10272  10270  10282     1   109.5600471 388.275200
  10273  10276  10277     1   109.8000471 387.438400
  10273  10276  10278     1   109.8000471 387.438400
  10274  10273  10276     1   109.5600471 388.275200
  10274  10273  10275     1   108.4600466 328.025600
  10275  10273  10276     1   109.5600471 388.275200
  10276  10285  10286     1   109.5600471 388.275200
  10276  10285  10287     1   109.5600471 388.275200
  10277  10276  10285     1   109.8000471 387.438400
  10277  10276  10278     1   107.5800459 329.699200
  10278  10276  10285     1   109.8000471 387.438400
  10279  10291  10292     1   109.5600471 388.275200
  10279  10291  10293     1   109.5600471 388.275200
  10280  10279  10291     1   109.8000471 387.438400
  10280  10279  10281     1   107.5800459 329.699200
  10281  10279  10291     1   109.8000471 387.438400
  10282  10288  10289     1   109.5600471 388.275200
  10282  10288  10290     1   109.5600471 388.275200
  10283  10282  10288     1   109.8000471 387.438400
  10283  10282  10284     1   107.5800459 329.699200
  10284  10282  10288     1   109.8000471 387.438400
  10286  10285  10294     1   109.7800468 425.094400
  10286  10285  10287     1   108.4600466 328.025600
  10287  10285  10294     1   109.7800468 425.094400
  10289  10288  18632     1   109.7800468 425.094400
  10289  10288  10290     1   108.4600466 328.025600
  10290  10288  18632     1   109.7800468 425.094400
  10292  10291  18655     1   109.7800468 425.094400
  10292  10291  10293     1   108.4600466 328.025600
  10293  10291  18655     1   109.7800468 425.094400
  10295  10296  10297     1   109.8800469 414.216000
  10295  10296  10298     1   109.8800469 414.216000
  10295  10299  10300     1   109.8800469 414.216000
  10295  10299  10301     1   109.8800469 414.216000
  10295  10302  10303     1   109.8800469 414.216000
  10295  10302  10304     1   109.8800469 414.216000
  10296  10308  10309     1   109.8000471 387.438400
  10296  10308  10310     1   109.8000471 387.438400
  10297  10296  10308     1   109.5600471 388.275200
  10297  10296  10298     1   108.4600466 328.025600
  10298  10296  10308     1   109.5600471 388.275200
  10299  10311  10312     1   109.8000471 387.438400
  10299  10311  10313     1   109.8000471 387.438400
  10300  10299  10311     1   109.5600471 388.275200
  10300  10299  10301     1   108.4600466 328.025600
  10301  10299  10311     1   109.5600471 388.275200
  10302  10305  10306     1   109.8000471 387.438400
  10302  10305  10307     1   109.8000471 387.438400
  10303  10302  10305     1   109.5600471 388.275200
  10303  10302  10304     1   108.4600466 328.025600
  10304  10302  10305     1   109.5600471 388.275200
  10305  10314  10315     1   109.5600471 388.275200
  10305  10314  10316     1   109.5600471 388.275200
  10306  10305  10314     1   109.8000471 387.438400
  10306  10305  10307     1   107.5800459 329.699200
  10307  10305  10314     1   109.8000471 387.438400
  10308  10320  10321     1   109.5600471 388.275200
  10308  10320  10322     1   109.5600471 388.275200
  10309  10308  10320     1   109.8000471 387.438400
  10309  10308  10310     1   107.5800459 329.699200
  10310  10308  10320     1   109.8000471 387.438400
  10311  10317  10318     1   109.5600471 388.275200
  10311  10317  10319     1   109.5600471 388.275200
  10312  10311  10317     1   109.8000471 387.438400
  10312  10311  10313     1   107.5800459 329.699200
  10313  10311  10317     1   109.8000471 387.438400
  10315  10314  10323     1   109.7800468 425.094400
  10315  10314  10316     1   108.4600466 328.025600
  10316  10314  10323     1   109.7800468 425.094400
  10318  10317  18678     1   109.7800468 425.094400
  10318  10317  10319     1   108.4600466 328.025600
  10319  10317  18678     1   109.7800468 425.094400
  10321  10320  18701     1   109.7800468 425.094400
  10321  10320  10322     1   108.4600466 328.025600
  10322  10320  18701     1   109.7800468 425.094400
  10324  10325  10326     1   109.8800469 414.216000
  10324  10325  10327     1   109.8800469 414.216000
  10324  10328  10329     1   109.8800469 414.216000
  10324  10328  10330     1   109.8800469 414.216000
  10324  10331  10332     1   109.8800469 414.216000
  10324  10331  10333     1   109.8800469 414.216000
  10325  10337  10338     1   109.8000471 387.438400
  10325  10337  10339     1   109.8000471 387.438400
  10326  10325  10337     1   109.5600471 388.275200
  10326  10325  10327     1   108.4600466 328.025600
  10327  10325  10337     1   109.5600471 388.275200
  10328  10340  10341     1   109.8000471 387.438400
  10328  10340  10342     1   109.8000471 387.438400
  10329  10328  10340     1   109.5600471 388.275200
  10329  10328  10330     1   108.4600466 328.025600
  10330  10328  10340     1   109.5600471 388.275200
  10331  10334  10335     1   109.8000471 387.438400
  10331  10334  10336     1   109.8000471 387.438400
  10332  10331  10334     1   109.5600471 388.275200
  10332  10331  10333     1   108.4600466 328.025600
  10333  10331  10334     1   109.5600471 388.275200
  10334  10343  10344     1   109.5600471 388.275200
  10334  10343  10345     1   109.5600471 388.275200
  10335  10334  10343     1   109.8000471 387.438400
  10335  10334  10336     1   107.5800459 329.699200
  10336  10334  10343     1   109.8000471 387.438400
  10337  10349  10350     1   109.5600471 388.275200
  10337  10349  10351     1   109.5600471 388.275200
  10338  10337  10349     1   109.8000471 387.438400
  10338  10337  10339     1   107.5800459 329.699200
  10339  10337  10349     1   109.8000471 387.438400
  10340  10346  10347     1   109.5600471 388.275200
  10340  10346  10348     1   109.5600471 388.275200
  10341  10340  10346     1   109.8000471 387.438400
  10341  10340  10342     1   107.5800459 329.699200
  10342  10340  10346     1   109.8000471 387.438400
  10344  10343  10352     1   109.7800468 425.094400
  10344  10343  10345     1   108.4600466 328.025600
  10345  10343  10352     1   109.7800468 425.094400
  10347  10346  18724     1   109.7800468 425.094400
  10347  10346  10348     1   108.4600466 328.025600
  10348  10346  18724     1   109.7800468 425.094400
  10350  10349  18747     1   109.7800468 425.094400
  10350  10349  10351     1   108.4600466 328.025600
  10351  10349  18747     1   109.7800468 425.094400
  10353  10354  10355     1   109.8800469 414.216000
  10353  10354  10356     1   109.8800469 414.216000
  10353  10357  10358     1   109.8800469 414.216000
  10353  10357  10359     1   109.8800469 414.216000
  10353  10360  10361     1   109.8800469 414.216000
  10353  10360  10362     1   109.8800469 414.216000
  10354  10366  10367     1   109.8000471 387.438400
  10354  10366  10368     1   109.8000471 387.438400
  10355  10354  10366     1   109.5600471 388.275200
  10355  10354  10356     1   108.4600466 328.025600
  10356  10354  10366     1   109.5600471 388.275200
  10357  10369  10370     1   109.8000471 387.438400
  10357  10369  10371     1   109.8000471 387.438400
  10358  10357  10369     1   109.5600471 388.275200
  10358  10357  10359     1   108.4600466 328.025600
  10359  10357  10369     1   109.5600471 388.275200
  10360  10363  10364     1   109.8000471 387.438400
  10360  10363  10365     1   109.8000471 387.438400
  10361  10360  10363     1   109.5600471 388.275200
  10361  10360  10362     1   108.4600466 328.025600
  10362  10360  10363     1   109.5600471 388.275200
  10363  10372  10373     1   109.5600471 388.275200
  10363  10372  10374     1   109.5600471 388.275200
  10364  10363  10372     1   109.8000471 387.438400
  10364  10363  10365     1   107.5800459 329.699200
  10365  10363  10372     1   109.8000471 387.438400
  10366  10378  10379     1   109.5600471 388.275200
  10366  10378  10380     1   109.5600471 388.275200
  10367  10366  10378     1   109.8000471 387.438400
  10367  10366  10368     1   107.5800459 329.699200
  10368  10366  10378     1   109.8000471 387.438400
  10369  10375  10376     1   109.5600471 388.275200
  10369  10375  10377     1   109.5600471 388.275200
  10370  10369  10375     1   109.8000471 387.438400
  10370  10369  10371     1   107.5800459 329.699200
  10371  10369  10375     1   109.8000471 387.438400
  10373  10372  10381     1   109.7800468 425.094400
  10373  10372  10374     1   108.4600466 328.025600
  10374  10372  10381     1   109.7800468 425.094400
  10376  10375  18770     1   109.7800468 425.094400
  10376  10375  10377     1   108.4600466 328.025600
  10377  10375  18770     1   109.7800468 425.094400
  10379  10378  18793     1   109.7800468 425.094400
  10379  10378  10380     1   108.4600466 328.025600
  10380  10378  18793     1   109.7800468 425.094400
  10382  10383  10384     1   109.8800469 414.216000
  10382  10383  10385     1   109.8800469 414.216000
  10382  10386  10387     1   109.8800469 414.216000
  10382  10386  10388     1   109.8800469 414.216000
  10382  10389  10390     1   109.8800469 414.216000
  10382  10389  10391     1   109.8800469 414.216000
  10383  10395  10396     1   109.8000471 387.438400
  10383  10395  10397     1   109.8000471 387.438400
  10384  10383  10395     1   109.5600471 388.275200
  10384  10383  10385     1   108.4600466 328.025600
  10385  10383  10395     1   109.5600471 388.275200
  10386  10398  10399     1   109.8000471 387.438400
  10386  10398  10400     1   109.8000471 387.438400
  10387  10386  10398     1   109.5600471 388.275200
  10387  10386  10388     1   108.4600466 328.025600
  10388  10386  10398     1   109.5600471 388.275200
  10389  10392  10393     1   109.8000471 387.438400
  10389  10392  10394     1   109.8000471 387.438400
  10390  10389  10392     1   109.5600471 388.275200
  10390  10389  10391     1   108.4600466 328.025600
  10391  10389  10392     1   109.5600471 388.275200
  10392  10401  10402     1   109.5600471 388.275200
  10392  10401  10403     1   109.5600471 388.275200
  10393  10392  10401     1   109.8000471 387.438400
  10393  10392  10394     1   107.5800459 329.699200
  10394  10392  10401     1   109.8000471 387.438400
  10395  10407  10408     1   109.5600471 388.275200
  10395  10407  10409     1   109.5600471 388.275200
  10396  10395  10407     1   109.8000471 387.438400
  10396  10395  10397     1   107.5800459 329.699200
  10397  10395  10407     1   109.8000471 387.438400
  10398  10404  10405     1   109.5600471 388.275200
  10398  10404  10406     1   109.5600471 388.275200
  10399  10398  10404     1   109.8000471 387.438400
  10399  10398  10400     1   107.5800459 329.699200
  10400  10398  10404     1   109.8000471 387.438400
  10402  10401  10410     1   109.7800468 425.094400
  10402  10401  10403     1   108.4600466 328.025600
  10403  10401  10410     1   109.7800468 425.094400
  10405  10404  18816     1   109.7800468 425.094400
  10405  10404  10406     1   108.4600466 328.025600
  10406  10404  18816     1   109.7800468 425.094400
  10408  10407  18839     1   109.7800468 425.094400
  10408  10407  10409     1   108.4600466 328.025600
  10409  10407  18839     1   109.7800468 425.094400
  10411  10412  10413     1   109.8800469 414.216000
  10411  10412  10414     1   109.8800469 414.216000
  10411  10415  10416     1   109.8800469 414.216000
  10411  10415  10417     1   109.8800469 414.216000
  10411  10418  10419     1   109.8800469 414.216000
  10411  10418  10420     1   109.8800469 414.216000
  10412  10424  10425     1   109.8000471 387.438400
  10412  10424  10426     1   109.8000471 387.438400
  10413  10412  10424     1   109.5600471 388.275200
  10413  10412  10414     1   108.4600466 328.025600
  10414  10412  10424     1   109.5600471 388.275200
  10415  10427  10428     1   109.8000471 387.438400
  10415  10427  10429     1   109.8000471 387.438400
  10416  10415  10427     1   109.5600471 388.275200
  10416  10415  10417     1   108.4600466 328.025600
  10417  10415  10427     1   109.5600471 388.275200
  10418  10421  10422     1   109.8000471 387.438400
  10418  10421  10423     1   109.8000471 387.438400
  10419  10418  10421     1   109.5600471 388.275200
  10419  10418  10420     1   108.4600466 328.025600
  10420  10418  10421     1   109.5600471 388.275200
  10421  10430  10431     1   109.5600471 388.275200
  10421  10430  10432     1   109.5600471 388.275200
  10422  10421  10430     1   109.8000471 387.438400
  10422  10421  10423     1   107.5800459 329.699200
  10423  10421  10430     1   109.8000471 387.438400
  10424  10436  10437     1   109.5600471 388.275200
  10424  10436  10438     1   109.5600471 388.275200
  10425  10424  10436     1   109.8000471 387.438400
  10425  10424  10426     1   107.5800459 329.699200
  10426  10424  10436     1   109.8000471 387.438400
  10427  10433  10434     1   109.5600471 388.275200
  10427  10433  10435     1   109.5600471 388.275200
  10428  10427  10433     1   109.8000471 387.438400
  10428  10427  10429     1   107.5800459 329.699200
  10429  10427  10433     1   109.8000471 387.438400
  10431  10430  10439     1   109.7800468 425.094400
  10431  10430  10432     1   108.4600466 328.025600
  10432  10430  10439     1   109.7800468 425.094400
  10434  10433  18862     1   109.7800468 425.094400
  10434  10433  10435     1   108.4600466 328.025600
  10435  10433  18862     1   109.7800468 425.094400
  10437  10436  18885     1   109.7800468 425.094400
  10437  10436  10438     1   108.4600466 328.025600
  10438  10436  18885     1   109.7800468 425.094400
  10440  10441  10442     1   109.8800469 414.216000
  10440  10441  10443     1   109.8800469 414.216000
  10440  10444  10445     1   109.8800469 414.216000
  10440  10444  10446     1   109.8800469 414.216000
  10440  10447  10448     1   109.8800469 414.216000
  10440  10447  10449     1   109.8800469 414.216000
  10441  10453  10454     1   109.8000471 387.438400
  10441  10453  10455     1   109.8000471 387.438400
  10442  10441  10453     1   109.5600471 388.275200
  10442  10441  10443     1   108.4600466 328.025600
  10443  10441  10453     1   109.5600471 388.275200
  10444  10456  10457     1   109.8000471 387.438400
  10444  10456  10458     1   109.8000471 387.438400
  10445  10444  10456     1   109.5600471 388.275200
  10445  10444  10446     1   108.4600466 328.025600
  10446  10444  10456     1   109.5600471 388.275200
  10447  10450  10451     1   109.8000471 387.438400
  10447  10450  10452     1   109.8000471 387.438400
  10448  10447  10450     1   109.5600471 388.275200
  10448  10447  10449     1   108.4600466 328.025600
  10449  10447  10450     1   109.5600471 388.275200
  10450  10459  10460     1   109.5600471 388.275200
  10450  10459  10461     1   109.5600471 388.275200
  10451  10450  10459     1   109.8000471 387.438400
  10451  10450  10452     1   107.5800459 329.699200
  10452  10450  10459     1   109.8000471 387.438400
  10453  10465  10466     1   109.5600471 388.275200
  10453  10465  10467     1   109.5600471 388.275200
  10454  10453  10465     1   109.8000471 387.438400
  10454  10453  10455     1   107.5800459 329.699200
  10455  10453  10465     1   109.8000471 387.438400
  10456  10462  10463     1   109.5600471 388.275200
  10456  10462  10464     1   109.5600471 388.275200
  10457  10456  10462     1   109.8000471 387.438400
  10457  10456  10458     1   107.5800459 329.699200
  10458  10456  10462     1   109.8000471 387.438400
  10460  10459  10468     1   109.7800468 425.094400
  10460  10459  10461     1   108.4600466 328.025600
  10461  10459  10468     1   109.7800468 425.094400
  10463  10462  18908     1   109.7800468 425.094400
  10463  10462  10464     1   108.4600466 328.025600
  10464  10462  18908     1   109.7800468 425.094400
  10466  10465  18931     1   109.7800468 425.094400
  10466  10465  10467     1   108.4600466 328.025600
  10467  10465  18931     1   109.7800468 425.094400
  10469  10470  10471     1   109.8800469 414.216000
  10469  10470  10472     1   109.8800469 414.216000
  10469  10473  10474     1   109.8800469 414.216000
  10469  10473  10475     1   109.8800469 414.216000
  10469  10476  10477     1   109.8800469 414.216000
  10469  10476  10478     1   109.8800469 414.216000
  10470  10482  10483     1   109.8000471 387.438400
  10470  10482  10484     1   109.8000471 387.438400
  10471  10470  10482     1   109.5600471 388.275200
  10471  10470  10472     1   108.4600466 328.025600
  10472  10470  10482     1   109.5600471 388.275200
  10473  10485  10486     1   109.8000471 387.438400
  10473  10485  10487     1   109.8000471 387.438400
  10474  10473  10485     1   109.5600471 388.275200
  10474  10473  10475     1   108.4600466 328.025600
  10475  10473  10485     1   109.5600471 388.275200
  10476  10479  10480     1   109.8000471 387.438400
  10476  10479  10481     1   109.8000471 387.438400
  10477  10476  10479     1   109.5600471 388.275200
  10477  10476  10478     1   108.4600466 328.025600
  10478  10476  10479     1   109.5600471 388.275200
  10479  10488  10489     1   109.5600471 388.275200
  10479  10488  10490     1   109.5600471 388.275200
  10480  10479  10488     1   109.8000471 387.438400
  10480  10479  10481     1   107.5800459 329.699200
  10481  10479  10488     1   109.8000471 387.438400
  10482  10494  10495     1   109.5600471 388.275200
  10482  10494  10496     1   109.5600471 388.275200
  10483  10482  10494     1   109.8000471 387.438400
  10483  10482  10484     1   107.5800459 329.699200
  10484  10482  10494     1   109.8000471 387.438400
  10485  10491  10492     1   109.5600471 388.275200
  10485  10491  10493     1   109.5600471 388.275200
  10486  10485  10491     1   109.8000471 387.438400
  10486  10485  10487     1   107.5800459 329.699200
  10487  10485  10491     1   109.8000471 387.438400
  10489  10488  10497     1   109.7800468 425.094400
  10489  10488  10490     1   108.4600466 328.025600
  10490  10488  10497     1   109.7800468 425.094400
  10492  10491  18954     1   109.7800468 425.094400
  10492  10491  10493     1   108.4600466 328.025600
  10493  10491  18954     1   109.7800468 425.094400
  10495  10494  18977     1   109.7800468 425.094400
  10495  10494  10496     1   108.4600466 328.025600
  10496  10494  18977     1   109.7800468 425.094400
  10498  10499  10500     1   109.8800469 414.216000
  10498  10499  10501     1   109.8800469 414.216000
  10498  10502  10503     1   109.8800469 414.216000
  10498  10502  10504     1   109.8800469 414.216000
  10498  10505  10506     1   109.8800469 414.216000
  10498  10505  10507     1   109.8800469 414.216000
  10499  10511  10512     1   109.8000471 387.438400
  10499  10511  10513     1   109.8000471 387.438400
  10500  10499  10511     1   109.5600471 388.275200
  10500  10499  10501     1   108.4600466 328.025600
  10501  10499  10511     1   109.5600471 388.275200
  10502  10514  10515     1   109.8000471 387.438400
  10502  10514  10516     1   109.8000471 387.438400
  10503  10502  10514     1   109.5600471 388.275200
  10503  10502  10504     1   108.4600466 328.025600
  10504  10502  10514     1   109.5600471 388.275200
  10505  10508  10509     1   109.8000471 387.438400
  10505  10508  10510     1   109.8000471 387.438400
  10506  10505  10508     1   109.5600471 388.275200
  10506  10505  10507     1   108.4600466 328.025600
  10507  10505  10508     1   109.5600471 388.275200
  10508  10517  10518     1   109.5600471 388.275200
  10508  10517  10519     1   109.5600471 388.275200
  10509  10508  10517     1   109.8000471 387.438400
  10509  10508  10510     1   107.5800459 329.699200
  10510  10508  10517     1   109.8000471 387.438400
  10511  10523  10524     1   109.5600471 388.275200
  10511  10523  10525     1   109.5600471 388.275200
  10512  10511  10523     1   109.8000471 387.438400
  10512  10511  10513     1   107.5800459 329.699200
  10513  10511  10523     1   109.8000471 387.438400
  10514  10520  10521     1   109.5600471 388.275200
  10514  10520  10522     1   109.5600471 388.275200
  10515  10514  10520     1   109.8000471 387.438400
  10515  10514  10516     1   107.5800459 329.699200
  10516  10514  10520     1   109.8000471 387.438400
  10518  10517  10526     1   109.7800468 425.094400
  10518  10517  10519     1   108.4600466 328.025600
  10519  10517  10526     1   109.7800468 425.094400
  10521  10520  19000     1   109.7800468 425.094400
  10521  10520  10522     1   108.4600466 328.025600
  10522  10520  19000     1   109.7800468 425.094400
  10524  10523  19023     1   109.7800468 425.094400
  10524  10523  10525     1   108.4600466 328.025600
  10525  10523  19023     1   109.7800468 425.094400
  10527  10528  10529     1   109.8800469 414.216000
  10527  10528  10530     1   109.8800469 414.216000
  10527  10531  10532     1   109.8800469 414.216000
  10527  10531  10533     1   109.8800469 414.216000
  10527  10534  10535     1   109.8800469 414.216000
  10527  10534  10536     1   109.8800469 414.216000
  10528  10540  10541     1   109.8000471 387.438400
  10528  10540  10542     1   109.8000471 387.438400
  10529  10528  10540     1   109.5600471 388.275200
  10529  10528  10530     1   108.4600466 328.025600
  10530  10528  10540     1   109.5600471 388.275200
  10531  10543  10544     1   109.8000471 387.438400
  10531  10543  10545     1   109.8000471 387.438400
  10532  10531  10543     1   109.5600471 388.275200
  10532  10531  10533     1   108.4600466 328.025600
  10533  10531  10543     1   109.5600471 388.275200
  10534  10537  10538     1   109.8000471 387.438400
  10534  10537  10539     1   109.8000471 387.438400
  10535  10534  10537     1   109.5600471 388.275200
  10535  10534  10536     1   108.4600466 328.025600
  10536  10534  10537     1   109.5600471 388.275200
  10537  10546  10547     1   109.5600471 388.275200
  10537  10546  10548     1   109.5600471 388.275200
  10538  10537  10546     1   109.8000471 387.438400
  10538  10537  10539     1   107.5800459 329.699200
  10539  10537  10546     1   109.8000471 387.438400
  10540  10552  10553     1   109.5600471 388.275200
  10540  10552  10554     1   109.5600471 388.275200
  10541  10540  10552     1   109.8000471 387.438400
  10541  10540  10542     1   107.5800459 329.699200
  10542  10540  10552     1   109.8000471 387.438400
  10543  10549  10550     1   109.5600471 388.275200
  10543  10549  10551     1   109.5600471 388.275200
  10544  10543  10549     1   109.8000471 387.438400
  10544  10543  10545     1   107.5800459 329.699200
  10545  10543  10549     1   109.8000471 387.438400
  10547  10546  10555     1   109.7800468 425.094400
  10547  10546  10548     1   108.4600466 328.025600
  10548  10546  10555     1   109.7800468 425.094400
  10550  10549  19046     1   109.7800468 425.094400
  10550  10549  10551     1   108.4600466 328.025600
  10551  10549  19046     1   109.7800468 425.094400
  10553  10552  19069     1   109.7800468 425.094400
  10553  10552  10554     1   108.4600466 328.025600
  10554  10552  19069     1   109.7800468 425.094400
  10556  10557  10558     1   109.8800469 414.216000
  10556  10557  10559     1   109.8800469 414.216000
  10556  10560  10561     1   109.8800469 414.216000
  10556  10560  10562     1   109.8800469 414.216000
  10556  10563  10564     1   109.8800469 414.216000
  10556  10563  10565     1   109.8800469 414.216000
  10557  10569  10570     1   109.8000471 387.438400
  10557  10569  10571     1   109.8000471 387.438400
  10558  10557  10569     1   109.5600471 388.275200
  10558  10557  10559     1   108.4600466 328.025600
  10559  10557  10569     1   109.5600471 388.275200
  10560  10572  10573     1   109.8000471 387.438400
  10560  10572  10574     1   109.8000471 387.438400
  10561  10560  10572     1   109.5600471 388.275200
  10561  10560  10562     1   108.4600466 328.025600
  10562  10560  10572     1   109.5600471 388.275200
  10563  10566  10567     1   109.8000471 387.438400
  10563  10566  10568     1   109.8000471 387.438400
  10564  10563  10566     1   109.5600471 388.275200
  10564  10563  10565     1   108.4600466 328.025600
  10565  10563  10566     1   109.5600471 388.275200
  10566  10575  10576     1   109.5600471 388.275200
  10566  10575  10577     1   109.5600471 388.275200
  10567  10566  10575     1   109.8000471 387.438400
  10567  10566  10568     1   107.5800459 329.699200
  10568  10566  10575     1   109.8000471 387.438400
  10569  10581  10582     1   109.5600471 388.275200
  10569  10581  10583     1   109.5600471 388.275200
  10570  10569  10581     1   109.8000471 387.438400
  10570  10569  10571     1   107.5800459 329.699200
  10571  10569  10581     1   109.8000471 387.438400
  10572  10578  10579     1   109.5600471 388.275200
  10572  10578  10580     1   109.5600471 388.275200
  10573  10572  10578     1   109.8000471 387.438400
  10573  10572  10574     1   107.5800459 329.699200
  10574  10572  10578     1   109.8000471 387.438400
  10576  10575  10584     1   109.7800468 425.094400
  10576  10575  10577     1   108.4600466 328.025600
  10577  10575  10584     1   109.7800468 425.094400
  10579  10578  19092     1   109.7800468 425.094400
  10579  10578  10580     1   108.4600466 328.025600
  10580  10578  19092     1   109.7800468 425.094400
  10582  10581  19115     1   109.7800468 425.094400
  10582  10581  10583     1   108.4600466 328.025600
  10583  10581  19115     1   109.7800468 425.094400
  10585  10586  10587     1   109.8800469 414.216000
  10585  10586  10588     1   109.8800469 414.216000
  10585  10589  10590     1   109.8800469 414.216000
  10585  10589  10591     1   109.8800469 414.216000
  10585  10592  10593     1   109.8800469 414.216000
  10585  10592  10594     1   109.8800469 414.216000
  10586  10598  10599     1   109.8000471 387.438400
  10586  10598  10600     1   109.8000471 387.438400
  10587  10586  10598     1   109.5600471 388.275200
  10587  10586  10588     1   108.4600466 328.025600
  10588  10586  10598     1   109.5600471 388.275200
  10589  10601  10602     1   109.8000471 387.438400
  10589  10601  10603     1   109.8000471 387.438400
  10590  10589  10601     1   109.5600471 388.275200
  10590  10589  10591     1   108.4600466 328.025600
  10591  10589  10601     1   109.5600471 388.275200
  10592  10595  10596     1   109.8000471 387.438400
  10592  10595  10597     1   109.8000471 387.438400
  10593  10592  10595     1   109.5600471 388.275200
  10593  10592  10594     1   108.4600466 328.025600
  10594  10592  10595     1   109.5600471 388.275200
  10595  10604  10605     1   109.5600471 388.275200
  10595  10604  10606     1   109.5600471 388.275200
  10596  10595  10604     1   109.8000471 387.438400
  10596  10595  10597     1   107.5800459 329.699200
  10597  10595  10604     1   109.8000471 387.438400
  10598  10610  10611     1   109.5600471 388.275200
  10598  10610  10612     1   109.5600471 388.275200
  10599  10598  10610     1   109.8000471 387.438400
  10599  10598  10600     1   107.5800459 329.699200
  10600  10598  10610     1   109.8000471 387.438400
  10601  10607  10608     1   109.5600471 388.275200
  10601  10607  10609     1   109.5600471 388.275200
  10602  10601  10607     1   109.8000471 387.438400
  10602  10601  10603     1   107.5800459 329.699200
  10603  10601  10607     1   109.8000471 387.438400
  10605  10604  10613     1   109.7800468 425.094400
  10605  10604  10606     1   108.4600466 328.025600
  10606  10604  10613     1   109.7800468 425.094400
  10608  10607  19138     1   109.7800468 425.094400
  10608  10607  10609     1   108.4600466 328.025600
  10609  10607  19138     1   109.7800468 425.094400
  10611  10610  19161     1   109.7800468 425.094400
  10611  10610  10612     1   108.4600466 328.025600
  10612  10610  19161     1   109.7800468 425.094400
  10614  10615  10616     1   109.8800469 414.216000
  10614  10615  10617     1   109.8800469 414.216000
  10614  10618  10619     1   109.8800469 414.216000
  10614  10618  10620     1   109.8800469 414.216000
  10614  10621  10622     1   109.8800469 414.216000
  10614  10621  10623     1   109.8800469 414.216000
  10615  10627  10628     1   109.8000471 387.438400
  10615  10627  10629     1   109.8000471 387.438400
  10616  10615  10627     1   109.5600471 388.275200
  10616  10615  10617     1   108.4600466 328.025600
  10617  10615  10627     1   109.5600471 388.275200
  10618  10630  10631     1   109.8000471 387.438400
  10618  10630  10632     1   109.8000471 387.438400
  10619  10618  10630     1   109.5600471 388.275200
  10619  10618  10620     1   108.4600466 328.025600
  10620  10618  10630     1   109.5600471 388.275200
  10621  10624  10625     1   109.8000471 387.438400
  10621  10624  10626     1   109.8000471 387.438400
  10622  10621  10624     1   109.5600471 388.275200
  10622  10621  10623     1   108.4600466 328.025600
  10623  10621  10624     1   109.5600471 388.275200
  10624  10633  10634     1   109.5600471 388.275200
  10624  10633  10635     1   109.5600471 388.275200
  10625  10624  10633     1   109.8000471 387.438400
  10625  10624  10626     1   107.5800459 329.699200
  10626  10624  10633     1   109.8000471 387.438400
  10627  10639  10640     1   109.5600471 388.275200
  10627  10639  10641     1   109.5600471 388.275200
  10628  10627  10639     1   109.8000471 387.438400
  10628  10627  10629     1   107.5800459 329.699200
  10629  10627  10639     1   109.8000471 387.438400
  10630  10636  10637     1   109.5600471 388.275200
  10630  10636  10638     1   109.5600471 388.275200
  10631  10630  10636     1   109.8000471 387.438400
  10631  10630  10632     1   107.5800459 329.699200
  10632  10630  10636     1   109.8000471 387.438400
  10634  10633  10642     1   109.7800468 425.094400
  10634  10633  10635     1   108.4600466 328.025600
  10635  10633  10642     1   109.7800468 425.094400
  10637  10636  19184     1   109.7800468 425.094400
  10637  10636  10638     1   108.4600466 328.025600
  10638  10636  19184     1   109.7800468 425.094400
  10640  10639  19207     1   109.7800468 425.094400
  10640  10639  10641     1   108.4600466 328.025600
  10641  10639  19207     1   109.7800468 425.094400
  10643  10644  10645     1   109.8800469 414.216000
  10643  10644  10646     1   109.8800469 414.216000
  10643  10647  10648     1   109.8800469 414.216000
  10643  10647  10649     1   109.8800469 414.216000
  10643  10650  10651     1   109.8800469 414.216000
  10643  10650  10652     1   109.8800469 414.216000
  10644  10656  10657     1   109.8000471 387.438400
  10644  10656  10658     1   109.8000471 387.438400
  10645  10644  10656     1   109.5600471 388.275200
  10645  10644  10646     1   108.4600466 328.025600
  10646  10644  10656     1   109.5600471 388.275200
  10647  10659  10660     1   109.8000471 387.438400
  10647  10659  10661     1   109.8000471 387.438400
  10648  10647  10659     1   109.5600471 388.275200
  10648  10647  10649     1   108.4600466 328.025600
  10649  10647  10659     1   109.5600471 388.275200
  10650  10653  10654     1   109.8000471 387.438400
  10650  10653  10655     1   109.8000471 387.438400
  10651  10650  10653     1   109.5600471 388.275200
  10651  10650  10652     1   108.4600466 328.025600
  10652  10650  10653     1   109.5600471 388.275200
  10653  10662  10663     1   109.5600471 388.275200
  10653  10662  10664     1   109.5600471 388.275200
  10654  10653  10662     1   109.8000471 387.438400
  10654  10653  10655     1   107.5800459 329.699200
  10655  10653  10662     1   109.8000471 387.438400
  10656  10668  10669     1   109.5600471 388.275200
  10656  10668  10670     1   109.5600471 388.275200
  10657  10656  10668     1   109.8000471 387.438400
  10657  10656  10658     1   107.5800459 329.699200
  10658  10656  10668     1   109.8000471 387.438400
  10659  10665  10666     1   109.5600471 388.275200
  10659  10665  10667     1   109.5600471 388.275200
  10660  10659  10665     1   109.8000471 387.438400
  10660  10659  10661     1   107.5800459 329.699200
  10661  10659  10665     1   109.8000471 387.438400
  10663  10662  10671     1   109.7800468 425.094400
  10663  10662  10664     1   108.4600466 328.025600
  10664  10662  10671     1   109.7800468 425.094400
  10666  10665  19230     1   109.7800468 425.094400
  10666  10665  10667     1   108.4600466 328.025600
  10667  10665  19230     1   109.7800468 425.094400
  10669  10668  19253     1   109.7800468 425.094400
  10669  10668  10670     1   108.4600466 328.025600
  10670  10668  19253     1   109.7800468 425.094400
  10672  10673  10674     1   109.8800469 414.216000
  10672  10673  10675     1   109.8800469 414.216000
  10672  10676  10677     1   109.8800469 414.216000
  10672  10676  10678     1   109.8800469 414.216000
  10672  10679  10680     1   109.8800469 414.216000
  10672  10679  10681     1   109.8800469 414.216000
  10673  10685  10686     1   109.8000471 387.438400
  10673  10685  10687     1   109.8000471 387.438400
  10674  10673  10685     1   109.5600471 388.275200
  10674  10673  10675     1   108.4600466 328.025600
  10675  10673  10685     1   109.5600471 388.275200
  10676  10688  10689     1   109.8000471 387.438400
  10676  10688  10690     1   109.8000471 387.438400
  10677  10676  10688     1   109.5600471 388.275200
  10677  10676  10678     1   108.4600466 328.025600
  10678  10676  10688     1   109.5600471 388.275200
  10679  10682  10683     1   109.8000471 387.438400
  10679  10682  10684     1   109.8000471 387.438400
  10680  10679  10682     1   109.5600471 388.275200
  10680  10679  10681     1   108.4600466 328.025600
  10681  10679  10682     1   109.5600471 388.275200
  10682  10691  10692     1   109.5600471 388.275200
  10682  10691  10693     1   109.5600471 388.275200
  10683  10682  10691     1   109.8000471 387.438400
  10683  10682  10684     1   107.5800459 329.699200
  10684  10682  10691     1   109.8000471 387.438400
  10685  10697  10698     1   109.5600471 388.275200
  10685  10697  10699     1   109.5600471 388.275200
  10686  10685  10697     1   109.8000471 387.438400
  10686  10685  10687     1   107.5800459 329.699200
  10687  10685  10697     1   109.8000471 387.438400
  10688  10694  10695     1   109.5600471 388.275200
  10688  10694  10696     1   109.5600471 388.275200
  10689  10688  10694     1   109.8000471 387.438400
  10689  10688  10690     1   107.5800459 329.699200
  10690  10688  10694     1   109.8000471 387.438400
  10692  10691  10700     1   109.7800468 425.094400
  10692  10691  10693     1   108.4600466 328.025600
  10693  10691  10700     1   109.7800468 425.094400
  10695  10694  19276     1   109.7800468 425.094400
  10695  10694  10696     1   108.4600466 328.025600
  10696  10694  19276     1   109.7800468 425.094400
  10698  10697  19299     1   109.7800468 425.094400
  10698  10697  10699     1   108.4600466 328.025600
  10699  10697  19299     1   109.7800468 425.094400
  10701  10702  10703     1   109.8800469 414.216000
  10701  10702  10704     1   109.8800469 414.216000
  10701  10705  10706     1   109.8800469 414.216000
  10701  10705  10707     1   109.8800469 414.216000
  10701  10708  10709     1   109.8800469 414.216000
  10701  10708  10710     1   109.8800469 414.216000
  10702  10714  10715     1   109.8000471 387.438400
  10702  10714  10716     1   109.8000471 387.438400
  10703  10702  10714     1   109.5600471 388.275200
  10703  10702  10704     1   108.4600466 328.025600
  10704  10702  10714     1   109.5600471 388.275200
  10705  10717  10718     1   109.8000471 387.438400
  10705  10717  10719     1   109.8000471 387.438400
  10706  10705  10717     1   109.5600471 388.275200
  10706  10705  10707     1   108.4600466 328.025600
  10707  10705  10717     1   109.5600471 388.275200
  10708  10711  10712     1   109.8000471 387.438400
  10708  10711  10713     1   109.8000471 387.438400
  10709  10708  10711     1   109.5600471 388.275200
  10709  10708  10710     1   108.4600466 328.025600
  10710  10708  10711     1   109.5600471 388.275200
  10711  10720  10721     1   109.5600471 388.275200
  10711  10720  10722     1   109.5600471 388.275200
  10712  10711  10720     1   109.8000471 387.438400
  10712  10711  10713     1   107.5800459 329.699200
  10713  10711  10720     1   109.8000471 387.438400
  10714  10726  10727     1   109.5600471 388.275200
  10714  10726  10728     1   109.5600471 388.275200
  10715  10714  10726     1   109.8000471 387.438400
  10715  10714  10716     1   107.5800459 329.699200
  10716  10714  10726     1   109.8000471 387.438400
  10717  10723  10724     1   109.5600471 388.275200
  10717  10723  10725     1   109.5600471 388.275200
  10718  10717  10723     1   109.8000471 387.438400
  10718  10717  10719     1   107.5800459 329.699200
  10719  10717  10723     1   109.8000471 387.438400
  10721  10720  10729     1   109.7800468 425.094400
  10721  10720  10722     1   108.4600466 328.025600
  10722  10720  10729     1   109.7800468 425.094400
  10724  10723  19322     1   109.7800468 425.094400
  10724  10723  10725     1   108.4600466 328.025600
  10725  10723  19322     1   109.7800468 425.094400
  10727  10726  19345     1   109.7800468 425.094400
  10727  10726  10728     1   108.4600466 328.025600
  10728  10726  19345     1   109.7800468 425.094400
  10730  10731  10732     1   109.8800469 414.216000
  10730  10731  10733     1   109.8800469 414.216000
  10730  10734  10735     1   109.8800469 414.216000
  10730  10734  10736     1   109.8800469 414.216000
  10730  10737  10738     1   109.8800469 414.216000
  10730  10737  10739     1   109.8800469 414.216000
  10731  10743  10744     1   109.8000471 387.438400
  10731  10743  10745     1   109.8000471 387.438400
  10732  10731  10743     1   109.5600471 388.275200
  10732  10731  10733     1   108.4600466 328.025600
  10733  10731  10743     1   109.5600471 388.275200
  10734  10746  10747     1   109.8000471 387.438400
  10734  10746  10748     1   109.8000471 387.438400
  10735  10734  10746     1   109.5600471 388.275200
  10735  10734  10736     1   108.4600466 328.025600
  10736  10734  10746     1   109.5600471 388.275200
  10737  10740  10741     1   109.8000471 387.438400
  10737  10740  10742     1   109.8000471 387.438400
  10738  10737  10740     1   109.5600471 388.275200
  10738  10737  10739     1   108.4600466 328.025600
  10739  10737  10740     1   109.5600471 388.275200
  10740  10749  10750     1   109.5600471 388.275200
  10740  10749  10751     1   109.5600471 388.275200
  10741  10740  10749     1   109.8000471 387.438400
  10741  10740  10742     1   107.5800459 329.699200
  10742  10740  10749     1   109.8000471 387.438400
  10743  10755  10756     1   109.5600471 388.275200
  10743  10755  10757     1   109.5600471 388.275200
  10744  10743  10755     1   109.8000471 387.438400
  10744  10743  10745     1   107.5800459 329.699200
  10745  10743  10755     1   109.8000471 387.438400
  10746  10752  10753     1   109.5600471 388.275200
  10746  10752  10754     1   109.5600471 388.275200
  10747  10746  10752     1   109.8000471 387.438400
  10747  10746  10748     1   107.5800459 329.699200
  10748  10746  10752     1   109.8000471 387.438400
  10750  10749  10758     1   109.7800468 425.094400
  10750  10749  10751     1   108.4600466 328.025600
  10751  10749  10758     1   109.7800468 425.094400
  10753  10752  19368     1   109.7800468 425.094400
  10753  10752  10754     1   108.4600466 328.025600
  10754  10752  19368     1   109.7800468 425.094400
  10756  10755  19391     1   109.7800468 425.094400
  10756  10755  10757     1   108.4600466 328.025600
  10757  10755  19391     1   109.7800468 425.094400
  10759  10760  10761     1   109.8800469 414.216000
  10759  10760  10762     1   109.8800469 414.216000
  10759  10763  10764     1   109.8800469 414.216000
  10759  10763  10765     1   109.8800469 414.216000
  10759  10766  10767     1   109.8800469 414.216000
  10759  10766  10768     1   109.8800469 414.216000
  10760  10772  10773     1   109.8000471 387.438400
  10760  10772  10774     1   109.8000471 387.438400
  10761  10760  10772     1   109.5600471 388.275200
  10761  10760  10762     1   108.4600466 328.025600
  10762  10760  10772     1   109.5600471 388.275200
  10763  10775  10776     1   109.8000471 387.438400
  10763  10775  10777     1   109.8000471 387.438400
  10764  10763  10775     1   109.5600471 388.275200
  10764  10763  10765     1   108.4600466 328.025600
  10765  10763  10775     1   109.5600471 388.275200
  10766  10769  10770     1   109.8000471 387.438400
  10766  10769  10771     1   109.8000471 387.438400
  10767  10766  10769     1   109.5600471 388.275200
  10767  10766  10768     1   108.4600466 328.025600
  10768  10766  10769     1   109.5600471 388.275200
  10769  10778  10779     1   109.5600471 388.275200
  10769  10778  10780     1   109.5600471 388.275200
  10770  10769  10778     1   109.8000471 387.438400
  10770  10769  10771     1   107.5800459 329.699200
  10771  10769  10778     1   109.8000471 387.438400
  10772  10784  10785     1   109.5600471 388.275200
  10772  10784  10786     1   109.5600471 388.275200
  10773  10772  10784     1   109.8000471 387.438400
  10773  10772  10774     1   107.5800459 329.699200
  10774  10772  10784     1   109.8000471 387.438400
  10775  10781  10782     1   109.5600471 388.275200
  10775  10781  10783     1   109.5600471 388.275200
  10776  10775  10781     1   109.8000471 387.438400
  10776  10775  10777     1   107.5800459 329.699200
  10777  10775  10781     1   109.8000471 387.438400
  10779  10778  10787     1   109.7800468 425.094400
  10779  10778  10780     1   108.4600466 328.025600
  10780  10778  10787     1   109.7800468 425.094400
  10782  10781  19414     1   109.7800468 425.094400
  10782  10781  10783     1   108.4600466 328.025600
  10783  10781  19414     1   109.7800468 425.094400
  10785  10784  19437     1   109.7800468 425.094400
  10785  10784  10786     1   108.4600466 328.025600
  10786  10784  19437     1   109.7800468 425.094400
  10788  10789  10790     1   109.8800469 414.216000
  10788  10789  10791     1   109.8800469 414.216000
  10788  10792  10793     1   109.8800469 414.216000
  10788  10792  10794     1   109.8800469 414.216000
  10788  10795  10796     1   109.8800469 414.216000
  10788  10795  10797     1   109.8800469 414.216000
  10789  10801  10802     1   109.8000471 387.438400
  10789  10801  10803     1   109.8000471 387.438400
  10790  10789  10801     1   109.5600471 388.275200
  10790  10789  10791     1   108.4600466 328.025600
  10791  10789  10801     1   109.5600471 388.275200
  10792  10804  10805     1   109.8000471 387.438400
  10792  10804  10806     1   109.8000471 387.438400
  10793  10792  10804     1   109.5600471 388.275200
  10793  10792  10794     1   108.4600466 328.025600
  10794  10792  10804     1   109.5600471 388.275200
  10795  10798  10799     1   109.8000471 387.438400
  10795  10798  10800     1   109.8000471 387.438400
  10796  10795  10798     1   109.5600471 388.275200
  10796  10795  10797     1   108.4600466 328.025600
  10797  10795  10798     1   109.5600471 388.275200
  10798  10807  10808     1   109.5600471 388.275200
  10798  10807  10809     1   109.5600471 388.275200
  10799  10798  10807     1   109.8000471 387.438400
  10799  10798  10800     1   107.5800459 329.699200
  10800  10798  10807     1   109.8000471 387.438400
  10801  10813  10814     1   109.5600471 388.275200
  10801  10813  10815     1   109.5600471 388.275200
  10802  10801  10813     1   109.8000471 387.438400
  10802  10801  10803     1   107.5800459 329.699200
  10803  10801  10813     1   109.8000471 387.438400
  10804  10810  10811     1   109.5600471 388.275200
  10804  10810  10812     1   109.5600471 388.275200
  10805  10804  10810     1   109.8000471 387.438400
  10805  10804  10806     1   107.5800459 329.699200
  10806  10804  10810     1   109.8000471 387.438400
  10808  10807  10816     1   109.7800468 425.094400
  10808  10807  10809     1   108.4600466 328.025600
  10809  10807  10816     1   109.7800468 425.094400
  10811  10810  19460     1   109.7800468 425.094400
  10811  10810  10812     1   108.4600466 328.025600
  10812  10810  19460     1   109.7800468 425.094400
  10814  10813  19483     1   109.7800468 425.094400
  10814  10813  10815     1   108.4600466 328.025600
  10815  10813  19483     1   109.7800468 425.094400
  10817  10818  10819     1   109.8800469 414.216000
  10817  10818  10820     1   109.8800469 414.216000
  10817  10821  10822     1   109.8800469 414.216000
  10817  10821  10823     1   109.8800469 414.216000
  10817  10824  10825     1   109.8800469 414.216000
  10817  10824  10826     1   109.8800469 414.216000
  10818  10830  10831     1   109.8000471 387.438400
  10818  10830  10832     1   109.8000471 387.438400
  10819  10818  10830     1   109.5600471 388.275200
  10819  10818  10820     1   108.4600466 328.025600
  10820  10818  10830     1   109.5600471 388.275200
  10821  10833  10834     1   109.8000471 387.438400
  10821  10833  10835     1   109.8000471 387.438400
  10822  10821  10833     1   109.5600471 388.275200
  10822  10821  10823     1   108.4600466 328.025600
  10823  10821  10833     1   109.5600471 388.275200
  10824  10827  10828     1   109.8000471 387.438400
  10824  10827  10829     1   109.8000471 387.438400
  10825  10824  10827     1   109.5600471 388.275200
  10825  10824  10826     1   108.4600466 328.025600
  10826  10824  10827     1   109.5600471 388.275200
  10827  10836  10837     1   109.5600471 388.275200
  10827  10836  10838     1   109.5600471 388.275200
  10828  10827  10836     1   109.8000471 387.438400
  10828  10827  10829     1   107.5800459 329.699200
  10829  10827  10836     1   109.8000471 387.438400
  10830  10842  10843     1   109.5600471 388.275200
  10830  10842  10844     1   109.5600471 388.275200
  10831  10830  10842     1   109.8000471 387.438400
  10831  10830  10832     1   107.5800459 329.699200
  10832  10830  10842     1   109.8000471 387.438400
  10833  10839  10840     1   109.5600471 388.275200
  10833  10839  10841     1   109.5600471 388.275200
  10834  10833  10839     1   109.8000471 387.438400
  10834  10833  10835     1   107.5800459 329.699200
  10835  10833  10839     1   109.8000471 387.438400
  10837  10836  10845     1   109.7800468 425.094400
  10837  10836  10838     1   108.4600466 328.025600
  10838  10836  10845     1   109.7800468 425.094400
  10840  10839  19506     1   109.7800468 425.094400
  10840  10839  10841     1   108.4600466 328.025600
  10841  10839  19506     1   109.7800468 425.094400
  10843  10842  19529     1   109.7800468 425.094400
  10843  10842  10844     1   108.4600466 328.025600
  10844  10842  19529     1   109.7800468 425.094400
  10846  10847  10848     1   109.8800469 414.216000
  10846  10847  10849     1   109.8800469 414.216000
  10846  10850  10851     1   109.8800469 414.216000
  10846  10850  10852     1   109.8800469 414.216000
  10846  10853  10854     1   109.8800469 414.216000
  10846  10853  10855     1   109.8800469 414.216000
  10847  10859  10860     1   109.8000471 387.438400
  10847  10859  10861     1   109.8000471 387.438400
  10848  10847  10859     1   109.5600471 388.275200
  10848  10847  10849     1   108.4600466 328.025600
  10849  10847  10859     1   109.5600471 388.275200
  10850  10862  10863     1   109.8000471 387.438400
  10850  10862  10864     1   109.8000471 387.438400
  10851  10850  10862     1   109.5600471 388.275200
  10851  10850  10852     1   108.4600466 328.025600
  10852  10850  10862     1   109.5600471 388.275200
  10853  10856  10857     1   109.8000471 387.438400
  10853  10856  10858     1   109.8000471 387.438400
  10854  10853  10856     1   109.5600471 388.275200
  10854  10853  10855     1   108.4600466 328.025600
  10855  10853  10856     1   109.5600471 388.275200
  10856  10865  10866     1   109.5600471 388.275200
  10856  10865  10867     1   109.5600471 388.275200
  10857  10856  10865     1   109.8000471 387.438400
  10857  10856  10858     1   107.5800459 329.699200
  10858  10856  10865     1   109.8000471 387.438400
  10859  10871  10872     1   109.5600471 388.275200
  10859  10871  10873     1   109.5600471 388.275200
  10860  10859  10871     1   109.8000471 387.438400
  10860  10859  10861     1   107.5800459 329.699200
  10861  10859  10871     1   109.8000471 387.438400
  10862  10868  10869     1   109.5600471 388.275200
  10862  10868  10870     1   109.5600471 388.275200
  10863  10862  10868     1   109.8000471 387.438400
  10863  10862  10864     1   107.5800459 329.699200
  10864  10862  10868     1   109.8000471 387.438400
  10866  10865  10874     1   109.7800468 425.094400
  10866  10865  10867     1   108.4600466 328.025600
  10867  10865  10874     1   109.7800468 425.094400
  10869  10868  19552     1   109.7800468 425.094400
  10869  10868  10870     1   108.4600466 328.025600
  10870  10868  19552     1   109.7800468 425.094400
  10872  10871  19575     1   109.7800468 425.094400
  10872  10871  10873     1   108.4600466 328.025600
  10873  10871  19575     1   109.7800468 425.094400
  10875  10876  10877     1   109.8800469 414.216000
  10875  10876  10878     1   109.8800469 414.216000
  10875  10879  10880     1   109.8800469 414.216000
  10875  10879  10881     1   109.8800469 414.216000
  10875  10882  10883     1   109.8800469 414.216000
  10875  10882  10884     1   109.8800469 414.216000
  10876  10888  10889     1   109.8000471 387.438400
  10876  10888  10890     1   109.8000471 387.438400
  10877  10876  10888     1   109.5600471 388.275200
  10877  10876  10878     1   108.4600466 328.025600
  10878  10876  10888     1   109.5600471 388.275200
  10879  10891  10892     1   109.8000471 387.438400
  10879  10891  10893     1   109.8000471 387.438400
  10880  10879  10891     1   109.5600471 388.275200
  10880  10879  10881     1   108.4600466 328.025600
  10881  10879  10891     1   109.5600471 388.275200
  10882  10885  10886     1   109.8000471 387.438400
  10882  10885  10887     1   109.8000471 387.438400
  10883  10882  10885     1   109.5600471 388.275200
  10883  10882  10884     1   108.4600466 328.025600
  10884  10882  10885     1   109.5600471 388.275200
  10885  10894  10895     1   109.5600471 388.275200
  10885  10894  10896     1   109.5600471 388.275200
  10886  10885  10894     1   109.8000471 387.438400
  10886  10885  10887     1   107.5800459 329.699200
  10887  10885  10894     1   109.8000471 387.438400
  10888  10900  10901     1   109.5600471 388.275200
  10888  10900  10902     1   109.5600471 388.275200
  10889  10888  10900     1   109.8000471 387.438400
  10889  10888  10890     1   107.5800459 329.699200
  10890  10888  10900     1   109.8000471 387.438400
  10891  10897  10898     1   109.5600471 388.275200
  10891  10897  10899     1   109.5600471 388.275200
  10892  10891  10897     1   109.8000471 387.438400
  10892  10891  10893     1   107.5800459 329.699200
  10893  10891  10897     1   109.8000471 387.438400
  10895  10894  10903     1   109.7800468 425.094400
  10895  10894  10896     1   108.4600466 328.025600
  10896  10894  10903     1   109.7800468 425.094400
  10898  10897  19598     1   109.7800468 425.094400
  10898  10897  10899     1   108.4600466 328.025600
  10899  10897  19598     1   109.7800468 425.094400
  10901  10900  19621     1   109.7800468 425.094400
  10901  10900  10902     1   108.4600466 328.025600
  10902  10900  19621     1   109.7800468 425.094400
  10904  10905  10906     1   109.8800469 414.216000
  10904  10905  10907     1   109.8800469 414.216000
  10904  10908  10909     1   109.8800469 414.216000
  10904  10908  10910     1   109.8800469 414.216000
  10904  10911  10912     1   109.8800469 414.216000
  10904  10911  10913     1   109.8800469 414.216000
  10905  10917  10918     1   109.8000471 387.438400
  10905  10917  10919     1   109.8000471 387.438400
  10906  10905  10917     1   109.5600471 388.275200
  10906  10905  10907     1   108.4600466 328.025600
  10907  10905  10917     1   109.5600471 388.275200
  10908  10920  10921     1   109.8000471 387.438400
  10908  10920  10922     1   109.8000471 387.438400
  10909  10908  10920     1   109.5600471 388.275200
  10909  10908  10910     1   108.4600466 328.025600
  10910  10908  10920     1   109.5600471 388.275200
  10911  10914  10915     1   109.8000471 387.438400
  10911  10914  10916     1   109.8000471 387.438400
  10912  10911  10914     1   109.5600471 388.275200
  10912  10911  10913     1   108.4600466 328.025600
  10913  10911  10914     1   109.5600471 388.275200
  10914  10923  10924     1   109.5600471 388.275200
  10914  10923  10925     1   109.5600471 388.275200
  10915  10914  10923     1   109.8000471 387.438400
  10915  10914  10916     1   107.5800459 329.699200
  10916  10914  10923     1   109.8000471 387.438400
  10917  10929  10930     1   109.5600471 388.275200
  10917  10929  10931     1   109.5600471 388.275200
  10918  10917  10929     1   109.8000471 387.438400
  10918  10917  10919     1   107.5800459 329.699200
  10919  10917  10929     1   109.8000471 387.438400
  10920  10926  10927     1   109.5600471 388.275200
  10920  10926  10928     1   109.5600471 388.275200
  10921  10920  10926     1   109.8000471 387.438400
  10921  10920  10922     1   107.5800459 329.699200
  10922  10920  10926     1   109.8000471 387.438400
  10924  10923  10932     1   109.7800468 425.094400
  10924  10923  10925     1   108.4600466 328.025600
  10925  10923  10932     1   109.7800468 425.094400
  10927  10926  19644     1   109.7800468 425.094400
  10927  10926  10928     1   108.4600466 328.025600
  10928  10926  19644     1   109.7800468 425.094400
  10930  10929  19667     1   109.7800468 425.094400
  10930  10929  10931     1   108.4600466 328.025600
  10931  10929  19667     1   109.7800468 425.094400
  10933  10934  10935     1   109.8800469 414.216000
  10933  10934  10936     1   109.8800469 414.216000
  10933  10937  10938     1   109.8800469 414.216000
  10933  10937  10939     1   109.8800469 414.216000
  10933  10940  10941     1   109.8800469 414.216000
  10933  10940  10942     1   109.8800469 414.216000
  10934  10946  10947     1   109.8000471 387.438400
  10934  10946  10948     1   109.8000471 387.438400
  10935  10934  10946     1   109.5600471 388.275200
  10935  10934  10936     1   108.4600466 328.025600
  10936  10934  10946     1   109.5600471 388.275200
  10937  10949  10950     1   109.8000471 387.438400
  10937  10949  10951     1   109.8000471 387.438400
  10938  10937  10949     1   109.5600471 388.275200
  10938  10937  10939     1   108.4600466 328.025600
  10939  10937  10949     1   109.5600471 388.275200
  10940  10943  10944     1   109.8000471 387.438400
  10940  10943  10945     1   109.8000471 387.438400
  10941  10940  10943     1   109.5600471 388.275200
  10941  10940  10942     1   108.4600466 328.025600
  10942  10940  10943     1   109.5600471 388.275200
  10943  10952  10953     1   109.5600471 388.275200
  10943  10952  10954     1   109.5600471 388.275200
  10944  10943  10952     1   109.8000471 387.438400
  10944  10943  10945     1   107.5800459 329.699200
  10945  10943  10952     1   109.8000471 387.438400
  10946  10958  10959     1   109.5600471 388.275200
  10946  10958  10960     1   109.5600471 388.275200
  10947  10946  10958     1   109.8000471 387.438400
  10947  10946  10948     1   107.5800459 329.699200
  10948  10946  10958     1   109.8000471 387.438400
  10949  10955  10956     1   109.5600471 388.275200
  10949  10955  10957     1   109.5600471 388.275200
  10950  10949  10955     1   109.8000471 387.438400
  10950  10949  10951     1   107.5800459 329.699200
  10951  10949  10955     1   109.8000471 387.438400
  10953  10952  10961     1   109.7800468 425.094400
  10953  10952  10954     1   108.4600466 328.025600
  10954  10952  10961     1   109.7800468 425.094400
  10956  10955  19690     1   109.7800468 425.094400
  10956  10955  10957     1   108.4600466 328.025600
  10957  10955  19690     1   109.7800468 425.094400
  10959  10958  19713     1   109.7800468 425.094400
  10959  10958  10960     1   108.4600466 328.025600
  10960  10958  19713     1   109.7800468 425.094400
  10962  10963  10964     1   109.8800469 414.216000
  10962  10963  10965     1   109.8800469 414.216000
  10962  10966  10967     1   109.8800469 414.216000
  10962  10966  10968     1   109.8800469 414.216000
  10962  10969  10970     1   109.8800469 414.216000
  10962  10969  10971     1   109.8800469 414.216000
  10963  10975  10976     1   109.8000471 387.438400
  10963  10975  10977     1   109.8000471 387.438400
  10964  10963  10975     1   109.5600471 388.275200
  10964  10963  10965     1   108.4600466 328.025600
  10965  10963  10975     1   109.5600471 388.275200
  10966  10978  10979     1   109.8000471 387.438400
  10966  10978  10980     1   109.8000471 387.438400
  10967  10966  10978     1   109.5600471 388.275200
  10967  10966  10968     1   108.4600466 328.025600
  10968  10966  10978     1   109.5600471 388.275200
  10969  10972  10973     1   109.8000471 387.438400
  10969  10972  10974     1   109.8000471 387.438400
  10970  10969  10972     1   109.5600471 388.275200
  10970  10969  10971     1   108.4600466 328.025600
  10971  10969  10972     1   109.5600471 388.275200
  10972  10981  10982     1   109.5600471 388.275200
  10972  10981  10983     1   109.5600471 388.275200
  10973  10972  10981     1   109.8000471 387.438400
  10973  10972  10974     1   107.5800459 329.699200
  10974  10972  10981     1   109.8000471 387.438400
  10975  10987  10988     1   109.5600471 388.275200
  10975  10987  10989     1   109.5600471 388.275200
  10976  10975  10987     1   109.8000471 387.438400
  10976  10975  10977     1   107.5800459 329.699200
  10977  10975  10987     1   109.8000471 387.438400
  10978  10984  10985     1   109.5600471 388.275200
  10978  10984  10986     1   109.5600471 388.275200
  10979  10978  10984     1   109.8000471 387.438400
  10979  10978  10980     1   107.5800459 329.699200
  10980  10978  10984     1   109.8000471 387.438400
  10982  10981  10990     1   109.7800468 425.094400
  10982  10981  10983     1   108.4600466 328.025600
  10983  10981  10990     1   109.7800468 425.094400
  10985  10984  19736     1   109.7800468 425.094400
  10985  10984  10986     1   108.4600466 328.025600
  10986  10984  19736     1   109.7800468 425.094400
  10988  10987  19759     1   109.7800468 425.094400
  10988  10987  10989     1   108.4600466 328.025600
  10989  10987  19759     1   109.7800468 425.094400
  10991  10992  10993     1   109.8800469 414.216000
  10991  10992  10994     1   109.8800469 414.216000
  10991  10995  10996     1   109.8800469 414.216000
  10991  10995  10997     1   109.8800469 414.216000
  10991  10998  10999     1   109.8800469 414.216000
  10991  10998  11000     1   109.8800469 414.216000
  10992  11004  11005     1   109.8000471 387.438400
  10992  11004  11006     1   109.8000471 387.438400
  10993  10992  11004     1   109.5600471 388.275200
  10993  10992  10994     1   108.4600466 328.025600
  10994  10992  11004     1   109.5600471 388.275200
  10995  11007  11008     1   109.8000471 387.438400
  10995  11007  11009     1   109.8000471 387.438400
  10996  10995  11007     1   109.5600471 388.275200
  10996  10995  10997     1   108.4600466 328.025600
  10997  10995  11007     1   109.5600471 388.275200
  10998  11001  11002     1   109.8000471 387.438400
  10998  11001  11003     1   109.8000471 387.438400
  10999  10998  11001     1   109.5600471 388.275200
  10999  10998  11000     1   108.4600466 328.025600
  11000  10998  11001     1   109.5600471 388.275200
  11001  11010  11011     1   109.5600471 388.275200
  11001  11010  11012     1   109.5600471 388.275200
  11002  11001  11010     1   109.8000471 387.438400
  11002  11001  11003     1   107.5800459 329.699200
  11003  11001  11010     1   109.8000471 387.438400
  11004  11016  11017     1   109.5600471 388.275200
  11004  11016  11018     1   109.5600471 388.275200
  11005  11004  11016     1   109.8000471 387.438400
  11005  11004  11006     1   107.5800459 329.699200
  11006  11004  11016     1   109.8000471 387.438400
  11007  11013  11014     1   109.5600471 388.275200
  11007  11013  11015     1   109.5600471 388.275200
  11008  11007  11013     1   109.8000471 387.438400
  11008  11007  11009     1   107.5800459 329.699200
  11009  11007  11013     1   109.8000471 387.438400
  11011  11010  11019     1   109.7800468 425.094400
  11011  11010  11012     1   108.4600466 328.025600
  11012  11010  11019     1   109.7800468 425.094400
  11014  11013  19782     1   109.7800468 425.094400
  11014  11013  11015     1   108.4600466 328.025600
  11015  11013  19782     1   109.7800468 425.094400
  11017  11016  19805     1   109.7800468 425.094400
  11017  11016  11018     1   108.4600466 328.025600
  11018  11016  19805     1   109.7800468 425.094400
  11020  11021  11022     1   109.8800469 414.216000
  11020  11021  11023     1   109.8800469 414.216000
  11020  11024  11025     1   109.8800469 414.216000
  11020  11024  11026     1   109.8800469 414.216000
  11020  11027  11028     1   109.8800469 414.216000
  11020  11027  11029     1   109.8800469 414.216000
  11021  11033  11034     1   109.8000471 387.438400
  11021  11033  11035     1   109.8000471 387.438400
  11022  11021  11033     1   109.5600471 388.275200
  11022  11021  11023     1   108.4600466 328.025600
  11023  11021  11033     1   109.5600471 388.275200
  11024  11036  11037     1   109.8000471 387.438400
  11024  11036  11038     1   109.8000471 387.438400
  11025  11024  11036     1   109.5600471 388.275200
  11025  11024  11026     1   108.4600466 328.025600
  11026  11024  11036     1   109.5600471 388.275200
  11027  11030  11031     1   109.8000471 387.438400
  11027  11030  11032     1   109.8000471 387.438400
  11028  11027  11030     1   109.5600471 388.275200
  11028  11027  11029     1   108.4600466 328.025600
  11029  11027  11030     1   109.5600471 388.275200
  11030  11039  11040     1   109.5600471 388.275200
  11030  11039  11041     1   109.5600471 388.275200
  11031  11030  11039     1   109.8000471 387.438400
  11031  11030  11032     1   107.5800459 329.699200
  11032  11030  11039     1   109.8000471 387.438400
  11033  11045  11046     1   109.5600471 388.275200
  11033  11045  11047     1   109.5600471 388.275200
  11034  11033  11045     1   109.8000471 387.438400
  11034  11033  11035     1   107.5800459 329.699200
  11035  11033  11045     1   109.8000471 387.438400
  11036  11042  11043     1   109.5600471 388.275200
  11036  11042  11044     1   109.5600471 388.275200
  11037  11036  11042     1   109.8000471 387.438400
  11037  11036  11038     1   107.5800459 329.699200
  11038  11036  11042     1   109.8000471 387.438400
  11040  11039  11048     1   109.7800468 425.094400
  11040  11039  11041     1   108.4600466 328.025600
  11041  11039  11048     1   109.7800468 425.094400
  11043  11042  19828     1   109.7800468 425.094400
  11043  11042  11044     1   108.4600466 328.025600
  11044  11042  19828     1   109.7800468 425.094400
  11046  11045  19851     1   109.7800468 425.094400
  11046  11045  11047     1   108.4600466 328.025600
  11047  11045  19851     1   109.7800468 425.094400
  11049  11050  11051     1   109.8800469 414.216000
  11049  11050  11052     1   109.8800469 414.216000
  11049  11053  11054     1   109.8800469 414.216000
  11049  11053  11055     1   109.8800469 414.216000
  11049  11056  11057     1   109.8800469 414.216000
  11049  11056  11058     1   109.8800469 414.216000
  11050  11062  11063     1   109.8000471 387.438400
  11050  11062  11064     1   109.8000471 387.438400
  11051  11050  11062     1   109.5600471 388.275200
  11051  11050  11052     1   108.4600466 328.025600
  11052  11050  11062     1   109.5600471 388.275200
  11053  11065  11066     1   109.8000471 387.438400
  11053  11065  11067     1   109.8000471 387.438400
  11054  11053  11065     1   109.5600471 388.275200
  11054  11053  11055     1   108.4600466 328.025600
  11055  11053  11065     1   109.5600471 388.275200
  11056  11059  11060     1   109.8000471 387.438400
  11056  11059  11061     1   109.8000471 387.438400
  11057  11056  11059     1   109.5600471 388.275200
  11057  11056  11058     1   108.4600466 328.025600
  11058  11056  11059     1   109.5600471 388.275200
  11059  11068  11069     1   109.5600471 388.275200
  11059  11068  11070     1   109.5600471 388.275200
  11060  11059  11068     1   109.8000471 387.438400
  11060  11059  11061     1   107.5800459 329.699200
  11061  11059  11068     1   109.8000471 387.438400
  11062  11074  11075     1   109.5600471 388.275200
  11062  11074  11076     1   109.5600471 388.275200
  11063  11062  11074     1   109.8000471 387.438400
  11063  11062  11064     1   107.5800459 329.699200
  11064  11062  11074     1   109.8000471 387.438400
  11065  11071  11072     1   109.5600471 388.275200
  11065  11071  11073     1   109.5600471 388.275200
  11066  11065  11071     1   109.8000471 387.438400
  11066  11065  11067     1   107.5800459 329.699200
  11067  11065  11071     1   109.8000471 387.438400
  11069  11068  11077     1   109.7800468 425.094400
  11069  11068  11070     1   108.4600466 328.025600
  11070  11068  11077     1   109.7800468 425.094400
  11072  11071  19874     1   109.7800468 425.094400
  11072  11071  11073     1   108.4600466 328.025600
  11073  11071  19874     1   109.7800468 425.094400
  11075  11074  19897     1   109.7800468 425.094400
  11075  11074  11076     1   108.4600466 328.025600
  11076  11074  19897     1   109.7800468 425.094400
  11078  11079  11081     1   109.5600471 388.275200
  11078  11092  11096     1   109.5600471 388.275200
  11078  11092  11097     1   109.5600471 388.275200
  11079  11078  11080     1   109.5600471 388.275200
  11079  11082  11086     1   109.5600471 388.275200
  11079  11091  11094     1   107.2600461 396.643200
  11080  11078  11092     1   109.5600471 388.275200
  11080  11078  11100     1   109.7800468 425.094400
  11081  11079  11082     1   109.5600471 388.275200
  11081  11079  11091     1   110.2600474 425.931200
  11082  11083  11085     1   109.5600471 388.275200
  11082  11090  11093     1   107.2600461 396.643200
  11083  11082  11086     1   109.5600471 388.275200
  11083  11084  11087     1   110.2200475 386.601600
  11083  11089  11095     1   107.2600461 396.643200
  11084  11083  11085     1   109.5600471 388.275200
  11085  11083  11089     1   110.2600474 425.931200
  11086  11082  11090     1   110.2600474 425.931200
  11087  11084  11088     1   109.5800467 425.931200
  11087  11084  11100     1   109.5800467 425.931200
  11092  11098  11099     1   107.2600461 396.643200
  11096  11092  11098     1   110.2600474 425.931200
  11096  11092  11097     1   108.4600466 328.025600
  11097  11092  11098     1   110.2600474 425.931200
  11101  11102  11104     1   109.5600471 388.275200
  11101  11115  11119     1   109.5600471 388.275200
  11101  11115  11120     1   109.5600471 388.275200
  11102  11105  11109     1   109.5600471 388.275200
  11102  11114  11117     1   107.2600461 396.643200
  11102  11101  11103     1   109.5600471 388.275200
  11103  11101  11115     1   109.5600471 388.275200
  11103  11101  11123     1   109.7800468 425.094400
  11104  11102  11105     1   109.5600471 388.275200
  11104  11102  11114     1   110.2600474 425.931200
  11105  11106  11108     1   109.5600471 388.275200
  11105  11113  11116     1   107.2600461 396.643200
  11106  11107  11110     1   110.2200475 386.601600
  11106  11112  11118     1   107.2600461 396.643200
  11106  11105  11109     1   109.5600471 388.275200
  11107  11106  11108     1   109.5600471 388.275200
  11108  11106  11112     1   110.2600474 425.931200
  11109  11105  11113     1   110.2600474 425.931200
  11110  11107  11111     1   109.5800467 425.931200
  11110  11107  11123     1   109.5800467 425.931200
  11115  11121  11122     1   107.2600461 396.643200
  11119  11115  11121     1   110.2600474 425.931200
  11119  11115  11120     1   108.4600466 328.025600
  11120  11115  11121     1   110.2600474 425.931200
  11124  11125  11127     1   109.5600471 388.275200
  11124  11138  11142     1   109.5600471 388.275200
  11124  11138  11143     1   109.5600471 388.275200
  11125  11124  11126     1   109.5600471 388.275200
  11125  11128  11132     1   109.5600471 388.275200
  11125  11137  11140     1   107.2600461 396.643200
  11126  11124  11138     1   109.5600471 388.275200
  11126  11124  11146     1   109.7800468 425.094400
  11127  11125  11128     1   109.5600471 388.275200
  11127  11125  11137     1   110.2600474 425.931200
  11128  11129  11131     1   109.5600471 388.275200
  11128  11136  11139     1   107.2600461 396.643200
  11129  11128  11132     1   109.5600471 388.275200
  11129  11130  11133     1   110.2200475 386.601600
  11129  11135  11141     1   107.2600461 396.643200
  11130  11129  11131     1   109.5600471 388.275200
  11131  11129  11135     1   110.2600474 425.931200
  11132  11128  11136     1   110.2600474 425.931200
  11133  11130  11134     1   109.5800467 425.931200
  11133  11130  11146     1   109.5800467 425.931200
  11138  11144  11145     1   107.2600461 396.643200
  11142  11138  11144     1   110.2600474 425.931200
  11142  11138  11143     1   108.4600466 328.025600
  11143  11138  11144     1   110.2600474 425.931200
  11147  11148  11150     1   109.5600471 388.275200
  11147  11161  11165     1   109.5600471 388.275200
  11147  11161  11166     1   109.5600471 388.275200
  11148  11151  11155     1   109.5600471 388.275200
  11148  11160  11163     1   107.2600461 396.643200
  11148  11147  11149     1   109.5600471 388.275200
  11149  11147  11161     1   109.5600471 388.275200
  11149  11147  11169     1   109.7800468 425.094400
  11150  11148  11151     1   109.5600471 388.275200
  11150  11148  11160     1   110.2600474 425.931200
  11151  11152  11154     1   109.5600471 388.275200
  11151  11159  11162     1   107.2600461 396.643200
  11152  11153  11156     1   110.2200475 386.601600
  11152  11158  11164     1   107.2600461 396.643200
  11152  11151  11155     1   109.5600471 388.275200
  11153  11152  11154     1   109.5600471 388.275200
  11154  11152  11158     1   110.2600474 425.931200
  11155  11151  11159     1   110.2600474 425.931200
  11156  11153  11157     1   109.5800467 425.931200
  11156  11153  11169     1   109.5800467 425.931200
  11161  11167  11168     1   107.2600461 396.643200
  11165  11161  11167     1   110.2600474 425.931200
  11165  11161  11166     1   108.4600466 328.025600
  11166  11161  11167     1   110.2600474 425.931200
  11170  11171  11173     1   109.5600471 388.275200
  11170  11184  11188     1   109.5600471 388.275200
  11170  11184  11189     1   109.5600471 388.275200
  11171  11170  11172     1   109.5600471 388.275200
  11171  11174  11178     1   109.5600471 388.275200
  11171  11183  11186     1   107.2600461 396.643200
  11172  11170  11184     1   109.5600471 388.275200
  11172  11170  11192     1   109.7800468 425.094400
  11173  11171  11174     1   109.5600471 388.275200
  11173  11171  11183     1   110.2600474 425.931200
  11174  11175  11177     1   109.5600471 388.275200
  11174  11182  11185     1   107.2600461 396.643200
  11175  11174  11178     1   109.5600471 388.275200
  11175  11176  11179     1   110.2200475 386.601600
  11175  11181  11187     1   107.2600461 396.643200
  11176  11175  11177     1   109.5600471 388.275200
  11177  11175  11181     1   110.2600474 425.931200
  11178  11174  11182     1   110.2600474 425.931200
  11179  11176  11180     1   109.5800467 425.931200
  11179  11176  11192     1   109.5800467 425.931200
  11184  11190  11191     1   107.2600461 396.643200
  11188  11184  11190     1   110.2600474 425.931200
  11188  11184  11189     1   108.4600466 328.025600
  11189  11184  11190     1   110.2600474 425.931200
  11193  11194  11196     1   109.5600471 388.275200
  11193  11207  11211     1   109.5600471 388.275200
  11193  11207  11212     1   109.5600471 388.275200
  11194  11197  11201     1   109.5600471 388.275200
  11194  11206  11209     1   107.2600461 396.643200
  11194  11193  11195     1   109.5600471 388.275200
  11195  11193  11207     1   109.5600471 388.275200
  11195  11193  11215     1   109.7800468 425.094400
  11196  11194  11197     1   109.5600471 388.275200
  11196  11194  11206     1   110.2600474 425.931200
  11197  11198  11200     1   109.5600471 388.275200
  11197  11205  11208     1   107.2600461 396.643200
  11198  11199  11202     1   110.2200475 386.601600
  11198  11204  11210     1   107.2600461 396.643200
  11198  11197  11201     1   109.5600471 388.275200
  11199  11198  11200     1   109.5600471 388.275200
  11200  11198  11204     1   110.2600474 425.931200
  11201  11197  11205     1   110.2600474 425.931200
  11202  11199  11203     1   109.5800467 425.931200
  11202  11199  11215     1   109.5800467 425.931200
  11207  11213  11214     1   107.2600461 396.643200
  11211  11207  11213     1   110.2600474 425.931200
  11211  11207  11212     1   108.4600466 328.025600
  11212  11207  11213     1   110.2600474 425.931200
  11216  11217  11219     1   109.5600471 388.275200
  11216  11230  11234     1   109.5600471 388.275200
  11216  11230  11235     1   109.5600471 388.275200
  11217  11216  11218     1   109.5600471 388.275200
  11217  11220  11224     1   109.5600471 388.275200
  11217  11229  11232     1   107.2600461 396.643200
  11218  11216  11230     1   109.5600471 388.275200
  11218  11216  11238     1   109.7800468 425.094400
  11219  11217  11220     1   109.5600471 388.275200
  11219  11217  11229     1   110.2600474 425.931200
  11220  11221  11223     1   109.5600471 388.275200
  11220  11228  11231     1   107.2600461 396.643200
  11221  11220  11224     1   109.5600471 388.275200
  11221  11222  11225     1   110.2200475 386.601600
  11221  11227  11233     1   107.2600461 396.643200
  11222  11221  11223     1   109.5600471 388.275200
  11223  11221  11227     1   110.2600474 425.931200
  11224  11220  11228     1   110.2600474 425.931200
  11225  11222  11226     1   109.5800467 425.931200
  11225  11222  11238     1   109.5800467 425.931200
  11230  11236  11237     1   107.2600461 396.643200
  11234  11230  11236     1   110.2600474 425.931200
  11234  11230  11235     1   108.4600466 328.025600
  11235  11230  11236     1   110.2600474 425.931200
  11239  11240  11242     1   109.5600471 388.275200
  11239  11253  11257     1   109.5600471 388.275200
  11239  11253  11258     1   109.5600471 388.275200
  11240  11243  11247     1   109.5600471 388.275200
  11240  11252  11255     1   107.2600461 396.643200
  11240  11239  11241     1   109.5600471 388.275200
  11241  11239  11253     1   109.5600471 388.275200
  11241  11239  11261     1   109.7800468 425.094400
  11242  11240  11243     1   109.5600471 388.275200
  11242  11240  11252     1   110.2600474 425.931200
  11243  11244  11246     1   109.5600471 388.275200
  11243  11251  11254     1   107.2600461 396.643200
  11244  11245  11248     1   110.2200475 386.601600
  11244  11250  11256     1   107.2600461 396.643200
  11244  11243  11247     1   109.5600471 388.275200
  11245  11244  11246     1   109.5600471 388.275200
  11246  11244  11250     1   110.2600474 425.931200
  11247  11243  11251     1   110.2600474 425.931200
  11248  11245  11249     1   109.5800467 425.931200
  11248  11245  11261     1   109.5800467 425.931200
  11253  11259  11260     1   107.2600461 396.643200
  11257  11253  11259     1   110.2600474 425.931200
  11257  11253  11258     1   108.4600466 328.025600
  11258  11253  11259     1   110.2600474 425.931200
  11262  11263  11265     1   109.5600471 388.275200
  11262  11276  11280     1   109.5600471 388.275200
  11262  11276  11281     1   109.5600471 388.275200
  11263  11262  11264     1   109.5600471 388.275200
  11263  11266  11270     1   109.5600471 388.275200
  11263  11275  11278     1   107.2600461 396.643200
  11264  11262  11276     1   109.5600471 388.275200
  11264  11262  11284     1   109.7800468 425.094400
  11265  11263  11266     1   109.5600471 388.275200
  11265  11263  11275     1   110.2600474 425.931200
  11266  11267  11269     1   109.5600471 388.275200
  11266  11274  11277     1   107.2600461 396.643200
  11267  11266  11270     1   109.5600471 388.275200
  11267  11268  11271     1   110.2200475 386.601600
  11267  11273  11279     1   107.2600461 396.643200
  11268  11267  11269     1   109.5600471 388.275200
  11269  11267  11273     1   110.2600474 425.931200
  11270  11266  11274     1   110.2600474 425.931200
  11271  11268  11272     1   109.5800467 425.931200
  11271  11268  11284     1   109.5800467 425.931200
  11276  11282  11283     1   107.2600461 396.643200
  11280  11276  11282     1   110.2600474 425.931200
  11280  11276  11281     1   108.4600466 328.025600
  11281  11276  11282     1   110.2600474 425.931200
  11285  11286  11288     1   109.5600471 388.275200
  11285  11299  11303     1   109.5600471 388.275200
  11285  11299  11304     1   109.5600471 388.275200
  11286  11289  11293     1   109.5600471 388.275200
  11286  11298  11301     1   107.2600461 396.643200
  11286  11285  11287     1   109.5600471 388.275200
  11287  11285  11299     1   109.5600471 388.275200
  11287  11285  11307     1   109.7800468 425.094400
  11288  11286  11289     1   109.5600471 388.275200
  11288  11286  11298     1   110.2600474 425.931200
  11289  11290  11292     1   109.5600471 388.275200
  11289  11297  11300     1   107.2600461 396.643200
  11290  11291  11294     1   110.2200475 386.601600
  11290  11296  11302     1   107.2600461 396.643200
  11290  11289  11293     1   109.5600471 388.275200
  11291  11290  11292     1   109.5600471 388.275200
  11292  11290  11296     1   110.2600474 425.931200
  11293  11289  11297     1   110.2600474 425.931200
  11294  11291  11295     1   109.5800467 425.931200
  11294  11291  11307     1   109.5800467 425.931200
  11299  11305  11306     1   107.2600461 396.643200
  11303  11299  11305     1   110.2600474 425.931200
  11303  11299  11304     1   108.4600466 328.025600
  11304  11299  11305     1   110.2600474 425.931200
  11308  11309  11311     1   109.5600471 388.275200
  11308  11322  11326     1   109.5600471 388.275200
  11308  11322  11327     1   109.5600471 388.275200
  11309  11308  11310     1   109.5600471 388.275200
  11309  11312  11316     1   109.5600471 388.275200
  11309  11321  11324     1   107.2600461 396.643200
  11310  11308  11322     1   109.5600471 388.275200
  11310  11308  11330     1   109.7800468 425.094400
  11311  11309  11312     1   109.5600471 388.275200
  11311  11309  11321     1   110.2600474 425.931200
  11312  11313  11315     1   109.5600471 388.275200
  11312  11320  11323     1   107.2600461 396.643200
  11313  11312  11316     1   109.5600471 388.275200
  11313  11314  11317     1   110.2200475 386.601600
  11313  11319  11325     1   107.2600461 396.643200
  11314  11313  11315     1   109.5600471 388.275200
  11315  11313  11319     1   110.2600474 425.931200
  11316  11312  11320     1   110.2600474 425.931200
  11317  11314  11318     1   109.5800467 425.931200
  11317  11314  11330     1   109.5800467 425.931200
  11322  11328  11329     1   107.2600461 396.643200
  11326  11322  11328     1   110.2600474 425.931200
  11326  11322  11327     1   108.4600466 328.025600
  11327  11322  11328     1   110.2600474 425.931200
  11331  11332  11334     1   109.5600471 388.275200
  11331  11345  11349     1   109.5600471 388.275200
  11331  11345  11350     1   109.5600471 388.275200
  11332  11335  11339     1   109.5600471 388.275200
  11332  11344  11347     1   107.2600461 396.643200
  11332  11331  11333     1   109.5600471 388.275200
  11333  11331  11345     1   109.5600471 388.275200
  11333  11331  11353     1   109.7800468 425.094400
  11334  11332  11335     1   109.5600471 388.275200
  11334  11332  11344     1   110.2600474 425.931200
  11335  11336  11338     1   109.5600471 388.275200
  11335  11343  11346     1   107.2600461 396.643200
  11336  11337  11340     1   110.2200475 386.601600
  11336  11342  11348     1   107.2600461 396.643200
  11336  11335  11339     1   109.5600471 388.275200
  11337  11336  11338     1   109.5600471 388.275200
  11338  11336  11342     1   110.2600474 425.931200
  11339  11335  11343     1   110.2600474 425.931200
  11340  11337  11341     1   109.5800467 425.931200
  11340  11337  11353     1   109.5800467 425.931200
  11345  11351  11352     1   107.2600461 396.643200
  11349  11345  11351     1   110.2600474 425.931200
  11349  11345  11350     1   108.4600466 328.025600
  11350  11345  11351     1   110.2600474 425.931200
  11354  11355  11357     1   109.5600471 388.275200
  11354  11368  11372     1   109.5600471 388.275200
  11354  11368  11373     1   109.5600471 388.275200
  11355  11354  11356     1   109.5600471 388.275200
  11355  11358  11362     1   109.5600471 388.275200
  11355  11367  11370     1   107.2600461 396.643200
  11356  11354  11368     1   109.5600471 388.275200
  11356  11354  11376     1   109.7800468 425.094400
  11357  11355  11358     1   109.5600471 388.275200
  11357  11355  11367     1   110.2600474 425.931200
  11358  11359  11361     1   109.5600471 388.275200
  11358  11366  11369     1   107.2600461 396.643200
  11359  11358  11362     1   109.5600471 388.275200
  11359  11360  11363     1   110.2200475 386.601600
  11359  11365  11371     1   107.2600461 396.643200
  11360  11359  11361     1   109.5600471 388.275200
  11361  11359  11365     1   110.2600474 425.931200
  11362  11358  11366     1   110.2600474 425.931200
  11363  11360  11364     1   109.5800467 425.931200
  11363  11360  11376     1   109.5800467 425.931200
  11368  11374  11375     1   107.2600461 396.643200
  11372  11368  11374     1   110.2600474 425.931200
  11372  11368  11373     1   108.4600466 328.025600
  11373  11368  11374     1   110.2600474 425.931200
  11377  11378  11380     1   109.5600471 388.275200
  11377  11391  11395     1   109.5600471 388.275200
  11377  11391  11396     1   109.5600471 388.275200
  11378  11381  11385     1   109.5600471 388.275200
  11378  11390  11393     1   107.2600461 396.643200
  11378  11377  11379     1   109.5600471 388.275200
  11379  11377  11391     1   109.5600471 388.275200
  11379  11377  11399     1   109.7800468 425.094400
  11380  11378  11381     1   109.5600471 388.275200
  11380  11378  11390     1   110.2600474 425.931200
  11381  11382  11384     1   109.5600471 388.275200
  11381  11389  11392     1   107.2600461 396.643200
  11382  11383  11386     1   110.2200475 386.601600
  11382  11388  11394     1   107.2600461 396.643200
  11382  11381  11385     1   109.5600471 388.275200
  11383  11382  11384     1   109.5600471 388.275200
  11384  11382  11388     1   110.2600474 425.931200
  11385  11381  11389     1   110.2600474 425.931200
  11386  11383  11387     1   109.5800467 425.931200
  11386  11383  11399     1   109.5800467 425.931200
  11391  11397  11398     1   107.2600461 396.643200
  11395  11391  11397     1   110.2600474 425.931200
  11395  11391  11396     1   108.4600466 328.025600
  11396  11391  11397     1   110.2600474 425.931200
  11400  11401  11403     1   109.5600471 388.275200
  11400  11414  11418     1   109.5600471 388.275200
  11400  11414  11419     1   109.5600471 388.275200
  11401  11400  11402     1   109.5600471 388.275200
  11401  11404  11408     1   109.5600471 388.275200
  11401  11413  11416     1   107.2600461 396.643200
  11402  11400  11414     1   109.5600471 388.275200
  11402  11400  11422     1   109.7800468 425.094400
  11403  11401  11404     1   109.5600471 388.275200
  11403  11401  11413     1   110.2600474 425.931200
  11404  11405  11407     1   109.5600471 388.275200
  11404  11412  11415     1   107.2600461 396.643200
  11405  11404  11408     1   109.5600471 388.275200
  11405  11406  11409     1   110.2200475 386.601600
  11405  11411  11417     1   107.2600461 396.643200
  11406  11405  11407     1   109.5600471 388.275200
  11407  11405  11411     1   110.2600474 425.931200
  11408  11404  11412     1   110.2600474 425.931200
  11409  11406  11410     1   109.5800467 425.931200
  11409  11406  11422     1   109.5800467 425.931200
  11414  11420  11421     1   107.2600461 396.643200
  11418  11414  11420     1   110.2600474 425.931200
  11418  11414  11419     1   108.4600466 328.025600
  11419  11414  11420     1   110.2600474 425.931200
  11423  11424  11426     1   109.5600471 388.275200
  11423  11437  11441     1   109.5600471 388.275200
  11423  11437  11442     1   109.5600471 388.275200
  11424  11427  11431     1   109.5600471 388.275200
  11424  11436  11439     1   107.2600461 396.643200
  11424  11423  11425     1   109.5600471 388.275200
  11425  11423  11437     1   109.5600471 388.275200
  11425  11423  11445     1   109.7800468 425.094400
  11426  11424  11427     1   109.5600471 388.275200
  11426  11424  11436     1   110.2600474 425.931200
  11427  11428  11430     1   109.5600471 388.275200
  11427  11435  11438     1   107.2600461 396.643200
  11428  11429  11432     1   110.2200475 386.601600
  11428  11434  11440     1   107.2600461 396.643200
  11428  11427  11431     1   109.5600471 388.275200
  11429  11428  11430     1   109.5600471 388.275200
  11430  11428  11434     1   110.2600474 425.931200
  11431  11427  11435     1   110.2600474 425.931200
  11432  11429  11433     1   109.5800467 425.931200
  11432  11429  11445     1   109.5800467 425.931200
  11437  11443  11444     1   107.2600461 396.643200
  11441  11437  11443     1   110.2600474 425.931200
  11441  11437  11442     1   108.4600466 328.025600
  11442  11437  11443     1   110.2600474 425.931200
  11446  11447  11449     1   109.5600471 388.275200
  11446  11460  11464     1   109.5600471 388.275200
  11446  11460  11465     1   109.5600471 388.275200
  11447  11446  11448     1   109.5600471 388.275200
  11447  11450  11454     1   109.5600471 388.275200
  11447  11459  11462     1   107.2600461 396.643200
  11448  11446  11460     1   109.5600471 388.275200
  11448  11446  11468     1   109.7800468 425.094400
  11449  11447  11450     1   109.5600471 388.275200
  11449  11447  11459     1   110.2600474 425.931200
  11450  11451  11453     1   109.5600471 388.275200
  11450  11458  11461     1   107.2600461 396.643200
  11451  11450  11454     1   109.5600471 388.275200
  11451  11452  11455     1   110.2200475 386.601600
  11451  11457  11463     1   107.2600461 396.643200
  11452  11451  11453     1   109.5600471 388.275200
  11453  11451  11457     1   110.2600474 425.931200
  11454  11450  11458     1   110.2600474 425.931200
  11455  11452  11456     1   109.5800467 425.931200
  11455  11452  11468     1   109.5800467 425.931200
  11460  11466  11467     1   107.2600461 396.643200
  11464  11460  11466     1   110.2600474 425.931200
  11464  11460  11465     1   108.4600466 328.025600
  11465  11460  11466     1   110.2600474 425.931200
  11469  11470  11472     1   109.5600471 388.275200
  11469  11483  11487     1   109.5600471 388.275200
  11469  11483  11488     1   109.5600471 388.275200
  11470  11473  11477     1   109.5600471 388.275200
  11470  11482  11485     1   107.2600461 396.643200
  11470  11469  11471     1   109.5600471 388.275200
  11471  11469  11483     1   109.5600471 388.275200
  11471  11469  11491     1   109.7800468 425.094400
  11472  11470  11473     1   109.5600471 388.275200
  11472  11470  11482     1   110.2600474 425.931200
  11473  11474  11476     1   109.5600471 388.275200
  11473  11481  11484     1   107.2600461 396.643200
  11474  11475  11478     1   110.2200475 386.601600
  11474  11480  11486     1   107.2600461 396.643200
  11474  11473  11477     1   109.5600471 388.275200
  11475  11474  11476     1   109.5600471 388.275200
  11476  11474  11480     1   110.2600474 425.931200
  11477  11473  11481     1   110.2600474 425.931200
  11478  11475  11479     1   109.5800467 425.931200
  11478  11475  11491     1   109.5800467 425.931200
  11483  11489  11490     1   107.2600461 396.643200
  11487  11483  11489     1   110.2600474 425.931200
  11487  11483  11488     1   108.4600466 328.025600
  11488  11483  11489     1   110.2600474 425.931200
  11492  11493  11495     1   109.5600471 388.275200
  11492  11506  11510     1   109.5600471 388.275200
  11492  11506  11511     1   109.5600471 388.275200
  11493  11492  11494     1   109.5600471 388.275200
  11493  11496  11500     1   109.5600471 388.275200
  11493  11505  11508     1   107.2600461 396.643200
  11494  11492  11506     1   109.5600471 388.275200
  11494  11492  11514     1   109.7800468 425.094400
  11495  11493  11496     1   109.5600471 388.275200
  11495  11493  11505     1   110.2600474 425.931200
  11496  11497  11499     1   109.5600471 388.275200
  11496  11504  11507     1   107.2600461 396.643200
  11497  11496  11500     1   109.5600471 388.275200
  11497  11498  11501     1   110.2200475 386.601600
  11497  11503  11509     1   107.2600461 396.643200
  11498  11497  11499     1   109.5600471 388.275200
  11499  11497  11503     1   110.2600474 425.931200
  11500  11496  11504     1   110.2600474 425.931200
  11501  11498  11502     1   109.5800467 425.931200
  11501  11498  11514     1   109.5800467 425.931200
  11506  11512  11513     1   107.2600461 396.643200
  11510  11506  11512     1   110.2600474 425.931200
  11510  11506  11511     1   108.4600466 328.025600
  11511  11506  11512     1   110.2600474 425.931200
  11515  11516  11518     1   109.5600471 388.275200
  11515  11529  11533     1   109.5600471 388.275200
  11515  11529  11534     1   109.5600471 388.275200
  11516  11519  11523     1   109.5600471 388.275200
  11516  11528  11531     1   107.2600461 396.643200
  11516  11515  11517     1   109.5600471 388.275200
  11517  11515  11529     1   109.5600471 388.275200
  11517  11515  11537     1   109.7800468 425.094400
  11518  11516  11519     1   109.5600471 388.275200
  11518  11516  11528     1   110.2600474 425.931200
  11519  11520  11522     1   109.5600471 388.275200
  11519  11527  11530     1   107.2600461 396.643200
  11520  11521  11524     1   110.2200475 386.601600
  11520  11526  11532     1   107.2600461 396.643200
  11520  11519  11523     1   109.5600471 388.275200
  11521  11520  11522     1   109.5600471 388.275200
  11522  11520  11526     1   110.2600474 425.931200
  11523  11519  11527     1   110.2600474 425.931200
  11524  11521  11525     1   109.5800467 425.931200
  11524  11521  11537     1   109.5800467 425.931200
  11529  11535  11536     1   107.2600461 396.643200
  11533  11529  11535     1   110.2600474 425.931200
  11533  11529  11534     1   108.4600466 328.025600
  11534  11529  11535     1   110.2600474 425.931200
  11538  11539  11541     1   109.5600471 388.275200
  11538  11552  11556     1   109.5600471 388.275200
  11538  11552  11557     1   109.5600471 388.275200
  11539  11538  11540     1   109.5600471 388.275200
  11539  11542  11546     1   109.5600471 388.275200
  11539  11551  11554     1   107.2600461 396.643200
  11540  11538  11552     1   109.5600471 388.275200
  11540  11538  11560     1   109.7800468 425.094400
  11541  11539  11542     1   109.5600471 388.275200
  11541  11539  11551     1   110.2600474 425.931200
  11542  11543  11545     1   109.5600471 388.275200
  11542  11550  11553     1   107.2600461 396.643200
  11543  11542  11546     1   109.5600471 388.275200
  11543  11544  11547     1   110.2200475 386.601600
  11543  11549  11555     1   107.2600461 396.643200
  11544  11543  11545     1   109.5600471 388.275200
  11545  11543  11549     1   110.2600474 425.931200
  11546  11542  11550     1   110.2600474 425.931200
  11547  11544  11548     1   109.5800467 425.931200
  11547  11544  11560     1   109.5800467 425.931200
  11552  11558  11559     1   107.2600461 396.643200
  11556  11552  11558     1   110.2600474 425.931200
  11556  11552  11557     1   108.4600466 328.025600
  11557  11552  11558     1   110.2600474 425.931200
  11561  11562  11564     1   109.5600471 388.275200
  11561  11575  11579     1   109.5600471 388.275200
  11561  11575  11580     1   109.5600471 388.275200
  11562  11565  11569     1   109.5600471 388.275200
  11562  11574  11577     1   107.2600461 396.643200
  11562  11561  11563     1   109.5600471 388.275200
  11563  11561  11575     1   109.5600471 388.275200
  11563  11561  11583     1   109.7800468 425.094400
  11564  11562  11565     1   109.5600471 388.275200
  11564  11562  11574     1   110.2600474 425.931200
  11565  11566  11568     1   109.5600471 388.275200
  11565  11573  11576     1   107.2600461 396.643200
  11566  11567  11570     1   110.2200475 386.601600
  11566  11572  11578     1   107.2600461 396.643200
  11566  11565  11569     1   109.5600471 388.275200
  11567  11566  11568     1   109.5600471 388.275200
  11568  11566  11572     1   110.2600474 425.931200
  11569  11565  11573     1   110.2600474 425.931200
  11570  11567  11571     1   109.5800467 425.931200
  11570  11567  11583     1   109.5800467 425.931200
  11575  11581  11582     1   107.2600461 396.643200
  11579  11575  11581     1   110.2600474 425.931200
  11579  11575  11580     1   108.4600466 328.025600
  11580  11575  11581     1   110.2600474 425.931200
  11584  11585  11587     1   109.5600471 388.275200
  11584  11598  11602     1   109.5600471 388.275200
  11584  11598  11603     1   109.5600471 388.275200
  11585  11584  11586     1   109.5600471 388.275200
  11585  11588  11592     1   109.5600471 388.275200
  11585  11597  11600     1   107.2600461 396.643200
  11586  11584  11598     1   109.5600471 388.275200
  11586  11584  11606     1   109.7800468 425.094400
  11587  11585  11588     1   109.5600471 388.275200
  11587  11585  11597     1   110.2600474 425.931200
  11588  11589  11591     1   109.5600471 388.275200
  11588  11596  11599     1   107.2600461 396.643200
  11589  11588  11592     1   109.5600471 388.275200
  11589  11590  11593     1   110.2200475 386.601600
  11589  11595  11601     1   107.2600461 396.643200
  11590  11589  11591     1   109.5600471 388.275200
  11591  11589  11595     1   110.2600474 425.931200
  11592  11588  11596     1   110.2600474 425.931200
  11593  11590  11594     1   109.5800467 425.931200
  11593  11590  11606     1   109.5800467 425.931200
  11598  11604  11605     1   107.2600461 396.643200
  11602  11598  11604     1   110.2600474 425.931200
  11602  11598  11603     1   108.4600466 328.025600
  11603  11598  11604     1   110.2600474 425.931200
  11607  11608  11610     1   109.5600471 388.275200
  11607  11621  11625     1   109.5600471 388.275200
  11607  11621  11626     1   109.5600471 388.275200
  11608  11611  11615     1   109.5600471 388.275200
  11608  11620  11623     1   107.2600461 396.643200
  11608  11607  11609     1   109.5600471 388.275200
  11609  11607  11621     1   109.5600471 388.275200
  11609  11607  11629     1   109.7800468 425.094400
  11610  11608  11611     1   109.5600471 388.275200
  11610  11608  11620     1   110.2600474 425.931200
  11611  11612  11614     1   109.5600471 388.275200
  11611  11619  11622     1   107.2600461 396.643200
  11612  11613  11616     1   110.2200475 386.601600
  11612  11618  11624     1   107.2600461 396.643200
  11612  11611  11615     1   109.5600471 388.275200
  11613  11612  11614     1   109.5600471 388.275200
  11614  11612  11618     1   110.2600474 425.931200
  11615  11611  11619     1   110.2600474 425.931200
  11616  11613  11617     1   109.5800467 425.931200
  11616  11613  11629     1   109.5800467 425.931200
  11621  11627  11628     1   107.2600461 396.643200
  11625  11621  11627     1   110.2600474 425.931200
  11625  11621  11626     1   108.4600466 328.025600
  11626  11621  11627     1   110.2600474 425.931200
  11630  11631  11633     1   109.5600471 388.275200
  11630  11644  11648     1   109.5600471 388.275200
  11630  11644  11649     1   109.5600471 388.275200
  11631  11630  11632     1   109.5600471 388.275200
  11631  11634  11638     1   109.5600471 388.275200
  11631  11643  11646     1   107.2600461 396.643200
  11632  11630  11644     1   109.5600471 388.275200
  11632  11630  11652     1   109.7800468 425.094400
  11633  11631  11634     1   109.5600471 388.275200
  11633  11631  11643     1   110.2600474 425.931200
  11634  11635  11637     1   109.5600471 388.275200
  11634  11642  11645     1   107.2600461 396.643200
  11635  11634  11638     1   109.5600471 388.275200
  11635  11636  11639     1   110.2200475 386.601600
  11635  11641  11647     1   107.2600461 396.643200
  11636  11635  11637     1   109.5600471 388.275200
  11637  11635  11641     1   110.2600474 425.931200
  11638  11634  11642     1   110.2600474 425.931200
  11639  11636  11640     1   109.5800467 425.931200
  11639  11636  11652     1   109.5800467 425.931200
  11644  11650  11651     1   107.2600461 396.643200
  11648  11644  11650     1   110.2600474 425.931200
  11648  11644  11649     1   108.4600466 328.025600
  11649  11644  11650     1   110.2600474 425.931200
  11653  11654  11656     1   109.5600471 388.275200
  11653  11667  11671     1   109.5600471 388.275200
  11653  11667  11672     1   109.5600471 388.275200
  11654  11657  11661     1   109.5600471 388.275200
  11654  11666  11669     1   107.2600461 396.643200
  11654  11653  11655     1   109.5600471 388.275200
  11655  11653  11667     1   109.5600471 388.275200
  11655  11653  11675     1   109.7800468 425.094400
  11656  11654  11657     1   109.5600471 388.275200
  11656  11654  11666     1   110.2600474 425.931200
  11657  11658  11660     1   109.5600471 388.275200
  11657  11665  11668     1   107.2600461 396.643200
  11658  11659  11662     1   110.2200475 386.601600
  11658  11664  11670     1   107.2600461 396.643200
  11658  11657  11661     1   109.5600471 388.275200
  11659  11658  11660     1   109.5600471 388.275200
  11660  11658  11664     1   110.2600474 425.931200
  11661  11657  11665     1   110.2600474 425.931200
  11662  11659  11663     1   109.5800467 425.931200
  11662  11659  11675     1   109.5800467 425.931200
  11667  11673  11674     1   107.2600461 396.643200
  11671  11667  11673     1   110.2600474 425.931200
  11671  11667  11672     1   108.4600466 328.025600
  11672  11667  11673     1   110.2600474 425.931200
  11676  11677  11679     1   109.5600471 388.275200
  11676  11690  11694     1   109.5600471 388.275200
  11676  11690  11695     1   109.5600471 388.275200
  11677  11676  11678     1   109.5600471 388.275200
  11677  11680  11684     1   109.5600471 388.275200
  11677  11689  11692     1   107.2600461 396.643200
  11678  11676  11690     1   109.5600471 388.275200
  11678  11676  11698     1   109.7800468 425.094400
  11679  11677  11680     1   109.5600471 388.275200
  11679  11677  11689     1   110.2600474 425.931200
  11680  11681  11683     1   109.5600471 388.275200
  11680  11688  11691     1   107.2600461 396.643200
  11681  11680  11684     1   109.5600471 388.275200
  11681  11682  11685     1   110.2200475 386.601600
  11681  11687  11693     1   107.2600461 396.643200
  11682  11681  11683     1   109.5600471 388.275200
  11683  11681  11687     1   110.2600474 425.931200
  11684  11680  11688     1   110.2600474 425.931200
  11685  11682  11686     1   109.5800467 425.931200
  11685  11682  11698     1   109.5800467 425.931200
  11690  11696  11697     1   107.2600461 396.643200
  11694  11690  11696     1   110.2600474 425.931200
  11694  11690  11695     1   108.4600466 328.025600
  11695  11690  11696     1   110.2600474 425.931200
  11699  11700  11702     1   109.5600471 388.275200
  11699  11713  11717     1   109.5600471 388.275200
  11699  11713  11718     1   109.5600471 388.275200
  11700  11703  11707     1   109.5600471 388.275200
  11700  11712  11715     1   107.2600461 396.643200
  11700  11699  11701     1   109.5600471 388.275200
  11701  11699  11713     1   109.5600471 388.275200
  11701  11699  11721     1   109.7800468 425.094400
  11702  11700  11703     1   109.5600471 388.275200
  11702  11700  11712     1   110.2600474 425.931200
  11703  11704  11706     1   109.5600471 388.275200
  11703  11711  11714     1   107.2600461 396.643200
  11704  11705  11708     1   110.2200475 386.601600
  11704  11710  11716     1   107.2600461 396.643200
  11704  11703  11707     1   109.5600471 388.275200
  11705  11704  11706     1   109.5600471 388.275200
  11706  11704  11710     1   110.2600474 425.931200
  11707  11703  11711     1   110.2600474 425.931200
  11708  11705  11709     1   109.5800467 425.931200
  11708  11705  11721     1   109.5800467 425.931200
  11713  11719  11720     1   107.2600461 396.643200
  11717  11713  11719     1   110.2600474 425.931200
  11717  11713  11718     1   108.4600466 328.025600
  11718  11713  11719     1   110.2600474 425.931200
  11722  11723  11725     1   109.5600471 388.275200
  11722  11736  11740     1   109.5600471 388.275200
  11722  11736  11741     1   109.5600471 388.275200
  11723  11722  11724     1   109.5600471 388.275200
  11723  11726  11730     1   109.5600471 388.275200
  11723  11735  11738     1   107.2600461 396.643200
  11724  11722  11736     1   109.5600471 388.275200
  11724  11722  11744     1   109.7800468 425.094400
  11725  11723  11726     1   109.5600471 388.275200
  11725  11723  11735     1   110.2600474 425.931200
  11726  11727  11729     1   109.5600471 388.275200
  11726  11734  11737     1   107.2600461 396.643200
  11727  11726  11730     1   109.5600471 388.275200
  11727  11728  11731     1   110.2200475 386.601600
  11727  11733  11739     1   107.2600461 396.643200
  11728  11727  11729     1   109.5600471 388.275200
  11729  11727  11733     1   110.2600474 425.931200
  11730  11726  11734     1   110.2600474 425.931200
  11731  11728  11732     1   109.5800467 425.931200
  11731  11728  11744     1   109.5800467 425.931200
  11736  11742  11743     1   107.2600461 396.643200
  11740  11736  11742     1   110.2600474 425.931200
  11740  11736  11741     1   108.4600466 328.025600
  11741  11736  11742     1   110.2600474 425.931200
  11745  11746  11748     1   109.5600471 388.275200
  11745  11759  11763     1   109.5600471 388.275200
  11745  11759  11764     1   109.5600471 388.275200
  11746  11749  11753     1   109.5600471 388.275200
  11746  11758  11761     1   107.2600461 396.643200
  11746  11745  11747     1   109.5600471 388.275200
  11747  11745  11759     1   109.5600471 388.275200
  11747  11745  11767     1   109.7800468 425.094400
  11748  11746  11749     1   109.5600471 388.275200
  11748  11746  11758     1   110.2600474 425.931200
  11749  11750  11752     1   109.5600471 388.275200
  11749  11757  11760     1   107.2600461 396.643200
  11750  11751  11754     1   110.2200475 386.601600
  11750  11756  11762     1   107.2600461 396.643200
  11750  11749  11753     1   109.5600471 388.275200
  11751  11750  11752     1   109.5600471 388.275200
  11752  11750  11756     1   110.2600474 425.931200
  11753  11749  11757     1   110.2600474 425.931200
  11754  11751  11755     1   109.5800467 425.931200
  11754  11751  11767     1   109.5800467 425.931200
  11759  11765  11766     1   107.2600461 396.643200
  11763  11759  11765     1   110.2600474 425.931200
  11763  11759  11764     1   108.4600466 328.025600
  11764  11759  11765     1   110.2600474 425.931200
  11768  11769  11771     1   109.5600471 388.275200
  11768  11782  11786     1   109.5600471 388.275200
  11768  11782  11787     1   109.5600471 388.275200
  11769  11768  11770     1   109.5600471 388.275200
  11769  11772  11776     1   109.5600471 388.275200
  11769  11781  11784     1   107.2600461 396.643200
  11770  11768  11782     1   109.5600471 388.275200
  11770  11768  11790     1   109.7800468 425.094400
  11771  11769  11772     1   109.5600471 388.275200
  11771  11769  11781     1   110.2600474 425.931200
  11772  11773  11775     1   109.5600471 388.275200
  11772  11780  11783     1   107.2600461 396.643200
  11773  11772  11776     1   109.5600471 388.275200
  11773  11774  11777     1   110.2200475 386.601600
  11773  11779  11785     1   107.2600461 396.643200
  11774  11773  11775     1   109.5600471 388.275200
  11775  11773  11779     1   110.2600474 425.931200
  11776  11772  11780     1   110.2600474 425.931200
  11777  11774  11778     1   109.5800467 425.931200
  11777  11774  11790     1   109.5800467 425.931200
  11782  11788  11789     1   107.2600461 396.643200
  11786  11782  11788     1   110.2600474 425.931200
  11786  11782  11787     1   108.4600466 328.025600
  11787  11782  11788     1   110.2600474 425.931200
  11791  11792  11794     1   109.5600471 388.275200
  11791  11805  11809     1   109.5600471 388.275200
  11791  11805  11810     1   109.5600471 388.275200
  11792  11795  11799     1   109.5600471 388.275200
  11792  11804  11807     1   107.2600461 396.643200
  11792  11791  11793     1   109.5600471 388.275200
  11793  11791  11805     1   109.5600471 388.275200
  11793  11791  11813     1   109.7800468 425.094400
  11794  11792  11795     1   109.5600471 388.275200
  11794  11792  11804     1   110.2600474 425.931200
  11795  11796  11798     1   109.5600471 388.275200
  11795  11803  11806     1   107.2600461 396.643200
  11796  11797  11800     1   110.2200475 386.601600
  11796  11802  11808     1   107.2600461 396.643200
  11796  11795  11799     1   109.5600471 388.275200
  11797  11796  11798     1   109.5600471 388.275200
  11798  11796  11802     1   110.2600474 425.931200
  11799  11795  11803     1   110.2600474 425.931200
  11800  11797  11801     1   109.5800467 425.931200
  11800  11797  11813     1   109.5800467 425.931200
  11805  11811  11812     1   107.2600461 396.643200
  11809  11805  11811     1   110.2600474 425.931200
  11809  11805  11810     1   108.4600466 328.025600
  11810  11805  11811     1   110.2600474 425.931200
  11814  11815  11817     1   109.5600471 388.275200
  11814  11828  11832     1   109.5600471 388.275200
  11814  11828  11833     1   109.5600471 388.275200
  11815  11814  11816     1   109.5600471 388.275200
  11815  11818  11822     1   109.5600471 388.275200
  11815  11827  11830     1   107.2600461 396.643200
  11816  11814  11828     1   109.5600471 388.275200
  11816  11814  11836     1   109.7800468 425.094400
  11817  11815  11818     1   109.5600471 388.275200
  11817  11815  11827     1   110.2600474 425.931200
  11818  11819  11821     1   109.5600471 388.275200
  11818  11826  11829     1   107.2600461 396.643200
  11819  11818  11822     1   109.5600471 388.275200
  11819  11820  11823     1   110.2200475 386.601600
  11819  11825  11831     1   107.2600461 396.643200
  11820  11819  11821     1   109.5600471 388.275200
  11821  11819  11825     1   110.2600474 425.931200
  11822  11818  11826     1   110.2600474 425.931200
  11823  11820  11824     1   109.5800467 425.931200
  11823  11820  11836     1   109.5800467 425.931200
  11828  11834  11835     1   107.2600461 396.643200
  11832  11828  11834     1   110.2600474 425.931200
  11832  11828  11833     1   108.4600466 328.025600
  11833  11828  11834     1   110.2600474 425.931200
  11837  11838  11840     1   109.5600471 388.275200
  11837  11851  11855     1   109.5600471 388.275200
  11837  11851  11856     1   109.5600471 388.275200
  11838  11841  11845     1   109.5600471 388.275200
  11838  11850  11853     1   107.2600461 396.643200
  11838  11837  11839     1   109.5600471 388.275200
  11839  11837  11851     1   109.5600471 388.275200
  11839  11837  11859     1   109.7800468 425.094400
  11840  11838  11841     1   109.5600471 388.275200
  11840  11838  11850     1   110.2600474 425.931200
  11841  11842  11844     1   109.5600471 388.275200
  11841  11849  11852     1   107.2600461 396.643200
  11842  11843  11846     1   110.2200475 386.601600
  11842  11848  11854     1   107.2600461 396.643200
  11842  11841  11845     1   109.5600471 388.275200
  11843  11842  11844     1   109.5600471 388.275200
  11844  11842  11848     1   110.2600474 425.931200
  11845  11841  11849     1   110.2600474 425.931200
  11846  11843  11847     1   109.5800467 425.931200
  11846  11843  11859     1   109.5800467 425.931200
  11851  11857  11858     1   107.2600461 396.643200
  11855  11851  11857     1   110.2600474 425.931200
  11855  11851  11856     1   108.4600466 328.025600
  11856  11851  11857     1   110.2600474 425.931200
  11860  11861  11863     1   109.5600471 388.275200
  11860  11874  11878     1   109.5600471 388.275200
  11860  11874  11879     1   109.5600471 388.275200
  11861  11860  11862     1   109.5600471 388.275200
  11861  11864  11868     1   109.5600471 388.275200
  11861  11873  11876     1   107.2600461 396.643200
  11862  11860  11874     1   109.5600471 388.275200
  11862  11860  11882     1   109.7800468 425.094400
  11863  11861  11864     1   109.5600471 388.275200
  11863  11861  11873     1   110.2600474 425.931200
  11864  11865  11867     1   109.5600471 388.275200
  11864  11872  11875     1   107.2600461 396.643200
  11865  11864  11868     1   109.5600471 388.275200
  11865  11866  11869     1   110.2200475 386.601600
  11865  11871  11877     1   107.2600461 396.643200
  11866  11865  11867     1   109.5600471 388.275200
  11867  11865  11871     1   110.2600474 425.931200
  11868  11864  11872     1   110.2600474 425.931200
  11869  11866  11870     1   109.5800467 425.931200
  11869  11866  11882     1   109.5800467 425.931200
  11874  11880  11881     1   107.2600461 396.643200
  11878  11874  11880     1   110.2600474 425.931200
  11878  11874  11879     1   108.4600466 328.025600
  11879  11874  11880     1   110.2600474 425.931200
  11883  11884  11886     1   109.5600471 388.275200
  11883  11897  11901     1   109.5600471 388.275200
  11883  11897  11902     1   109.5600471 388.275200
  11884  11887  11891     1   109.5600471 388.275200
  11884  11896  11899     1   107.2600461 396.643200
  11884  11883  11885     1   109.5600471 388.275200
  11885  11883  11897     1   109.5600471 388.275200
  11885  11883  11905     1   109.7800468 425.094400
  11886  11884  11887     1   109.5600471 388.275200
  11886  11884  11896     1   110.2600474 425.931200
  11887  11888  11890     1   109.5600471 388.275200
  11887  11895  11898     1   107.2600461 396.643200
  11888  11889  11892     1   110.2200475 386.601600
  11888  11894  11900     1   107.2600461 396.643200
  11888  11887  11891     1   109.5600471 388.275200
  11889  11888  11890     1   109.5600471 388.275200
  11890  11888  11894     1   110.2600474 425.931200
  11891  11887  11895     1   110.2600474 425.931200
  11892  11889  11893     1   109.5800467 425.931200
  11892  11889  11905     1   109.5800467 425.931200
  11897  11903  11904     1   107.2600461 396.643200
  11901  11897  11903     1   110.2600474 425.931200
  11901  11897  11902     1   108.4600466 328.025600
  11902  11897  11903     1   110.2600474 425.931200
  11906  11907  11909     1   109.5600471 388.275200
  11906  11920  11924     1   109.5600471 388.275200
  11906  11920  11925     1   109.5600471 388.275200
  11907  11906  11908     1   109.5600471 388.275200
  11907  11910  11914     1   109.5600471 388.275200
  11907  11919  11922     1   107.2600461 396.643200
  11908  11906  11920     1   109.5600471 388.275200
  11908  11906  11928     1   109.7800468 425.094400
  11909  11907  11910     1   109.5600471 388.275200
  11909  11907  11919     1   110.2600474 425.931200
  11910  11911  11913     1   109.5600471 388.275200
  11910  11918  11921     1   107.2600461 396.643200
  11911  11910  11914     1   109.5600471 388.275200
  11911  11912  11915     1   110.2200475 386.601600
  11911  11917  11923     1   107.2600461 396.643200
  11912  11911  11913     1   109.5600471 388.275200
  11913  11911  11917     1   110.2600474 425.931200
  11914  11910  11918     1   110.2600474 425.931200
  11915  11912  11916     1   109.5800467 425.931200
  11915  11912  11928     1   109.5800467 425.931200
  11920  11926  11927     1   107.2600461 396.643200
  11924  11920  11926     1   110.2600474 425.931200
  11924  11920  11925     1   108.4600466 328.025600
  11925  11920  11926     1   110.2600474 425.931200
  11929  11930  11932     1   109.5600471 388.275200
  11929  11943  11947     1   109.5600471 388.275200
  11929  11943  11948     1   109.5600471 388.275200
  11930  11933  11937     1   109.5600471 388.275200
  11930  11942  11945     1   107.2600461 396.643200
  11930  11929  11931     1   109.5600471 388.275200
  11931  11929  11943     1   109.5600471 388.275200
  11931  11929  11951     1   109.7800468 425.094400
  11932  11930  11933     1   109.5600471 388.275200
  11932  11930  11942     1   110.2600474 425.931200
  11933  11934  11936     1   109.5600471 388.275200
  11933  11941  11944     1   107.2600461 396.643200
  11934  11935  11938     1   110.2200475 386.601600
  11934  11940  11946     1   107.2600461 396.643200
  11934  11933  11937     1   109.5600471 388.275200
  11935  11934  11936     1   109.5600471 388.275200
  11936  11934  11940     1   110.2600474 425.931200
  11937  11933  11941     1   110.2600474 425.931200
  11938  11935  11939     1   109.5800467 425.931200
  11938  11935  11951     1   109.5800467 425.931200
  11943  11949  11950     1   107.2600461 396.643200
  11947  11943  11949     1   110.2600474 425.931200
  11947  11943  11948     1   108.4600466 328.025600
  11948  11943  11949     1   110.2600474 425.931200
  11952  11953  11955     1   109.5600471 388.275200
  11952  11966  11970     1   109.5600471 388.275200
  11952  11966  11971     1   109.5600471 388.275200
  11953  11952  11954     1   109.5600471 388.275200
  11953  11956  11960     1   109.5600471 388.275200
  11953  11965  11968     1   107.2600461 396.643200
  11954  11952  11966     1   109.5600471 388.275200
  11954  11952  11974     1   109.7800468 425.094400
  11955  11953  11956     1   109.5600471 388.275200
  11955  11953  11965     1   110.2600474 425.931200
  11956  11957  11959     1   109.5600471 388.275200
  11956  11964  11967     1   107.2600461 396.643200
  11957  11956  11960     1   109.5600471 388.275200
  11957  11958  11961     1   110.2200475 386.601600
  11957  11963  11969     1   107.2600461 396.643200
  11958  11957  11959     1   109.5600471 388.275200
  11959  11957  11963     1   110.2600474 425.931200
  11960  11956  11964     1   110.2600474 425.931200
  11961  11958  11962     1   109.5800467 425.931200
  11961  11958  11974     1   109.5800467 425.931200
  11966  11972  11973     1   107.2600461 396.643200
  11970  11966  11972     1   110.2600474 425.931200
  11970  11966  11971     1   108.4600466 328.025600
  11971  11966  11972     1   110.2600474 425.931200
  11975  11976  11978     1   109.5600471 388.275200
  11975  11989  11993     1   109.5600471 388.275200
  11975  11989  11994     1   109.5600471 388.275200
  11976  11979  11983     1   109.5600471 388.275200
  11976  11988  11991     1   107.2600461 396.643200
  11976  11975  11977     1   109.5600471 388.275200
  11977  11975  11989     1   109.5600471 388.275200
  11977  11975  11997     1   109.7800468 425.094400
  11978  11976  11979     1   109.5600471 388.275200
  11978  11976  11988     1   110.2600474 425.931200
  11979  11980  11982     1   109.5600471 388.275200
  11979  11987  11990     1   107.2600461 396.643200
  11980  11981  11984     1   110.2200475 386.601600
  11980  11986  11992     1   107.2600461 396.643200
  11980  11979  11983     1   109.5600471 388.275200
  11981  11980  11982     1   109.5600471 388.275200
  11982  11980  11986     1   110.2600474 425.931200
  11983  11979  11987     1   110.2600474 425.931200
  11984  11981  11985     1   109.5800467 425.931200
  11984  11981  11997     1   109.5800467 425.931200
  11989  11995  11996     1   107.2600461 396.643200
  11993  11989  11995     1   110.2600474 425.931200
  11993  11989  11994     1   108.4600466 328.025600
  11994  11989  11995     1   110.2600474 425.931200
  11998  11999  12001     1   109.5600471 388.275200
  11998  12012  12016     1   109.5600471 388.275200
  11998  12012  12017     1   109.5600471 388.275200
  11999  11998  12000     1   109.5600471 388.275200
  11999  12002  12006     1   109.5600471 388.275200
  11999  12011  12014     1   107.2600461 396.643200
  12000  11998  12012     1   109.5600471 388.275200
  12000  11998  12020     1   109.7800468 425.094400
  12001  11999  12002     1   109.5600471 388.275200
  12001  11999  12011     1   110.2600474 425.931200
  12002  12003  12005     1   109.5600471 388.275200
  12002  12010  12013     1   107.2600461 396.643200
  12003  12002  12006     1   109.5600471 388.275200
  12003  12004  12007     1   110.2200475 386.601600
  12003  12009  12015     1   107.2600461 396.643200
  12004  12003  12005     1   109.5600471 388.275200
  12005  12003  12009     1   110.2600474 425.931200
  12006  12002  12010     1   110.2600474 425.931200
  12007  12004  12008     1   109.5800467 425.931200
  12007  12004  12020     1   109.5800467 425.931200
  12012  12018  12019     1   107.2600461 396.643200
  12016  12012  12018     1   110.2600474 425.931200
  12016  12012  12017     1   108.4600466 328.025600
  12017  12012  12018     1   110.2600474 425.931200
  12021  12022  12024     1   109.5600471 388.275200
  12021  12035  12039     1   109.5600471 388.275200
  12021  12035  12040     1   109.5600471 388.275200
  12022  12025  12029     1   109.5600471 388.275200
  12022  12034  12037     1   107.2600461 396.643200
  12022  12021  12023     1   109.5600471 388.275200
  12023  12021  12035     1   109.5600471 388.275200
  12023  12021  12043     1   109.7800468 425.094400
  12024  12022  12025     1   109.5600471 388.275200
  12024  12022  12034     1   110.2600474 425.931200
  12025  12026  12028     1   109.5600471 388.275200
  12025  12033  12036     1   107.2600461 396.643200
  12026  12027  12030     1   110.2200475 386.601600
  12026  12032  12038     1   107.2600461 396.643200
  12026  12025  12029     1   109.5600471 388.275200
  12027  12026  12028     1   109.5600471 388.275200
  12028  12026  12032     1   110.2600474 425.931200
  12029  12025  12033     1   110.2600474 425.931200
  12030  12027  12031     1   109.5800467 425.931200
  12030  12027  12043     1   109.5800467 425.931200
  12035  12041  12042     1   107.2600461 396.643200
  12039  12035  12041     1   110.2600474 425.931200
  12039  12035  12040     1   108.4600466 328.025600
  12040  12035  12041     1   110.2600474 425.931200
  12044  12045  12047     1   109.5600471 388.275200
  12044  12058  12062     1   109.5600471 388.275200
  12044  12058  12063     1   109.5600471 388.275200
  12045  12044  12046     1   109.5600471 388.275200
  12045  12048  12052     1   109.5600471 388.275200
  12045  12057  12060     1   107.2600461 396.643200
  12046  12044  12058     1   109.5600471 388.275200
  12046  12044  12066     1   109.7800468 425.094400
  12047  12045  12048     1   109.5600471 388.275200
  12047  12045  12057     1   110.2600474 425.931200
  12048  12049  12051     1   109.5600471 388.275200
  12048  12056  12059     1   107.2600461 396.643200
  12049  12048  12052     1   109.5600471 388.275200
  12049  12050  12053     1   110.2200475 386.601600
  12049  12055  12061     1   107.2600461 396.643200
  12050  12049  12051     1   109.5600471 388.275200
  12051  12049  12055     1   110.2600474 425.931200
  12052  12048  12056     1   110.2600474 425.931200
  12053  12050  12054     1   109.5800467 425.931200
  12053  12050  12066     1   109.5800467 425.931200
  12058  12064  12065     1   107.2600461 396.643200
  12062  12058  12064     1   110.2600474 425.931200
  12062  12058  12063     1   108.4600466 328.025600
  12063  12058  12064     1   110.2600474 425.931200
  12067  12068  12070     1   109.5600471 388.275200
  12067  12081  12085     1   109.5600471 388.275200
  12067  12081  12086     1   109.5600471 388.275200
  12068  12071  12075     1   109.5600471 388.275200
  12068  12080  12083     1   107.2600461 396.643200
  12068  12067  12069     1   109.5600471 388.275200
  12069  12067  12081     1   109.5600471 388.275200
  12069  12067  12089     1   109.7800468 425.094400
  12070  12068  12071     1   109.5600471 388.275200
  12070  12068  12080     1   110.2600474 425.931200
  12071  12072  12074     1   109.5600471 388.275200
  12071  12079  12082     1   107.2600461 396.643200
  12072  12073  12076     1   110.2200475 386.601600
  12072  12078  12084     1   107.2600461 396.643200
  12072  12071  12075     1   109.5600471 388.275200
  12073  12072  12074     1   109.5600471 388.275200
  12074  12072  12078     1   110.2600474 425.931200
  12075  12071  12079     1   110.2600474 425.931200
  12076  12073  12077     1   109.5800467 425.931200
  12076  12073  12089     1   109.5800467 425.931200
  12081  12087  12088     1   107.2600461 396.643200
  12085  12081  12087     1   110.2600474 425.931200
  12085  12081  12086     1   108.4600466 328.025600
  12086  12081  12087     1   110.2600474 425.931200
  12090  12091  12093     1   109.5600471 388.275200
  12090  12104  12108     1   109.5600471 388.275200
  12090  12104  12109     1   109.5600471 388.275200
  12091  12090  12092     1   109.5600471 388.275200
  12091  12094  12098     1   109.5600471 388.275200
  12091  12103  12106     1   107.2600461 396.643200
  12092  12090  12104     1   109.5600471 388.275200
  12092  12090  12112     1   109.7800468 425.094400
  12093  12091  12094     1   109.5600471 388.275200
  12093  12091  12103     1   110.2600474 425.931200
  12094  12095  12097     1   109.5600471 388.275200
  12094  12102  12105     1   107.2600461 396.643200
  12095  12094  12098     1   109.5600471 388.275200
  12095  12096  12099     1   110.2200475 386.601600
  12095  12101  12107     1   107.2600461 396.643200
  12096  12095  12097     1   109.5600471 388.275200
  12097  12095  12101     1   110.2600474 425.931200
  12098  12094  12102     1   110.2600474 425.931200
  12099  12096  12100     1   109.5800467 425.931200
  12099  12096  12112     1   109.5800467 425.931200
  12104  12110  12111     1   107.2600461 396.643200
  12108  12104  12110     1   110.2600474 425.931200
  12108  12104  12109     1   108.4600466 328.025600
  12109  12104  12110     1   110.2600474 425.931200
  12113  12114  12116     1   109.5600471 388.275200
  12113  12127  12131     1   109.5600471 388.275200
  12113  12127  12132     1   109.5600471 388.275200
  12114  12117  12121     1   109.5600471 388.275200
  12114  12126  12129     1   107.2600461 396.643200
  12114  12113  12115     1   109.5600471 388.275200
  12115  12113  12127     1   109.5600471 388.275200
  12115  12113  12135     1   109.7800468 425.094400
  12116  12114  12117     1   109.5600471 388.275200
  12116  12114  12126     1   110.2600474 425.931200
  12117  12118  12120     1   109.5600471 388.275200
  12117  12125  12128     1   107.2600461 396.643200
  12118  12119  12122     1   110.2200475 386.601600
  12118  12124  12130     1   107.2600461 396.643200
  12118  12117  12121     1   109.5600471 388.275200
  12119  12118  12120     1   109.5600471 388.275200
  12120  12118  12124     1   110.2600474 425.931200
  12121  12117  12125     1   110.2600474 425.931200
  12122  12119  12123     1   109.5800467 425.931200
  12122  12119  12135     1   109.5800467 425.931200
  12127  12133  12134     1   107.2600461 396.643200
  12131  12127  12133     1   110.2600474 425.931200
  12131  12127  12132     1   108.4600466 328.025600
  12132  12127  12133     1   110.2600474 425.931200
  12136  12137  12139     1   109.5600471 388.275200
  12136  12150  12154     1   109.5600471 388.275200
  12136  12150  12155     1   109.5600471 388.275200
  12137  12136  12138     1   109.5600471 388.275200
  12137  12140  12144     1   109.5600471 388.275200
  12137  12149  12152     1   107.2600461 396.643200
  12138  12136  12150     1   109.5600471 388.275200
  12138  12136  12158     1   109.7800468 425.094400
  12139  12137  12140     1   109.5600471 388.275200
  12139  12137  12149     1   110.2600474 425.931200
  12140  12141  12143     1   109.5600471 388.275200
  12140  12148  12151     1   107.2600461 396.643200
  12141  12140  12144     1   109.5600471 388.275200
  12141  12142  12145     1   110.2200475 386.601600
  12141  12147  12153     1   107.2600461 396.643200
  12142  12141  12143     1   109.5600471 388.275200
  12143  12141  12147     1   110.2600474 425.931200
  12144  12140  12148     1   110.2600474 425.931200
  12145  12142  12146     1   109.5800467 425.931200
  12145  12142  12158     1   109.5800467 425.931200
  12150  12156  12157     1   107.2600461 396.643200
  12154  12150  12156     1   110.2600474 425.931200
  12154  12150  12155     1   108.4600466 328.025600
  12155  12150  12156     1   110.2600474 425.931200
  12159  12160  12162     1   109.5600471 388.275200
  12159  12173  12177     1   109.5600471 388.275200
  12159  12173  12178     1   109.5600471 388.275200
  12160  12163  12167     1   109.5600471 388.275200
  12160  12172  12175     1   107.2600461 396.643200
  12160  12159  12161     1   109.5600471 388.275200
  12161  12159  12173     1   109.5600471 388.275200
  12161  12159  12181     1   109.7800468 425.094400
  12162  12160  12163     1   109.5600471 388.275200
  12162  12160  12172     1   110.2600474 425.931200
  12163  12164  12166     1   109.5600471 388.275200
  12163  12171  12174     1   107.2600461 396.643200
  12164  12165  12168     1   110.2200475 386.601600
  12164  12170  12176     1   107.2600461 396.643200
  12164  12163  12167     1   109.5600471 388.275200
  12165  12164  12166     1   109.5600471 388.275200
  12166  12164  12170     1   110.2600474 425.931200
  12167  12163  12171     1   110.2600474 425.931200
  12168  12165  12169     1   109.5800467 425.931200
  12168  12165  12181     1   109.5800467 425.931200
  12173  12179  12180     1   107.2600461 396.643200
  12177  12173  12179     1   110.2600474 425.931200
  12177  12173  12178     1   108.4600466 328.025600
  12178  12173  12179     1   110.2600474 425.931200
  12182  12183  12185     1   109.5600471 388.275200
  12182  12196  12200     1   109.5600471 388.275200
  12182  12196  12201     1   109.5600471 388.275200
  12183  12182  12184     1   109.5600471 388.275200
  12183  12186  12190     1   109.5600471 388.275200
  12183  12195  12198     1   107.2600461 396.643200
  12184  12182  12196     1   109.5600471 388.275200
  12184  12182  12204     1   109.7800468 425.094400
  12185  12183  12186     1   109.5600471 388.275200
  12185  12183  12195     1   110.2600474 425.931200
  12186  12187  12189     1   109.5600471 388.275200
  12186  12194  12197     1   107.2600461 396.643200
  12187  12186  12190     1   109.5600471 388.275200
  12187  12188  12191     1   110.2200475 386.601600
  12187  12193  12199     1   107.2600461 396.643200
  12188  12187  12189     1   109.5600471 388.275200
  12189  12187  12193     1   110.2600474 425.931200
  12190  12186  12194     1   110.2600474 425.931200
  12191  12188  12192     1   109.5800467 425.931200
  12191  12188  12204     1   109.5800467 425.931200
  12196  12202  12203     1   107.2600461 396.643200
  12200  12196  12202     1   110.2600474 425.931200
  12200  12196  12201     1   108.4600466 328.025600
  12201  12196  12202     1   110.2600474 425.931200
  12205  12206  12208     1   109.5600471 388.275200
  12205  12219  12223     1   109.5600471 388.275200
  12205  12219  12224     1   109.5600471 388.275200
  12206  12209  12213     1   109.5600471 388.275200
  12206  12218  12221     1   107.2600461 396.643200
  12206  12205  12207     1   109.5600471 388.275200
  12207  12205  12219     1   109.5600471 388.275200
  12207  12205  12227     1   109.7800468 425.094400
  12208  12206  12209     1   109.5600471 388.275200
  12208  12206  12218     1   110.2600474 425.931200
  12209  12210  12212     1   109.5600471 388.275200
  12209  12217  12220     1   107.2600461 396.643200
  12210  12211  12214     1   110.2200475 386.601600
  12210  12216  12222     1   107.2600461 396.643200
  12210  12209  12213     1   109.5600471 388.275200
  12211  12210  12212     1   109.5600471 388.275200
  12212  12210  12216     1   110.2600474 425.931200
  12213  12209  12217     1   110.2600474 425.931200
  12214  12211  12215     1   109.5800467 425.931200
  12214  12211  12227     1   109.5800467 425.931200
  12219  12225  12226     1   107.2600461 396.643200
  12223  12219  12225     1   110.2600474 425.931200
  12223  12219  12224     1   108.4600466 328.025600
  12224  12219  12225     1   110.2600474 425.931200
  12228  12229  12231     1   109.5600471 388.275200
  12228  12242  12246     1   109.5600471 388.275200
  12228  12242  12247     1   109.5600471 388.275200
  12229  12228  12230     1   109.5600471 388.275200
  12229  12232  12236     1   109.5600471 388.275200
  12229  12241  12244     1   107.2600461 396.643200
  12230  12228  12242     1   109.5600471 388.275200
  12230  12228  12250     1   109.7800468 425.094400
  12231  12229  12232     1   109.5600471 388.275200
  12231  12229  12241     1   110.2600474 425.931200
  12232  12233  12235     1   109.5600471 388.275200
  12232  12240  12243     1   107.2600461 396.643200
  12233  12232  12236     1   109.5600471 388.275200
  12233  12234  12237     1   110.2200475 386.601600
  12233  12239  12245     1   107.2600461 396.643200
  12234  12233  12235     1   109.5600471 388.275200
  12235  12233  12239     1   110.2600474 425.931200
  12236  12232  12240     1   110.2600474 425.931200
  12237  12234  12238     1   109.5800467 425.931200
  12237  12234  12250     1   109.5800467 425.931200
  12242  12248  12249     1   107.2600461 396.643200
  12246  12242  12248     1   110.2600474 425.931200
  12246  12242  12247     1   108.4600466 328.025600
  12247  12242  12248     1   110.2600474 425.931200
  12251  12252  12254     1   109.5600471 388.275200
  12251  12265  12269     1   109.5600471 388.275200
  12251  12265  12270     1   109.5600471 388.275200
  12252  12255  12259     1   109.5600471 388.275200
  12252  12264  12267     1   107.2600461 396.643200
  12252  12251  12253     1   109.5600471 388.275200
  12253  12251  12265     1   109.5600471 388.275200
  12253  12251  12273     1   109.7800468 425.094400
  12254  12252  12255     1   109.5600471 388.275200
  12254  12252  12264     1   110.2600474 425.931200
  12255  12256  12258     1   109.5600471 388.275200
  12255  12263  12266     1   107.2600461 396.643200
  12256  12257  12260     1   110.2200475 386.601600
  12256  12262  12268     1   107.2600461 396.643200
  12256  12255  12259     1   109.5600471 388.275200
  12257  12256  12258     1   109.5600471 388.275200
  12258  12256  12262     1   110.2600474 425.931200
  12259  12255  12263     1   110.2600474 425.931200
  12260  12257  12261     1   109.5800467 425.931200
  12260  12257  12273     1   109.5800467 425.931200
  12265  12271  12272     1   107.2600461 396.643200
  12269  12265  12271     1   110.2600474 425.931200
  12269  12265  12270     1   108.4600466 328.025600
  12270  12265  12271     1   110.2600474 425.931200
  12274  12275  12277     1   109.5600471 388.275200
  12274  12288  12292     1   109.5600471 388.275200
  12274  12288  12293     1   109.5600471 388.275200
  12275  12274  12276     1   109.5600471 388.275200
  12275  12278  12282     1   109.5600471 388.275200
  12275  12287  12290     1   107.2600461 396.643200
  12276  12274  12288     1   109.5600471 388.275200
  12276  12274  12296     1   109.7800468 425.094400
  12277  12275  12278     1   109.5600471 388.275200
  12277  12275  12287     1   110.2600474 425.931200
  12278  12279  12281     1   109.5600471 388.275200
  12278  12286  12289     1   107.2600461 396.643200
  12279  12278  12282     1   109.5600471 388.275200
  12279  12280  12283     1   110.2200475 386.601600
  12279  12285  12291     1   107.2600461 396.643200
  12280  12279  12281     1   109.5600471 388.275200
  12281  12279  12285     1   110.2600474 425.931200
  12282  12278  12286     1   110.2600474 425.931200
  12283  12280  12284     1   109.5800467 425.931200
  12283  12280  12296     1   109.5800467 425.931200
  12288  12294  12295     1   107.2600461 396.643200
  12292  12288  12294     1   110.2600474 425.931200
  12292  12288  12293     1   108.4600466 328.025600
  12293  12288  12294     1   110.2600474 425.931200
  12297  12298  12300     1   109.5600471 388.275200
  12297  12311  12315     1   109.5600471 388.275200
  12297  12311  12316     1   109.5600471 388.275200
  12298  12301  12305     1   109.5600471 388.275200
  12298  12310  12313     1   107.2600461 396.643200
  12298  12297  12299     1   109.5600471 388.275200
  12299  12297  12311     1   109.5600471 388.275200
  12299  12297  12319     1   109.7800468 425.094400
  12300  12298  12301     1   109.5600471 388.275200
  12300  12298  12310     1   110.2600474 425.931200
  12301  12302  12304     1   109.5600471 388.275200
  12301  12309  12312     1   107.2600461 396.643200
  12302  12303  12306     1   110.2200475 386.601600
  12302  12308  12314     1   107.2600461 396.643200
  12302  12301  12305     1   109.5600471 388.275200
  12303  12302  12304     1   109.5600471 388.275200
  12304  12302  12308     1   110.2600474 425.931200
  12305  12301  12309     1   110.2600474 425.931200
  12306  12303  12307     1   109.5800467 425.931200
  12306  12303  12319     1   109.5800467 425.931200
  12311  12317  12318     1   107.2600461 396.643200
  12315  12311  12317     1   110.2600474 425.931200
  12315  12311  12316     1   108.4600466 328.025600
  12316  12311  12317     1   110.2600474 425.931200
  12320  12321  12323     1   109.5600471 388.275200
  12320  12334  12338     1   109.5600471 388.275200
  12320  12334  12339     1   109.5600471 388.275200
  12321  12320  12322     1   109.5600471 388.275200
  12321  12324  12328     1   109.5600471 388.275200
  12321  12333  12336     1   107.2600461 396.643200
  12322  12320  12334     1   109.5600471 388.275200
  12322  12320  12342     1   109.7800468 425.094400
  12323  12321  12324     1   109.5600471 388.275200
  12323  12321  12333     1   110.2600474 425.931200
  12324  12325  12327     1   109.5600471 388.275200
  12324  12332  12335     1   107.2600461 396.643200
  12325  12324  12328     1   109.5600471 388.275200
  12325  12326  12329     1   110.2200475 386.601600
  12325  12331  12337     1   107.2600461 396.643200
  12326  12325  12327     1   109.5600471 388.275200
  12327  12325  12331     1   110.2600474 425.931200
  12328  12324  12332     1   110.2600474 425.931200
  12329  12326  12330     1   109.5800467 425.931200
  12329  12326  12342     1   109.5800467 425.931200
  12334  12340  12341     1   107.2600461 396.643200
  12338  12334  12340     1   110.2600474 425.931200
  12338  12334  12339     1   108.4600466 328.025600
  12339  12334  12340     1   110.2600474 425.931200
  12343  12344  12346     1   109.5600471 388.275200
  12343  12357  12361     1   109.5600471 388.275200
  12343  12357  12362     1   109.5600471 388.275200
  12344  12347  12351     1   109.5600471 388.275200
  12344  12356  12359     1   107.2600461 396.643200
  12344  12343  12345     1   109.5600471 388.275200
  12345  12343  12357     1   109.5600471 388.275200
  12345  12343  12365     1   109.7800468 425.094400
  12346  12344  12347     1   109.5600471 388.275200
  12346  12344  12356     1   110.2600474 425.931200
  12347  12348  12350     1   109.5600471 388.275200
  12347  12355  12358     1   107.2600461 396.643200
  12348  12349  12352     1   110.2200475 386.601600
  12348  12354  12360     1   107.2600461 396.643200
  12348  12347  12351     1   109.5600471 388.275200
  12349  12348  12350     1   109.5600471 388.275200
  12350  12348  12354     1   110.2600474 425.931200
  12351  12347  12355     1   110.2600474 425.931200
  12352  12349  12353     1   109.5800467 425.931200
  12352  12349  12365     1   109.5800467 425.931200
  12357  12363  12364     1   107.2600461 396.643200
  12361  12357  12363     1   110.2600474 425.931200
  12361  12357  12362     1   108.4600466 328.025600
  12362  12357  12363     1   110.2600474 425.931200
  12366  12367  12369     1   109.5600471 388.275200
  12366  12380  12384     1   109.5600471 388.275200
  12366  12380  12385     1   109.5600471 388.275200
  12367  12366  12368     1   109.5600471 388.275200
  12367  12370  12374     1   109.5600471 388.275200
  12367  12379  12382     1   107.2600461 396.643200
  12368  12366  12380     1   109.5600471 388.275200
  12368  12366  12388     1   109.7800468 425.094400
  12369  12367  12370     1   109.5600471 388.275200
  12369  12367  12379     1   110.2600474 425.931200
  12370  12371  12373     1   109.5600471 388.275200
  12370  12378  12381     1   107.2600461 396.643200
  12371  12370  12374     1   109.5600471 388.275200
  12371  12372  12375     1   110.2200475 386.601600
  12371  12377  12383     1   107.2600461 396.643200
  12372  12371  12373     1   109.5600471 388.275200
  12373  12371  12377     1   110.2600474 425.931200
  12374  12370  12378     1   110.2600474 425.931200
  12375  12372  12376     1   109.5800467 425.931200
  12375  12372  12388     1   109.5800467 425.931200
  12380  12386  12387     1   107.2600461 396.643200
  12384  12380  12386     1   110.2600474 425.931200
  12384  12380  12385     1   108.4600466 328.025600
  12385  12380  12386     1   110.2600474 425.931200
  12389  12390  12392     1   109.5600471 388.275200
  12389  12403  12407     1   109.5600471 388.275200
  12389  12403  12408     1   109.5600471 388.275200
  12390  12393  12397     1   109.5600471 388.275200
  12390  12402  12405     1   107.2600461 396.643200
  12390  12389  12391     1   109.5600471 388.275200
  12391  12389  12403     1   109.5600471 388.275200
  12391  12389  12411     1   109.7800468 425.094400
  12392  12390  12393     1   109.5600471 388.275200
  12392  12390  12402     1   110.2600474 425.931200
  12393  12394  12396     1   109.5600471 388.275200
  12393  12401  12404     1   107.2600461 396.643200
  12394  12395  12398     1   110.2200475 386.601600
  12394  12400  12406     1   107.2600461 396.643200
  12394  12393  12397     1   109.5600471 388.275200
  12395  12394  12396     1   109.5600471 388.275200
  12396  12394  12400     1   110.2600474 425.931200
  12397  12393  12401     1   110.2600474 425.931200
  12398  12395  12399     1   109.5800467 425.931200
  12398  12395  12411     1   109.5800467 425.931200
  12403  12409  12410     1   107.2600461 396.643200
  12407  12403  12409     1   110.2600474 425.931200
  12407  12403  12408     1   108.4600466 328.025600
  12408  12403  12409     1   110.2600474 425.931200
  12412  12413  12415     1   109.5600471 388.275200
  12412  12426  12430     1   109.5600471 388.275200
  12412  12426  12431     1   109.5600471 388.275200
  12413  12412  12414     1   109.5600471 388.275200
  12413  12416  12420     1   109.5600471 388.275200
  12413  12425  12428     1   107.2600461 396.643200
  12414  12412  12426     1   109.5600471 388.275200
  12414  12412  12434     1   109.7800468 425.094400
  12415  12413  12416     1   109.5600471 388.275200
  12415  12413  12425     1   110.2600474 425.931200
  12416  12417  12419     1   109.5600471 388.275200
  12416  12424  12427     1   107.2600461 396.643200
  12417  12416  12420     1   109.5600471 388.275200
  12417  12418  12421     1   110.2200475 386.601600
  12417  12423  12429     1   107.2600461 396.643200
  12418  12417  12419     1   109.5600471 388.275200
  12419  12417  12423     1   110.2600474 425.931200
  12420  12416  12424     1   110.2600474 425.931200
  12421  12418  12422     1   109.5800467 425.931200
  12421  12418  12434     1   109.5800467 425.931200
  12426  12432  12433     1   107.2600461 396.643200
  12430  12426  12432     1   110.2600474 425.931200
  12430  12426  12431     1   108.4600466 328.025600
  12431  12426  12432     1   110.2600474 425.931200
  12435  12436  12438     1   109.5600471 388.275200
  12435  12449  12453     1   109.5600471 388.275200
  12435  12449  12454     1   109.5600471 388.275200
  12436  12439  12443     1   109.5600471 388.275200
  12436  12448  12451     1   107.2600461 396.643200
  12436  12435  12437     1   109.5600471 388.275200
  12437  12435  12449     1   109.5600471 388.275200
  12437  12435  12457     1   109.7800468 425.094400
  12438  12436  12439     1   109.5600471 388.275200
  12438  12436  12448     1   110.2600474 425.931200
  12439  12440  12442     1   109.5600471 388.275200
  12439  12447  12450     1   107.2600461 396.643200
  12440  12441  12444     1   110.2200475 386.601600
  12440  12446  12452     1   107.2600461 396.643200
  12440  12439  12443     1   109.5600471 388.275200
  12441  12440  12442     1   109.5600471 388.275200
  12442  12440  12446     1   110.2600474 425.931200
  12443  12439  12447     1   110.2600474 425.931200
  12444  12441  12445     1   109.5800467 425.931200
  12444  12441  12457     1   109.5800467 425.931200
  12449  12455  12456     1   107.2600461 396.643200
  12453  12449  12455     1   110.2600474 425.931200
  12453  12449  12454     1   108.4600466 328.025600
  12454  12449  12455     1   110.2600474 425.931200
  12458  12459  12461     1   109.5600471 388.275200
  12458  12472  12476     1   109.5600471 388.275200
  12458  12472  12477     1   109.5600471 388.275200
  12459  12458  12460     1   109.5600471 388.275200
  12459  12462  12466     1   109.5600471 388.275200
  12459  12471  12474     1   107.2600461 396.643200
  12460  12458  12472     1   109.5600471 388.275200
  12460  12458  12480     1   109.7800468 425.094400
  12461  12459  12462     1   109.5600471 388.275200
  12461  12459  12471     1   110.2600474 425.931200
  12462  12463  12465     1   109.5600471 388.275200
  12462  12470  12473     1   107.2600461 396.643200
  12463  12462  12466     1   109.5600471 388.275200
  12463  12464  12467     1   110.2200475 386.601600
  12463  12469  12475     1   107.2600461 396.643200
  12464  12463  12465     1   109.5600471 388.275200
  12465  12463  12469     1   110.2600474 425.931200
  12466  12462  12470     1   110.2600474 425.931200
  12467  12464  12468     1   109.5800467 425.931200
  12467  12464  12480     1   109.5800467 425.931200
  12472  12478  12479     1   107.2600461 396.643200
  12476  12472  12478     1   110.2600474 425.931200
  12476  12472  12477     1   108.4600466 328.025600
  12477  12472  12478     1   110.2600474 425.931200
  12481  12482  12484     1   109.5600471 388.275200
  12481  12495  12499     1   109.5600471 388.275200
  12481  12495  12500     1   109.5600471 388.275200
  12482  12485  12489     1   109.5600471 388.275200
  12482  12494  12497     1   107.2600461 396.643200
  12482  12481  12483     1   109.5600471 388.275200
  12483  12481  12495     1   109.5600471 388.275200
  12483  12481  12503     1   109.7800468 425.094400
  12484  12482  12485     1   109.5600471 388.275200
  12484  12482  12494     1   110.2600474 425.931200
  12485  12486  12488     1   109.5600471 388.275200
  12485  12493  12496     1   107.2600461 396.643200
  12486  12487  12490     1   110.2200475 386.601600
  12486  12492  12498     1   107.2600461 396.643200
  12486  12485  12489     1   109.5600471 388.275200
  12487  12486  12488     1   109.5600471 388.275200
  12488  12486  12492     1   110.2600474 425.931200
  12489  12485  12493     1   110.2600474 425.931200
  12490  12487  12491     1   109.5800467 425.931200
  12490  12487  12503     1   109.5800467 425.931200
  12495  12501  12502     1   107.2600461 396.643200
  12499  12495  12501     1   110.2600474 425.931200
  12499  12495  12500     1   108.4600466 328.025600
  12500  12495  12501     1   110.2600474 425.931200
  12504  12505  12507     1   109.5600471 388.275200
  12504  12518  12522     1   109.5600471 388.275200
  12504  12518  12523     1   109.5600471 388.275200
  12505  12504  12506     1   109.5600471 388.275200
  12505  12508  12512     1   109.5600471 388.275200
  12505  12517  12520     1   107.2600461 396.643200
  12506  12504  12518     1   109.5600471 388.275200
  12506  12504  12526     1   109.7800468 425.094400
  12507  12505  12508     1   109.5600471 388.275200
  12507  12505  12517     1   110.2600474 425.931200
  12508  12509  12511     1   109.5600471 388.275200
  12508  12516  12519     1   107.2600461 396.643200
  12509  12508  12512     1   109.5600471 388.275200
  12509  12510  12513     1   110.2200475 386.601600
  12509  12515  12521     1   107.2600461 396.643200
  12510  12509  12511     1   109.5600471 388.275200
  12511  12509  12515     1   110.2600474 425.931200
  12512  12508  12516     1   110.2600474 425.931200
  12513  12510  12514     1   109.5800467 425.931200
  12513  12510  12526     1   109.5800467 425.931200
  12518  12524  12525     1   107.2600461 396.643200
  12522  12518  12524     1   110.2600474 425.931200
  12522  12518  12523     1   108.4600466 328.025600
  12523  12518  12524     1   110.2600474 425.931200
  12527  12528  12530     1   109.5600471 388.275200
  12527  12541  12545     1   109.5600471 388.275200
  12527  12541  12546     1   109.5600471 388.275200
  12528  12531  12535     1   109.5600471 388.275200
  12528  12540  12543     1   107.2600461 396.643200
  12528  12527  12529     1   109.5600471 388.275200
  12529  12527  12541     1   109.5600471 388.275200
  12529  12527  12549     1   109.7800468 425.094400
  12530  12528  12531     1   109.5600471 388.275200
  12530  12528  12540     1   110.2600474 425.931200
  12531  12532  12534     1   109.5600471 388.275200
  12531  12539  12542     1   107.2600461 396.643200
  12532  12533  12536     1   110.2200475 386.601600
  12532  12538  12544     1   107.2600461 396.643200
  12532  12531  12535     1   109.5600471 388.275200
  12533  12532  12534     1   109.5600471 388.275200
  12534  12532  12538     1   110.2600474 425.931200
  12535  12531  12539     1   110.2600474 425.931200
  12536  12533  12537     1   109.5800467 425.931200
  12536  12533  12549     1   109.5800467 425.931200
  12541  12547  12548     1   107.2600461 396.643200
  12545  12541  12547     1   110.2600474 425.931200
  12545  12541  12546     1   108.4600466 328.025600
  12546  12541  12547     1   110.2600474 425.931200
  12550  12551  12553     1   109.5600471 388.275200
  12550  12564  12568     1   109.5600471 388.275200
  12550  12564  12569     1   109.5600471 388.275200
  12551  12550  12552     1   109.5600471 388.275200
  12551  12554  12558     1   109.5600471 388.275200
  12551  12563  12566     1   107.2600461 396.643200
  12552  12550  12564     1   109.5600471 388.275200
  12552  12550  12572     1   109.7800468 425.094400
  12553  12551  12554     1   109.5600471 388.275200
  12553  12551  12563     1   110.2600474 425.931200
  12554  12555  12557     1   109.5600471 388.275200
  12554  12562  12565     1   107.2600461 396.643200
  12555  12554  12558     1   109.5600471 388.275200
  12555  12556  12559     1   110.2200475 386.601600
  12555  12561  12567     1   107.2600461 396.643200
  12556  12555  12557     1   109.5600471 388.275200
  12557  12555  12561     1   110.2600474 425.931200
  12558  12554  12562     1   110.2600474 425.931200
  12559  12556  12560     1   109.5800467 425.931200
  12559  12556  12572     1   109.5800467 425.931200
  12564  12570  12571     1   107.2600461 396.643200
  12568  12564  12570     1   110.2600474 425.931200
  12568  12564  12569     1   108.4600466 328.025600
  12569  12564  12570     1   110.2600474 425.931200
  12573  12574  12576     1   109.5600471 388.275200
  12573  12587  12591     1   109.5600471 388.275200
  12573  12587  12592     1   109.5600471 388.275200
  12574  12577  12581     1   109.5600471 388.275200
  12574  12586  12589     1   107.2600461 396.643200
  12574  12573  12575     1   109.5600471 388.275200
  12575  12573  12587     1   109.5600471 388.275200
  12575  12573  12595     1   109.7800468 425.094400
  12576  12574  12577     1   109.5600471 388.275200
  12576  12574  12586     1   110.2600474 425.931200
  12577  12578  12580     1   109.5600471 388.275200
  12577  12585  12588     1   107.2600461 396.643200
  12578  12579  12582     1   110.2200475 386.601600
  12578  12584  12590     1   107.2600461 396.643200
  12578  12577  12581     1   109.5600471 388.275200
  12579  12578  12580     1   109.5600471 388.275200
  12580  12578  12584     1   110.2600474 425.931200
  12581  12577  12585     1   110.2600474 425.931200
  12582  12579  12583     1   109.5800467 425.931200
  12582  12579  12595     1   109.5800467 425.931200
  12587  12593  12594     1   107.2600461 396.643200
  12591  12587  12593     1   110.2600474 425.931200
  12591  12587  12592     1   108.4600466 328.025600
  12592  12587  12593     1   110.2600474 425.931200
  12596  12597  12599     1   109.5600471 388.275200
  12596  12610  12614     1   109.5600471 388.275200
  12596  12610  12615     1   109.5600471 388.275200
  12597  12596  12598     1   109.5600471 388.275200
  12597  12600  12604     1   109.5600471 388.275200
  12597  12609  12612     1   107.2600461 396.643200
  12598  12596  12610     1   109.5600471 388.275200
  12598  12596  12618     1   109.7800468 425.094400
  12599  12597  12600     1   109.5600471 388.275200
  12599  12597  12609     1   110.2600474 425.931200
  12600  12601  12603     1   109.5600471 388.275200
  12600  12608  12611     1   107.2600461 396.643200
  12601  12600  12604     1   109.5600471 388.275200
  12601  12602  12605     1   110.2200475 386.601600
  12601  12607  12613     1   107.2600461 396.643200
  12602  12601  12603     1   109.5600471 388.275200
  12603  12601  12607     1   110.2600474 425.931200
  12604  12600  12608     1   110.2600474 425.931200
  12605  12602  12606     1   109.5800467 425.931200
  12605  12602  12618     1   109.5800467 425.931200
  12610  12616  12617     1   107.2600461 396.643200
  12614  12610  12616     1   110.2600474 425.931200
  12614  12610  12615     1   108.4600466 328.025600
  12615  12610  12616     1   110.2600474 425.931200
  12619  12620  12622     1   109.5600471 388.275200
  12619  12633  12637     1   109.5600471 388.275200
  12619  12633  12638     1   109.5600471 388.275200
  12620  12623  12627     1   109.5600471 388.275200
  12620  12632  12635     1   107.2600461 396.643200
  12620  12619  12621     1   109.5600471 388.275200
  12621  12619  12633     1   109.5600471 388.275200
  12621  12619  12641     1   109.7800468 425.094400
  12622  12620  12623     1   109.5600471 388.275200
  12622  12620  12632     1   110.2600474 425.931200
  12623  12624  12626     1   109.5600471 388.275200
  12623  12631  12634     1   107.2600461 396.643200
  12624  12625  12628     1   110.2200475 386.601600
  12624  12630  12636     1   107.2600461 396.643200
  12624  12623  12627     1   109.5600471 388.275200
  12625  12624  12626     1   109.5600471 388.275200
  12626  12624  12630     1   110.2600474 425.931200
  12627  12623  12631     1   110.2600474 425.931200
  12628  12625  12629     1   109.5800467 425.931200
  12628  12625  12641     1   109.5800467 425.931200
  12633  12639  12640     1   107.2600461 396.643200
  12637  12633  12639     1   110.2600474 425.931200
  12637  12633  12638     1   108.4600466 328.025600
  12638  12633  12639     1   110.2600474 425.931200
  12642  12643  12645     1   109.5600471 388.275200
  12642  12656  12660     1   109.5600471 388.275200
  12642  12656  12661     1   109.5600471 388.275200
  12643  12642  12644     1   109.5600471 388.275200
  12643  12646  12650     1   109.5600471 388.275200
  12643  12655  12658     1   107.2600461 396.643200
  12644  12642  12656     1   109.5600471 388.275200
  12644  12642  12664     1   109.7800468 425.094400
  12645  12643  12646     1   109.5600471 388.275200
  12645  12643  12655     1   110.2600474 425.931200
  12646  12647  12649     1   109.5600471 388.275200
  12646  12654  12657     1   107.2600461 396.643200
  12647  12646  12650     1   109.5600471 388.275200
  12647  12648  12651     1   110.2200475 386.601600
  12647  12653  12659     1   107.2600461 396.643200
  12648  12647  12649     1   109.5600471 388.275200
  12649  12647  12653     1   110.2600474 425.931200
  12650  12646  12654     1   110.2600474 425.931200
  12651  12648  12652     1   109.5800467 425.931200
  12651  12648  12664     1   109.5800467 425.931200
  12656  12662  12663     1   107.2600461 396.643200
  12660  12656  12662     1   110.2600474 425.931200
  12660  12656  12661     1   108.4600466 328.025600
  12661  12656  12662     1   110.2600474 425.931200
  12665  12666  12668     1   109.5600471 388.275200
  12665  12679  12683     1   109.5600471 388.275200
  12665  12679  12684     1   109.5600471 388.275200
  12666  12669  12673     1   109.5600471 388.275200
  12666  12678  12681     1   107.2600461 396.643200
  12666  12665  12667     1   109.5600471 388.275200
  12667  12665  12679     1   109.5600471 388.275200
  12667  12665  12687     1   109.7800468 425.094400
  12668  12666  12669     1   109.5600471 388.275200
  12668  12666  12678     1   110.2600474 425.931200
  12669  12670  12672     1   109.5600471 388.275200
  12669  12677  12680     1   107.2600461 396.643200
  12670  12671  12674     1   110.2200475 386.601600
  12670  12676  12682     1   107.2600461 396.643200
  12670  12669  12673     1   109.5600471 388.275200
  12671  12670  12672     1   109.5600471 388.275200
  12672  12670  12676     1   110.2600474 425.931200
  12673  12669  12677     1   110.2600474 425.931200
  12674  12671  12675     1   109.5800467 425.931200
  12674  12671  12687     1   109.5800467 425.931200
  12679  12685  12686     1   107.2600461 396.643200
  12683  12679  12685     1   110.2600474 425.931200
  12683  12679  12684     1   108.4600466 328.025600
  12684  12679  12685     1   110.2600474 425.931200
  12688  12689  12691     1   109.5600471 388.275200
  12688  12702  12706     1   109.5600471 388.275200
  12688  12702  12707     1   109.5600471 388.275200
  12689  12688  12690     1   109.5600471 388.275200
  12689  12692  12696     1   109.5600471 388.275200
  12689  12701  12704     1   107.2600461 396.643200
  12690  12688  12702     1   109.5600471 388.275200
  12690  12688  12710     1   109.7800468 425.094400
  12691  12689  12692     1   109.5600471 388.275200
  12691  12689  12701     1   110.2600474 425.931200
  12692  12693  12695     1   109.5600471 388.275200
  12692  12700  12703     1   107.2600461 396.643200
  12693  12692  12696     1   109.5600471 388.275200
  12693  12694  12697     1   110.2200475 386.601600
  12693  12699  12705     1   107.2600461 396.643200
  12694  12693  12695     1   109.5600471 388.275200
  12695  12693  12699     1   110.2600474 425.931200
  12696  12692  12700     1   110.2600474 425.931200
  12697  12694  12698     1   109.5800467 425.931200
  12697  12694  12710     1   109.5800467 425.931200
  12702  12708  12709     1   107.2600461 396.643200
  12706  12702  12708     1   110.2600474 425.931200
  12706  12702  12707     1   108.4600466 328.025600
  12707  12702  12708     1   110.2600474 425.931200
  12711  12712  12714     1   109.5600471 388.275200
  12711  12725  12729     1   109.5600471 388.275200
  12711  12725  12730     1   109.5600471 388.275200
  12712  12715  12719     1   109.5600471 388.275200
  12712  12724  12727     1   107.2600461 396.643200
  12712  12711  12713     1   109.5600471 388.275200
  12713  12711  12725     1   109.5600471 388.275200
  12713  12711  12733     1   109.7800468 425.094400
  12714  12712  12715     1   109.5600471 388.275200
  12714  12712  12724     1   110.2600474 425.931200
  12715  12716  12718     1   109.5600471 388.275200
  12715  12723  12726     1   107.2600461 396.643200
  12716  12717  12720     1   110.2200475 386.601600
  12716  12722  12728     1   107.2600461 396.643200
  12716  12715  12719     1   109.5600471 388.275200
  12717  12716  12718     1   109.5600471 388.275200
  12718  12716  12722     1   110.2600474 425.931200
  12719  12715  12723     1   110.2600474 425.931200
  12720  12717  12721     1   109.5800467 425.931200
  12720  12717  12733     1   109.5800467 425.931200
  12725  12731  12732     1   107.2600461 396.643200
  12729  12725  12731     1   110.2600474 425.931200
  12729  12725  12730     1   108.4600466 328.025600
  12730  12725  12731     1   110.2600474 425.931200
  12734  12735  12737     1   109.5600471 388.275200
  12734  12748  12752     1   109.5600471 388.275200
  12734  12748  12753     1   109.5600471 388.275200
  12735  12734  12736     1   109.5600471 388.275200
  12735  12738  12742     1   109.5600471 388.275200
  12735  12747  12750     1   107.2600461 396.643200
  12736  12734  12748     1   109.5600471 388.275200
  12736  12734  12756     1   109.7800468 425.094400
  12737  12735  12738     1   109.5600471 388.275200
  12737  12735  12747     1   110.2600474 425.931200
  12738  12739  12741     1   109.5600471 388.275200
  12738  12746  12749     1   107.2600461 396.643200
  12739  12738  12742     1   109.5600471 388.275200
  12739  12740  12743     1   110.2200475 386.601600
  12739  12745  12751     1   107.2600461 396.643200
  12740  12739  12741     1   109.5600471 388.275200
  12741  12739  12745     1   110.2600474 425.931200
  12742  12738  12746     1   110.2600474 425.931200
  12743  12740  12744     1   109.5800467 425.931200
  12743  12740  12756     1   109.5800467 425.931200
  12748  12754  12755     1   107.2600461 396.643200
  12752  12748  12754     1   110.2600474 425.931200
  12752  12748  12753     1   108.4600466 328.025600
  12753  12748  12754     1   110.2600474 425.931200
  12757  12758  12760     1   109.5600471 388.275200
  12757  12771  12775     1   109.5600471 388.275200
  12757  12771  12776     1   109.5600471 388.275200
  12758  12761  12765     1   109.5600471 388.275200
  12758  12770  12773     1   107.2600461 396.643200
  12758  12757  12759     1   109.5600471 388.275200
  12759  12757  12771     1   109.5600471 388.275200
  12759  12757  12779     1   109.7800468 425.094400
  12760  12758  12761     1   109.5600471 388.275200
  12760  12758  12770     1   110.2600474 425.931200
  12761  12762  12764     1   109.5600471 388.275200
  12761  12769  12772     1   107.2600461 396.643200
  12762  12763  12766     1   110.2200475 386.601600
  12762  12768  12774     1   107.2600461 396.643200
  12762  12761  12765     1   109.5600471 388.275200
  12763  12762  12764     1   109.5600471 388.275200
  12764  12762  12768     1   110.2600474 425.931200
  12765  12761  12769     1   110.2600474 425.931200
  12766  12763  12767     1   109.5800467 425.931200
  12766  12763  12779     1   109.5800467 425.931200
  12771  12777  12778     1   107.2600461 396.643200
  12775  12771  12777     1   110.2600474 425.931200
  12775  12771  12776     1   108.4600466 328.025600
  12776  12771  12777     1   110.2600474 425.931200
  12780  12781  12783     1   109.5600471 388.275200
  12780  12794  12798     1   109.5600471 388.275200
  12780  12794  12799     1   109.5600471 388.275200
  12781  12780  12782     1   109.5600471 388.275200
  12781  12784  12788     1   109.5600471 388.275200
  12781  12793  12796     1   107.2600461 396.643200
  12782  12780  12794     1   109.5600471 388.275200
  12782  12780  12802     1   109.7800468 425.094400
  12783  12781  12784     1   109.5600471 388.275200
  12783  12781  12793     1   110.2600474 425.931200
  12784  12785  12787     1   109.5600471 388.275200
  12784  12792  12795     1   107.2600461 396.643200
  12785  12784  12788     1   109.5600471 388.275200
  12785  12786  12789     1   110.2200475 386.601600
  12785  12791  12797     1   107.2600461 396.643200
  12786  12785  12787     1   109.5600471 388.275200
  12787  12785  12791     1   110.2600474 425.931200
  12788  12784  12792     1   110.2600474 425.931200
  12789  12786  12790     1   109.5800467 425.931200
  12789  12786  12802     1   109.5800467 425.931200
  12794  12800  12801     1   107.2600461 396.643200
  12798  12794  12800     1   110.2600474 425.931200
  12798  12794  12799     1   108.4600466 328.025600
  12799  12794  12800     1   110.2600474 425.931200
  12803  12804  12806     1   109.5600471 388.275200
  12803  12817  12821     1   109.5600471 388.275200
  12803  12817  12822     1   109.5600471 388.275200
  12804  12807  12811     1   109.5600471 388.275200
  12804  12816  12819     1   107.2600461 396.643200
  12804  12803  12805     1   109.5600471 388.275200
  12805  12803  12817     1   109.5600471 388.275200
  12805  12803  12825     1   109.7800468 425.094400
  12806  12804  12807     1   109.5600471 388.275200
  12806  12804  12816     1   110.2600474 425.931200
  12807  12808  12810     1   109.5600471 388.275200
  12807  12815  12818     1   107.2600461 396.643200
  12808  12809  12812     1   110.2200475 386.601600
  12808  12814  12820     1   107.2600461 396.643200
  12808  12807  12811     1   109.5600471 388.275200
  12809  12808  12810     1   109.5600471 388.275200
  12810  12808  12814     1   110.2600474 425.931200
  12811  12807  12815     1   110.2600474 425.931200
  12812  12809  12813     1   109.5800467 425.931200
  12812  12809  12825     1   109.5800467 425.931200
  12817  12823  12824     1   107.2600461 396.643200
  12821  12817  12823     1   110.2600474 425.931200
  12821  12817  12822     1   108.4600466 328.025600
  12822  12817  12823     1   110.2600474 425.931200
  12826  12827  12829     1   109.5600471 388.275200
  12826  12840  12844     1   109.5600471 388.275200
  12826  12840  12845     1   109.5600471 388.275200
  12827  12826  12828     1   109.5600471 388.275200
  12827  12830  12834     1   109.5600471 388.275200
  12827  12839  12842     1   107.2600461 396.643200
  12828  12826  12840     1   109.5600471 388.275200
  12828  12826  12848     1   109.7800468 425.094400
  12829  12827  12830     1   109.5600471 388.275200
  12829  12827  12839     1   110.2600474 425.931200
  12830  12831  12833     1   109.5600471 388.275200
  12830  12838  12841     1   107.2600461 396.643200
  12831  12830  12834     1   109.5600471 388.275200
  12831  12832  12835     1   110.2200475 386.601600
  12831  12837  12843     1   107.2600461 396.643200
  12832  12831  12833     1   109.5600471 388.275200
  12833  12831  12837     1   110.2600474 425.931200
  12834  12830  12838     1   110.2600474 425.931200
  12835  12832  12836     1   109.5800467 425.931200
  12835  12832  12848     1   109.5800467 425.931200
  12840  12846  12847     1   107.2600461 396.643200
  12844  12840  12846     1   110.2600474 425.931200
  12844  12840  12845     1   108.4600466 328.025600
  12845  12840  12846     1   110.2600474 425.931200
  12849  12850  12852     1   109.5600471 388.275200
  12849  12863  12867     1   109.5600471 388.275200
  12849  12863  12868     1   109.5600471 388.275200
  12850  12853  12857     1   109.5600471 388.275200
  12850  12862  12865     1   107.2600461 396.643200
  12850  12849  12851     1   109.5600471 388.275200
  12851  12849  12863     1   109.5600471 388.275200
  12851  12849  12871     1   109.7800468 425.094400
  12852  12850  12853     1   109.5600471 388.275200
  12852  12850  12862     1   110.2600474 425.931200
  12853  12854  12856     1   109.5600471 388.275200
  12853  12861  12864     1   107.2600461 396.643200
  12854  12855  12858     1   110.2200475 386.601600
  12854  12860  12866     1   107.2600461 396.643200
  12854  12853  12857     1   109.5600471 388.275200
  12855  12854  12856     1   109.5600471 388.275200
  12856  12854  12860     1   110.2600474 425.931200
  12857  12853  12861     1   110.2600474 425.931200
  12858  12855  12859     1   109.5800467 425.931200
  12858  12855  12871     1   109.5800467 425.931200
  12863  12869  12870     1   107.2600461 396.643200
  12867  12863  12869     1   110.2600474 425.931200
  12867  12863  12868     1   108.4600466 328.025600
  12868  12863  12869     1   110.2600474 425.931200
  12872  12873  12875     1   109.5600471 388.275200
  12872  12886  12890     1   109.5600471 388.275200
  12872  12886  12891     1   109.5600471 388.275200
  12873  12872  12874     1   109.5600471 388.275200
  12873  12876  12880     1   109.5600471 388.275200
  12873  12885  12888     1   107.2600461 396.643200
  12874  12872  12886     1   109.5600471 388.275200
  12874  12872  12894     1   109.7800468 425.094400
  12875  12873  12876     1   109.5600471 388.275200
  12875  12873  12885     1   110.2600474 425.931200
  12876  12877  12879     1   109.5600471 388.275200
  12876  12884  12887     1   107.2600461 396.643200
  12877  12876  12880     1   109.5600471 388.275200
  12877  12878  12881     1   110.2200475 386.601600
  12877  12883  12889     1   107.2600461 396.643200
  12878  12877  12879     1   109.5600471 388.275200
  12879  12877  12883     1   110.2600474 425.931200
  12880  12876  12884     1   110.2600474 425.931200
  12881  12878  12882     1   109.5800467 425.931200
  12881  12878  12894     1   109.5800467 425.931200
  12886  12892  12893     1   107.2600461 396.643200
  12890  12886  12892     1   110.2600474 425.931200
  12890  12886  12891     1   108.4600466 328.025600
  12891  12886  12892     1   110.2600474 425.931200
  12895  12896  12898     1   109.5600471 388.275200
  12895  12909  12913     1   109.5600471 388.275200
  12895  12909  12914     1   109.5600471 388.275200
  12896  12899  12903     1   109.5600471 388.275200
  12896  12908  12911     1   107.2600461 396.643200
  12896  12895  12897     1   109.5600471 388.275200
  12897  12895  12909     1   109.5600471 388.275200
  12897  12895  12917     1   109.7800468 425.094400
  12898  12896  12899     1   109.5600471 388.275200
  12898  12896  12908     1   110.2600474 425.931200
  12899  12900  12902     1   109.5600471 388.275200
  12899  12907  12910     1   107.2600461 396.643200
  12900  12901  12904     1   110.2200475 386.601600
  12900  12906  12912     1   107.2600461 396.643200
  12900  12899  12903     1   109.5600471 388.275200
  12901  12900  12902     1   109.5600471 388.275200
  12902  12900  12906     1   110.2600474 425.931200
  12903  12899  12907     1   110.2600474 425.931200
  12904  12901  12905     1   109.5800467 425.931200
  12904  12901  12917     1   109.5800467 425.931200
  12909  12915  12916     1   107.2600461 396.643200
  12913  12909  12915     1   110.2600474 425.931200
  12913  12909  12914     1   108.4600466 328.025600
  12914  12909  12915     1   110.2600474 425.931200
  12918  12919  12921     1   109.5600471 388.275200
  12918  12932  12936     1   109.5600471 388.275200
  12918  12932  12937     1   109.5600471 388.275200
  12919  12918  12920     1   109.5600471 388.275200
  12919  12922  12926     1   109.5600471 388.275200
  12919  12931  12934     1   107.2600461 396.643200
  12920  12918  12932     1   109.5600471 388.275200
  12920  12918  12940     1   109.7800468 425.094400
  12921  12919  12922     1   109.5600471 388.275200
  12921  12919  12931     1   110.2600474 425.931200
  12922  12923  12925     1   109.5600471 388.275200
  12922  12930  12933     1   107.2600461 396.643200
  12923  12922  12926     1   109.5600471 388.275200
  12923  12924  12927     1   110.2200475 386.601600
  12923  12929  12935     1   107.2600461 396.643200
  12924  12923  12925     1   109.5600471 388.275200
  12925  12923  12929     1   110.2600474 425.931200
  12926  12922  12930     1   110.2600474 425.931200
  12927  12924  12928     1   109.5800467 425.931200
  12927  12924  12940     1   109.5800467 425.931200
  12932  12938  12939     1   107.2600461 396.643200
  12936  12932  12938     1   110.2600474 425.931200
  12936  12932  12937     1   108.4600466 328.025600
  12937  12932  12938     1   110.2600474 425.931200
  12941  12942  12944     1   109.5600471 388.275200
  12941  12955  12959     1   109.5600471 388.275200
  12941  12955  12960     1   109.5600471 388.275200
  12942  12945  12949     1   109.5600471 388.275200
  12942  12954  12957     1   107.2600461 396.643200
  12942  12941  12943     1   109.5600471 388.275200
  12943  12941  12955     1   109.5600471 388.275200
  12943  12941  12963     1   109.7800468 425.094400
  12944  12942  12945     1   109.5600471 388.275200
  12944  12942  12954     1   110.2600474 425.931200
  12945  12946  12948     1   109.5600471 388.275200
  12945  12953  12956     1   107.2600461 396.643200
  12946  12947  12950     1   110.2200475 386.601600
  12946  12952  12958     1   107.2600461 396.643200
  12946  12945  12949     1   109.5600471 388.275200
  12947  12946  12948     1   109.5600471 388.275200
  12948  12946  12952     1   110.2600474 425.931200
  12949  12945  12953     1   110.2600474 425.931200
  12950  12947  12951     1   109.5800467 425.931200
  12950  12947  12963     1   109.5800467 425.931200
  12955  12961  12962     1   107.2600461 396.643200
  12959  12955  12961     1   110.2600474 425.931200
  12959  12955  12960     1   108.4600466 328.025600
  12960  12955  12961     1   110.2600474 425.931200
  12964  12965  12967     1   109.5600471 388.275200
  12964  12978  12982     1   109.5600471 388.275200
  12964  12978  12983     1   109.5600471 388.275200
  12965  12964  12966     1   109.5600471 388.275200
  12965  12968  12972     1   109.5600471 388.275200
  12965  12977  12980     1   107.2600461 396.643200
  12966  12964  12978     1   109.5600471 388.275200
  12966  12964  12986     1   109.7800468 425.094400
  12967  12965  12968     1   109.5600471 388.275200
  12967  12965  12977     1   110.2600474 425.931200
  12968  12969  12971     1   109.5600471 388.275200
  12968  12976  12979     1   107.2600461 396.643200
  12969  12968  12972     1   109.5600471 388.275200
  12969  12970  12973     1   110.2200475 386.601600
  12969  12975  12981     1   107.2600461 396.643200
  12970  12969  12971     1   109.5600471 388.275200
  12971  12969  12975     1   110.2600474 425.931200
  12972  12968  12976     1   110.2600474 425.931200
  12973  12970  12974     1   109.5800467 425.931200
  12973  12970  12986     1   109.5800467 425.931200
  12978  12984  12985     1   107.2600461 396.643200
  12982  12978  12984     1   110.2600474 425.931200
  12982  12978  12983     1   108.4600466 328.025600
  12983  12978  12984     1   110.2600474 425.931200
  12987  12988  12990     1   109.5600471 388.275200
  12987  13001  13005     1   109.5600471 388.275200
  12987  13001  13006     1   109.5600471 388.275200
  12988  12991  12995     1   109.5600471 388.275200
  12988  13000  13003     1   107.2600461 396.643200
  12988  12987  12989     1   109.5600471 388.275200
  12989  12987  13001     1   109.5600471 388.275200
  12989  12987  13009     1   109.7800468 425.094400
  12990  12988  12991     1   109.5600471 388.275200
  12990  12988  13000     1   110.2600474 425.931200
  12991  12992  12994     1   109.5600471 388.275200
  12991  12999  13002     1   107.2600461 396.643200
  12992  12993  12996     1   110.2200475 386.601600
  12992  12998  13004     1   107.2600461 396.643200
  12992  12991  12995     1   109.5600471 388.275200
  12993  12992  12994     1   109.5600471 388.275200
  12994  12992  12998     1   110.2600474 425.931200
  12995  12991  12999     1   110.2600474 425.931200
  12996  12993  12997     1   109.5800467 425.931200
  12996  12993  13009     1   109.5800467 425.931200
  13001  13007  13008     1   107.2600461 396.643200
  13005  13001  13007     1   110.2600474 425.931200
  13005  13001  13006     1   108.4600466 328.025600
  13006  13001  13007     1   110.2600474 425.931200
  13010  13011  13013     1   109.5600471 388.275200
  13010  13024  13028     1   109.5600471 388.275200
  13010  13024  13029     1   109.5600471 388.275200
  13011  13010  13012     1   109.5600471 388.275200
  13011  13014  13018     1   109.5600471 388.275200
  13011  13023  13026     1   107.2600461 396.643200
  13012  13010  13024     1   109.5600471 388.275200
  13012  13010  13032     1   109.7800468 425.094400
  13013  13011  13014     1   109.5600471 388.275200
  13013  13011  13023     1   110.2600474 425.931200
  13014  13015  13017     1   109.5600471 388.275200
  13014  13022  13025     1   107.2600461 396.643200
  13015  13014  13018     1   109.5600471 388.275200
  13015  13016  13019     1   110.2200475 386.601600
  13015  13021  13027     1   107.2600461 396.643200
  13016  13015  13017     1   109.5600471 388.275200
  13017  13015  13021     1   110.2600474 425.931200
  13018  13014  13022     1   110.2600474 425.931200
  13019  13016  13020     1   109.5800467 425.931200
  13019  13016  13032     1   109.5800467 425.931200
  13024  13030  13031     1   107.2600461 396.643200
  13028  13024  13030     1   110.2600474 425.931200
  13028  13024  13029     1   108.4600466 328.025600
  13029  13024  13030     1   110.2600474 425.931200
  13033  13034  13036     1   109.5600471 388.275200
  13033  13047  13051     1   109.5600471 388.275200
  13033  13047  13052     1   109.5600471 388.275200
  13034  13037  13041     1   109.5600471 388.275200
  13034  13046  13049     1   107.2600461 396.643200
  13034  13033  13035     1   109.5600471 388.275200
  13035  13033  13047     1   109.5600471 388.275200
  13035  13033  13055     1   109.7800468 425.094400
  13036  13034  13037     1   109.5600471 388.275200
  13036  13034  13046     1   110.2600474 425.931200
  13037  13038  13040     1   109.5600471 388.275200
  13037  13045  13048     1   107.2600461 396.643200
  13038  13039  13042     1   110.2200475 386.601600
  13038  13044  13050     1   107.2600461 396.643200
  13038  13037  13041     1   109.5600471 388.275200
  13039  13038  13040     1   109.5600471 388.275200
  13040  13038  13044     1   110.2600474 425.931200
  13041  13037  13045     1   110.2600474 425.931200
  13042  13039  13043     1   109.5800467 425.931200
  13042  13039  13055     1   109.5800467 425.931200
  13047  13053  13054     1   107.2600461 396.643200
  13051  13047  13053     1   110.2600474 425.931200
  13051  13047  13052     1   108.4600466 328.025600
  13052  13047  13053     1   110.2600474 425.931200
  13056  13057  13059     1   109.5600471 388.275200
  13056  13070  13074     1   109.5600471 388.275200
  13056  13070  13075     1   109.5600471 388.275200
  13057  13056  13058     1   109.5600471 388.275200
  13057  13060  13064     1   109.5600471 388.275200
  13057  13069  13072     1   107.2600461 396.643200
  13058  13056  13070     1   109.5600471 388.275200
  13058  13056  13078     1   109.7800468 425.094400
  13059  13057  13060     1   109.5600471 388.275200
  13059  13057  13069     1   110.2600474 425.931200
  13060  13061  13063     1   109.5600471 388.275200
  13060  13068  13071     1   107.2600461 396.643200
  13061  13060  13064     1   109.5600471 388.275200
  13061  13062  13065     1   110.2200475 386.601600
  13061  13067  13073     1   107.2600461 396.643200
  13062  13061  13063     1   109.5600471 388.275200
  13063  13061  13067     1   110.2600474 425.931200
  13064  13060  13068     1   110.2600474 425.931200
  13065  13062  13066     1   109.5800467 425.931200
  13065  13062  13078     1   109.5800467 425.931200
  13070  13076  13077     1   107.2600461 396.643200
  13074  13070  13076     1   110.2600474 425.931200
  13074  13070  13075     1   108.4600466 328.025600
  13075  13070  13076     1   110.2600474 425.931200
  13079  13080  13082     1   109.5600471 388.275200
  13079  13093  13097     1   109.5600471 388.275200
  13079  13093  13098     1   109.5600471 388.275200
  13080  13083  13087     1   109.5600471 388.275200
  13080  13092  13095     1   107.2600461 396.643200
  13080  13079  13081     1   109.5600471 388.275200
  13081  13079  13093     1   109.5600471 388.275200
  13081  13079  13101     1   109.7800468 425.094400
  13082  13080  13083     1   109.5600471 388.275200
  13082  13080  13092     1   110.2600474 425.931200
  13083  13084  13086     1   109.5600471 388.275200
  13083  13091  13094     1   107.2600461 396.643200
  13084  13085  13088     1   110.2200475 386.601600
  13084  13090  13096     1   107.2600461 396.643200
  13084  13083  13087     1   109.5600471 388.275200
  13085  13084  13086     1   109.5600471 388.275200
  13086  13084  13090     1   110.2600474 425.931200
  13087  13083  13091     1   110.2600474 425.931200
  13088  13085  13089     1   109.5800467 425.931200
  13088  13085  13101     1   109.5800467 425.931200
  13093  13099  13100     1   107.2600461 396.643200
  13097  13093  13099     1   110.2600474 425.931200
  13097  13093  13098     1   108.4600466 328.025600
  13098  13093  13099     1   110.2600474 425.931200
  13102  13103  13105     1   109.5600471 388.275200
  13102  13116  13120     1   109.5600471 388.275200
  13102  13116  13121     1   109.5600471 388.275200
  13103  13102  13104     1   109.5600471 388.275200
  13103  13106  13110     1   109.5600471 388.275200
  13103  13115  13118     1   107.2600461 396.643200
  13104  13102  13116     1   109.5600471 388.275200
  13104  13102  13124     1   109.7800468 425.094400
  13105  13103  13106     1   109.5600471 388.275200
  13105  13103  13115     1   110.2600474 425.931200
  13106  13107  13109     1   109.5600471 388.275200
  13106  13114  13117     1   107.2600461 396.643200
  13107  13106  13110     1   109.5600471 388.275200
  13107  13108  13111     1   110.2200475 386.601600
  13107  13113  13119     1   107.2600461 396.643200
  13108  13107  13109     1   109.5600471 388.275200
  13109  13107  13113     1   110.2600474 425.931200
  13110  13106  13114     1   110.2600474 425.931200
  13111  13108  13112     1   109.5800467 425.931200
  13111  13108  13124     1   109.5800467 425.931200
  13116  13122  13123     1   107.2600461 396.643200
  13120  13116  13122     1   110.2600474 425.931200
  13120  13116  13121     1   108.4600466 328.025600
  13121  13116  13122     1   110.2600474 425.931200
  13125  13126  13128     1   109.5600471 388.275200
  13125  13139  13143     1   109.5600471 388.275200
  13125  13139  13144     1   109.5600471 388.275200
  13126  13129  13133     1   109.5600471 388.275200
  13126  13138  13141     1   107.2600461 396.643200
  13126  13125  13127     1   109.5600471 388.275200
  13127  13125  13139     1   109.5600471 388.275200
  13127  13125  13147     1   109.7800468 425.094400
  13128  13126  13129     1   109.5600471 388.275200
  13128  13126  13138     1   110.2600474 425.931200
  13129  13130  13132     1   109.5600471 388.275200
  13129  13137  13140     1   107.2600461 396.643200
  13130  13131  13134     1   110.2200475 386.601600
  13130  13136  13142     1   107.2600461 396.643200
  13130  13129  13133     1   109.5600471 388.275200
  13131  13130  13132     1   109.5600471 388.275200
  13132  13130  13136     1   110.2600474 425.931200
  13133  13129  13137     1   110.2600474 425.931200
  13134  13131  13135     1   109.5800467 425.931200
  13134  13131  13147     1   109.5800467 425.931200
  13139  13145  13146     1   107.2600461 396.643200
  13143  13139  13145     1   110.2600474 425.931200
  13143  13139  13144     1   108.4600466 328.025600
  13144  13139  13145     1   110.2600474 425.931200
  13148  13149  13151     1   109.5600471 388.275200
  13148  13162  13166     1   109.5600471 388.275200
  13148  13162  13167     1   109.5600471 388.275200
  13149  13148  13150     1   109.5600471 388.275200
  13149  13152  13156     1   109.5600471 388.275200
  13149  13161  13164     1   107.2600461 396.643200
  13150  13148  13162     1   109.5600471 388.275200
  13150  13148  13170     1   109.7800468 425.094400
  13151  13149  13152     1   109.5600471 388.275200
  13151  13149  13161     1   110.2600474 425.931200
  13152  13153  13155     1   109.5600471 388.275200
  13152  13160  13163     1   107.2600461 396.643200
  13153  13152  13156     1   109.5600471 388.275200
  13153  13154  13157     1   110.2200475 386.601600
  13153  13159  13165     1   107.2600461 396.643200
  13154  13153  13155     1   109.5600471 388.275200
  13155  13153  13159     1   110.2600474 425.931200
  13156  13152  13160     1   110.2600474 425.931200
  13157  13154  13158     1   109.5800467 425.931200
  13157  13154  13170     1   109.5800467 425.931200
  13162  13168  13169     1   107.2600461 396.643200
  13166  13162  13168     1   110.2600474 425.931200
  13166  13162  13167     1   108.4600466 328.025600
  13167  13162  13168     1   110.2600474 425.931200
  13171  13172  13174     1   109.5600471 388.275200
  13171  13185  13189     1   109.5600471 388.275200
  13171  13185  13190     1   109.5600471 388.275200
  13172  13175  13179     1   109.5600471 388.275200
  13172  13184  13187     1   107.2600461 396.643200
  13172  13171  13173     1   109.5600471 388.275200
  13173  13171  13185     1   109.5600471 388.275200
  13173  13171  13193     1   109.7800468 425.094400
  13174  13172  13175     1   109.5600471 388.275200
  13174  13172  13184     1   110.2600474 425.931200
  13175  13176  13178     1   109.5600471 388.275200
  13175  13183  13186     1   107.2600461 396.643200
  13176  13177  13180     1   110.2200475 386.601600
  13176  13182  13188     1   107.2600461 396.643200
  13176  13175  13179     1   109.5600471 388.275200
  13177  13176  13178     1   109.5600471 388.275200
  13178  13176  13182     1   110.2600474 425.931200
  13179  13175  13183     1   110.2600474 425.931200
  13180  13177  13181     1   109.5800467 425.931200
  13180  13177  13193     1   109.5800467 425.931200
  13185  13191  13192     1   107.2600461 396.643200
  13189  13185  13191     1   110.2600474 425.931200
  13189  13185  13190     1   108.4600466 328.025600
  13190  13185  13191     1   110.2600474 425.931200
  13194  13195  13197     1   109.5600471 388.275200
  13194  13208  13212     1   109.5600471 388.275200
  13194  13208  13213     1   109.5600471 388.275200
  13195  13194  13196     1   109.5600471 388.275200
  13195  13198  13202     1   109.5600471 388.275200
  13195  13207  13210     1   107.2600461 396.643200
  13196  13194  13208     1   109.5600471 388.275200
  13196  13194  13216     1   109.7800468 425.094400
  13197  13195  13198     1   109.5600471 388.275200
  13197  13195  13207     1   110.2600474 425.931200
  13198  13199  13201     1   109.5600471 388.275200
  13198  13206  13209     1   107.2600461 396.643200
  13199  13198  13202     1   109.5600471 388.275200
  13199  13200  13203     1   110.2200475 386.601600
  13199  13205  13211     1   107.2600461 396.643200
  13200  13199  13201     1   109.5600471 388.275200
  13201  13199  13205     1   110.2600474 425.931200
  13202  13198  13206     1   110.2600474 425.931200
  13203  13200  13204     1   109.5800467 425.931200
  13203  13200  13216     1   109.5800467 425.931200
  13208  13214  13215     1   107.2600461 396.643200
  13212  13208  13214     1   110.2600474 425.931200
  13212  13208  13213     1   108.4600466 328.025600
  13213  13208  13214     1   110.2600474 425.931200
  13217  13218  13220     1   109.5600471 388.275200
  13217  13231  13235     1   109.5600471 388.275200
  13217  13231  13236     1   109.5600471 388.275200
  13218  13221  13225     1   109.5600471 388.275200
  13218  13230  13233     1   107.2600461 396.643200
  13218  13217  13219     1   109.5600471 388.275200
  13219  13217  13231     1   109.5600471 388.275200
  13219  13217  13239     1   109.7800468 425.094400
  13220  13218  13221     1   109.5600471 388.275200
  13220  13218  13230     1   110.2600474 425.931200
  13221  13222  13224     1   109.5600471 388.275200
  13221  13229  13232     1   107.2600461 396.643200
  13222  13223  13226     1   110.2200475 386.601600
  13222  13228  13234     1   107.2600461 396.643200
  13222  13221  13225     1   109.5600471 388.275200
  13223  13222  13224     1   109.5600471 388.275200
  13224  13222  13228     1   110.2600474 425.931200
  13225  13221  13229     1   110.2600474 425.931200
  13226  13223  13227     1   109.5800467 425.931200
  13226  13223  13239     1   109.5800467 425.931200
  13231  13237  13238     1   107.2600461 396.643200
  13235  13231  13237     1   110.2600474 425.931200
  13235  13231  13236     1   108.4600466 328.025600
  13236  13231  13237     1   110.2600474 425.931200
  13240  13241  13243     1   109.5600471 388.275200
  13240  13254  13258     1   109.5600471 388.275200
  13240  13254  13259     1   109.5600471 388.275200
  13241  13240  13242     1   109.5600471 388.275200
  13241  13244  13248     1   109.5600471 388.275200
  13241  13253  13256     1   107.2600461 396.643200
  13242  13240  13254     1   109.5600471 388.275200
  13242  13240  13262     1   109.7800468 425.094400
  13243  13241  13244     1   109.5600471 388.275200
  13243  13241  13253     1   110.2600474 425.931200
  13244  13245  13247     1   109.5600471 388.275200
  13244  13252  13255     1   107.2600461 396.643200
  13245  13244  13248     1   109.5600471 388.275200
  13245  13246  13249     1   110.2200475 386.601600
  13245  13251  13257     1   107.2600461 396.643200
  13246  13245  13247     1   109.5600471 388.275200
  13247  13245  13251     1   110.2600474 425.931200
  13248  13244  13252     1   110.2600474 425.931200
  13249  13246  13250     1   109.5800467 425.931200
  13249  13246  13262     1   109.5800467 425.931200
  13254  13260  13261     1   107.2600461 396.643200
  13258  13254  13260     1   110.2600474 425.931200
  13258  13254  13259     1   108.4600466 328.025600
  13259  13254  13260     1   110.2600474 425.931200
  13263  13264  13266     1   109.5600471 388.275200
  13263  13277  13281     1   109.5600471 388.275200
  13263  13277  13282     1   109.5600471 388.275200
  13264  13267  13271     1   109.5600471 388.275200
  13264  13276  13279     1   107.2600461 396.643200
  13264  13263  13265     1   109.5600471 388.275200
  13265  13263  13277     1   109.5600471 388.275200
  13265  13263  13285     1   109.7800468 425.094400
  13266  13264  13267     1   109.5600471 388.275200
  13266  13264  13276     1   110.2600474 425.931200
  13267  13268  13270     1   109.5600471 388.275200
  13267  13275  13278     1   107.2600461 396.643200
  13268  13269  13272     1   110.2200475 386.601600
  13268  13274  13280     1   107.2600461 396.643200
  13268  13267  13271     1   109.5600471 388.275200
  13269  13268  13270     1   109.5600471 388.275200
  13270  13268  13274     1   110.2600474 425.931200
  13271  13267  13275     1   110.2600474 425.931200
  13272  13269  13273     1   109.5800467 425.931200
  13272  13269  13285     1   109.5800467 425.931200
  13277  13283  13284     1   107.2600461 396.643200
  13281  13277  13283     1   110.2600474 425.931200
  13281  13277  13282     1   108.4600466 328.025600
  13282  13277  13283     1   110.2600474 425.931200
  13286  13287  13289     1   109.5600471 388.275200
  13286  13300  13304     1   109.5600471 388.275200
  13286  13300  13305     1   109.5600471 388.275200
  13287  13286  13288     1   109.5600471 388.275200
  13287  13290  13294     1   109.5600471 388.275200
  13287  13299  13302     1   107.2600461 396.643200
  13288  13286  13300     1   109.5600471 388.275200
  13288  13286  13308     1   109.7800468 425.094400
  13289  13287  13290     1   109.5600471 388.275200
  13289  13287  13299     1   110.2600474 425.931200
  13290  13291  13293     1   109.5600471 388.275200
  13290  13298  13301     1   107.2600461 396.643200
  13291  13290  13294     1   109.5600471 388.275200
  13291  13292  13295     1   110.2200475 386.601600
  13291  13297  13303     1   107.2600461 396.643200
  13292  13291  13293     1   109.5600471 388.275200
  13293  13291  13297     1   110.2600474 425.931200
  13294  13290  13298     1   110.2600474 425.931200
  13295  13292  13296     1   109.5800467 425.931200
  13295  13292  13308     1   109.5800467 425.931200
  13300  13306  13307     1   107.2600461 396.643200
  13304  13300  13306     1   110.2600474 425.931200
  13304  13300  13305     1   108.4600466 328.025600
  13305  13300  13306     1   110.2600474 425.931200
  13309  13310  13312     1   109.5600471 388.275200
  13309  13323  13327     1   109.5600471 388.275200
  13309  13323  13328     1   109.5600471 388.275200
  13310  13313  13317     1   109.5600471 388.275200
  13310  13322  13325     1   107.2600461 396.643200
  13310  13309  13311     1   109.5600471 388.275200
  13311  13309  13323     1   109.5600471 388.275200
  13311  13309  13331     1   109.7800468 425.094400
  13312  13310  13313     1   109.5600471 388.275200
  13312  13310  13322     1   110.2600474 425.931200
  13313  13314  13316     1   109.5600471 388.275200
  13313  13321  13324     1   107.2600461 396.643200
  13314  13315  13318     1   110.2200475 386.601600
  13314  13320  13326     1   107.2600461 396.643200
  13314  13313  13317     1   109.5600471 388.275200
  13315  13314  13316     1   109.5600471 388.275200
  13316  13314  13320     1   110.2600474 425.931200
  13317  13313  13321     1   110.2600474 425.931200
  13318  13315  13319     1   109.5800467 425.931200
  13318  13315  13331     1   109.5800467 425.931200
  13323  13329  13330     1   107.2600461 396.643200
  13327  13323  13329     1   110.2600474 425.931200
  13327  13323  13328     1   108.4600466 328.025600
  13328  13323  13329     1   110.2600474 425.931200
  13332  13333  13335     1   109.5600471 388.275200
  13332  13346  13350     1   109.5600471 388.275200
  13332  13346  13351     1   109.5600471 388.275200
  13333  13332  13334     1   109.5600471 388.275200
  13333  13336  13340     1   109.5600471 388.275200
  13333  13345  13348     1   107.2600461 396.643200
  13334  13332  13346     1   109.5600471 388.275200
  13334  13332  13354     1   109.7800468 425.094400
  13335  13333  13336     1   109.5600471 388.275200
  13335  13333  13345     1   110.2600474 425.931200
  13336  13337  13339     1   109.5600471 388.275200
  13336  13344  13347     1   107.2600461 396.643200
  13337  13336  13340     1   109.5600471 388.275200
  13337  13338  13341     1   110.2200475 386.601600
  13337  13343  13349     1   107.2600461 396.643200
  13338  13337  13339     1   109.5600471 388.275200
  13339  13337  13343     1   110.2600474 425.931200
  13340  13336  13344     1   110.2600474 425.931200
  13341  13338  13342     1   109.5800467 425.931200
  13341  13338  13354     1   109.5800467 425.931200
  13346  13352  13353     1   107.2600461 396.643200
  13350  13346  13352     1   110.2600474 425.931200
  13350  13346  13351     1   108.4600466 328.025600
  13351  13346  13352     1   110.2600474 425.931200
  13355  13356  13358     1   109.5600471 388.275200
  13355  13369  13373     1   109.5600471 388.275200
  13355  13369  13374     1   109.5600471 388.275200
  13356  13359  13363     1   109.5600471 388.275200
  13356  13368  13371     1   107.2600461 396.643200
  13356  13355  13357     1   109.5600471 388.275200
  13357  13355  13369     1   109.5600471 388.275200
  13357  13355  13377     1   109.7800468 425.094400
  13358  13356  13359     1   109.5600471 388.275200
  13358  13356  13368     1   110.2600474 425.931200
  13359  13360  13362     1   109.5600471 388.275200
  13359  13367  13370     1   107.2600461 396.643200
  13360  13361  13364     1   110.2200475 386.601600
  13360  13366  13372     1   107.2600461 396.643200
  13360  13359  13363     1   109.5600471 388.275200
  13361  13360  13362     1   109.5600471 388.275200
  13362  13360  13366     1   110.2600474 425.931200
  13363  13359  13367     1   110.2600474 425.931200
  13364  13361  13365     1   109.5800467 425.931200
  13364  13361  13377     1   109.5800467 425.931200
  13369  13375  13376     1   107.2600461 396.643200
  13373  13369  13375     1   110.2600474 425.931200
  13373  13369  13374     1   108.4600466 328.025600
  13374  13369  13375     1   110.2600474 425.931200
  13378  13379  13381     1   109.5600471 388.275200
  13378  13392  13396     1   109.5600471 388.275200
  13378  13392  13397     1   109.5600471 388.275200
  13379  13378  13380     1   109.5600471 388.275200
  13379  13382  13386     1   109.5600471 388.275200
  13379  13391  13394     1   107.2600461 396.643200
  13380  13378  13392     1   109.5600471 388.275200
  13380  13378  13400     1   109.7800468 425.094400
  13381  13379  13382     1   109.5600471 388.275200
  13381  13379  13391     1   110.2600474 425.931200
  13382  13383  13385     1   109.5600471 388.275200
  13382  13390  13393     1   107.2600461 396.643200
  13383  13382  13386     1   109.5600471 388.275200
  13383  13384  13387     1   110.2200475 386.601600
  13383  13389  13395     1   107.2600461 396.643200
  13384  13383  13385     1   109.5600471 388.275200
  13385  13383  13389     1   110.2600474 425.931200
  13386  13382  13390     1   110.2600474 425.931200
  13387  13384  13388     1   109.5800467 425.931200
  13387  13384  13400     1   109.5800467 425.931200
  13392  13398  13399     1   107.2600461 396.643200
  13396  13392  13398     1   110.2600474 425.931200
  13396  13392  13397     1   108.4600466 328.025600
  13397  13392  13398     1   110.2600474 425.931200
  13401  13402  13404     1   109.5600471 388.275200
  13401  13415  13419     1   109.5600471 388.275200
  13401  13415  13420     1   109.5600471 388.275200
  13402  13405  13409     1   109.5600471 388.275200
  13402  13414  13417     1   107.2600461 396.643200
  13402  13401  13403     1   109.5600471 388.275200
  13403  13401  13415     1   109.5600471 388.275200
  13403  13401  13423     1   109.7800468 425.094400
  13404  13402  13405     1   109.5600471 388.275200
  13404  13402  13414     1   110.2600474 425.931200
  13405  13406  13408     1   109.5600471 388.275200
  13405  13413  13416     1   107.2600461 396.643200
  13406  13407  13410     1   110.2200475 386.601600
  13406  13412  13418     1   107.2600461 396.643200
  13406  13405  13409     1   109.5600471 388.275200
  13407  13406  13408     1   109.5600471 388.275200
  13408  13406  13412     1   110.2600474 425.931200
  13409  13405  13413     1   110.2600474 425.931200
  13410  13407  13411     1   109.5800467 425.931200
  13410  13407  13423     1   109.5800467 425.931200
  13415  13421  13422     1   107.2600461 396.643200
  13419  13415  13421     1   110.2600474 425.931200
  13419  13415  13420     1   108.4600466 328.025600
  13420  13415  13421     1   110.2600474 425.931200
  13424  13425  13427     1   109.5600471 388.275200
  13424  13438  13442     1   109.5600471 388.275200
  13424  13438  13443     1   109.5600471 388.275200
  13425  13424  13426     1   109.5600471 388.275200
  13425  13428  13432     1   109.5600471 388.275200
  13425  13437  13440     1   107.2600461 396.643200
  13426  13424  13438     1   109.5600471 388.275200
  13426  13424  13446     1   109.7800468 425.094400
  13427  13425  13428     1   109.5600471 388.275200
  13427  13425  13437     1   110.2600474 425.931200
  13428  13429  13431     1   109.5600471 388.275200
  13428  13436  13439     1   107.2600461 396.643200
  13429  13428  13432     1   109.5600471 388.275200
  13429  13430  13433     1   110.2200475 386.601600
  13429  13435  13441     1   107.2600461 396.643200
  13430  13429  13431     1   109.5600471 388.275200
  13431  13429  13435     1   110.2600474 425.931200
  13432  13428  13436     1   110.2600474 425.931200
  13433  13430  13434     1   109.5800467 425.931200
  13433  13430  13446     1   109.5800467 425.931200
  13438  13444  13445     1   107.2600461 396.643200
  13442  13438  13444     1   110.2600474 425.931200
  13442  13438  13443     1   108.4600466 328.025600
  13443  13438  13444     1   110.2600474 425.931200
  13447  13448  13450     1   109.5600471 388.275200
  13447  13461  13465     1   109.5600471 388.275200
  13447  13461  13466     1   109.5600471 388.275200
  13448  13451  13455     1   109.5600471 388.275200
  13448  13460  13463     1   107.2600461 396.643200
  13448  13447  13449     1   109.5600471 388.275200
  13449  13447  13461     1   109.5600471 388.275200
  13449  13447  13469     1   109.7800468 425.094400
  13450  13448  13451     1   109.5600471 388.275200
  13450  13448  13460     1   110.2600474 425.931200
  13451  13452  13454     1   109.5600471 388.275200
  13451  13459  13462     1   107.2600461 396.643200
  13452  13453  13456     1   110.2200475 386.601600
  13452  13458  13464     1   107.2600461 396.643200
  13452  13451  13455     1   109.5600471 388.275200
  13453  13452  13454     1   109.5600471 388.275200
  13454  13452  13458     1   110.2600474 425.931200
  13455  13451  13459     1   110.2600474 425.931200
  13456  13453  13457     1   109.5800467 425.931200
  13456  13453  13469     1   109.5800467 425.931200
  13461  13467  13468     1   107.2600461 396.643200
  13465  13461  13467     1   110.2600474 425.931200
  13465  13461  13466     1   108.4600466 328.025600
  13466  13461  13467     1   110.2600474 425.931200
  13470  13471  13473     1   109.5600471 388.275200
  13470  13484  13488     1   109.5600471 388.275200
  13470  13484  13489     1   109.5600471 388.275200
  13471  13470  13472     1   109.5600471 388.275200
  13471  13474  13478     1   109.5600471 388.275200
  13471  13483  13486     1   107.2600461 396.643200
  13472  13470  13484     1   109.5600471 388.275200
  13472  13470  13492     1   109.7800468 425.094400
  13473  13471  13474     1   109.5600471 388.275200
  13473  13471  13483     1   110.2600474 425.931200
  13474  13475  13477     1   109.5600471 388.275200
  13474  13482  13485     1   107.2600461 396.643200
  13475  13474  13478     1   109.5600471 388.275200
  13475  13476  13479     1   110.2200475 386.601600
  13475  13481  13487     1   107.2600461 396.643200
  13476  13475  13477     1   109.5600471 388.275200
  13477  13475  13481     1   110.2600474 425.931200
  13478  13474  13482     1   110.2600474 425.931200
  13479  13476  13480     1   109.5800467 425.931200
  13479  13476  13492     1   109.5800467 425.931200
  13484  13490  13491     1   107.2600461 396.643200
  13488  13484  13490     1   110.2600474 425.931200
  13488  13484  13489     1   108.4600466 328.025600
  13489  13484  13490     1   110.2600474 425.931200
  13493  13494  13496     1   109.5600471 388.275200
  13493  13507  13511     1   109.5600471 388.275200
  13493  13507  13512     1   109.5600471 388.275200
  13494  13497  13501     1   109.5600471 388.275200
  13494  13506  13509     1   107.2600461 396.643200
  13494  13493  13495     1   109.5600471 388.275200
  13495  13493  13507     1   109.5600471 388.275200
  13495  13493  13515     1   109.7800468 425.094400
  13496  13494  13497     1   109.5600471 388.275200
  13496  13494  13506     1   110.2600474 425.931200
  13497  13498  13500     1   109.5600471 388.275200
  13497  13505  13508     1   107.2600461 396.643200
  13498  13499  13502     1   110.2200475 386.601600
  13498  13504  13510     1   107.2600461 396.643200
  13498  13497  13501     1   109.5600471 388.275200
  13499  13498  13500     1   109.5600471 388.275200
  13500  13498  13504     1   110.2600474 425.931200
  13501  13497  13505     1   110.2600474 425.931200
  13502  13499  13503     1   109.5800467 425.931200
  13502  13499  13515     1   109.5800467 425.931200
  13507  13513  13514     1   107.2600461 396.643200
  13511  13507  13513     1   110.2600474 425.931200
  13511  13507  13512     1   108.4600466 328.025600
  13512  13507  13513     1   110.2600474 425.931200
  13516  13517  13519     1   109.5600471 388.275200
  13516  13530  13534     1   109.5600471 388.275200
  13516  13530  13535     1   109.5600471 388.275200
  13517  13516  13518     1   109.5600471 388.275200
  13517  13520  13524     1   109.5600471 388.275200
  13517  13529  13532     1   107.2600461 396.643200
  13518  13516  13530     1   109.5600471 388.275200
  13518  13516  13538     1   109.7800468 425.094400
  13519  13517  13520     1   109.5600471 388.275200
  13519  13517  13529     1   110.2600474 425.931200
  13520  13521  13523     1   109.5600471 388.275200
  13520  13528  13531     1   107.2600461 396.643200
  13521  13520  13524     1   109.5600471 388.275200
  13521  13522  13525     1   110.2200475 386.601600
  13521  13527  13533     1   107.2600461 396.643200
  13522  13521  13523     1   109.5600471 388.275200
  13523  13521  13527     1   110.2600474 425.931200
  13524  13520  13528     1   110.2600474 425.931200
  13525  13522  13526     1   109.5800467 425.931200
  13525  13522  13538     1   109.5800467 425.931200
  13530  13536  13537     1   107.2600461 396.643200
  13534  13530  13536     1   110.2600474 425.931200
  13534  13530  13535     1   108.4600466 328.025600
  13535  13530  13536     1   110.2600474 425.931200
  13539  13540  13542     1   109.5600471 388.275200
  13539  13553  13557     1   109.5600471 388.275200
  13539  13553  13558     1   109.5600471 388.275200
  13540  13543  13547     1   109.5600471 388.275200
  13540  13552  13555     1   107.2600461 396.643200
  13540  13539  13541     1   109.5600471 388.275200
  13541  13539  13553     1   109.5600471 388.275200
  13541  13539  13561     1   109.7800468 425.094400
  13542  13540  13543     1   109.5600471 388.275200
  13542  13540  13552     1   110.2600474 425.931200
  13543  13544  13546     1   109.5600471 388.275200
  13543  13551  13554     1   107.2600461 396.643200
  13544  13545  13548     1   110.2200475 386.601600
  13544  13550  13556     1   107.2600461 396.643200
  13544  13543  13547     1   109.5600471 388.275200
  13545  13544  13546     1   109.5600471 388.275200
  13546  13544  13550     1   110.2600474 425.931200
  13547  13543  13551     1   110.2600474 425.931200
  13548  13545  13549     1   109.5800467 425.931200
  13548  13545  13561     1   109.5800467 425.931200
  13553  13559  13560     1   107.2600461 396.643200
  13557  13553  13559     1   110.2600474 425.931200
  13557  13553  13558     1   108.4600466 328.025600
  13558  13553  13559     1   110.2600474 425.931200
  13562  13563  13565     1   109.5600471 388.275200
  13562  13576  13580     1   109.5600471 388.275200
  13562  13576  13581     1   109.5600471 388.275200
  13563  13562  13564     1   109.5600471 388.275200
  13563  13566  13570     1   109.5600471 388.275200
  13563  13575  13578     1   107.2600461 396.643200
  13564  13562  13576     1   109.5600471 388.275200
  13564  13562  13584     1   109.7800468 425.094400
  13565  13563  13566     1   109.5600471 388.275200
  13565  13563  13575     1   110.2600474 425.931200
  13566  13567  13569     1   109.5600471 388.275200
  13566  13574  13577     1   107.2600461 396.643200
  13567  13566  13570     1   109.5600471 388.275200
  13567  13568  13571     1   110.2200475 386.601600
  13567  13573  13579     1   107.2600461 396.643200
  13568  13567  13569     1   109.5600471 388.275200
  13569  13567  13573     1   110.2600474 425.931200
  13570  13566  13574     1   110.2600474 425.931200
  13571  13568  13572     1   109.5800467 425.931200
  13571  13568  13584     1   109.5800467 425.931200
  13576  13582  13583     1   107.2600461 396.643200
  13580  13576  13582     1   110.2600474 425.931200
  13580  13576  13581     1   108.4600466 328.025600
  13581  13576  13582     1   110.2600474 425.931200
  13585  13586  13588     1   109.5600471 388.275200
  13585  13599  13603     1   109.5600471 388.275200
  13585  13599  13604     1   109.5600471 388.275200
  13586  13589  13593     1   109.5600471 388.275200
  13586  13598  13601     1   107.2600461 396.643200
  13586  13585  13587     1   109.5600471 388.275200
  13587  13585  13599     1   109.5600471 388.275200
  13587  13585  13607     1   109.7800468 425.094400
  13588  13586  13589     1   109.5600471 388.275200
  13588  13586  13598     1   110.2600474 425.931200
  13589  13590  13592     1   109.5600471 388.275200
  13589  13597  13600     1   107.2600461 396.643200
  13590  13591  13594     1   110.2200475 386.601600
  13590  13596  13602     1   107.2600461 396.643200
  13590  13589  13593     1   109.5600471 388.275200
  13591  13590  13592     1   109.5600471 388.275200
  13592  13590  13596     1   110.2600474 425.931200
  13593  13589  13597     1   110.2600474 425.931200
  13594  13591  13595     1   109.5800467 425.931200
  13594  13591  13607     1   109.5800467 425.931200
  13599  13605  13606     1   107.2600461 396.643200
  13603  13599  13605     1   110.2600474 425.931200
  13603  13599  13604     1   108.4600466 328.025600
  13604  13599  13605     1   110.2600474 425.931200
  13608  13609  13611     1   109.5600471 388.275200
  13608  13622  13626     1   109.5600471 388.275200
  13608  13622  13627     1   109.5600471 388.275200
  13609  13608  13610     1   109.5600471 388.275200
  13609  13612  13616     1   109.5600471 388.275200
  13609  13621  13624     1   107.2600461 396.643200
  13610  13608  13622     1   109.5600471 388.275200
  13610  13608  13630     1   109.7800468 425.094400
  13611  13609  13612     1   109.5600471 388.275200
  13611  13609  13621     1   110.2600474 425.931200
  13612  13613  13615     1   109.5600471 388.275200
  13612  13620  13623     1   107.2600461 396.643200
  13613  13612  13616     1   109.5600471 388.275200
  13613  13614  13617     1   110.2200475 386.601600
  13613  13619  13625     1   107.2600461 396.643200
  13614  13613  13615     1   109.5600471 388.275200
  13615  13613  13619     1   110.2600474 425.931200
  13616  13612  13620     1   110.2600474 425.931200
  13617  13614  13618     1   109.5800467 425.931200
  13617  13614  13630     1   109.5800467 425.931200
  13622  13628  13629     1   107.2600461 396.643200
  13626  13622  13628     1   110.2600474 425.931200
  13626  13622  13627     1   108.4600466 328.025600
  13627  13622  13628     1   110.2600474 425.931200
  13631  13632  13634     1   109.5600471 388.275200
  13631  13645  13649     1   109.5600471 388.275200
  13631  13645  13650     1   109.5600471 388.275200
  13632  13635  13639     1   109.5600471 388.275200
  13632  13644  13647     1   107.2600461 396.643200
  13632  13631  13633     1   109.5600471 388.275200
  13633  13631  13645     1   109.5600471 388.275200
  13633  13631  13653     1   109.7800468 425.094400
  13634  13632  13635     1   109.5600471 388.275200
  13634  13632  13644     1   110.2600474 425.931200
  13635  13636  13638     1   109.5600471 388.275200
  13635  13643  13646     1   107.2600461 396.643200
  13636  13637  13640     1   110.2200475 386.601600
  13636  13642  13648     1   107.2600461 396.643200
  13636  13635  13639     1   109.5600471 388.275200
  13637  13636  13638     1   109.5600471 388.275200
  13638  13636  13642     1   110.2600474 425.931200
  13639  13635  13643     1   110.2600474 425.931200
  13640  13637  13641     1   109.5800467 425.931200
  13640  13637  13653     1   109.5800467 425.931200
  13645  13651  13652     1   107.2600461 396.643200
  13649  13645  13651     1   110.2600474 425.931200
  13649  13645  13650     1   108.4600466 328.025600
  13650  13645  13651     1   110.2600474 425.931200
  13654  13655  13657     1   109.5600471 388.275200
  13654  13668  13672     1   109.5600471 388.275200
  13654  13668  13673     1   109.5600471 388.275200
  13655  13654  13656     1   109.5600471 388.275200
  13655  13658  13662     1   109.5600471 388.275200
  13655  13667  13670     1   107.2600461 396.643200
  13656  13654  13668     1   109.5600471 388.275200
  13656  13654  13676     1   109.7800468 425.094400
  13657  13655  13658     1   109.5600471 388.275200
  13657  13655  13667     1   110.2600474 425.931200
  13658  13659  13661     1   109.5600471 388.275200
  13658  13666  13669     1   107.2600461 396.643200
  13659  13658  13662     1   109.5600471 388.275200
  13659  13660  13663     1   110.2200475 386.601600
  13659  13665  13671     1   107.2600461 396.643200
  13660  13659  13661     1   109.5600471 388.275200
  13661  13659  13665     1   110.2600474 425.931200
  13662  13658  13666     1   110.2600474 425.931200
  13663  13660  13664     1   109.5800467 425.931200
  13663  13660  13676     1   109.5800467 425.931200
  13668  13674  13675     1   107.2600461 396.643200
  13672  13668  13674     1   110.2600474 425.931200
  13672  13668  13673     1   108.4600466 328.025600
  13673  13668  13674     1   110.2600474 425.931200
  13677  13678  13680     1   109.5600471 388.275200
  13677  13691  13695     1   109.5600471 388.275200
  13677  13691  13696     1   109.5600471 388.275200
  13678  13681  13685     1   109.5600471 388.275200
  13678  13690  13693     1   107.2600461 396.643200
  13678  13677  13679     1   109.5600471 388.275200
  13679  13677  13691     1   109.5600471 388.275200
  13679  13677  13699     1   109.7800468 425.094400
  13680  13678  13681     1   109.5600471 388.275200
  13680  13678  13690     1   110.2600474 425.931200
  13681  13682  13684     1   109.5600471 388.275200
  13681  13689  13692     1   107.2600461 396.643200
  13682  13683  13686     1   110.2200475 386.601600
  13682  13688  13694     1   107.2600461 396.643200
  13682  13681  13685     1   109.5600471 388.275200
  13683  13682  13684     1   109.5600471 388.275200
  13684  13682  13688     1   110.2600474 425.931200
  13685  13681  13689     1   110.2600474 425.931200
  13686  13683  13687     1   109.5800467 425.931200
  13686  13683  13699     1   109.5800467 425.931200
  13691  13697  13698     1   107.2600461 396.643200
  13695  13691  13697     1   110.2600474 425.931200
  13695  13691  13696     1   108.4600466 328.025600
  13696  13691  13697     1   110.2600474 425.931200
  13700  13701  13703     1   109.5600471 388.275200
  13700  13714  13718     1   109.5600471 388.275200
  13700  13714  13719     1   109.5600471 388.275200
  13701  13700  13702     1   109.5600471 388.275200
  13701  13704  13708     1   109.5600471 388.275200
  13701  13713  13716     1   107.2600461 396.643200
  13702  13700  13714     1   109.5600471 388.275200
  13702  13700  13722     1   109.7800468 425.094400
  13703  13701  13704     1   109.5600471 388.275200
  13703  13701  13713     1   110.2600474 425.931200
  13704  13705  13707     1   109.5600471 388.275200
  13704  13712  13715     1   107.2600461 396.643200
  13705  13704  13708     1   109.5600471 388.275200
  13705  13706  13709     1   110.2200475 386.601600
  13705  13711  13717     1   107.2600461 396.643200
  13706  13705  13707     1   109.5600471 388.275200
  13707  13705  13711     1   110.2600474 425.931200
  13708  13704  13712     1   110.2600474 425.931200
  13709  13706  13710     1   109.5800467 425.931200
  13709  13706  13722     1   109.5800467 425.931200
  13714  13720  13721     1   107.2600461 396.643200
  13718  13714  13720     1   110.2600474 425.931200
  13718  13714  13719     1   108.4600466 328.025600
  13719  13714  13720     1   110.2600474 425.931200
  13723  13724  13726     1   109.5600471 388.275200
  13723  13737  13741     1   109.5600471 388.275200
  13723  13737  13742     1   109.5600471 388.275200
  13724  13727  13731     1   109.5600471 388.275200
  13724  13736  13739     1   107.2600461 396.643200
  13724  13723  13725     1   109.5600471 388.275200
  13725  13723  13737     1   109.5600471 388.275200
  13725  13723  13745     1   109.7800468 425.094400
  13726  13724  13727     1   109.5600471 388.275200
  13726  13724  13736     1   110.2600474 425.931200
  13727  13728  13730     1   109.5600471 388.275200
  13727  13735  13738     1   107.2600461 396.643200
  13728  13729  13732     1   110.2200475 386.601600
  13728  13734  13740     1   107.2600461 396.643200
  13728  13727  13731     1   109.5600471 388.275200
  13729  13728  13730     1   109.5600471 388.275200
  13730  13728  13734     1   110.2600474 425.931200
  13731  13727  13735     1   110.2600474 425.931200
  13732  13729  13733     1   109.5800467 425.931200
  13732  13729  13745     1   109.5800467 425.931200
  13737  13743  13744     1   107.2600461 396.643200
  13741  13737  13743     1   110.2600474 425.931200
  13741  13737  13742     1   108.4600466 328.025600
  13742  13737  13743     1   110.2600474 425.931200
  13746  13747  13749     1   109.5600471 388.275200
  13746  13760  13764     1   109.5600471 388.275200
  13746  13760  13765     1   109.5600471 388.275200
  13747  13746  13748     1   109.5600471 388.275200
  13747  13750  13754     1   109.5600471 388.275200
  13747  13759  13762     1   107.2600461 396.643200
  13748  13746  13760     1   109.5600471 388.275200
  13748  13746  13768     1   109.7800468 425.094400
  13749  13747  13750     1   109.5600471 388.275200
  13749  13747  13759     1   110.2600474 425.931200
  13750  13751  13753     1   109.5600471 388.275200
  13750  13758  13761     1   107.2600461 396.643200
  13751  13750  13754     1   109.5600471 388.275200
  13751  13752  13755     1   110.2200475 386.601600
  13751  13757  13763     1   107.2600461 396.643200
  13752  13751  13753     1   109.5600471 388.275200
  13753  13751  13757     1   110.2600474 425.931200
  13754  13750  13758     1   110.2600474 425.931200
  13755  13752  13756     1   109.5800467 425.931200
  13755  13752  13768     1   109.5800467 425.931200
  13760  13766  13767     1   107.2600461 396.643200
  13764  13760  13766     1   110.2600474 425.931200
  13764  13760  13765     1   108.4600466 328.025600
  13765  13760  13766     1   110.2600474 425.931200
  13769  13770  13772     1   109.5600471 388.275200
  13769  13783  13787     1   109.5600471 388.275200
  13769  13783  13788     1   109.5600471 388.275200
  13770  13773  13777     1   109.5600471 388.275200
  13770  13782  13785     1   107.2600461 396.643200
  13770  13769  13771     1   109.5600471 388.275200
  13771  13769  13783     1   109.5600471 388.275200
  13771  13769  13791     1   109.7800468 425.094400
  13772  13770  13773     1   109.5600471 388.275200
  13772  13770  13782     1   110.2600474 425.931200
  13773  13774  13776     1   109.5600471 388.275200
  13773  13781  13784     1   107.2600461 396.643200
  13774  13775  13778     1   110.2200475 386.601600
  13774  13780  13786     1   107.2600461 396.643200
  13774  13773  13777     1   109.5600471 388.275200
  13775  13774  13776     1   109.5600471 388.275200
  13776  13774  13780     1   110.2600474 425.931200
  13777  13773  13781     1   110.2600474 425.931200
  13778  13775  13779     1   109.5800467 425.931200
  13778  13775  13791     1   109.5800467 425.931200
  13783  13789  13790     1   107.2600461 396.643200
  13787  13783  13789     1   110.2600474 425.931200
  13787  13783  13788     1   108.4600466 328.025600
  13788  13783  13789     1   110.2600474 425.931200
  13792  13793  13795     1   109.5600471 388.275200
  13792  13806  13810     1   109.5600471 388.275200
  13792  13806  13811     1   109.5600471 388.275200
  13793  13792  13794     1   109.5600471 388.275200
  13793  13796  13800     1   109.5600471 388.275200
  13793  13805  13808     1   107.2600461 396.643200
  13794  13792  13806     1   109.5600471 388.275200
  13794  13792  13814     1   109.7800468 425.094400
  13795  13793  13796     1   109.5600471 388.275200
  13795  13793  13805     1   110.2600474 425.931200
  13796  13797  13799     1   109.5600471 388.275200
  13796  13804  13807     1   107.2600461 396.643200
  13797  13796  13800     1   109.5600471 388.275200
  13797  13798  13801     1   110.2200475 386.601600
  13797  13803  13809     1   107.2600461 396.643200
  13798  13797  13799     1   109.5600471 388.275200
  13799  13797  13803     1   110.2600474 425.931200
  13800  13796  13804     1   110.2600474 425.931200
  13801  13798  13802     1   109.5800467 425.931200
  13801  13798  13814     1   109.5800467 425.931200
  13806  13812  13813     1   107.2600461 396.643200
  13810  13806  13812     1   110.2600474 425.931200
  13810  13806  13811     1   108.4600466 328.025600
  13811  13806  13812     1   110.2600474 425.931200
  13815  13816  13818     1   109.5600471 388.275200
  13815  13829  13833     1   109.5600471 388.275200
  13815  13829  13834     1   109.5600471 388.275200
  13816  13819  13823     1   109.5600471 388.275200
  13816  13828  13831     1   107.2600461 396.643200
  13816  13815  13817     1   109.5600471 388.275200
  13817  13815  13829     1   109.5600471 388.275200
  13817  13815  13837     1   109.7800468 425.094400
  13818  13816  13819     1   109.5600471 388.275200
  13818  13816  13828     1   110.2600474 425.931200
  13819  13820  13822     1   109.5600471 388.275200
  13819  13827  13830     1   107.2600461 396.643200
  13820  13821  13824     1   110.2200475 386.601600
  13820  13826  13832     1   107.2600461 396.643200
  13820  13819  13823     1   109.5600471 388.275200
  13821  13820  13822     1   109.5600471 388.275200
  13822  13820  13826     1   110.2600474 425.931200
  13823  13819  13827     1   110.2600474 425.931200
  13824  13821  13825     1   109.5800467 425.931200
  13824  13821  13837     1   109.5800467 425.931200
  13829  13835  13836     1   107.2600461 396.643200
  13833  13829  13835     1   110.2600474 425.931200
  13833  13829  13834     1   108.4600466 328.025600
  13834  13829  13835     1   110.2600474 425.931200
  13838  13839  13841     1   109.5600471 388.275200
  13838  13852  13856     1   109.5600471 388.275200
  13838  13852  13857     1   109.5600471 388.275200
  13839  13838  13840     1   109.5600471 388.275200
  13839  13842  13846     1   109.5600471 388.275200
  13839  13851  13854     1   107.2600461 396.643200
  13840  13838  13852     1   109.5600471 388.275200
  13840  13838  13860     1   109.7800468 425.094400
  13841  13839  13842     1   109.5600471 388.275200
  13841  13839  13851     1   110.2600474 425.931200
  13842  13843  13845     1   109.5600471 388.275200
  13842  13850  13853     1   107.2600461 396.643200
  13843  13842  13846     1   109.5600471 388.275200
  13843  13844  13847     1   110.2200475 386.601600
  13843  13849  13855     1   107.2600461 396.643200
  13844  13843  13845     1   109.5600471 388.275200
  13845  13843  13849     1   110.2600474 425.931200
  13846  13842  13850     1   110.2600474 425.931200
  13847  13844  13848     1   109.5800467 425.931200
  13847  13844  13860     1   109.5800467 425.931200
  13852  13858  13859     1   107.2600461 396.643200
  13856  13852  13858     1   110.2600474 425.931200
  13856  13852  13857     1   108.4600466 328.025600
  13857  13852  13858     1   110.2600474 425.931200
  13861  13862  13864     1   109.5600471 388.275200
  13861  13875  13879     1   109.5600471 388.275200
  13861  13875  13880     1   109.5600471 388.275200
  13862  13865  13869     1   109.5600471 388.275200
  13862  13874  13877     1   107.2600461 396.643200
  13862  13861  13863     1   109.5600471 388.275200
  13863  13861  13875     1   109.5600471 388.275200
  13863  13861  13883     1   109.7800468 425.094400
  13864  13862  13865     1   109.5600471 388.275200
  13864  13862  13874     1   110.2600474 425.931200
  13865  13866  13868     1   109.5600471 388.275200
  13865  13873  13876     1   107.2600461 396.643200
  13866  13867  13870     1   110.2200475 386.601600
  13866  13872  13878     1   107.2600461 396.643200
  13866  13865  13869     1   109.5600471 388.275200
  13867  13866  13868     1   109.5600471 388.275200
  13868  13866  13872     1   110.2600474 425.931200
  13869  13865  13873     1   110.2600474 425.931200
  13870  13867  13871     1   109.5800467 425.931200
  13870  13867  13883     1   109.5800467 425.931200
  13875  13881  13882     1   107.2600461 396.643200
  13879  13875  13881     1   110.2600474 425.931200
  13879  13875  13880     1   108.4600466 328.025600
  13880  13875  13881     1   110.2600474 425.931200
  13884  13885  13887     1   109.5600471 388.275200
  13884  13898  13902     1   109.5600471 388.275200
  13884  13898  13903     1   109.5600471 388.275200
  13885  13884  13886     1   109.5600471 388.275200
  13885  13888  13892     1   109.5600471 388.275200
  13885  13897  13900     1   107.2600461 396.643200
  13886  13884  13898     1   109.5600471 388.275200
  13886  13884  13906     1   109.7800468 425.094400
  13887  13885  13888     1   109.5600471 388.275200
  13887  13885  13897     1   110.2600474 425.931200
  13888  13889  13891     1   109.5600471 388.275200
  13888  13896  13899     1   107.2600461 396.643200
  13889  13888  13892     1   109.5600471 388.275200
  13889  13890  13893     1   110.2200475 386.601600
  13889  13895  13901     1   107.2600461 396.643200
  13890  13889  13891     1   109.5600471 388.275200
  13891  13889  13895     1   110.2600474 425.931200
  13892  13888  13896     1   110.2600474 425.931200
  13893  13890  13894     1   109.5800467 425.931200
  13893  13890  13906     1   109.5800467 425.931200
  13898  13904  13905     1   107.2600461 396.643200
  13902  13898  13904     1   110.2600474 425.931200
  13902  13898  13903     1   108.4600466 328.025600
  13903  13898  13904     1   110.2600474 425.931200
  13907  13908  13910     1   109.5600471 388.275200
  13907  13921  13925     1   109.5600471 388.275200
  13907  13921  13926     1   109.5600471 388.275200
  13908  13911  13915     1   109.5600471 388.275200
  13908  13920  13923     1   107.2600461 396.643200
  13908  13907  13909     1   109.5600471 388.275200
  13909  13907  13921     1   109.5600471 388.275200
  13909  13907  13929     1   109.7800468 425.094400
  13910  13908  13911     1   109.5600471 388.275200
  13910  13908  13920     1   110.2600474 425.931200
  13911  13912  13914     1   109.5600471 388.275200
  13911  13919  13922     1   107.2600461 396.643200
  13912  13913  13916     1   110.2200475 386.601600
  13912  13918  13924     1   107.2600461 396.643200
  13912  13911  13915     1   109.5600471 388.275200
  13913  13912  13914     1   109.5600471 388.275200
  13914  13912  13918     1   110.2600474 425.931200
  13915  13911  13919     1   110.2600474 425.931200
  13916  13913  13917     1   109.5800467 425.931200
  13916  13913  13929     1   109.5800467 425.931200
  13921  13927  13928     1   107.2600461 396.643200
  13925  13921  13927     1   110.2600474 425.931200
  13925  13921  13926     1   108.4600466 328.025600
  13926  13921  13927     1   110.2600474 425.931200
  13930  13931  13933     1   109.5600471 388.275200
  13930  13944  13948     1   109.5600471 388.275200
  13930  13944  13949     1   109.5600471 388.275200
  13931  13930  13932     1   109.5600471 388.275200
  13931  13934  13938     1   109.5600471 388.275200
  13931  13943  13946     1   107.2600461 396.643200
  13932  13930  13944     1   109.5600471 388.275200
  13932  13930  13952     1   109.7800468 425.094400
  13933  13931  13934     1   109.5600471 388.275200
  13933  13931  13943     1   110.2600474 425.931200
  13934  13935  13937     1   109.5600471 388.275200
  13934  13942  13945     1   107.2600461 396.643200
  13935  13934  13938     1   109.5600471 388.275200
  13935  13936  13939     1   110.2200475 386.601600
  13935  13941  13947     1   107.2600461 396.643200
  13936  13935  13937     1   109.5600471 388.275200
  13937  13935  13941     1   110.2600474 425.931200
  13938  13934  13942     1   110.2600474 425.931200
  13939  13936  13940     1   109.5800467 425.931200
  13939  13936  13952     1   109.5800467 425.931200
  13944  13950  13951     1   107.2600461 396.643200
  13948  13944  13950     1   110.2600474 425.931200
  13948  13944  13949     1   108.4600466 328.025600
  13949  13944  13950     1   110.2600474 425.931200
  13953  13954  13956     1   109.5600471 388.275200
  13953  13967  13971     1   109.5600471 388.275200
  13953  13967  13972     1   109.5600471 388.275200
  13954  13957  13961     1   109.5600471 388.275200
  13954  13966  13969     1   107.2600461 396.643200
  13954  13953  13955     1   109.5600471 388.275200
  13955  13953  13967     1   109.5600471 388.275200
  13955  13953  13975     1   109.7800468 425.094400
  13956  13954  13957     1   109.5600471 388.275200
  13956  13954  13966     1   110.2600474 425.931200
  13957  13958  13960     1   109.5600471 388.275200
  13957  13965  13968     1   107.2600461 396.643200
  13958  13959  13962     1   110.2200475 386.601600
  13958  13964  13970     1   107.2600461 396.643200
  13958  13957  13961     1   109.5600471 388.275200
  13959  13958  13960     1   109.5600471 388.275200
  13960  13958  13964     1   110.2600474 425.931200
  13961  13957  13965     1   110.2600474 425.931200
  13962  13959  13963     1   109.5800467 425.931200
  13962  13959  13975     1   109.5800467 425.931200
  13967  13973  13974     1   107.2600461 396.643200
  13971  13967  13973     1   110.2600474 425.931200
  13971  13967  13972     1   108.4600466 328.025600
  13972  13967  13973     1   110.2600474 425.931200
  13976  13977  13979     1   109.5600471 388.275200
  13976  13990  13994     1   109.5600471 388.275200
  13976  13990  13995     1   109.5600471 388.275200
  13977  13976  13978     1   109.5600471 388.275200
  13977  13980  13984     1   109.5600471 388.275200
  13977  13989  13992     1   107.2600461 396.643200
  13978  13976  13990     1   109.5600471 388.275200
  13978  13976  13998     1   109.7800468 425.094400
  13979  13977  13980     1   109.5600471 388.275200
  13979  13977  13989     1   110.2600474 425.931200
  13980  13981  13983     1   109.5600471 388.275200
  13980  13988  13991     1   107.2600461 396.643200
  13981  13980  13984     1   109.5600471 388.275200
  13981  13982  13985     1   110.2200475 386.601600
  13981  13987  13993     1   107.2600461 396.643200
  13982  13981  13983     1   109.5600471 388.275200
  13983  13981  13987     1   110.2600474 425.931200
  13984  13980  13988     1   110.2600474 425.931200
  13985  13982  13986     1   109.5800467 425.931200
  13985  13982  13998     1   109.5800467 425.931200
  13990  13996  13997     1   107.2600461 396.643200
  13994  13990  13996     1   110.2600474 425.931200
  13994  13990  13995     1   108.4600466 328.025600
  13995  13990  13996     1   110.2600474 425.931200
  13999  14000  14002     1   109.5600471 388.275200
  13999  14013  14017     1   109.5600471 388.275200
  13999  14013  14018     1   109.5600471 388.275200
  14000  14003  14007     1   109.5600471 388.275200
  14000  14012  14015     1   107.2600461 396.643200
  14000  13999  14001     1   109.5600471 388.275200
  14001  13999  14013     1   109.5600471 388.275200
  14001  13999  14021     1   109.7800468 425.094400
  14002  14000  14003     1   109.5600471 388.275200
  14002  14000  14012     1   110.2600474 425.931200
  14003  14004  14006     1   109.5600471 388.275200
  14003  14011  14014     1   107.2600461 396.643200
  14004  14005  14008     1   110.2200475 386.601600
  14004  14010  14016     1   107.2600461 396.643200
  14004  14003  14007     1   109.5600471 388.275200
  14005  14004  14006     1   109.5600471 388.275200
  14006  14004  14010     1   110.2600474 425.931200
  14007  14003  14011     1   110.2600474 425.931200
  14008  14005  14009     1   109.5800467 425.931200
  14008  14005  14021     1   109.5800467 425.931200
  14013  14019  14020     1   107.2600461 396.643200
  14017  14013  14019     1   110.2600474 425.931200
  14017  14013  14018     1   108.4600466 328.025600
  14018  14013  14019     1   110.2600474 425.931200
  14022  14023  14025     1   109.5600471 388.275200
  14022  14036  14040     1   109.5600471 388.275200
  14022  14036  14041     1   109.5600471 388.275200
  14023  14022  14024     1   109.5600471 388.275200
  14023  14026  14030     1   109.5600471 388.275200
  14023  14035  14038     1   107.2600461 396.643200
  14024  14022  14036     1   109.5600471 388.275200
  14024  14022  14044     1   109.7800468 425.094400
  14025  14023  14026     1   109.5600471 388.275200
  14025  14023  14035     1   110.2600474 425.931200
  14026  14027  14029     1   109.5600471 388.275200
  14026  14034  14037     1   107.2600461 396.643200
  14027  14026  14030     1   109.5600471 388.275200
  14027  14028  14031     1   110.2200475 386.601600
  14027  14033  14039     1   107.2600461 396.643200
  14028  14027  14029     1   109.5600471 388.275200
  14029  14027  14033     1   110.2600474 425.931200
  14030  14026  14034     1   110.2600474 425.931200
  14031  14028  14032     1   109.5800467 425.931200
  14031  14028  14044     1   109.5800467 425.931200
  14036  14042  14043     1   107.2600461 396.643200
  14040  14036  14042     1   110.2600474 425.931200
  14040  14036  14041     1   108.4600466 328.025600
  14041  14036  14042     1   110.2600474 425.931200
  14045  14046  14048     1   109.5600471 388.275200
  14045  14059  14063     1   109.5600471 388.275200
  14045  14059  14064     1   109.5600471 388.275200
  14046  14049  14053     1   109.5600471 388.275200
  14046  14058  14061     1   107.2600461 396.643200
  14046  14045  14047     1   109.5600471 388.275200
  14047  14045  14059     1   109.5600471 388.275200
  14047  14045  14067     1   109.7800468 425.094400
  14048  14046  14049     1   109.5600471 388.275200
  14048  14046  14058     1   110.2600474 425.931200
  14049  14050  14052     1   109.5600471 388.275200
  14049  14057  14060     1   107.2600461 396.643200
  14050  14051  14054     1   110.2200475 386.601600
  14050  14056  14062     1   107.2600461 396.643200
  14050  14049  14053     1   109.5600471 388.275200
  14051  14050  14052     1   109.5600471 388.275200
  14052  14050  14056     1   110.2600474 425.931200
  14053  14049  14057     1   110.2600474 425.931200
  14054  14051  14055     1   109.5800467 425.931200
  14054  14051  14067     1   109.5800467 425.931200
  14059  14065  14066     1   107.2600461 396.643200
  14063  14059  14065     1   110.2600474 425.931200
  14063  14059  14064     1   108.4600466 328.025600
  14064  14059  14065     1   110.2600474 425.931200
  14068  14069  14071     1   109.5600471 388.275200
  14068  14082  14086     1   109.5600471 388.275200
  14068  14082  14087     1   109.5600471 388.275200
  14069  14068  14070     1   109.5600471 388.275200
  14069  14072  14076     1   109.5600471 388.275200
  14069  14081  14084     1   107.2600461 396.643200
  14070  14068  14082     1   109.5600471 388.275200
  14070  14068  14090     1   109.7800468 425.094400
  14071  14069  14072     1   109.5600471 388.275200
  14071  14069  14081     1   110.2600474 425.931200
  14072  14073  14075     1   109.5600471 388.275200
  14072  14080  14083     1   107.2600461 396.643200
  14073  14072  14076     1   109.5600471 388.275200
  14073  14074  14077     1   110.2200475 386.601600
  14073  14079  14085     1   107.2600461 396.643200
  14074  14073  14075     1   109.5600471 388.275200
  14075  14073  14079     1   110.2600474 425.931200
  14076  14072  14080     1   110.2600474 425.931200
  14077  14074  14078     1   109.5800467 425.931200
  14077  14074  14090     1   109.5800467 425.931200
  14082  14088  14089     1   107.2600461 396.643200
  14086  14082  14088     1   110.2600474 425.931200
  14086  14082  14087     1   108.4600466 328.025600
  14087  14082  14088     1   110.2600474 425.931200
  14091  14092  14094     1   109.5600471 388.275200
  14091  14105  14109     1   109.5600471 388.275200
  14091  14105  14110     1   109.5600471 388.275200
  14092  14095  14099     1   109.5600471 388.275200
  14092  14104  14107     1   107.2600461 396.643200
  14092  14091  14093     1   109.5600471 388.275200
  14093  14091  14105     1   109.5600471 388.275200
  14093  14091  14113     1   109.7800468 425.094400
  14094  14092  14095     1   109.5600471 388.275200
  14094  14092  14104     1   110.2600474 425.931200
  14095  14096  14098     1   109.5600471 388.275200
  14095  14103  14106     1   107.2600461 396.643200
  14096  14097  14100     1   110.2200475 386.601600
  14096  14102  14108     1   107.2600461 396.643200
  14096  14095  14099     1   109.5600471 388.275200
  14097  14096  14098     1   109.5600471 388.275200
  14098  14096  14102     1   110.2600474 425.931200
  14099  14095  14103     1   110.2600474 425.931200
  14100  14097  14101     1   109.5800467 425.931200
  14100  14097  14113     1   109.5800467 425.931200
  14105  14111  14112     1   107.2600461 396.643200
  14109  14105  14111     1   110.2600474 425.931200
  14109  14105  14110     1   108.4600466 328.025600
  14110  14105  14111     1   110.2600474 425.931200
  14114  14115  14117     1   109.5600471 388.275200
  14114  14128  14132     1   109.5600471 388.275200
  14114  14128  14133     1   109.5600471 388.275200
  14115  14114  14116     1   109.5600471 388.275200
  14115  14118  14122     1   109.5600471 388.275200
  14115  14127  14130     1   107.2600461 396.643200
  14116  14114  14128     1   109.5600471 388.275200
  14116  14114  14136     1   109.7800468 425.094400
  14117  14115  14118     1   109.5600471 388.275200
  14117  14115  14127     1   110.2600474 425.931200
  14118  14119  14121     1   109.5600471 388.275200
  14118  14126  14129     1   107.2600461 396.643200
  14119  14118  14122     1   109.5600471 388.275200
  14119  14120  14123     1   110.2200475 386.601600
  14119  14125  14131     1   107.2600461 396.643200
  14120  14119  14121     1   109.5600471 388.275200
  14121  14119  14125     1   110.2600474 425.931200
  14122  14118  14126     1   110.2600474 425.931200
  14123  14120  14124     1   109.5800467 425.931200
  14123  14120  14136     1   109.5800467 425.931200
  14128  14134  14135     1   107.2600461 396.643200
  14132  14128  14134     1   110.2600474 425.931200
  14132  14128  14133     1   108.4600466 328.025600
  14133  14128  14134     1   110.2600474 425.931200
  14137  14138  14140     1   109.5600471 388.275200
  14137  14151  14155     1   109.5600471 388.275200
  14137  14151  14156     1   109.5600471 388.275200
  14138  14141  14145     1   109.5600471 388.275200
  14138  14150  14153     1   107.2600461 396.643200
  14138  14137  14139     1   109.5600471 388.275200
  14139  14137  14151     1   109.5600471 388.275200
  14139  14137  14159     1   109.7800468 425.094400
  14140  14138  14141     1   109.5600471 388.275200
  14140  14138  14150     1   110.2600474 425.931200
  14141  14142  14144     1   109.5600471 388.275200
  14141  14149  14152     1   107.2600461 396.643200
  14142  14143  14146     1   110.2200475 386.601600
  14142  14148  14154     1   107.2600461 396.643200
  14142  14141  14145     1   109.5600471 388.275200
  14143  14142  14144     1   109.5600471 388.275200
  14144  14142  14148     1   110.2600474 425.931200
  14145  14141  14149     1   110.2600474 425.931200
  14146  14143  14147     1   109.5800467 425.931200
  14146  14143  14159     1   109.5800467 425.931200
  14151  14157  14158     1   107.2600461 396.643200
  14155  14151  14157     1   110.2600474 425.931200
  14155  14151  14156     1   108.4600466 328.025600
  14156  14151  14157     1   110.2600474 425.931200
  14160  14161  14163     1   109.5600471 388.275200
  14160  14174  14178     1   109.5600471 388.275200
  14160  14174  14179     1   109.5600471 388.275200
  14161  14160  14162     1   109.5600471 388.275200
  14161  14164  14168     1   109.5600471 388.275200
  14161  14173  14176     1   107.2600461 396.643200
  14162  14160  14174     1   109.5600471 388.275200
  14162  14160  14182     1   109.7800468 425.094400
  14163  14161  14164     1   109.5600471 388.275200
  14163  14161  14173     1   110.2600474 425.931200
  14164  14165  14167     1   109.5600471 388.275200
  14164  14172  14175     1   107.2600461 396.643200
  14165  14164  14168     1   109.5600471 388.275200
  14165  14166  14169     1   110.2200475 386.601600
  14165  14171  14177     1   107.2600461 396.643200
  14166  14165  14167     1   109.5600471 388.275200
  14167  14165  14171     1   110.2600474 425.931200
  14168  14164  14172     1   110.2600474 425.931200
  14169  14166  14170     1   109.5800467 425.931200
  14169  14166  14182     1   109.5800467 425.931200
  14174  14180  14181     1   107.2600461 396.643200
  14178  14174  14180     1   110.2600474 425.931200
  14178  14174  14179     1   108.4600466 328.025600
  14179  14174  14180     1   110.2600474 425.931200
  14183  14184  14186     1   109.5600471 388.275200
  14183  14197  14201     1   109.5600471 388.275200
  14183  14197  14202     1   109.5600471 388.275200
  14184  14187  14191     1   109.5600471 388.275200
  14184  14196  14199     1   107.2600461 396.643200
  14184  14183  14185     1   109.5600471 388.275200
  14185  14183  14197     1   109.5600471 388.275200
  14185  14183  14205     1   109.7800468 425.094400
  14186  14184  14187     1   109.5600471 388.275200
  14186  14184  14196     1   110.2600474 425.931200
  14187  14188  14190     1   109.5600471 388.275200
  14187  14195  14198     1   107.2600461 396.643200
  14188  14189  14192     1   110.2200475 386.601600
  14188  14194  14200     1   107.2600461 396.643200
  14188  14187  14191     1   109.5600471 388.275200
  14189  14188  14190     1   109.5600471 388.275200
  14190  14188  14194     1   110.2600474 425.931200
  14191  14187  14195     1   110.2600474 425.931200
  14192  14189  14193     1   109.5800467 425.931200
  14192  14189  14205     1   109.5800467 425.931200
  14197  14203  14204     1   107.2600461 396.643200
  14201  14197  14203     1   110.2600474 425.931200
  14201  14197  14202     1   108.4600466 328.025600
  14202  14197  14203     1   110.2600474 425.931200
  14206  14207  14209     1   109.5600471 388.275200
  14206  14220  14224     1   109.5600471 388.275200
  14206  14220  14225     1   109.5600471 388.275200
  14207  14206  14208     1   109.5600471 388.275200
  14207  14210  14214     1   109.5600471 388.275200
  14207  14219  14222     1   107.2600461 396.643200
  14208  14206  14220     1   109.5600471 388.275200
  14208  14206  14228     1   109.7800468 425.094400
  14209  14207  14210     1   109.5600471 388.275200
  14209  14207  14219     1   110.2600474 425.931200
  14210  14211  14213     1   109.5600471 388.275200
  14210  14218  14221     1   107.2600461 396.643200
  14211  14210  14214     1   109.5600471 388.275200
  14211  14212  14215     1   110.2200475 386.601600
  14211  14217  14223     1   107.2600461 396.643200
  14212  14211  14213     1   109.5600471 388.275200
  14213  14211  14217     1   110.2600474 425.931200
  14214  14210  14218     1   110.2600474 425.931200
  14215  14212  14216     1   109.5800467 425.931200
  14215  14212  14228     1   109.5800467 425.931200
  14220  14226  14227     1   107.2600461 396.643200
  14224  14220  14226     1   110.2600474 425.931200
  14224  14220  14225     1   108.4600466 328.025600
  14225  14220  14226     1   110.2600474 425.931200
  14229  14230  14232     1   109.5600471 388.275200
  14229  14243  14247     1   109.5600471 388.275200
  14229  14243  14248     1   109.5600471 388.275200
  14230  14233  14237     1   109.5600471 388.275200
  14230  14242  14245     1   107.2600461 396.643200
  14230  14229  14231     1   109.5600471 388.275200
  14231  14229  14243     1   109.5600471 388.275200
  14231  14229  14251     1   109.7800468 425.094400
  14232  14230  14233     1   109.5600471 388.275200
  14232  14230  14242     1   110.2600474 425.931200
  14233  14234  14236     1   109.5600471 388.275200
  14233  14241  14244     1   107.2600461 396.643200
  14234  14235  14238     1   110.2200475 386.601600
  14234  14240  14246     1   107.2600461 396.643200
  14234  14233  14237     1   109.5600471 388.275200
  14235  14234  14236     1   109.5600471 388.275200
  14236  14234  14240     1   110.2600474 425.931200
  14237  14233  14241     1   110.2600474 425.931200
  14238  14235  14239     1   109.5800467 425.931200
  14238  14235  14251     1   109.5800467 425.931200
  14243  14249  14250     1   107.2600461 396.643200
  14247  14243  14249     1   110.2600474 425.931200
  14247  14243  14248     1   108.4600466 328.025600
  14248  14243  14249     1   110.2600474 425.931200
  14252  14253  14255     1   109.5600471 388.275200
  14252  14266  14270     1   109.5600471 388.275200
  14252  14266  14271     1   109.5600471 388.275200
  14253  14252  14254     1   109.5600471 388.275200
  14253  14256  14260     1   109.5600471 388.275200
  14253  14265  14268     1   107.2600461 396.643200
  14254  14252  14266     1   109.5600471 388.275200
  14254  14252  14274     1   109.7800468 425.094400
  14255  14253  14256     1   109.5600471 388.275200
  14255  14253  14265     1   110.2600474 425.931200
  14256  14257  14259     1   109.5600471 388.275200
  14256  14264  14267     1   107.2600461 396.643200
  14257  14256  14260     1   109.5600471 388.275200
  14257  14258  14261     1   110.2200475 386.601600
  14257  14263  14269     1   107.2600461 396.643200
  14258  14257  14259     1   109.5600471 388.275200
  14259  14257  14263     1   110.2600474 425.931200
  14260  14256  14264     1   110.2600474 425.931200
  14261  14258  14262     1   109.5800467 425.931200
  14261  14258  14274     1   109.5800467 425.931200
  14266  14272  14273     1   107.2600461 396.643200
  14270  14266  14272     1   110.2600474 425.931200
  14270  14266  14271     1   108.4600466 328.025600
  14271  14266  14272     1   110.2600474 425.931200
  14275  14276  14278     1   109.5600471 388.275200
  14275  14289  14293     1   109.5600471 388.275200
  14275  14289  14294     1   109.5600471 388.275200
  14276  14279  14283     1   109.5600471 388.275200
  14276  14288  14291     1   107.2600461 396.643200
  14276  14275  14277     1   109.5600471 388.275200
  14277  14275  14289     1   109.5600471 388.275200
  14277  14275  14297     1   109.7800468 425.094400
  14278  14276  14279     1   109.5600471 388.275200
  14278  14276  14288     1   110.2600474 425.931200
  14279  14280  14282     1   109.5600471 388.275200
  14279  14287  14290     1   107.2600461 396.643200
  14280  14281  14284     1   110.2200475 386.601600
  14280  14286  14292     1   107.2600461 396.643200
  14280  14279  14283     1   109.5600471 388.275200
  14281  14280  14282     1   109.5600471 388.275200
  14282  14280  14286     1   110.2600474 425.931200
  14283  14279  14287     1   110.2600474 425.931200
  14284  14281  14285     1   109.5800467 425.931200
  14284  14281  14297     1   109.5800467 425.931200
  14289  14295  14296     1   107.2600461 396.643200
  14293  14289  14295     1   110.2600474 425.931200
  14293  14289  14294     1   108.4600466 328.025600
  14294  14289  14295     1   110.2600474 425.931200
  14298  14299  14301     1   109.5600471 388.275200
  14298  14312  14316     1   109.5600471 388.275200
  14298  14312  14317     1   109.5600471 388.275200
  14299  14298  14300     1   109.5600471 388.275200
  14299  14302  14306     1   109.5600471 388.275200
  14299  14311  14314     1   107.2600461 396.643200
  14300  14298  14312     1   109.5600471 388.275200
  14300  14298  14320     1   109.7800468 425.094400
  14301  14299  14302     1   109.5600471 388.275200
  14301  14299  14311     1   110.2600474 425.931200
  14302  14303  14305     1   109.5600471 388.275200
  14302  14310  14313     1   107.2600461 396.643200
  14303  14302  14306     1   109.5600471 388.275200
  14303  14304  14307     1   110.2200475 386.601600
  14303  14309  14315     1   107.2600461 396.643200
  14304  14303  14305     1   109.5600471 388.275200
  14305  14303  14309     1   110.2600474 425.931200
  14306  14302  14310     1   110.2600474 425.931200
  14307  14304  14308     1   109.5800467 425.931200
  14307  14304  14320     1   109.5800467 425.931200
  14312  14318  14319     1   107.2600461 396.643200
  14316  14312  14318     1   110.2600474 425.931200
  14316  14312  14317     1   108.4600466 328.025600
  14317  14312  14318     1   110.2600474 425.931200
  14321  14322  14324     1   109.5600471 388.275200
  14321  14335  14339     1   109.5600471 388.275200
  14321  14335  14340     1   109.5600471 388.275200
  14322  14325  14329     1   109.5600471 388.275200
  14322  14334  14337     1   107.2600461 396.643200
  14322  14321  14323     1   109.5600471 388.275200
  14323  14321  14335     1   109.5600471 388.275200
  14323  14321  14343     1   109.7800468 425.094400
  14324  14322  14325     1   109.5600471 388.275200
  14324  14322  14334     1   110.2600474 425.931200
  14325  14326  14328     1   109.5600471 388.275200
  14325  14333  14336     1   107.2600461 396.643200
  14326  14327  14330     1   110.2200475 386.601600
  14326  14332  14338     1   107.2600461 396.643200
  14326  14325  14329     1   109.5600471 388.275200
  14327  14326  14328     1   109.5600471 388.275200
  14328  14326  14332     1   110.2600474 425.931200
  14329  14325  14333     1   110.2600474 425.931200
  14330  14327  14331     1   109.5800467 425.931200
  14330  14327  14343     1   109.5800467 425.931200
  14335  14341  14342     1   107.2600461 396.643200
  14339  14335  14341     1   110.2600474 425.931200
  14339  14335  14340     1   108.4600466 328.025600
  14340  14335  14341     1   110.2600474 425.931200
  14344  14345  14347     1   109.5600471 388.275200
  14344  14358  14362     1   109.5600471 388.275200
  14344  14358  14363     1   109.5600471 388.275200
  14345  14344  14346     1   109.5600471 388.275200
  14345  14348  14352     1   109.5600471 388.275200
  14345  14357  14360     1   107.2600461 396.643200
  14346  14344  14358     1   109.5600471 388.275200
  14346  14344  14366     1   109.7800468 425.094400
  14347  14345  14348     1   109.5600471 388.275200
  14347  14345  14357     1   110.2600474 425.931200
  14348  14349  14351     1   109.5600471 388.275200
  14348  14356  14359     1   107.2600461 396.643200
  14349  14348  14352     1   109.5600471 388.275200
  14349  14350  14353     1   110.2200475 386.601600
  14349  14355  14361     1   107.2600461 396.643200
  14350  14349  14351     1   109.5600471 388.275200
  14351  14349  14355     1   110.2600474 425.931200
  14352  14348  14356     1   110.2600474 425.931200
  14353  14350  14354     1   109.5800467 425.931200
  14353  14350  14366     1   109.5800467 425.931200
  14358  14364  14365     1   107.2600461 396.643200
  14362  14358  14364     1   110.2600474 425.931200
  14362  14358  14363     1   108.4600466 328.025600
  14363  14358  14364     1   110.2600474 425.931200
  14367  14368  14370     1   109.5600471 388.275200
  14367  14381  14385     1   109.5600471 388.275200
  14367  14381  14386     1   109.5600471 388.275200
  14368  14371  14375     1   109.5600471 388.275200
  14368  14380  14383     1   107.2600461 396.643200
  14368  14367  14369     1   109.5600471 388.275200
  14369  14367  14381     1   109.5600471 388.275200
  14369  14367  14389     1   109.7800468 425.094400
  14370  14368  14371     1   109.5600471 388.275200
  14370  14368  14380     1   110.2600474 425.931200
  14371  14372  14374     1   109.5600471 388.275200
  14371  14379  14382     1   107.2600461 396.643200
  14372  14373  14376     1   110.2200475 386.601600
  14372  14378  14384     1   107.2600461 396.643200
  14372  14371  14375     1   109.5600471 388.275200
  14373  14372  14374     1   109.5600471 388.275200
  14374  14372  14378     1   110.2600474 425.931200
  14375  14371  14379     1   110.2600474 425.931200
  14376  14373  14377     1   109.5800467 425.931200
  14376  14373  14389     1   109.5800467 425.931200
  14381  14387  14388     1   107.2600461 396.643200
  14385  14381  14387     1   110.2600474 425.931200
  14385  14381  14386     1   108.4600466 328.025600
  14386  14381  14387     1   110.2600474 425.931200
  14390  14391  14393     1   109.5600471 388.275200
  14390  14404  14408     1   109.5600471 388.275200
  14390  14404  14409     1   109.5600471 388.275200
  14391  14390  14392     1   109.5600471 388.275200
  14391  14394  14398     1   109.5600471 388.275200
  14391  14403  14406     1   107.2600461 396.643200
  14392  14390  14404     1   109.5600471 388.275200
  14392  14390  14412     1   109.7800468 425.094400
  14393  14391  14394     1   109.5600471 388.275200
  14393  14391  14403     1   110.2600474 425.931200
  14394  14395  14397     1   109.5600471 388.275200
  14394  14402  14405     1   107.2600461 396.643200
  14395  14394  14398     1   109.5600471 388.275200
  14395  14396  14399     1   110.2200475 386.601600
  14395  14401  14407     1   107.2600461 396.643200
  14396  14395  14397     1   109.5600471 388.275200
  14397  14395  14401     1   110.2600474 425.931200
  14398  14394  14402     1   110.2600474 425.931200
  14399  14396  14400     1   109.5800467 425.931200
  14399  14396  14412     1   109.5800467 425.931200
  14404  14410  14411     1   107.2600461 396.643200
  14408  14404  14410     1   110.2600474 425.931200
  14408  14404  14409     1   108.4600466 328.025600
  14409  14404  14410     1   110.2600474 425.931200
  14413  14414  14416     1   109.5600471 388.275200
  14413  14427  14431     1   109.5600471 388.275200
  14413  14427  14432     1   109.5600471 388.275200
  14414  14417  14421     1   109.5600471 388.275200
  14414  14426  14429     1   107.2600461 396.643200
  14414  14413  14415     1   109.5600471 388.275200
  14415  14413  14427     1   109.5600471 388.275200
  14415  14413  14435     1   109.7800468 425.094400
  14416  14414  14417     1   109.5600471 388.275200
  14416  14414  14426     1   110.2600474 425.931200
  14417  14418  14420     1   109.5600471 388.275200
  14417  14425  14428     1   107.2600461 396.643200
  14418  14419  14422     1   110.2200475 386.601600
  14418  14424  14430     1   107.2600461 396.643200
  14418  14417  14421     1   109.5600471 388.275200
  14419  14418  14420     1   109.5600471 388.275200
  14420  14418  14424     1   110.2600474 425.931200
  14421  14417  14425     1   110.2600474 425.931200
  14422  14419  14423     1   109.5800467 425.931200
  14422  14419  14435     1   109.5800467 425.931200
  14427  14433  14434     1   107.2600461 396.643200
  14431  14427  14433     1   110.2600474 425.931200
  14431  14427  14432     1   108.4600466 328.025600
  14432  14427  14433     1   110.2600474 425.931200
  14436  14437  14439     1   109.5600471 388.275200
  14436  14450  14454     1   109.5600471 388.275200
  14436  14450  14455     1   109.5600471 388.275200
  14437  14436  14438     1   109.5600471 388.275200
  14437  14440  14444     1   109.5600471 388.275200
  14437  14449  14452     1   107.2600461 396.643200
  14438  14436  14450     1   109.5600471 388.275200
  14438  14436  14458     1   109.7800468 425.094400
  14439  14437  14440     1   109.5600471 388.275200
  14439  14437  14449     1   110.2600474 425.931200
  14440  14441  14443     1   109.5600471 388.275200
  14440  14448  14451     1   107.2600461 396.643200
  14441  14440  14444     1   109.5600471 388.275200
  14441  14442  14445     1   110.2200475 386.601600
  14441  14447  14453     1   107.2600461 396.643200
  14442  14441  14443     1   109.5600471 388.275200
  14443  14441  14447     1   110.2600474 425.931200
  14444  14440  14448     1   110.2600474 425.931200
  14445  14442  14446     1   109.5800467 425.931200
  14445  14442  14458     1   109.5800467 425.931200
  14450  14456  14457     1   107.2600461 396.643200
  14454  14450  14456     1   110.2600474 425.931200
  14454  14450  14455     1   108.4600466 328.025600
  14455  14450  14456     1   110.2600474 425.931200
  14459  14460  14462     1   109.5600471 388.275200
  14459  14473  14477     1   109.5600471 388.275200
  14459  14473  14478     1   109.5600471 388.275200
  14460  14463  14467     1   109.5600471 388.275200
  14460  14472  14475     1   107.2600461 396.643200
  14460  14459  14461     1   109.5600471 388.275200
  14461  14459  14473     1   109.5600471 388.275200
  14461  14459  14481     1   109.7800468 425.094400
  14462  14460  14463     1   109.5600471 388.275200
  14462  14460  14472     1   110.2600474 425.931200
  14463  14464  14466     1   109.5600471 388.275200
  14463  14471  14474     1   107.2600461 396.643200
  14464  14465  14468     1   110.2200475 386.601600
  14464  14470  14476     1   107.2600461 396.643200
  14464  14463  14467     1   109.5600471 388.275200
  14465  14464  14466     1   109.5600471 388.275200
  14466  14464  14470     1   110.2600474 425.931200
  14467  14463  14471     1   110.2600474 425.931200
  14468  14465  14469     1   109.5800467 425.931200
  14468  14465  14481     1   109.5800467 425.931200
  14473  14479  14480     1   107.2600461 396.643200
  14477  14473  14479     1   110.2600474 425.931200
  14477  14473  14478     1   108.4600466 328.025600
  14478  14473  14479     1   110.2600474 425.931200
  14482  14483  14485     1   109.5600471 388.275200
  14482  14496  14500     1   109.5600471 388.275200
  14482  14496  14501     1   109.5600471 388.275200
  14483  14482  14484     1   109.5600471 388.275200
  14483  14486  14490     1   109.5600471 388.275200
  14483  14495  14498     1   107.2600461 396.643200
  14484  14482  14496     1   109.5600471 388.275200
  14484  14482  14504     1   109.7800468 425.094400
  14485  14483  14486     1   109.5600471 388.275200
  14485  14483  14495     1   110.2600474 425.931200
  14486  14487  14489     1   109.5600471 388.275200
  14486  14494  14497     1   107.2600461 396.643200
  14487  14486  14490     1   109.5600471 388.275200
  14487  14488  14491     1   110.2200475 386.601600
  14487  14493  14499     1   107.2600461 396.643200
  14488  14487  14489     1   109.5600471 388.275200
  14489  14487  14493     1   110.2600474 425.931200
  14490  14486  14494     1   110.2600474 425.931200
  14491  14488  14492     1   109.5800467 425.931200
  14491  14488  14504     1   109.5800467 425.931200
  14496  14502  14503     1   107.2600461 396.643200
  14500  14496  14502     1   110.2600474 425.931200
  14500  14496  14501     1   108.4600466 328.025600
  14501  14496  14502     1   110.2600474 425.931200
  14505  14506  14508     1   109.5600471 388.275200
  14505  14519  14523     1   109.5600471 388.275200
  14505  14519  14524     1   109.5600471 388.275200
  14506  14509  14513     1   109.5600471 388.275200
  14506  14518  14521     1   107.2600461 396.643200
  14506  14505  14507     1   109.5600471 388.275200
  14507  14505  14519     1   109.5600471 388.275200
  14507  14505  14527     1   109.7800468 425.094400
  14508  14506  14509     1   109.5600471 388.275200
  14508  14506  14518     1   110.2600474 425.931200
  14509  14510  14512     1   109.5600471 388.275200
  14509  14517  14520     1   107.2600461 396.643200
  14510  14511  14514     1   110.2200475 386.601600
  14510  14516  14522     1   107.2600461 396.643200
  14510  14509  14513     1   109.5600471 388.275200
  14511  14510  14512     1   109.5600471 388.275200
  14512  14510  14516     1   110.2600474 425.931200
  14513  14509  14517     1   110.2600474 425.931200
  14514  14511  14515     1   109.5800467 425.931200
  14514  14511  14527     1   109.5800467 425.931200
  14519  14525  14526     1   107.2600461 396.643200
  14523  14519  14525     1   110.2600474 425.931200
  14523  14519  14524     1   108.4600466 328.025600
  14524  14519  14525     1   110.2600474 425.931200
  14528  14529  14531     1   109.5600471 388.275200
  14528  14542  14546     1   109.5600471 388.275200
  14528  14542  14547     1   109.5600471 388.275200
  14529  14528  14530     1   109.5600471 388.275200
  14529  14532  14536     1   109.5600471 388.275200
  14529  14541  14544     1   107.2600461 396.643200
  14530  14528  14542     1   109.5600471 388.275200
  14530  14528  14550     1   109.7800468 425.094400
  14531  14529  14532     1   109.5600471 388.275200
  14531  14529  14541     1   110.2600474 425.931200
  14532  14533  14535     1   109.5600471 388.275200
  14532  14540  14543     1   107.2600461 396.643200
  14533  14532  14536     1   109.5600471 388.275200
  14533  14534  14537     1   110.2200475 386.601600
  14533  14539  14545     1   107.2600461 396.643200
  14534  14533  14535     1   109.5600471 388.275200
  14535  14533  14539     1   110.2600474 425.931200
  14536  14532  14540     1   110.2600474 425.931200
  14537  14534  14538     1   109.5800467 425.931200
  14537  14534  14550     1   109.5800467 425.931200
  14542  14548  14549     1   107.2600461 396.643200
  14546  14542  14548     1   110.2600474 425.931200
  14546  14542  14547     1   108.4600466 328.025600
  14547  14542  14548     1   110.2600474 425.931200
  14551  14552  14554     1   109.5600471 388.275200
  14551  14565  14569     1   109.5600471 388.275200
  14551  14565  14570     1   109.5600471 388.275200
  14552  14555  14559     1   109.5600471 388.275200
  14552  14564  14567     1   107.2600461 396.643200
  14552  14551  14553     1   109.5600471 388.275200
  14553  14551  14565     1   109.5600471 388.275200
  14553  14551  14573     1   109.7800468 425.094400
  14554  14552  14555     1   109.5600471 388.275200
  14554  14552  14564     1   110.2600474 425.931200
  14555  14556  14558     1   109.5600471 388.275200
  14555  14563  14566     1   107.2600461 396.643200
  14556  14557  14560     1   110.2200475 386.601600
  14556  14562  14568     1   107.2600461 396.643200
  14556  14555  14559     1   109.5600471 388.275200
  14557  14556  14558     1   109.5600471 388.275200
  14558  14556  14562     1   110.2600474 425.931200
  14559  14555  14563     1   110.2600474 425.931200
  14560  14557  14561     1   109.5800467 425.931200
  14560  14557  14573     1   109.5800467 425.931200
  14565  14571  14572     1   107.2600461 396.643200
  14569  14565  14571     1   110.2600474 425.931200
  14569  14565  14570     1   108.4600466 328.025600
  14570  14565  14571     1   110.2600474 425.931200
  14574  14575  14577     1   109.5600471 388.275200
  14574  14588  14592     1   109.5600471 388.275200
  14574  14588  14593     1   109.5600471 388.275200
  14575  14574  14576     1   109.5600471 388.275200
  14575  14578  14582     1   109.5600471 388.275200
  14575  14587  14590     1   107.2600461 396.643200
  14576  14574  14588     1   109.5600471 388.275200
  14576  14574  14596     1   109.7800468 425.094400
  14577  14575  14578     1   109.5600471 388.275200
  14577  14575  14587     1   110.2600474 425.931200
  14578  14579  14581     1   109.5600471 388.275200
  14578  14586  14589     1   107.2600461 396.643200
  14579  14578  14582     1   109.5600471 388.275200
  14579  14580  14583     1   110.2200475 386.601600
  14579  14585  14591     1   107.2600461 396.643200
  14580  14579  14581     1   109.5600471 388.275200
  14581  14579  14585     1   110.2600474 425.931200
  14582  14578  14586     1   110.2600474 425.931200
  14583  14580  14584     1   109.5800467 425.931200
  14583  14580  14596     1   109.5800467 425.931200
  14588  14594  14595     1   107.2600461 396.643200
  14592  14588  14594     1   110.2600474 425.931200
  14592  14588  14593     1   108.4600466 328.025600
  14593  14588  14594     1   110.2600474 425.931200
  14597  14598  14600     1   109.5600471 388.275200
  14597  14611  14615     1   109.5600471 388.275200
  14597  14611  14616     1   109.5600471 388.275200
  14598  14601  14605     1   109.5600471 388.275200
  14598  14610  14613     1   107.2600461 396.643200
  14598  14597  14599     1   109.5600471 388.275200
  14599  14597  14611     1   109.5600471 388.275200
  14599  14597  14619     1   109.7800468 425.094400
  14600  14598  14601     1   109.5600471 388.275200
  14600  14598  14610     1   110.2600474 425.931200
  14601  14602  14604     1   109.5600471 388.275200
  14601  14609  14612     1   107.2600461 396.643200
  14602  14603  14606     1   110.2200475 386.601600
  14602  14608  14614     1   107.2600461 396.643200
  14602  14601  14605     1   109.5600471 388.275200
  14603  14602  14604     1   109.5600471 388.275200
  14604  14602  14608     1   110.2600474 425.931200
  14605  14601  14609     1   110.2600474 425.931200
  14606  14603  14607     1   109.5800467 425.931200
  14606  14603  14619     1   109.5800467 425.931200
  14611  14617  14618     1   107.2600461 396.643200
  14615  14611  14617     1   110.2600474 425.931200
  14615  14611  14616     1   108.4600466 328.025600
  14616  14611  14617     1   110.2600474 425.931200
  14620  14621  14623     1   109.5600471 388.275200
  14620  14634  14638     1   109.5600471 388.275200
  14620  14634  14639     1   109.5600471 388.275200
  14621  14620  14622     1   109.5600471 388.275200
  14621  14624  14628     1   109.5600471 388.275200
  14621  14633  14636     1   107.2600461 396.643200
  14622  14620  14634     1   109.5600471 388.275200
  14622  14620  14642     1   109.7800468 425.094400
  14623  14621  14624     1   109.5600471 388.275200
  14623  14621  14633     1   110.2600474 425.931200
  14624  14625  14627     1   109.5600471 388.275200
  14624  14632  14635     1   107.2600461 396.643200
  14625  14624  14628     1   109.5600471 388.275200
  14625  14626  14629     1   110.2200475 386.601600
  14625  14631  14637     1   107.2600461 396.643200
  14626  14625  14627     1   109.5600471 388.275200
  14627  14625  14631     1   110.2600474 425.931200
  14628  14624  14632     1   110.2600474 425.931200
  14629  14626  14630     1   109.5800467 425.931200
  14629  14626  14642     1   109.5800467 425.931200
  14634  14640  14641     1   107.2600461 396.643200
  14638  14634  14640     1   110.2600474 425.931200
  14638  14634  14639     1   108.4600466 328.025600
  14639  14634  14640     1   110.2600474 425.931200
  14643  14644  14646     1   109.5600471 388.275200
  14643  14657  14661     1   109.5600471 388.275200
  14643  14657  14662     1   109.5600471 388.275200
  14644  14647  14651     1   109.5600471 388.275200
  14644  14656  14659     1   107.2600461 396.643200
  14644  14643  14645     1   109.5600471 388.275200
  14645  14643  14657     1   109.5600471 388.275200
  14645  14643  14665     1   109.7800468 425.094400
  14646  14644  14647     1   109.5600471 388.275200
  14646  14644  14656     1   110.2600474 425.931200
  14647  14648  14650     1   109.5600471 388.275200
  14647  14655  14658     1   107.2600461 396.643200
  14648  14649  14652     1   110.2200475 386.601600
  14648  14654  14660     1   107.2600461 396.643200
  14648  14647  14651     1   109.5600471 388.275200
  14649  14648  14650     1   109.5600471 388.275200
  14650  14648  14654     1   110.2600474 425.931200
  14651  14647  14655     1   110.2600474 425.931200
  14652  14649  14653     1   109.5800467 425.931200
  14652  14649  14665     1   109.5800467 425.931200
  14657  14663  14664     1   107.2600461 396.643200
  14661  14657  14663     1   110.2600474 425.931200
  14661  14657  14662     1   108.4600466 328.025600
  14662  14657  14663     1   110.2600474 425.931200
  14666  14667  14669     1   109.5600471 388.275200
  14666  14680  14684     1   109.5600471 388.275200
  14666  14680  14685     1   109.5600471 388.275200
  14667  14666  14668     1   109.5600471 388.275200
  14667  14670  14674     1   109.5600471 388.275200
  14667  14679  14682     1   107.2600461 396.643200
  14668  14666  14680     1   109.5600471 388.275200
  14668  14666  14688     1   109.7800468 425.094400
  14669  14667  14670     1   109.5600471 388.275200
  14669  14667  14679     1   110.2600474 425.931200
  14670  14671  14673     1   109.5600471 388.275200
  14670  14678  14681     1   107.2600461 396.643200
  14671  14670  14674     1   109.5600471 388.275200
  14671  14672  14675     1   110.2200475 386.601600
  14671  14677  14683     1   107.2600461 396.643200
  14672  14671  14673     1   109.5600471 388.275200
  14673  14671  14677     1   110.2600474 425.931200
  14674  14670  14678     1   110.2600474 425.931200
  14675  14672  14676     1   109.5800467 425.931200
  14675  14672  14688     1   109.5800467 425.931200
  14680  14686  14687     1   107.2600461 396.643200
  14684  14680  14686     1   110.2600474 425.931200
  14684  14680  14685     1   108.4600466 328.025600
  14685  14680  14686     1   110.2600474 425.931200
  14689  14690  14692     1   109.5600471 388.275200
  14689  14703  14707     1   109.5600471 388.275200
  14689  14703  14708     1   109.5600471 388.275200
  14690  14693  14697     1   109.5600471 388.275200
  14690  14702  14705     1   107.2600461 396.643200
  14690  14689  14691     1   109.5600471 388.275200
  14691  14689  14703     1   109.5600471 388.275200
  14691  14689  14711     1   109.7800468 425.094400
  14692  14690  14693     1   109.5600471 388.275200
  14692  14690  14702     1   110.2600474 425.931200
  14693  14694  14696     1   109.5600471 388.275200
  14693  14701  14704     1   107.2600461 396.643200
  14694  14695  14698     1   110.2200475 386.601600
  14694  14700  14706     1   107.2600461 396.643200
  14694  14693  14697     1   109.5600471 388.275200
  14695  14694  14696     1   109.5600471 388.275200
  14696  14694  14700     1   110.2600474 425.931200
  14697  14693  14701     1   110.2600474 425.931200
  14698  14695  14699     1   109.5800467 425.931200
  14698  14695  14711     1   109.5800467 425.931200
  14703  14709  14710     1   107.2600461 396.643200
  14707  14703  14709     1   110.2600474 425.931200
  14707  14703  14708     1   108.4600466 328.025600
  14708  14703  14709     1   110.2600474 425.931200
  14712  14713  14715     1   109.5600471 388.275200
  14712  14726  14730     1   109.5600471 388.275200
  14712  14726  14731     1   109.5600471 388.275200
  14713  14712  14714     1   109.5600471 388.275200
  14713  14716  14720     1   109.5600471 388.275200
  14713  14725  14728     1   107.2600461 396.643200
  14714  14712  14726     1   109.5600471 388.275200
  14714  14712  14734     1   109.7800468 425.094400
  14715  14713  14716     1   109.5600471 388.275200
  14715  14713  14725     1   110.2600474 425.931200
  14716  14717  14719     1   109.5600471 388.275200
  14716  14724  14727     1   107.2600461 396.643200
  14717  14716  14720     1   109.5600471 388.275200
  14717  14718  14721     1   110.2200475 386.601600
  14717  14723  14729     1   107.2600461 396.643200
  14718  14717  14719     1   109.5600471 388.275200
  14719  14717  14723     1   110.2600474 425.931200
  14720  14716  14724     1   110.2600474 425.931200
  14721  14718  14722     1   109.5800467 425.931200
  14721  14718  14734     1   109.5800467 425.931200
  14726  14732  14733     1   107.2600461 396.643200
  14730  14726  14732     1   110.2600474 425.931200
  14730  14726  14731     1   108.4600466 328.025600
  14731  14726  14732     1   110.2600474 425.931200
  14735  14736  14738     1   109.5600471 388.275200
  14735  14749  14753     1   109.5600471 388.275200
  14735  14749  14754     1   109.5600471 388.275200
  14736  14739  14743     1   109.5600471 388.275200
  14736  14748  14751     1   107.2600461 396.643200
  14736  14735  14737     1   109.5600471 388.275200
  14737  14735  14749     1   109.5600471 388.275200
  14737  14735  14757     1   109.7800468 425.094400
  14738  14736  14739     1   109.5600471 388.275200
  14738  14736  14748     1   110.2600474 425.931200
  14739  14740  14742     1   109.5600471 388.275200
  14739  14747  14750     1   107.2600461 396.643200
  14740  14741  14744     1   110.2200475 386.601600
  14740  14746  14752     1   107.2600461 396.643200
  14740  14739  14743     1   109.5600471 388.275200
  14741  14740  14742     1   109.5600471 388.275200
  14742  14740  14746     1   110.2600474 425.931200
  14743  14739  14747     1   110.2600474 425.931200
  14744  14741  14745     1   109.5800467 425.931200
  14744  14741  14757     1   109.5800467 425.931200
  14749  14755  14756     1   107.2600461 396.643200
  14753  14749  14755     1   110.2600474 425.931200
  14753  14749  14754     1   108.4600466 328.025600
  14754  14749  14755     1   110.2600474 425.931200
  14758  14759  14761     1   109.5600471 388.275200
  14758  14772  14776     1   109.5600471 388.275200
  14758  14772  14777     1   109.5600471 388.275200
  14759  14758  14760     1   109.5600471 388.275200
  14759  14762  14766     1   109.5600471 388.275200
  14759  14771  14774     1   107.2600461 396.643200
  14760  14758  14772     1   109.5600471 388.275200
  14760  14758  14780     1   109.7800468 425.094400
  14761  14759  14762     1   109.5600471 388.275200
  14761  14759  14771     1   110.2600474 425.931200
  14762  14763  14765     1   109.5600471 388.275200
  14762  14770  14773     1   107.2600461 396.643200
  14763  14762  14766     1   109.5600471 388.275200
  14763  14764  14767     1   110.2200475 386.601600
  14763  14769  14775     1   107.2600461 396.643200
  14764  14763  14765     1   109.5600471 388.275200
  14765  14763  14769     1   110.2600474 425.931200
  14766  14762  14770     1   110.2600474 425.931200
  14767  14764  14768     1   109.5800467 425.931200
  14767  14764  14780     1   109.5800467 425.931200
  14772  14778  14779     1   107.2600461 396.643200
  14776  14772  14778     1   110.2600474 425.931200
  14776  14772  14777     1   108.4600466 328.025600
  14777  14772  14778     1   110.2600474 425.931200
  14781  14782  14784     1   109.5600471 388.275200
  14781  14795  14799     1   109.5600471 388.275200
  14781  14795  14800     1   109.5600471 388.275200
  14782  14785  14789     1   109.5600471 388.275200
  14782  14794  14797     1   107.2600461 396.643200
  14782  14781  14783     1   109.5600471 388.275200
  14783  14781  14795     1   109.5600471 388.275200
  14783  14781  14803     1   109.7800468 425.094400
  14784  14782  14785     1   109.5600471 388.275200
  14784  14782  14794     1   110.2600474 425.931200
  14785  14786  14788     1   109.5600471 388.275200
  14785  14793  14796     1   107.2600461 396.643200
  14786  14787  14790     1   110.2200475 386.601600
  14786  14792  14798     1   107.2600461 396.643200
  14786  14785  14789     1   109.5600471 388.275200
  14787  14786  14788     1   109.5600471 388.275200
  14788  14786  14792     1   110.2600474 425.931200
  14789  14785  14793     1   110.2600474 425.931200
  14790  14787  14791     1   109.5800467 425.931200
  14790  14787  14803     1   109.5800467 425.931200
  14795  14801  14802     1   107.2600461 396.643200
  14799  14795  14801     1   110.2600474 425.931200
  14799  14795  14800     1   108.4600466 328.025600
  14800  14795  14801     1   110.2600474 425.931200
  14804  14805  14807     1   109.5600471 388.275200
  14804  14818  14822     1   109.5600471 388.275200
  14804  14818  14823     1   109.5600471 388.275200
  14805  14804  14806     1   109.5600471 388.275200
  14805  14808  14812     1   109.5600471 388.275200
  14805  14817  14820     1   107.2600461 396.643200
  14806  14804  14818     1   109.5600471 388.275200
  14806  14804  14826     1   109.7800468 425.094400
  14807  14805  14808     1   109.5600471 388.275200
  14807  14805  14817     1   110.2600474 425.931200
  14808  14809  14811     1   109.5600471 388.275200
  14808  14816  14819     1   107.2600461 396.643200
  14809  14808  14812     1   109.5600471 388.275200
  14809  14810  14813     1   110.2200475 386.601600
  14809  14815  14821     1   107.2600461 396.643200
  14810  14809  14811     1   109.5600471 388.275200
  14811  14809  14815     1   110.2600474 425.931200
  14812  14808  14816     1   110.2600474 425.931200
  14813  14810  14814     1   109.5800467 425.931200
  14813  14810  14826     1   109.5800467 425.931200
  14818  14824  14825     1   107.2600461 396.643200
  14822  14818  14824     1   110.2600474 425.931200
  14822  14818  14823     1   108.4600466 328.025600
  14823  14818  14824     1   110.2600474 425.931200
  14827  14828  14830     1   109.5600471 388.275200
  14827  14841  14845     1   109.5600471 388.275200
  14827  14841  14846     1   109.5600471 388.275200
  14828  14831  14835     1   109.5600471 388.275200
  14828  14840  14843     1   107.2600461 396.643200
  14828  14827  14829     1   109.5600471 388.275200
  14829  14827  14841     1   109.5600471 388.275200
  14829  14827  14849     1   109.7800468 425.094400
  14830  14828  14831     1   109.5600471 388.275200
  14830  14828  14840     1   110.2600474 425.931200
  14831  14832  14834     1   109.5600471 388.275200
  14831  14839  14842     1   107.2600461 396.643200
  14832  14833  14836     1   110.2200475 386.601600
  14832  14838  14844     1   107.2600461 396.643200
  14832  14831  14835     1   109.5600471 388.275200
  14833  14832  14834     1   109.5600471 388.275200
  14834  14832  14838     1   110.2600474 425.931200
  14835  14831  14839     1   110.2600474 425.931200
  14836  14833  14837     1   109.5800467 425.931200
  14836  14833  14849     1   109.5800467 425.931200
  14841  14847  14848     1   107.2600461 396.643200
  14845  14841  14847     1   110.2600474 425.931200
  14845  14841  14846     1   108.4600466 328.025600
  14846  14841  14847     1   110.2600474 425.931200
  14850  14851  14853     1   109.5600471 388.275200
  14850  14864  14868     1   109.5600471 388.275200
  14850  14864  14869     1   109.5600471 388.275200
  14851  14850  14852     1   109.5600471 388.275200
  14851  14854  14858     1   109.5600471 388.275200
  14851  14863  14866     1   107.2600461 396.643200
  14852  14850  14864     1   109.5600471 388.275200
  14852  14850  14872     1   109.7800468 425.094400
  14853  14851  14854     1   109.5600471 388.275200
  14853  14851  14863     1   110.2600474 425.931200
  14854  14855  14857     1   109.5600471 388.275200
  14854  14862  14865     1   107.2600461 396.643200
  14855  14854  14858     1   109.5600471 388.275200
  14855  14856  14859     1   110.2200475 386.601600
  14855  14861  14867     1   107.2600461 396.643200
  14856  14855  14857     1   109.5600471 388.275200
  14857  14855  14861     1   110.2600474 425.931200
  14858  14854  14862     1   110.2600474 425.931200
  14859  14856  14860     1   109.5800467 425.931200
  14859  14856  14872     1   109.5800467 425.931200
  14864  14870  14871     1   107.2600461 396.643200
  14868  14864  14870     1   110.2600474 425.931200
  14868  14864  14869     1   108.4600466 328.025600
  14869  14864  14870     1   110.2600474 425.931200
  14873  14874  14876     1   109.5600471 388.275200
  14873  14887  14891     1   109.5600471 388.275200
  14873  14887  14892     1   109.5600471 388.275200
  14874  14877  14881     1   109.5600471 388.275200
  14874  14886  14889     1   107.2600461 396.643200
  14874  14873  14875     1   109.5600471 388.275200
  14875  14873  14887     1   109.5600471 388.275200
  14875  14873  14895     1   109.7800468 425.094400
  14876  14874  14877     1   109.5600471 388.275200
  14876  14874  14886     1   110.2600474 425.931200
  14877  14878  14880     1   109.5600471 388.275200
  14877  14885  14888     1   107.2600461 396.643200
  14878  14879  14882     1   110.2200475 386.601600
  14878  14884  14890     1   107.2600461 396.643200
  14878  14877  14881     1   109.5600471 388.275200
  14879  14878  14880     1   109.5600471 388.275200
  14880  14878  14884     1   110.2600474 425.931200
  14881  14877  14885     1   110.2600474 425.931200
  14882  14879  14883     1   109.5800467 425.931200
  14882  14879  14895     1   109.5800467 425.931200
  14887  14893  14894     1   107.2600461 396.643200
  14891  14887  14893     1   110.2600474 425.931200
  14891  14887  14892     1   108.4600466 328.025600
  14892  14887  14893     1   110.2600474 425.931200
  14896  14897  14899     1   109.5600471 388.275200
  14896  14910  14914     1   109.5600471 388.275200
  14896  14910  14915     1   109.5600471 388.275200
  14897  14896  14898     1   109.5600471 388.275200
  14897  14900  14904     1   109.5600471 388.275200
  14897  14909  14912     1   107.2600461 396.643200
  14898  14896  14910     1   109.5600471 388.275200
  14898  14896  14918     1   109.7800468 425.094400
  14899  14897  14900     1   109.5600471 388.275200
  14899  14897  14909     1   110.2600474 425.931200
  14900  14901  14903     1   109.5600471 388.275200
  14900  14908  14911     1   107.2600461 396.643200
  14901  14900  14904     1   109.5600471 388.275200
  14901  14902  14905     1   110.2200475 386.601600
  14901  14907  14913     1   107.2600461 396.643200
  14902  14901  14903     1   109.5600471 388.275200
  14903  14901  14907     1   110.2600474 425.931200
  14904  14900  14908     1   110.2600474 425.931200
  14905  14902  14906     1   109.5800467 425.931200
  14905  14902  14918     1   109.5800467 425.931200
  14910  14916  14917     1   107.2600461 396.643200
  14914  14910  14916     1   110.2600474 425.931200
  14914  14910  14915     1   108.4600466 328.025600
  14915  14910  14916     1   110.2600474 425.931200
  14919  14920  14922     1   109.5600471 388.275200
  14919  14933  14937     1   109.5600471 388.275200
  14919  14933  14938     1   109.5600471 388.275200
  14920  14923  14927     1   109.5600471 388.275200
  14920  14932  14935     1   107.2600461 396.643200
  14920  14919  14921     1   109.5600471 388.275200
  14921  14919  14933     1   109.5600471 388.275200
  14921  14919  14941     1   109.7800468 425.094400
  14922  14920  14923     1   109.5600471 388.275200
  14922  14920  14932     1   110.2600474 425.931200
  14923  14924  14926     1   109.5600471 388.275200
  14923  14931  14934     1   107.2600461 396.643200
  14924  14925  14928     1   110.2200475 386.601600
  14924  14930  14936     1   107.2600461 396.643200
  14924  14923  14927     1   109.5600471 388.275200
  14925  14924  14926     1   109.5600471 388.275200
  14926  14924  14930     1   110.2600474 425.931200
  14927  14923  14931     1   110.2600474 425.931200
  14928  14925  14929     1   109.5800467 425.931200
  14928  14925  14941     1   109.5800467 425.931200
  14933  14939  14940     1   107.2600461 396.643200
  14937  14933  14939     1   110.2600474 425.931200
  14937  14933  14938     1   108.4600466 328.025600
  14938  14933  14939     1   110.2600474 425.931200
  14942  14943  14945     1   109.5600471 388.275200
  14942  14956  14960     1   109.5600471 388.275200
  14942  14956  14961     1   109.5600471 388.275200
  14943  14942  14944     1   109.5600471 388.275200
  14943  14946  14950     1   109.5600471 388.275200
  14943  14955  14958     1   107.2600461 396.643200
  14944  14942  14956     1   109.5600471 388.275200
  14944  14942  14964     1   109.7800468 425.094400
  14945  14943  14946     1   109.5600471 388.275200
  14945  14943  14955     1   110.2600474 425.931200
  14946  14947  14949     1   109.5600471 388.275200
  14946  14954  14957     1   107.2600461 396.643200
  14947  14946  14950     1   109.5600471 388.275200
  14947  14948  14951     1   110.2200475 386.601600
  14947  14953  14959     1   107.2600461 396.643200
  14948  14947  14949     1   109.5600471 388.275200
  14949  14947  14953     1   110.2600474 425.931200
  14950  14946  14954     1   110.2600474 425.931200
  14951  14948  14952     1   109.5800467 425.931200
  14951  14948  14964     1   109.5800467 425.931200
  14956  14962  14963     1   107.2600461 396.643200
  14960  14956  14962     1   110.2600474 425.931200
  14960  14956  14961     1   108.4600466 328.025600
  14961  14956  14962     1   110.2600474 425.931200
  14965  14966  14968     1   109.5600471 388.275200
  14965  14979  14983     1   109.5600471 388.275200
  14965  14979  14984     1   109.5600471 388.275200
  14966  14969  14973     1   109.5600471 388.275200
  14966  14978  14981     1   107.2600461 396.643200
  14966  14965  14967     1   109.5600471 388.275200
  14967  14965  14979     1   109.5600471 388.275200
  14967  14965  14987     1   109.7800468 425.094400
  14968  14966  14969     1   109.5600471 388.275200
  14968  14966  14978     1   110.2600474 425.931200
  14969  14970  14972     1   109.5600471 388.275200
  14969  14977  14980     1   107.2600461 396.643200
  14970  14971  14974     1   110.2200475 386.601600
  14970  14976  14982     1   107.2600461 396.643200
  14970  14969  14973     1   109.5600471 388.275200
  14971  14970  14972     1   109.5600471 388.275200
  14972  14970  14976     1   110.2600474 425.931200
  14973  14969  14977     1   110.2600474 425.931200
  14974  14971  14975     1   109.5800467 425.931200
  14974  14971  14987     1   109.5800467 425.931200
  14979  14985  14986     1   107.2600461 396.643200
  14983  14979  14985     1   110.2600474 425.931200
  14983  14979  14984     1   108.4600466 328.025600
  14984  14979  14985     1   110.2600474 425.931200
  14988  14989  14991     1   109.5600471 388.275200
  14988  15002  15006     1   109.5600471 388.275200
  14988  15002  15007     1   109.5600471 388.275200
  14989  14988  14990     1   109.5600471 388.275200
  14989  14992  14996     1   109.5600471 388.275200
  14989  15001  15004     1   107.2600461 396.643200
  14990  14988  15002     1   109.5600471 388.275200
  14990  14988  15010     1   109.7800468 425.094400
  14991  14989  14992     1   109.5600471 388.275200
  14991  14989  15001     1   110.2600474 425.931200
  14992  14993  14995     1   109.5600471 388.275200
  14992  15000  15003     1   107.2600461 396.643200
  14993  14992  14996     1   109.5600471 388.275200
  14993  14994  14997     1   110.2200475 386.601600
  14993  14999  15005     1   107.2600461 396.643200
  14994  14993  14995     1   109.5600471 388.275200
  14995  14993  14999     1   110.2600474 425.931200
  14996  14992  15000     1   110.2600474 425.931200
  14997  14994  14998     1   109.5800467 425.931200
  14997  14994  15010     1   109.5800467 425.931200
  15002  15008  15009     1   107.2600461 396.643200
  15006  15002  15008     1   110.2600474 425.931200
  15006  15002  15007     1   108.4600466 328.025600
  15007  15002  15008     1   110.2600474 425.931200
  15011  15012  15014     1   109.5600471 388.275200
  15011  15025  15029     1   109.5600471 388.275200
  15011  15025  15030     1   109.5600471 388.275200
  15012  15015  15019     1   109.5600471 388.275200
  15012  15024  15027     1   107.2600461 396.643200
  15012  15011  15013     1   109.5600471 388.275200
  15013  15011  15025     1   109.5600471 388.275200
  15013  15011  15033     1   109.7800468 425.094400
  15014  15012  15015     1   109.5600471 388.275200
  15014  15012  15024     1   110.2600474 425.931200
  15015  15016  15018     1   109.5600471 388.275200
  15015  15023  15026     1   107.2600461 396.643200
  15016  15017  15020     1   110.2200475 386.601600
  15016  15022  15028     1   107.2600461 396.643200
  15016  15015  15019     1   109.5600471 388.275200
  15017  15016  15018     1   109.5600471 388.275200
  15018  15016  15022     1   110.2600474 425.931200
  15019  15015  15023     1   110.2600474 425.931200
  15020  15017  15021     1   109.5800467 425.931200
  15020  15017  15033     1   109.5800467 425.931200
  15025  15031  15032     1   107.2600461 396.643200
  15029  15025  15031     1   110.2600474 425.931200
  15029  15025  15030     1   108.4600466 328.025600
  15030  15025  15031     1   110.2600474 425.931200
  15034  15035  15037     1   109.5600471 388.275200
  15034  15048  15052     1   109.5600471 388.275200
  15034  15048  15053     1   109.5600471 388.275200
  15035  15034  15036     1   109.5600471 388.275200
  15035  15038  15042     1   109.5600471 388.275200
  15035  15047  15050     1   107.2600461 396.643200
  15036  15034  15048     1   109.5600471 388.275200
  15036  15034  15056     1   109.7800468 425.094400
  15037  15035  15038     1   109.5600471 388.275200
  15037  15035  15047     1   110.2600474 425.931200
  15038  15039  15041     1   109.5600471 388.275200
  15038  15046  15049     1   107.2600461 396.643200
  15039  15038  15042     1   109.5600471 388.275200
  15039  15040  15043     1   110.2200475 386.601600
  15039  15045  15051     1   107.2600461 396.643200
  15040  15039  15041     1   109.5600471 388.275200
  15041  15039  15045     1   110.2600474 425.931200
  15042  15038  15046     1   110.2600474 425.931200
  15043  15040  15044     1   109.5800467 425.931200
  15043  15040  15056     1   109.5800467 425.931200
  15048  15054  15055     1   107.2600461 396.643200
  15052  15048  15054     1   110.2600474 425.931200
  15052  15048  15053     1   108.4600466 328.025600
  15053  15048  15054     1   110.2600474 425.931200
  15057  15058  15060     1   109.5600471 388.275200
  15057  15071  15075     1   109.5600471 388.275200
  15057  15071  15076     1   109.5600471 388.275200
  15058  15061  15065     1   109.5600471 388.275200
  15058  15070  15073     1   107.2600461 396.643200
  15058  15057  15059     1   109.5600471 388.275200
  15059  15057  15071     1   109.5600471 388.275200
  15059  15057  15079     1   109.7800468 425.094400
  15060  15058  15061     1   109.5600471 388.275200
  15060  15058  15070     1   110.2600474 425.931200
  15061  15062  15064     1   109.5600471 388.275200
  15061  15069  15072     1   107.2600461 396.643200
  15062  15063  15066     1   110.2200475 386.601600
  15062  15068  15074     1   107.2600461 396.643200
  15062  15061  15065     1   109.5600471 388.275200
  15063  15062  15064     1   109.5600471 388.275200
  15064  15062  15068     1   110.2600474 425.931200
  15065  15061  15069     1   110.2600474 425.931200
  15066  15063  15067     1   109.5800467 425.931200
  15066  15063  15079     1   109.5800467 425.931200
  15071  15077  15078     1   107.2600461 396.643200
  15075  15071  15077     1   110.2600474 425.931200
  15075  15071  15076     1   108.4600466 328.025600
  15076  15071  15077     1   110.2600474 425.931200
  15080  15081  15083     1   109.5600471 388.275200
  15080  15094  15098     1   109.5600471 388.275200
  15080  15094  15099     1   109.5600471 388.275200
  15081  15080  15082     1   109.5600471 388.275200
  15081  15084  15088     1   109.5600471 388.275200
  15081  15093  15096     1   107.2600461 396.643200
  15082  15080  15094     1   109.5600471 388.275200
  15082  15080  15102     1   109.7800468 425.094400
  15083  15081  15084     1   109.5600471 388.275200
  15083  15081  15093     1   110.2600474 425.931200
  15084  15085  15087     1   109.5600471 388.275200
  15084  15092  15095     1   107.2600461 396.643200
  15085  15084  15088     1   109.5600471 388.275200
  15085  15086  15089     1   110.2200475 386.601600
  15085  15091  15097     1   107.2600461 396.643200
  15086  15085  15087     1   109.5600471 388.275200
  15087  15085  15091     1   110.2600474 425.931200
  15088  15084  15092     1   110.2600474 425.931200
  15089  15086  15090     1   109.5800467 425.931200
  15089  15086  15102     1   109.5800467 425.931200
  15094  15100  15101     1   107.2600461 396.643200
  15098  15094  15100     1   110.2600474 425.931200
  15098  15094  15099     1   108.4600466 328.025600
  15099  15094  15100     1   110.2600474 425.931200
  15103  15104  15106     1   109.5600471 388.275200
  15103  15117  15121     1   109.5600471 388.275200
  15103  15117  15122     1   109.5600471 388.275200
  15104  15107  15111     1   109.5600471 388.275200
  15104  15116  15119     1   107.2600461 396.643200
  15104  15103  15105     1   109.5600471 388.275200
  15105  15103  15117     1   109.5600471 388.275200
  15105  15103  15125     1   109.7800468 425.094400
  15106  15104  15107     1   109.5600471 388.275200
  15106  15104  15116     1   110.2600474 425.931200
  15107  15108  15110     1   109.5600471 388.275200
  15107  15115  15118     1   107.2600461 396.643200
  15108  15109  15112     1   110.2200475 386.601600
  15108  15114  15120     1   107.2600461 396.643200
  15108  15107  15111     1   109.5600471 388.275200
  15109  15108  15110     1   109.5600471 388.275200
  15110  15108  15114     1   110.2600474 425.931200
  15111  15107  15115     1   110.2600474 425.931200
  15112  15109  15113     1   109.5800467 425.931200
  15112  15109  15125     1   109.5800467 425.931200
  15117  15123  15124     1   107.2600461 396.643200
  15121  15117  15123     1   110.2600474 425.931200
  15121  15117  15122     1   108.4600466 328.025600
  15122  15117  15123     1   110.2600474 425.931200
  15126  15127  15129     1   109.5600471 388.275200
  15126  15140  15144     1   109.5600471 388.275200
  15126  15140  15145     1   109.5600471 388.275200
  15127  15126  15128     1   109.5600471 388.275200
  15127  15130  15134     1   109.5600471 388.275200
  15127  15139  15142     1   107.2600461 396.643200
  15128  15126  15140     1   109.5600471 388.275200
  15128  15126  15148     1   109.7800468 425.094400
  15129  15127  15130     1   109.5600471 388.275200
  15129  15127  15139     1   110.2600474 425.931200
  15130  15131  15133     1   109.5600471 388.275200
  15130  15138  15141     1   107.2600461 396.643200
  15131  15130  15134     1   109.5600471 388.275200
  15131  15132  15135     1   110.2200475 386.601600
  15131  15137  15143     1   107.2600461 396.643200
  15132  15131  15133     1   109.5600471 388.275200
  15133  15131  15137     1   110.2600474 425.931200
  15134  15130  15138     1   110.2600474 425.931200
  15135  15132  15136     1   109.5800467 425.931200
  15135  15132  15148     1   109.5800467 425.931200
  15140  15146  15147     1   107.2600461 396.643200
  15144  15140  15146     1   110.2600474 425.931200
  15144  15140  15145     1   108.4600466 328.025600
  15145  15140  15146     1   110.2600474 425.931200
  15149  15150  15152     1   109.5600471 388.275200
  15149  15163  15167     1   109.5600471 388.275200
  15149  15163  15168     1   109.5600471 388.275200
  15150  15153  15157     1   109.5600471 388.275200
  15150  15162  15165     1   107.2600461 396.643200
  15150  15149  15151     1   109.5600471 388.275200
  15151  15149  15163     1   109.5600471 388.275200
  15151  15149  15171     1   109.7800468 425.094400
  15152  15150  15153     1   109.5600471 388.275200
  15152  15150  15162     1   110.2600474 425.931200
  15153  15154  15156     1   109.5600471 388.275200
  15153  15161  15164     1   107.2600461 396.643200
  15154  15155  15158     1   110.2200475 386.601600
  15154  15160  15166     1   107.2600461 396.643200
  15154  15153  15157     1   109.5600471 388.275200
  15155  15154  15156     1   109.5600471 388.275200
  15156  15154  15160     1   110.2600474 425.931200
  15157  15153  15161     1   110.2600474 425.931200
  15158  15155  15159     1   109.5800467 425.931200
  15158  15155  15171     1   109.5800467 425.931200
  15163  15169  15170     1   107.2600461 396.643200
  15167  15163  15169     1   110.2600474 425.931200
  15167  15163  15168     1   108.4600466 328.025600
  15168  15163  15169     1   110.2600474 425.931200
  15172  15173  15175     1   109.5600471 388.275200
  15172  15186  15190     1   109.5600471 388.275200
  15172  15186  15191     1   109.5600471 388.275200
  15173  15172  15174     1   109.5600471 388.275200
  15173  15176  15180     1   109.5600471 388.275200
  15173  15185  15188     1   107.2600461 396.643200
  15174  15172  15186     1   109.5600471 388.275200
  15174  15172  15194     1   109.7800468 425.094400
  15175  15173  15176     1   109.5600471 388.275200
  15175  15173  15185     1   110.2600474 425.931200
  15176  15177  15179     1   109.5600471 388.275200
  15176  15184  15187     1   107.2600461 396.643200
  15177  15176  15180     1   109.5600471 388.275200
  15177  15178  15181     1   110.2200475 386.601600
  15177  15183  15189     1   107.2600461 396.643200
  15178  15177  15179     1   109.5600471 388.275200
  15179  15177  15183     1   110.2600474 425.931200
  15180  15176  15184     1   110.2600474 425.931200
  15181  15178  15182     1   109.5800467 425.931200
  15181  15178  15194     1   109.5800467 425.931200
  15186  15192  15193     1   107.2600461 396.643200
  15190  15186  15192     1   110.2600474 425.931200
  15190  15186  15191     1   108.4600466 328.025600
  15191  15186  15192     1   110.2600474 425.931200
  15195  15196  15198     1   109.5600471 388.275200
  15195  15209  15213     1   109.5600471 388.275200
  15195  15209  15214     1   109.5600471 388.275200
  15196  15199  15203     1   109.5600471 388.275200
  15196  15208  15211     1   107.2600461 396.643200
  15196  15195  15197     1   109.5600471 388.275200
  15197  15195  15209     1   109.5600471 388.275200
  15197  15195  15217     1   109.7800468 425.094400
  15198  15196  15199     1   109.5600471 388.275200
  15198  15196  15208     1   110.2600474 425.931200
  15199  15200  15202     1   109.5600471 388.275200
  15199  15207  15210     1   107.2600461 396.643200
  15200  15201  15204     1   110.2200475 386.601600
  15200  15206  15212     1   107.2600461 396.643200
  15200  15199  15203     1   109.5600471 388.275200
  15201  15200  15202     1   109.5600471 388.275200
  15202  15200  15206     1   110.2600474 425.931200
  15203  15199  15207     1   110.2600474 425.931200
  15204  15201  15205     1   109.5800467 425.931200
  15204  15201  15217     1   109.5800467 425.931200
  15209  15215  15216     1   107.2600461 396.643200
  15213  15209  15215     1   110.2600474 425.931200
  15213  15209  15214     1   108.4600466 328.025600
  15214  15209  15215     1   110.2600474 425.931200
  15218  15219  15221     1   109.5600471 388.275200
  15218  15232  15236     1   109.5600471 388.275200
  15218  15232  15237     1   109.5600471 388.275200
  15219  15218  15220     1   109.5600471 388.275200
  15219  15222  15226     1   109.5600471 388.275200
  15219  15231  15234     1   107.2600461 396.643200
  15220  15218  15232     1   109.5600471 388.275200
  15220  15218  15240     1   109.7800468 425.094400
  15221  15219  15222     1   109.5600471 388.275200
  15221  15219  15231     1   110.2600474 425.931200
  15222  15223  15225     1   109.5600471 388.275200
  15222  15230  15233     1   107.2600461 396.643200
  15223  15222  15226     1   109.5600471 388.275200
  15223  15224  15227     1   110.2200475 386.601600
  15223  15229  15235     1   107.2600461 396.643200
  15224  15223  15225     1   109.5600471 388.275200
  15225  15223  15229     1   110.2600474 425.931200
  15226  15222  15230     1   110.2600474 425.931200
  15227  15224  15228     1   109.5800467 425.931200
  15227  15224  15240     1   109.5800467 425.931200
  15232  15238  15239     1   107.2600461 396.643200
  15236  15232  15238     1   110.2600474 425.931200
  15236  15232  15237     1   108.4600466 328.025600
  15237  15232  15238     1   110.2600474 425.931200
  15241  15242  15244     1   109.5600471 388.275200
  15241  15255  15259     1   109.5600471 388.275200
  15241  15255  15260     1   109.5600471 388.275200
  15242  15245  15249     1   109.5600471 388.275200
  15242  15254  15257     1   107.2600461 396.643200
  15242  15241  15243     1   109.5600471 388.275200
  15243  15241  15255     1   109.5600471 388.275200
  15243  15241  15263     1   109.7800468 425.094400
  15244  15242  15245     1   109.5600471 388.275200
  15244  15242  15254     1   110.2600474 425.931200
  15245  15246  15248     1   109.5600471 388.275200
  15245  15253  15256     1   107.2600461 396.643200
  15246  15247  15250     1   110.2200475 386.601600
  15246  15252  15258     1   107.2600461 396.643200
  15246  15245  15249     1   109.5600471 388.275200
  15247  15246  15248     1   109.5600471 388.275200
  15248  15246  15252     1   110.2600474 425.931200
  15249  15245  15253     1   110.2600474 425.931200
  15250  15247  15251     1   109.5800467 425.931200
  15250  15247  15263     1   109.5800467 425.931200
  15255  15261  15262     1   107.2600461 396.643200
  15259  15255  15261     1   110.2600474 425.931200
  15259  15255  15260     1   108.4600466 328.025600
  15260  15255  15261     1   110.2600474 425.931200
  15264  15265  15267     1   109.5600471 388.275200
  15264  15278  15282     1   109.5600471 388.275200
  15264  15278  15283     1   109.5600471 388.275200
  15265  15264  15266     1   109.5600471 388.275200
  15265  15268  15272     1   109.5600471 388.275200
  15265  15277  15280     1   107.2600461 396.643200
  15266  15264  15278     1   109.5600471 388.275200
  15266  15264  15286     1   109.7800468 425.094400
  15267  15265  15268     1   109.5600471 388.275200
  15267  15265  15277     1   110.2600474 425.931200
  15268  15269  15271     1   109.5600471 388.275200
  15268  15276  15279     1   107.2600461 396.643200
  15269  15268  15272     1   109.5600471 388.275200
  15269  15270  15273     1   110.2200475 386.601600
  15269  15275  15281     1   107.2600461 396.643200
  15270  15269  15271     1   109.5600471 388.275200
  15271  15269  15275     1   110.2600474 425.931200
  15272  15268  15276     1   110.2600474 425.931200
  15273  15270  15274     1   109.5800467 425.931200
  15273  15270  15286     1   109.5800467 425.931200
  15278  15284  15285     1   107.2600461 396.643200
  15282  15278  15284     1   110.2600474 425.931200
  15282  15278  15283     1   108.4600466 328.025600
  15283  15278  15284     1   110.2600474 425.931200
  15287  15288  15290     1   109.5600471 388.275200
  15287  15301  15305     1   109.5600471 388.275200
  15287  15301  15306     1   109.5600471 388.275200
  15288  15291  15295     1   109.5600471 388.275200
  15288  15300  15303     1   107.2600461 396.643200
  15288  15287  15289     1   109.5600471 388.275200
  15289  15287  15301     1   109.5600471 388.275200
  15289  15287  15309     1   109.7800468 425.094400
  15290  15288  15291     1   109.5600471 388.275200
  15290  15288  15300     1   110.2600474 425.931200
  15291  15292  15294     1   109.5600471 388.275200
  15291  15299  15302     1   107.2600461 396.643200
  15292  15293  15296     1   110.2200475 386.601600
  15292  15298  15304     1   107.2600461 396.643200
  15292  15291  15295     1   109.5600471 388.275200
  15293  15292  15294     1   109.5600471 388.275200
  15294  15292  15298     1   110.2600474 425.931200
  15295  15291  15299     1   110.2600474 425.931200
  15296  15293  15297     1   109.5800467 425.931200
  15296  15293  15309     1   109.5800467 425.931200
  15301  15307  15308     1   107.2600461 396.643200
  15305  15301  15307     1   110.2600474 425.931200
  15305  15301  15306     1   108.4600466 328.025600
  15306  15301  15307     1   110.2600474 425.931200
  15310  15311  15313     1   109.5600471 388.275200
  15310  15324  15328     1   109.5600471 388.275200
  15310  15324  15329     1   109.5600471 388.275200
  15311  15310  15312     1   109.5600471 388.275200
  15311  15314  15318     1   109.5600471 388.275200
  15311  15323  15326     1   107.2600461 396.643200
  15312  15310  15324     1   109.5600471 388.275200
  15312  15310  15332     1   109.7800468 425.094400
  15313  15311  15314     1   109.5600471 388.275200
  15313  15311  15323     1   110.2600474 425.931200
  15314  15315  15317     1   109.5600471 388.275200
  15314  15322  15325     1   107.2600461 396.643200
  15315  15314  15318     1   109.5600471 388.275200
  15315  15316  15319     1   110.2200475 386.601600
  15315  15321  15327     1   107.2600461 396.643200
  15316  15315  15317     1   109.5600471 388.275200
  15317  15315  15321     1   110.2600474 425.931200
  15318  15314  15322     1   110.2600474 425.931200
  15319  15316  15320     1   109.5800467 425.931200
  15319  15316  15332     1   109.5800467 425.931200
  15324  15330  15331     1   107.2600461 396.643200
  15328  15324  15330     1   110.2600474 425.931200
  15328  15324  15329     1   108.4600466 328.025600
  15329  15324  15330     1   110.2600474 425.931200
  15333  15334  15336     1   109.5600471 388.275200
  15333  15347  15351     1   109.5600471 388.275200
  15333  15347  15352     1   109.5600471 388.275200
  15334  15337  15341     1   109.5600471 388.275200
  15334  15346  15349     1   107.2600461 396.643200
  15334  15333  15335     1   109.5600471 388.275200
  15335  15333  15347     1   109.5600471 388.275200
  15335  15333  15355     1   109.7800468 425.094400
  15336  15334  15337     1   109.5600471 388.275200
  15336  15334  15346     1   110.2600474 425.931200
  15337  15338  15340     1   109.5600471 388.275200
  15337  15345  15348     1   107.2600461 396.643200
  15338  15339  15342     1   110.2200475 386.601600
  15338  15344  15350     1   107.2600461 396.643200
  15338  15337  15341     1   109.5600471 388.275200
  15339  15338  15340     1   109.5600471 388.275200
  15340  15338  15344     1   110.2600474 425.931200
  15341  15337  15345     1   110.2600474 425.931200
  15342  15339  15343     1   109.5800467 425.931200
  15342  15339  15355     1   109.5800467 425.931200
  15347  15353  15354     1   107.2600461 396.643200
  15351  15347  15353     1   110.2600474 425.931200
  15351  15347  15352     1   108.4600466 328.025600
  15352  15347  15353     1   110.2600474 425.931200
  15356  15357  15359     1   109.5600471 388.275200
  15356  15370  15374     1   109.5600471 388.275200
  15356  15370  15375     1   109.5600471 388.275200
  15357  15356  15358     1   109.5600471 388.275200
  15357  15360  15364     1   109.5600471 388.275200
  15357  15369  15372     1   107.2600461 396.643200
  15358  15356  15370     1   109.5600471 388.275200
  15358  15356  15378     1   109.7800468 425.094400
  15359  15357  15360     1   109.5600471 388.275200
  15359  15357  15369     1   110.2600474 425.931200
  15360  15361  15363     1   109.5600471 388.275200
  15360  15368  15371     1   107.2600461 396.643200
  15361  15360  15364     1   109.5600471 388.275200
  15361  15362  15365     1   110.2200475 386.601600
  15361  15367  15373     1   107.2600461 396.643200
  15362  15361  15363     1   109.5600471 388.275200
  15363  15361  15367     1   110.2600474 425.931200
  15364  15360  15368     1   110.2600474 425.931200
  15365  15362  15366     1   109.5800467 425.931200
  15365  15362  15378     1   109.5800467 425.931200
  15370  15376  15377     1   107.2600461 396.643200
  15374  15370  15376     1   110.2600474 425.931200
  15374  15370  15375     1   108.4600466 328.025600
  15375  15370  15376     1   110.2600474 425.931200
  15379  15380  15382     1   109.5600471 388.275200
  15379  15393  15397     1   109.5600471 388.275200
  15379  15393  15398     1   109.5600471 388.275200
  15380  15383  15387     1   109.5600471 388.275200
  15380  15392  15395     1   107.2600461 396.643200
  15380  15379  15381     1   109.5600471 388.275200
  15381  15379  15393     1   109.5600471 388.275200
  15381  15379  15401     1   109.7800468 425.094400
  15382  15380  15383     1   109.5600471 388.275200
  15382  15380  15392     1   110.2600474 425.931200
  15383  15384  15386     1   109.5600471 388.275200
  15383  15391  15394     1   107.2600461 396.643200
  15384  15385  15388     1   110.2200475 386.601600
  15384  15390  15396     1   107.2600461 396.643200
  15384  15383  15387     1   109.5600471 388.275200
  15385  15384  15386     1   109.5600471 388.275200
  15386  15384  15390     1   110.2600474 425.931200
  15387  15383  15391     1   110.2600474 425.931200
  15388  15385  15389     1   109.5800467 425.931200
  15388  15385  15401     1   109.5800467 425.931200
  15393  15399  15400     1   107.2600461 396.643200
  15397  15393  15399     1   110.2600474 425.931200
  15397  15393  15398     1   108.4600466 328.025600
  15398  15393  15399     1   110.2600474 425.931200
  15402  15403  15405     1   109.5600471 388.275200
  15402  15416  15420     1   109.5600471 388.275200
  15402  15416  15421     1   109.5600471 388.275200
  15403  15402  15404     1   109.5600471 388.275200
  15403  15406  15410     1   109.5600471 388.275200
  15403  15415  15418     1   107.2600461 396.643200
  15404  15402  15416     1   109.5600471 388.275200
  15404  15402  15424     1   109.7800468 425.094400
  15405  15403  15406     1   109.5600471 388.275200
  15405  15403  15415     1   110.2600474 425.931200
  15406  15407  15409     1   109.5600471 388.275200
  15406  15414  15417     1   107.2600461 396.643200
  15407  15406  15410     1   109.5600471 388.275200
  15407  15408  15411     1   110.2200475 386.601600
  15407  15413  15419     1   107.2600461 396.643200
  15408  15407  15409     1   109.5600471 388.275200
  15409  15407  15413     1   110.2600474 425.931200
  15410  15406  15414     1   110.2600474 425.931200
  15411  15408  15412     1   109.5800467 425.931200
  15411  15408  15424     1   109.5800467 425.931200
  15416  15422  15423     1   107.2600461 396.643200
  15420  15416  15422     1   110.2600474 425.931200
  15420  15416  15421     1   108.4600466 328.025600
  15421  15416  15422     1   110.2600474 425.931200
  15425  15426  15428     1   109.5600471 388.275200
  15425  15439  15443     1   109.5600471 388.275200
  15425  15439  15444     1   109.5600471 388.275200
  15426  15429  15433     1   109.5600471 388.275200
  15426  15438  15441     1   107.2600461 396.643200
  15426  15425  15427     1   109.5600471 388.275200
  15427  15425  15439     1   109.5600471 388.275200
  15427  15425  15447     1   109.7800468 425.094400
  15428  15426  15429     1   109.5600471 388.275200
  15428  15426  15438     1   110.2600474 425.931200
  15429  15430  15432     1   109.5600471 388.275200
  15429  15437  15440     1   107.2600461 396.643200
  15430  15431  15434     1   110.2200475 386.601600
  15430  15436  15442     1   107.2600461 396.643200
  15430  15429  15433     1   109.5600471 388.275200
  15431  15430  15432     1   109.5600471 388.275200
  15432  15430  15436     1   110.2600474 425.931200
  15433  15429  15437     1   110.2600474 425.931200
  15434  15431  15435     1   109.5800467 425.931200
  15434  15431  15447     1   109.5800467 425.931200
  15439  15445  15446     1   107.2600461 396.643200
  15443  15439  15445     1   110.2600474 425.931200
  15443  15439  15444     1   108.4600466 328.025600
  15444  15439  15445     1   110.2600474 425.931200
  15448  15449  15451     1   109.5600471 388.275200
  15448  15462  15466     1   109.5600471 388.275200
  15448  15462  15467     1   109.5600471 388.275200
  15449  15448  15450     1   109.5600471 388.275200
  15449  15452  15456     1   109.5600471 388.275200
  15449  15461  15464     1   107.2600461 396.643200
  15450  15448  15462     1   109.5600471 388.275200
  15450  15448  15470     1   109.7800468 425.094400
  15451  15449  15452     1   109.5600471 388.275200
  15451  15449  15461     1   110.2600474 425.931200
  15452  15453  15455     1   109.5600471 388.275200
  15452  15460  15463     1   107.2600461 396.643200
  15453  15452  15456     1   109.5600471 388.275200
  15453  15454  15457     1   110.2200475 386.601600
  15453  15459  15465     1   107.2600461 396.643200
  15454  15453  15455     1   109.5600471 388.275200
  15455  15453  15459     1   110.2600474 425.931200
  15456  15452  15460     1   110.2600474 425.931200
  15457  15454  15458     1   109.5800467 425.931200
  15457  15454  15470     1   109.5800467 425.931200
  15462  15468  15469     1   107.2600461 396.643200
  15466  15462  15468     1   110.2600474 425.931200
  15466  15462  15467     1   108.4600466 328.025600
  15467  15462  15468     1   110.2600474 425.931200
  15471  15472  15474     1   109.5600471 388.275200
  15471  15485  15489     1   109.5600471 388.275200
  15471  15485  15490     1   109.5600471 388.275200
  15472  15475  15479     1   109.5600471 388.275200
  15472  15484  15487     1   107.2600461 396.643200
  15472  15471  15473     1   109.5600471 388.275200
  15473  15471  15485     1   109.5600471 388.275200
  15473  15471  15493     1   109.7800468 425.094400
  15474  15472  15475     1   109.5600471 388.275200
  15474  15472  15484     1   110.2600474 425.931200
  15475  15476  15478     1   109.5600471 388.275200
  15475  15483  15486     1   107.2600461 396.643200
  15476  15477  15480     1   110.2200475 386.601600
  15476  15482  15488     1   107.2600461 396.643200
  15476  15475  15479     1   109.5600471 388.275200
  15477  15476  15478     1   109.5600471 388.275200
  15478  15476  15482     1   110.2600474 425.931200
  15479  15475  15483     1   110.2600474 425.931200
  15480  15477  15481     1   109.5800467 425.931200
  15480  15477  15493     1   109.5800467 425.931200
  15485  15491  15492     1   107.2600461 396.643200
  15489  15485  15491     1   110.2600474 425.931200
  15489  15485  15490     1   108.4600466 328.025600
  15490  15485  15491     1   110.2600474 425.931200
  15494  15495  15497     1   109.5600471 388.275200
  15494  15508  15512     1   109.5600471 388.275200
  15494  15508  15513     1   109.5600471 388.275200
  15495  15494  15496     1   109.5600471 388.275200
  15495  15498  15502     1   109.5600471 388.275200
  15495  15507  15510     1   107.2600461 396.643200
  15496  15494  15508     1   109.5600471 388.275200
  15496  15494  15516     1   109.7800468 425.094400
  15497  15495  15498     1   109.5600471 388.275200
  15497  15495  15507     1   110.2600474 425.931200
  15498  15499  15501     1   109.5600471 388.275200
  15498  15506  15509     1   107.2600461 396.643200
  15499  15498  15502     1   109.5600471 388.275200
  15499  15500  15503     1   110.2200475 386.601600
  15499  15505  15511     1   107.2600461 396.643200
  15500  15499  15501     1   109.5600471 388.275200
  15501  15499  15505     1   110.2600474 425.931200
  15502  15498  15506     1   110.2600474 425.931200
  15503  15500  15504     1   109.5800467 425.931200
  15503  15500  15516     1   109.5800467 425.931200
  15508  15514  15515     1   107.2600461 396.643200
  15512  15508  15514     1   110.2600474 425.931200
  15512  15508  15513     1   108.4600466 328.025600
  15513  15508  15514     1   110.2600474 425.931200
  15517  15518  15520     1   109.5600471 388.275200
  15517  15531  15535     1   109.5600471 388.275200
  15517  15531  15536     1   109.5600471 388.275200
  15518  15521  15525     1   109.5600471 388.275200
  15518  15530  15533     1   107.2600461 396.643200
  15518  15517  15519     1   109.5600471 388.275200
  15519  15517  15531     1   109.5600471 388.275200
  15519  15517  15539     1   109.7800468 425.094400
  15520  15518  15521     1   109.5600471 388.275200
  15520  15518  15530     1   110.2600474 425.931200
  15521  15522  15524     1   109.5600471 388.275200
  15521  15529  15532     1   107.2600461 396.643200
  15522  15523  15526     1   110.2200475 386.601600
  15522  15528  15534     1   107.2600461 396.643200
  15522  15521  15525     1   109.5600471 388.275200
  15523  15522  15524     1   109.5600471 388.275200
  15524  15522  15528     1   110.2600474 425.931200
  15525  15521  15529     1   110.2600474 425.931200
  15526  15523  15527     1   109.5800467 425.931200
  15526  15523  15539     1   109.5800467 425.931200
  15531  15537  15538     1   107.2600461 396.643200
  15535  15531  15537     1   110.2600474 425.931200
  15535  15531  15536     1   108.4600466 328.025600
  15536  15531  15537     1   110.2600474 425.931200
  15540  15541  15543     1   109.5600471 388.275200
  15540  15554  15558     1   109.5600471 388.275200
  15540  15554  15559     1   109.5600471 388.275200
  15541  15540  15542     1   109.5600471 388.275200
  15541  15544  15548     1   109.5600471 388.275200
  15541  15553  15556     1   107.2600461 396.643200
  15542  15540  15554     1   109.5600471 388.275200
  15542  15540  15562     1   109.7800468 425.094400
  15543  15541  15544     1   109.5600471 388.275200
  15543  15541  15553     1   110.2600474 425.931200
  15544  15545  15547     1   109.5600471 388.275200
  15544  15552  15555     1   107.2600461 396.643200
  15545  15544  15548     1   109.5600471 388.275200
  15545  15546  15549     1   110.2200475 386.601600
  15545  15551  15557     1   107.2600461 396.643200
  15546  15545  15547     1   109.5600471 388.275200
  15547  15545  15551     1   110.2600474 425.931200
  15548  15544  15552     1   110.2600474 425.931200
  15549  15546  15550     1   109.5800467 425.931200
  15549  15546  15562     1   109.5800467 425.931200
  15554  15560  15561     1   107.2600461 396.643200
  15558  15554  15560     1   110.2600474 425.931200
  15558  15554  15559     1   108.4600466 328.025600
  15559  15554  15560     1   110.2600474 425.931200
  15563  15564  15566     1   109.5600471 388.275200
  15563  15577  15581     1   109.5600471 388.275200
  15563  15577  15582     1   109.5600471 388.275200
  15564  15567  15571     1   109.5600471 388.275200
  15564  15576  15579     1   107.2600461 396.643200
  15564  15563  15565     1   109.5600471 388.275200
  15565  15563  15577     1   109.5600471 388.275200
  15565  15563  15585     1   109.7800468 425.094400
  15566  15564  15567     1   109.5600471 388.275200
  15566  15564  15576     1   110.2600474 425.931200
  15567  15568  15570     1   109.5600471 388.275200
  15567  15575  15578     1   107.2600461 396.643200
  15568  15569  15572     1   110.2200475 386.601600
  15568  15574  15580     1   107.2600461 396.643200
  15568  15567  15571     1   109.5600471 388.275200
  15569  15568  15570     1   109.5600471 388.275200
  15570  15568  15574     1   110.2600474 425.931200
  15571  15567  15575     1   110.2600474 425.931200
  15572  15569  15573     1   109.5800467 425.931200
  15572  15569  15585     1   109.5800467 425.931200
  15577  15583  15584     1   107.2600461 396.643200
  15581  15577  15583     1   110.2600474 425.931200
  15581  15577  15582     1   108.4600466 328.025600
  15582  15577  15583     1   110.2600474 425.931200
  15586  15587  15589     1   109.5600471 388.275200
  15586  15600  15604     1   109.5600471 388.275200
  15586  15600  15605     1   109.5600471 388.275200
  15587  15586  15588     1   109.5600471 388.275200
  15587  15590  15594     1   109.5600471 388.275200
  15587  15599  15602     1   107.2600461 396.643200
  15588  15586  15600     1   109.5600471 388.275200
  15588  15586  15608     1   109.7800468 425.094400
  15589  15587  15590     1   109.5600471 388.275200
  15589  15587  15599     1   110.2600474 425.931200
  15590  15591  15593     1   109.5600471 388.275200
  15590  15598  15601     1   107.2600461 396.643200
  15591  15590  15594     1   109.5600471 388.275200
  15591  15592  15595     1   110.2200475 386.601600
  15591  15597  15603     1   107.2600461 396.643200
  15592  15591  15593     1   109.5600471 388.275200
  15593  15591  15597     1   110.2600474 425.931200
  15594  15590  15598     1   110.2600474 425.931200
  15595  15592  15596     1   109.5800467 425.931200
  15595  15592  15608     1   109.5800467 425.931200
  15600  15606  15607     1   107.2600461 396.643200
  15604  15600  15606     1   110.2600474 425.931200
  15604  15600  15605     1   108.4600466 328.025600
  15605  15600  15606     1   110.2600474 425.931200
  15609  15610  15612     1   109.5600471 388.275200
  15609  15623  15627     1   109.5600471 388.275200
  15609  15623  15628     1   109.5600471 388.275200
  15610  15613  15617     1   109.5600471 388.275200
  15610  15622  15625     1   107.2600461 396.643200
  15610  15609  15611     1   109.5600471 388.275200
  15611  15609  15623     1   109.5600471 388.275200
  15611  15609  15631     1   109.7800468 425.094400
  15612  15610  15613     1   109.5600471 388.275200
  15612  15610  15622     1   110.2600474 425.931200
  15613  15614  15616     1   109.5600471 388.275200
  15613  15621  15624     1   107.2600461 396.643200
  15614  15615  15618     1   110.2200475 386.601600
  15614  15620  15626     1   107.2600461 396.643200
  15614  15613  15617     1   109.5600471 388.275200
  15615  15614  15616     1   109.5600471 388.275200
  15616  15614  15620     1   110.2600474 425.931200
  15617  15613  15621     1   110.2600474 425.931200
  15618  15615  15619     1   109.5800467 425.931200
  15618  15615  15631     1   109.5800467 425.931200
  15623  15629  15630     1   107.2600461 396.643200
  15627  15623  15629     1   110.2600474 425.931200
  15627  15623  15628     1   108.4600466 328.025600
  15628  15623  15629     1   110.2600474 425.931200
  15632  15633  15635     1   109.5600471 388.275200
  15632  15646  15650     1   109.5600471 388.275200
  15632  15646  15651     1   109.5600471 388.275200
  15633  15632  15634     1   109.5600471 388.275200
  15633  15636  15640     1   109.5600471 388.275200
  15633  15645  15648     1   107.2600461 396.643200
  15634  15632  15646     1   109.5600471 388.275200
  15634  15632  15654     1   109.7800468 425.094400
  15635  15633  15636     1   109.5600471 388.275200
  15635  15633  15645     1   110.2600474 425.931200
  15636  15637  15639     1   109.5600471 388.275200
  15636  15644  15647     1   107.2600461 396.643200
  15637  15636  15640     1   109.5600471 388.275200
  15637  15638  15641     1   110.2200475 386.601600
  15637  15643  15649     1   107.2600461 396.643200
  15638  15637  15639     1   109.5600471 388.275200
  15639  15637  15643     1   110.2600474 425.931200
  15640  15636  15644     1   110.2600474 425.931200
  15641  15638  15642     1   109.5800467 425.931200
  15641  15638  15654     1   109.5800467 425.931200
  15646  15652  15653     1   107.2600461 396.643200
  15650  15646  15652     1   110.2600474 425.931200
  15650  15646  15651     1   108.4600466 328.025600
  15651  15646  15652     1   110.2600474 425.931200
  15655  15656  15658     1   109.5600471 388.275200
  15655  15669  15673     1   109.5600471 388.275200
  15655  15669  15674     1   109.5600471 388.275200
  15656  15659  15663     1   109.5600471 388.275200
  15656  15668  15671     1   107.2600461 396.643200
  15656  15655  15657     1   109.5600471 388.275200
  15657  15655  15669     1   109.5600471 388.275200
  15657  15655  15677     1   109.7800468 425.094400
  15658  15656  15659     1   109.5600471 388.275200
  15658  15656  15668     1   110.2600474 425.931200
  15659  15660  15662     1   109.5600471 388.275200
  15659  15667  15670     1   107.2600461 396.643200
  15660  15661  15664     1   110.2200475 386.601600
  15660  15666  15672     1   107.2600461 396.643200
  15660  15659  15663     1   109.5600471 388.275200
  15661  15660  15662     1   109.5600471 388.275200
  15662  15660  15666     1   110.2600474 425.931200
  15663  15659  15667     1   110.2600474 425.931200
  15664  15661  15665     1   109.5800467 425.931200
  15664  15661  15677     1   109.5800467 425.931200
  15669  15675  15676     1   107.2600461 396.643200
  15673  15669  15675     1   110.2600474 425.931200
  15673  15669  15674     1   108.4600466 328.025600
  15674  15669  15675     1   110.2600474 425.931200
  15678  15679  15681     1   109.5600471 388.275200
  15678  15692  15696     1   109.5600471 388.275200
  15678  15692  15697     1   109.5600471 388.275200
  15679  15678  15680     1   109.5600471 388.275200
  15679  15682  15686     1   109.5600471 388.275200
  15679  15691  15694     1   107.2600461 396.643200
  15680  15678  15692     1   109.5600471 388.275200
  15680  15678  15700     1   109.7800468 425.094400
  15681  15679  15682     1   109.5600471 388.275200
  15681  15679  15691     1   110.2600474 425.931200
  15682  15683  15685     1   109.5600471 388.275200
  15682  15690  15693     1   107.2600461 396.643200
  15683  15682  15686     1   109.5600471 388.275200
  15683  15684  15687     1   110.2200475 386.601600
  15683  15689  15695     1   107.2600461 396.643200
  15684  15683  15685     1   109.5600471 388.275200
  15685  15683  15689     1   110.2600474 425.931200
  15686  15682  15690     1   110.2600474 425.931200
  15687  15684  15688     1   109.5800467 425.931200
  15687  15684  15700     1   109.5800467 425.931200
  15692  15698  15699     1   107.2600461 396.643200
  15696  15692  15698     1   110.2600474 425.931200
  15696  15692  15697     1   108.4600466 328.025600
  15697  15692  15698     1   110.2600474 425.931200
  15701  15702  15704     1   109.5600471 388.275200
  15701  15715  15719     1   109.5600471 388.275200
  15701  15715  15720     1   109.5600471 388.275200
  15702  15705  15709     1   109.5600471 388.275200
  15702  15714  15717     1   107.2600461 396.643200
  15702  15701  15703     1   109.5600471 388.275200
  15703  15701  15715     1   109.5600471 388.275200
  15703  15701  15723     1   109.7800468 425.094400
  15704  15702  15705     1   109.5600471 388.275200
  15704  15702  15714     1   110.2600474 425.931200
  15705  15706  15708     1   109.5600471 388.275200
  15705  15713  15716     1   107.2600461 396.643200
  15706  15707  15710     1   110.2200475 386.601600
  15706  15712  15718     1   107.2600461 396.643200
  15706  15705  15709     1   109.5600471 388.275200
  15707  15706  15708     1   109.5600471 388.275200
  15708  15706  15712     1   110.2600474 425.931200
  15709  15705  15713     1   110.2600474 425.931200
  15710  15707  15711     1   109.5800467 425.931200
  15710  15707  15723     1   109.5800467 425.931200
  15715  15721  15722     1   107.2600461 396.643200
  15719  15715  15721     1   110.2600474 425.931200
  15719  15715  15720     1   108.4600466 328.025600
  15720  15715  15721     1   110.2600474 425.931200
  15724  15725  15727     1   109.5600471 388.275200
  15724  15738  15742     1   109.5600471 388.275200
  15724  15738  15743     1   109.5600471 388.275200
  15725  15724  15726     1   109.5600471 388.275200
  15725  15728  15732     1   109.5600471 388.275200
  15725  15737  15740     1   107.2600461 396.643200
  15726  15724  15738     1   109.5600471 388.275200
  15726  15724  15746     1   109.7800468 425.094400
  15727  15725  15728     1   109.5600471 388.275200
  15727  15725  15737     1   110.2600474 425.931200
  15728  15729  15731     1   109.5600471 388.275200
  15728  15736  15739     1   107.2600461 396.643200
  15729  15728  15732     1   109.5600471 388.275200
  15729  15730  15733     1   110.2200475 386.601600
  15729  15735  15741     1   107.2600461 396.643200
  15730  15729  15731     1   109.5600471 388.275200
  15731  15729  15735     1   110.2600474 425.931200
  15732  15728  15736     1   110.2600474 425.931200
  15733  15730  15734     1   109.5800467 425.931200
  15733  15730  15746     1   109.5800467 425.931200
  15738  15744  15745     1   107.2600461 396.643200
  15742  15738  15744     1   110.2600474 425.931200
  15742  15738  15743     1   108.4600466 328.025600
  15743  15738  15744     1   110.2600474 425.931200
  15747  15748  15750     1   109.5600471 388.275200
  15747  15761  15765     1   109.5600471 388.275200
  15747  15761  15766     1   109.5600471 388.275200
  15748  15751  15755     1   109.5600471 388.275200
  15748  15760  15763     1   107.2600461 396.643200
  15748  15747  15749     1   109.5600471 388.275200
  15749  15747  15761     1   109.5600471 388.275200
  15749  15747  15769     1   109.7800468 425.094400
  15750  15748  15751     1   109.5600471 388.275200
  15750  15748  15760     1   110.2600474 425.931200
  15751  15752  15754     1   109.5600471 388.275200
  15751  15759  15762     1   107.2600461 396.643200
  15752  15753  15756     1   110.2200475 386.601600
  15752  15758  15764     1   107.2600461 396.643200
  15752  15751  15755     1   109.5600471 388.275200
  15753  15752  15754     1   109.5600471 388.275200
  15754  15752  15758     1   110.2600474 425.931200
  15755  15751  15759     1   110.2600474 425.931200
  15756  15753  15757     1   109.5800467 425.931200
  15756  15753  15769     1   109.5800467 425.931200
  15761  15767  15768     1   107.2600461 396.643200
  15765  15761  15767     1   110.2600474 425.931200
  15765  15761  15766     1   108.4600466 328.025600
  15766  15761  15767     1   110.2600474 425.931200
  15770  15771  15773     1   109.5600471 388.275200
  15770  15784  15788     1   109.5600471 388.275200
  15770  15784  15789     1   109.5600471 388.275200
  15771  15770  15772     1   109.5600471 388.275200
  15771  15774  15778     1   109.5600471 388.275200
  15771  15783  15786     1   107.2600461 396.643200
  15772  15770  15784     1   109.5600471 388.275200
  15772  15770  15792     1   109.7800468 425.094400
  15773  15771  15774     1   109.5600471 388.275200
  15773  15771  15783     1   110.2600474 425.931200
  15774  15775  15777     1   109.5600471 388.275200
  15774  15782  15785     1   107.2600461 396.643200
  15775  15774  15778     1   109.5600471 388.275200
  15775  15776  15779     1   110.2200475 386.601600
  15775  15781  15787     1   107.2600461 396.643200
  15776  15775  15777     1   109.5600471 388.275200
  15777  15775  15781     1   110.2600474 425.931200
  15778  15774  15782     1   110.2600474 425.931200
  15779  15776  15780     1   109.5800467 425.931200
  15779  15776  15792     1   109.5800467 425.931200
  15784  15790  15791     1   107.2600461 396.643200
  15788  15784  15790     1   110.2600474 425.931200
  15788  15784  15789     1   108.4600466 328.025600
  15789  15784  15790     1   110.2600474 425.931200
  15793  15794  15796     1   109.5600471 388.275200
  15793  15807  15811     1   109.5600471 388.275200
  15793  15807  15812     1   109.5600471 388.275200
  15794  15797  15801     1   109.5600471 388.275200
  15794  15806  15809     1   107.2600461 396.643200
  15794  15793  15795     1   109.5600471 388.275200
  15795  15793  15807     1   109.5600471 388.275200
  15795  15793  15815     1   109.7800468 425.094400
  15796  15794  15797     1   109.5600471 388.275200
  15796  15794  15806     1   110.2600474 425.931200
  15797  15798  15800     1   109.5600471 388.275200
  15797  15805  15808     1   107.2600461 396.643200
  15798  15799  15802     1   110.2200475 386.601600
  15798  15804  15810     1   107.2600461 396.643200
  15798  15797  15801     1   109.5600471 388.275200
  15799  15798  15800     1   109.5600471 388.275200
  15800  15798  15804     1   110.2600474 425.931200
  15801  15797  15805     1   110.2600474 425.931200
  15802  15799  15803     1   109.5800467 425.931200
  15802  15799  15815     1   109.5800467 425.931200
  15807  15813  15814     1   107.2600461 396.643200
  15811  15807  15813     1   110.2600474 425.931200
  15811  15807  15812     1   108.4600466 328.025600
  15812  15807  15813     1   110.2600474 425.931200
  15816  15817  15819     1   109.5600471 388.275200
  15816  15830  15834     1   109.5600471 388.275200
  15816  15830  15835     1   109.5600471 388.275200
  15817  15816  15818     1   109.5600471 388.275200
  15817  15820  15824     1   109.5600471 388.275200
  15817  15829  15832     1   107.2600461 396.643200
  15818  15816  15830     1   109.5600471 388.275200
  15818  15816  15838     1   109.7800468 425.094400
  15819  15817  15820     1   109.5600471 388.275200
  15819  15817  15829     1   110.2600474 425.931200
  15820  15821  15823     1   109.5600471 388.275200
  15820  15828  15831     1   107.2600461 396.643200
  15821  15820  15824     1   109.5600471 388.275200
  15821  15822  15825     1   110.2200475 386.601600
  15821  15827  15833     1   107.2600461 396.643200
  15822  15821  15823     1   109.5600471 388.275200
  15823  15821  15827     1   110.2600474 425.931200
  15824  15820  15828     1   110.2600474 425.931200
  15825  15822  15826     1   109.5800467 425.931200
  15825  15822  15838     1   109.5800467 425.931200
  15830  15836  15837     1   107.2600461 396.643200
  15834  15830  15836     1   110.2600474 425.931200
  15834  15830  15835     1   108.4600466 328.025600
  15835  15830  15836     1   110.2600474 425.931200
  15839  15840  15842     1   109.5600471 388.275200
  15839  15853  15857     1   109.5600471 388.275200
  15839  15853  15858     1   109.5600471 388.275200
  15840  15843  15847     1   109.5600471 388.275200
  15840  15852  15855     1   107.2600461 396.643200
  15840  15839  15841     1   109.5600471 388.275200
  15841  15839  15853     1   109.5600471 388.275200
  15841  15839  15861     1   109.7800468 425.094400
  15842  15840  15843     1   109.5600471 388.275200
  15842  15840  15852     1   110.2600474 425.931200
  15843  15844  15846     1   109.5600471 388.275200
  15843  15851  15854     1   107.2600461 396.643200
  15844  15845  15848     1   110.2200475 386.601600
  15844  15850  15856     1   107.2600461 396.643200
  15844  15843  15847     1   109.5600471 388.275200
  15845  15844  15846     1   109.5600471 388.275200
  15846  15844  15850     1   110.2600474 425.931200
  15847  15843  15851     1   110.2600474 425.931200
  15848  15845  15849     1   109.5800467 425.931200
  15848  15845  15861     1   109.5800467 425.931200
  15853  15859  15860     1   107.2600461 396.643200
  15857  15853  15859     1   110.2600474 425.931200
  15857  15853  15858     1   108.4600466 328.025600
  15858  15853  15859     1   110.2600474 425.931200
  15862  15863  15865     1   109.5600471 388.275200
  15862  15876  15880     1   109.5600471 388.275200
  15862  15876  15881     1   109.5600471 388.275200
  15863  15862  15864     1   109.5600471 388.275200
  15863  15866  15870     1   109.5600471 388.275200
  15863  15875  15878     1   107.2600461 396.643200
  15864  15862  15876     1   109.5600471 388.275200
  15864  15862  15884     1   109.7800468 425.094400
  15865  15863  15866     1   109.5600471 388.275200
  15865  15863  15875     1   110.2600474 425.931200
  15866  15867  15869     1   109.5600471 388.275200
  15866  15874  15877     1   107.2600461 396.643200
  15867  15866  15870     1   109.5600471 388.275200
  15867  15868  15871     1   110.2200475 386.601600
  15867  15873  15879     1   107.2600461 396.643200
  15868  15867  15869     1   109.5600471 388.275200
  15869  15867  15873     1   110.2600474 425.931200
  15870  15866  15874     1   110.2600474 425.931200
  15871  15868  15872     1   109.5800467 425.931200
  15871  15868  15884     1   109.5800467 425.931200
  15876  15882  15883     1   107.2600461 396.643200
  15880  15876  15882     1   110.2600474 425.931200
  15880  15876  15881     1   108.4600466 328.025600
  15881  15876  15882     1   110.2600474 425.931200
  15885  15886  15888     1   109.5600471 388.275200
  15885  15899  15903     1   109.5600471 388.275200
  15885  15899  15904     1   109.5600471 388.275200
  15886  15889  15893     1   109.5600471 388.275200
  15886  15898  15901     1   107.2600461 396.643200
  15886  15885  15887     1   109.5600471 388.275200
  15887  15885  15899     1   109.5600471 388.275200
  15887  15885  15907     1   109.7800468 425.094400
  15888  15886  15889     1   109.5600471 388.275200
  15888  15886  15898     1   110.2600474 425.931200
  15889  15890  15892     1   109.5600471 388.275200
  15889  15897  15900     1   107.2600461 396.643200
  15890  15891  15894     1   110.2200475 386.601600
  15890  15896  15902     1   107.2600461 396.643200
  15890  15889  15893     1   109.5600471 388.275200
  15891  15890  15892     1   109.5600471 388.275200
  15892  15890  15896     1   110.2600474 425.931200
  15893  15889  15897     1   110.2600474 425.931200
  15894  15891  15895     1   109.5800467 425.931200
  15894  15891  15907     1   109.5800467 425.931200
  15899  15905  15906     1   107.2600461 396.643200
  15903  15899  15905     1   110.2600474 425.931200
  15903  15899  15904     1   108.4600466 328.025600
  15904  15899  15905     1   110.2600474 425.931200
  15908  15909  15911     1   109.5600471 388.275200
  15908  15922  15926     1   109.5600471 388.275200
  15908  15922  15927     1   109.5600471 388.275200
  15909  15908  15910     1   109.5600471 388.275200
  15909  15912  15916     1   109.5600471 388.275200
  15909  15921  15924     1   107.2600461 396.643200
  15910  15908  15922     1   109.5600471 388.275200
  15910  15908  15930     1   109.7800468 425.094400
  15911  15909  15912     1   109.5600471 388.275200
  15911  15909  15921     1   110.2600474 425.931200
  15912  15913  15915     1   109.5600471 388.275200
  15912  15920  15923     1   107.2600461 396.643200
  15913  15912  15916     1   109.5600471 388.275200
  15913  15914  15917     1   110.2200475 386.601600
  15913  15919  15925     1   107.2600461 396.643200
  15914  15913  15915     1   109.5600471 388.275200
  15915  15913  15919     1   110.2600474 425.931200
  15916  15912  15920     1   110.2600474 425.931200
  15917  15914  15918     1   109.5800467 425.931200
  15917  15914  15930     1   109.5800467 425.931200
  15922  15928  15929     1   107.2600461 396.643200
  15926  15922  15928     1   110.2600474 425.931200
  15926  15922  15927     1   108.4600466 328.025600
  15927  15922  15928     1   110.2600474 425.931200
  15931  15932  15934     1   109.5600471 388.275200
  15931  15945  15949     1   109.5600471 388.275200
  15931  15945  15950     1   109.5600471 388.275200
  15932  15935  15939     1   109.5600471 388.275200
  15932  15944  15947     1   107.2600461 396.643200
  15932  15931  15933     1   109.5600471 388.275200
  15933  15931  15945     1   109.5600471 388.275200
  15933  15931  15953     1   109.7800468 425.094400
  15934  15932  15935     1   109.5600471 388.275200
  15934  15932  15944     1   110.2600474 425.931200
  15935  15936  15938     1   109.5600471 388.275200
  15935  15943  15946     1   107.2600461 396.643200
  15936  15937  15940     1   110.2200475 386.601600
  15936  15942  15948     1   107.2600461 396.643200
  15936  15935  15939     1   109.5600471 388.275200
  15937  15936  15938     1   109.5600471 388.275200
  15938  15936  15942     1   110.2600474 425.931200
  15939  15935  15943     1   110.2600474 425.931200
  15940  15937  15941     1   109.5800467 425.931200
  15940  15937  15953     1   109.5800467 425.931200
  15945  15951  15952     1   107.2600461 396.643200
  15949  15945  15951     1   110.2600474 425.931200
  15949  15945  15950     1   108.4600466 328.025600
  15950  15945  15951     1   110.2600474 425.931200
  15954  15955  15957     1   109.5600471 388.275200
  15954  15968  15972     1   109.5600471 388.275200
  15954  15968  15973     1   109.5600471 388.275200
  15955  15954  15956     1   109.5600471 388.275200
  15955  15958  15962     1   109.5600471 388.275200
  15955  15967  15970     1   107.2600461 396.643200
  15956  15954  15968     1   109.5600471 388.275200
  15956  15954  15976     1   109.7800468 425.094400
  15957  15955  15958     1   109.5600471 388.275200
  15957  15955  15967     1   110.2600474 425.931200
  15958  15959  15961     1   109.5600471 388.275200
  15958  15966  15969     1   107.2600461 396.643200
  15959  15958  15962     1   109.5600471 388.275200
  15959  15960  15963     1   110.2200475 386.601600
  15959  15965  15971     1   107.2600461 396.643200
  15960  15959  15961     1   109.5600471 388.275200
  15961  15959  15965     1   110.2600474 425.931200
  15962  15958  15966     1   110.2600474 425.931200
  15963  15960  15964     1   109.5800467 425.931200
  15963  15960  15976     1   109.5800467 425.931200
  15968  15974  15975     1   107.2600461 396.643200
  15972  15968  15974     1   110.2600474 425.931200
  15972  15968  15973     1   108.4600466 328.025600
  15973  15968  15974     1   110.2600474 425.931200
  15977  15978  15980     1   109.5600471 388.275200
  15977  15991  15995     1   109.5600471 388.275200
  15977  15991  15996     1   109.5600471 388.275200
  15978  15981  15985     1   109.5600471 388.275200
  15978  15990  15993     1   107.2600461 396.643200
  15978  15977  15979     1   109.5600471 388.275200
  15979  15977  15991     1   109.5600471 388.275200
  15979  15977  15999     1   109.7800468 425.094400
  15980  15978  15981     1   109.5600471 388.275200
  15980  15978  15990     1   110.2600474 425.931200
  15981  15982  15984     1   109.5600471 388.275200
  15981  15989  15992     1   107.2600461 396.643200
  15982  15983  15986     1   110.2200475 386.601600
  15982  15988  15994     1   107.2600461 396.643200
  15982  15981  15985     1   109.5600471 388.275200
  15983  15982  15984     1   109.5600471 388.275200
  15984  15982  15988     1   110.2600474 425.931200
  15985  15981  15989     1   110.2600474 425.931200
  15986  15983  15987     1   109.5800467 425.931200
  15986  15983  15999     1   109.5800467 425.931200
  15991  15997  15998     1   107.2600461 396.643200
  15995  15991  15997     1   110.2600474 425.931200
  15995  15991  15996     1   108.4600466 328.025600
  15996  15991  15997     1   110.2600474 425.931200
  16000  16001  16003     1   109.5600471 388.275200
  16000  16014  16018     1   109.5600471 388.275200
  16000  16014  16019     1   109.5600471 388.275200
  16001  16000  16002     1   109.5600471 388.275200
  16001  16004  16008     1   109.5600471 388.275200
  16001  16013  16016     1   107.2600461 396.643200
  16002  16000  16014     1   109.5600471 388.275200
  16002  16000  16022     1   109.7800468 425.094400
  16003  16001  16004     1   109.5600471 388.275200
  16003  16001  16013     1   110.2600474 425.931200
  16004  16005  16007     1   109.5600471 388.275200
  16004  16012  16015     1   107.2600461 396.643200
  16005  16004  16008     1   109.5600471 388.275200
  16005  16006  16009     1   110.2200475 386.601600
  16005  16011  16017     1   107.2600461 396.643200
  16006  16005  16007     1   109.5600471 388.275200
  16007  16005  16011     1   110.2600474 425.931200
  16008  16004  16012     1   110.2600474 425.931200
  16009  16006  16010     1   109.5800467 425.931200
  16009  16006  16022     1   109.5800467 425.931200
  16014  16020  16021     1   107.2600461 396.643200
  16018  16014  16020     1   110.2600474 425.931200
  16018  16014  16019     1   108.4600466 328.025600
  16019  16014  16020     1   110.2600474 425.931200
  16023  16024  16026     1   109.5600471 388.275200
  16023  16037  16041     1   109.5600471 388.275200
  16023  16037  16042     1   109.5600471 388.275200
  16024  16027  16031     1   109.5600471 388.275200
  16024  16036  16039     1   107.2600461 396.643200
  16024  16023  16025     1   109.5600471 388.275200
  16025  16023  16037     1   109.5600471 388.275200
  16025  16023  16045     1   109.7800468 425.094400
  16026  16024  16027     1   109.5600471 388.275200
  16026  16024  16036     1   110.2600474 425.931200
  16027  16028  16030     1   109.5600471 388.275200
  16027  16035  16038     1   107.2600461 396.643200
  16028  16029  16032     1   110.2200475 386.601600
  16028  16034  16040     1   107.2600461 396.643200
  16028  16027  16031     1   109.5600471 388.275200
  16029  16028  16030     1   109.5600471 388.275200
  16030  16028  16034     1   110.2600474 425.931200
  16031  16027  16035     1   110.2600474 425.931200
  16032  16029  16033     1   109.5800467 425.931200
  16032  16029  16045     1   109.5800467 425.931200
  16037  16043  16044     1   107.2600461 396.643200
  16041  16037  16043     1   110.2600474 425.931200
  16041  16037  16042     1   108.4600466 328.025600
  16042  16037  16043     1   110.2600474 425.931200
  16046  16047  16049     1   109.5600471 388.275200
  16046  16060  16064     1   109.5600471 388.275200
  16046  16060  16065     1   109.5600471 388.275200
  16047  16046  16048     1   109.5600471 388.275200
  16047  16050  16054     1   109.5600471 388.275200
  16047  16059  16062     1   107.2600461 396.643200
  16048  16046  16060     1   109.5600471 388.275200
  16048  16046  16068     1   109.7800468 425.094400
  16049  16047  16050     1   109.5600471 388.275200
  16049  16047  16059     1   110.2600474 425.931200
  16050  16051  16053     1   109.5600471 388.275200
  16050  16058  16061     1   107.2600461 396.643200
  16051  16050  16054     1   109.5600471 388.275200
  16051  16052  16055     1   110.2200475 386.601600
  16051  16057  16063     1   107.2600461 396.643200
  16052  16051  16053     1   109.5600471 388.275200
  16053  16051  16057     1   110.2600474 425.931200
  16054  16050  16058     1   110.2600474 425.931200
  16055  16052  16056     1   109.5800467 425.931200
  16055  16052  16068     1   109.5800467 425.931200
  16060  16066  16067     1   107.2600461 396.643200
  16064  16060  16066     1   110.2600474 425.931200
  16064  16060  16065     1   108.4600466 328.025600
  16065  16060  16066     1   110.2600474 425.931200
  16069  16070  16072     1   109.5600471 388.275200
  16069  16083  16087     1   109.5600471 388.275200
  16069  16083  16088     1   109.5600471 388.275200
  16070  16073  16077     1   109.5600471 388.275200
  16070  16082  16085     1   107.2600461 396.643200
  16070  16069  16071     1   109.5600471 388.275200
  16071  16069  16083     1   109.5600471 388.275200
  16071  16069  16091     1   109.7800468 425.094400
  16072  16070  16073     1   109.5600471 388.275200
  16072  16070  16082     1   110.2600474 425.931200
  16073  16074  16076     1   109.5600471 388.275200
  16073  16081  16084     1   107.2600461 396.643200
  16074  16075  16078     1   110.2200475 386.601600
  16074  16080  16086     1   107.2600461 396.643200
  16074  16073  16077     1   109.5600471 388.275200
  16075  16074  16076     1   109.5600471 388.275200
  16076  16074  16080     1   110.2600474 425.931200
  16077  16073  16081     1   110.2600474 425.931200
  16078  16075  16079     1   109.5800467 425.931200
  16078  16075  16091     1   109.5800467 425.931200
  16083  16089  16090     1   107.2600461 396.643200
  16087  16083  16089     1   110.2600474 425.931200
  16087  16083  16088     1   108.4600466 328.025600
  16088  16083  16089     1   110.2600474 425.931200
  16092  16093  16095     1   109.5600471 388.275200
  16092  16106  16110     1   109.5600471 388.275200
  16092  16106  16111     1   109.5600471 388.275200
  16093  16092  16094     1   109.5600471 388.275200
  16093  16096  16100     1   109.5600471 388.275200
  16093  16105  16108     1   107.2600461 396.643200
  16094  16092  16106     1   109.5600471 388.275200
  16094  16092  16114     1   109.7800468 425.094400
  16095  16093  16096     1   109.5600471 388.275200
  16095  16093  16105     1   110.2600474 425.931200
  16096  16097  16099     1   109.5600471 388.275200
  16096  16104  16107     1   107.2600461 396.643200
  16097  16096  16100     1   109.5600471 388.275200
  16097  16098  16101     1   110.2200475 386.601600
  16097  16103  16109     1   107.2600461 396.643200
  16098  16097  16099     1   109.5600471 388.275200
  16099  16097  16103     1   110.2600474 425.931200
  16100  16096  16104     1   110.2600474 425.931200
  16101  16098  16102     1   109.5800467 425.931200
  16101  16098  16114     1   109.5800467 425.931200
  16106  16112  16113     1   107.2600461 396.643200
  16110  16106  16112     1   110.2600474 425.931200
  16110  16106  16111     1   108.4600466 328.025600
  16111  16106  16112     1   110.2600474 425.931200
  16115  16116  16118     1   109.5600471 388.275200
  16115  16129  16133     1   109.5600471 388.275200
  16115  16129  16134     1   109.5600471 388.275200
  16116  16119  16123     1   109.5600471 388.275200
  16116  16128  16131     1   107.2600461 396.643200
  16116  16115  16117     1   109.5600471 388.275200
  16117  16115  16129     1   109.5600471 388.275200
  16117  16115  16137     1   109.7800468 425.094400
  16118  16116  16119     1   109.5600471 388.275200
  16118  16116  16128     1   110.2600474 425.931200
  16119  16120  16122     1   109.5600471 388.275200
  16119  16127  16130     1   107.2600461 396.643200
  16120  16121  16124     1   110.2200475 386.601600
  16120  16126  16132     1   107.2600461 396.643200
  16120  16119  16123     1   109.5600471 388.275200
  16121  16120  16122     1   109.5600471 388.275200
  16122  16120  16126     1   110.2600474 425.931200
  16123  16119  16127     1   110.2600474 425.931200
  16124  16121  16125     1   109.5800467 425.931200
  16124  16121  16137     1   109.5800467 425.931200
  16129  16135  16136     1   107.2600461 396.643200
  16133  16129  16135     1   110.2600474 425.931200
  16133  16129  16134     1   108.4600466 328.025600
  16134  16129  16135     1   110.2600474 425.931200
  16138  16139  16141     1   109.5600471 388.275200
  16138  16152  16156     1   109.5600471 388.275200
  16138  16152  16157     1   109.5600471 388.275200
  16139  16138  16140     1   109.5600471 388.275200
  16139  16142  16146     1   109.5600471 388.275200
  16139  16151  16154     1   107.2600461 396.643200
  16140  16138  16152     1   109.5600471 388.275200
  16140  16138  16160     1   109.7800468 425.094400
  16141  16139  16142     1   109.5600471 388.275200
  16141  16139  16151     1   110.2600474 425.931200
  16142  16143  16145     1   109.5600471 388.275200
  16142  16150  16153     1   107.2600461 396.643200
  16143  16142  16146     1   109.5600471 388.275200
  16143  16144  16147     1   110.2200475 386.601600
  16143  16149  16155     1   107.2600461 396.643200
  16144  16143  16145     1   109.5600471 388.275200
  16145  16143  16149     1   110.2600474 425.931200
  16146  16142  16150     1   110.2600474 425.931200
  16147  16144  16148     1   109.5800467 425.931200
  16147  16144  16160     1   109.5800467 425.931200
  16152  16158  16159     1   107.2600461 396.643200
  16156  16152  16158     1   110.2600474 425.931200
  16156  16152  16157     1   108.4600466 328.025600
  16157  16152  16158     1   110.2600474 425.931200
  16161  16162  16164     1   109.5600471 388.275200
  16161  16175  16179     1   109.5600471 388.275200
  16161  16175  16180     1   109.5600471 388.275200
  16162  16165  16169     1   109.5600471 388.275200
  16162  16174  16177     1   107.2600461 396.643200
  16162  16161  16163     1   109.5600471 388.275200
  16163  16161  16175     1   109.5600471 388.275200
  16163  16161  16183     1   109.7800468 425.094400
  16164  16162  16165     1   109.5600471 388.275200
  16164  16162  16174     1   110.2600474 425.931200
  16165  16166  16168     1   109.5600471 388.275200
  16165  16173  16176     1   107.2600461 396.643200
  16166  16167  16170     1   110.2200475 386.601600
  16166  16172  16178     1   107.2600461 396.643200
  16166  16165  16169     1   109.5600471 388.275200
  16167  16166  16168     1   109.5600471 388.275200
  16168  16166  16172     1   110.2600474 425.931200
  16169  16165  16173     1   110.2600474 425.931200
  16170  16167  16171     1   109.5800467 425.931200
  16170  16167  16183     1   109.5800467 425.931200
  16175  16181  16182     1   107.2600461 396.643200
  16179  16175  16181     1   110.2600474 425.931200
  16179  16175  16180     1   108.4600466 328.025600
  16180  16175  16181     1   110.2600474 425.931200
  16184  16185  16187     1   109.5600471 388.275200
  16184  16198  16202     1   109.5600471 388.275200
  16184  16198  16203     1   109.5600471 388.275200
  16185  16184  16186     1   109.5600471 388.275200
  16185  16188  16192     1   109.5600471 388.275200
  16185  16197  16200     1   107.2600461 396.643200
  16186  16184  16198     1   109.5600471 388.275200
  16186  16184  16206     1   109.7800468 425.094400
  16187  16185  16188     1   109.5600471 388.275200
  16187  16185  16197     1   110.2600474 425.931200
  16188  16189  16191     1   109.5600471 388.275200
  16188  16196  16199     1   107.2600461 396.643200
  16189  16188  16192     1   109.5600471 388.275200
  16189  16190  16193     1   110.2200475 386.601600
  16189  16195  16201     1   107.2600461 396.643200
  16190  16189  16191     1   109.5600471 388.275200
  16191  16189  16195     1   110.2600474 425.931200
  16192  16188  16196     1   110.2600474 425.931200
  16193  16190  16194     1   109.5800467 425.931200
  16193  16190  16206     1   109.5800467 425.931200
  16198  16204  16205     1   107.2600461 396.643200
  16202  16198  16204     1   110.2600474 425.931200
  16202  16198  16203     1   108.4600466 328.025600
  16203  16198  16204     1   110.2600474 425.931200
  16207  16208  16210     1   109.5600471 388.275200
  16207  16221  16225     1   109.5600471 388.275200
  16207  16221  16226     1   109.5600471 388.275200
  16208  16211  16215     1   109.5600471 388.275200
  16208  16220  16223     1   107.2600461 396.643200
  16208  16207  16209     1   109.5600471 388.275200
  16209  16207  16221     1   109.5600471 388.275200
  16209  16207  16229     1   109.7800468 425.094400
  16210  16208  16211     1   109.5600471 388.275200
  16210  16208  16220     1   110.2600474 425.931200
  16211  16212  16214     1   109.5600471 388.275200
  16211  16219  16222     1   107.2600461 396.643200
  16212  16213  16216     1   110.2200475 386.601600
  16212  16218  16224     1   107.2600461 396.643200
  16212  16211  16215     1   109.5600471 388.275200
  16213  16212  16214     1   109.5600471 388.275200
  16214  16212  16218     1   110.2600474 425.931200
  16215  16211  16219     1   110.2600474 425.931200
  16216  16213  16217     1   109.5800467 425.931200
  16216  16213  16229     1   109.5800467 425.931200
  16221  16227  16228     1   107.2600461 396.643200
  16225  16221  16227     1   110.2600474 425.931200
  16225  16221  16226     1   108.4600466 328.025600
  16226  16221  16227     1   110.2600474 425.931200
  16230  16231  16233     1   109.5600471 388.275200
  16230  16244  16248     1   109.5600471 388.275200
  16230  16244  16249     1   109.5600471 388.275200
  16231  16230  16232     1   109.5600471 388.275200
  16231  16234  16238     1   109.5600471 388.275200
  16231  16243  16246     1   107.2600461 396.643200
  16232  16230  16244     1   109.5600471 388.275200
  16232  16230  16252     1   109.7800468 425.094400
  16233  16231  16234     1   109.5600471 388.275200
  16233  16231  16243     1   110.2600474 425.931200
  16234  16235  16237     1   109.5600471 388.275200
  16234  16242  16245     1   107.2600461 396.643200
  16235  16234  16238     1   109.5600471 388.275200
  16235  16236  16239     1   110.2200475 386.601600
  16235  16241  16247     1   107.2600461 396.643200
  16236  16235  16237     1   109.5600471 388.275200
  16237  16235  16241     1   110.2600474 425.931200
  16238  16234  16242     1   110.2600474 425.931200
  16239  16236  16240     1   109.5800467 425.931200
  16239  16236  16252     1   109.5800467 425.931200
  16244  16250  16251     1   107.2600461 396.643200
  16248  16244  16250     1   110.2600474 425.931200
  16248  16244  16249     1   108.4600466 328.025600
  16249  16244  16250     1   110.2600474 425.931200
  16253  16254  16256     1   109.5600471 388.275200
  16253  16267  16271     1   109.5600471 388.275200
  16253  16267  16272     1   109.5600471 388.275200
  16254  16257  16261     1   109.5600471 388.275200
  16254  16266  16269     1   107.2600461 396.643200
  16254  16253  16255     1   109.5600471 388.275200
  16255  16253  16267     1   109.5600471 388.275200
  16255  16253  16275     1   109.7800468 425.094400
  16256  16254  16257     1   109.5600471 388.275200
  16256  16254  16266     1   110.2600474 425.931200
  16257  16258  16260     1   109.5600471 388.275200
  16257  16265  16268     1   107.2600461 396.643200
  16258  16259  16262     1   110.2200475 386.601600
  16258  16264  16270     1   107.2600461 396.643200
  16258  16257  16261     1   109.5600471 388.275200
  16259  16258  16260     1   109.5600471 388.275200
  16260  16258  16264     1   110.2600474 425.931200
  16261  16257  16265     1   110.2600474 425.931200
  16262  16259  16263     1   109.5800467 425.931200
  16262  16259  16275     1   109.5800467 425.931200
  16267  16273  16274     1   107.2600461 396.643200
  16271  16267  16273     1   110.2600474 425.931200
  16271  16267  16272     1   108.4600466 328.025600
  16272  16267  16273     1   110.2600474 425.931200
  16276  16277  16279     1   109.5600471 388.275200
  16276  16290  16294     1   109.5600471 388.275200
  16276  16290  16295     1   109.5600471 388.275200
  16277  16276  16278     1   109.5600471 388.275200
  16277  16280  16284     1   109.5600471 388.275200
  16277  16289  16292     1   107.2600461 396.643200
  16278  16276  16290     1   109.5600471 388.275200
  16278  16276  16298     1   109.7800468 425.094400
  16279  16277  16280     1   109.5600471 388.275200
  16279  16277  16289     1   110.2600474 425.931200
  16280  16281  16283     1   109.5600471 388.275200
  16280  16288  16291     1   107.2600461 396.643200
  16281  16280  16284     1   109.5600471 388.275200
  16281  16282  16285     1   110.2200475 386.601600
  16281  16287  16293     1   107.2600461 396.643200
  16282  16281  16283     1   109.5600471 388.275200
  16283  16281  16287     1   110.2600474 425.931200
  16284  16280  16288     1   110.2600474 425.931200
  16285  16282  16286     1   109.5800467 425.931200
  16285  16282  16298     1   109.5800467 425.931200
  16290  16296  16297     1   107.2600461 396.643200
  16294  16290  16296     1   110.2600474 425.931200
  16294  16290  16295     1   108.4600466 328.025600
  16295  16290  16296     1   110.2600474 425.931200
  16299  16300  16302     1   109.5600471 388.275200
  16299  16313  16317     1   109.5600471 388.275200
  16299  16313  16318     1   109.5600471 388.275200
  16300  16303  16307     1   109.5600471 388.275200
  16300  16312  16315     1   107.2600461 396.643200
  16300  16299  16301     1   109.5600471 388.275200
  16301  16299  16313     1   109.5600471 388.275200
  16301  16299  16321     1   109.7800468 425.094400
  16302  16300  16303     1   109.5600471 388.275200
  16302  16300  16312     1   110.2600474 425.931200
  16303  16304  16306     1   109.5600471 388.275200
  16303  16311  16314     1   107.2600461 396.643200
  16304  16305  16308     1   110.2200475 386.601600
  16304  16310  16316     1   107.2600461 396.643200
  16304  16303  16307     1   109.5600471 388.275200
  16305  16304  16306     1   109.5600471 388.275200
  16306  16304  16310     1   110.2600474 425.931200
  16307  16303  16311     1   110.2600474 425.931200
  16308  16305  16309     1   109.5800467 425.931200
  16308  16305  16321     1   109.5800467 425.931200
  16313  16319  16320     1   107.2600461 396.643200
  16317  16313  16319     1   110.2600474 425.931200
  16317  16313  16318     1   108.4600466 328.025600
  16318  16313  16319     1   110.2600474 425.931200
  16322  16323  16325     1   109.5600471 388.275200
  16322  16336  16340     1   109.5600471 388.275200
  16322  16336  16341     1   109.5600471 388.275200
  16323  16322  16324     1   109.5600471 388.275200
  16323  16326  16330     1   109.5600471 388.275200
  16323  16335  16338     1   107.2600461 396.643200
  16324  16322  16336     1   109.5600471 388.275200
  16324  16322  16344     1   109.7800468 425.094400
  16325  16323  16326     1   109.5600471 388.275200
  16325  16323  16335     1   110.2600474 425.931200
  16326  16327  16329     1   109.5600471 388.275200
  16326  16334  16337     1   107.2600461 396.643200
  16327  16326  16330     1   109.5600471 388.275200
  16327  16328  16331     1   110.2200475 386.601600
  16327  16333  16339     1   107.2600461 396.643200
  16328  16327  16329     1   109.5600471 388.275200
  16329  16327  16333     1   110.2600474 425.931200
  16330  16326  16334     1   110.2600474 425.931200
  16331  16328  16332     1   109.5800467 425.931200
  16331  16328  16344     1   109.5800467 425.931200
  16336  16342  16343     1   107.2600461 396.643200
  16340  16336  16342     1   110.2600474 425.931200
  16340  16336  16341     1   108.4600466 328.025600
  16341  16336  16342     1   110.2600474 425.931200
  16345  16346  16348     1   109.5600471 388.275200
  16345  16359  16363     1   109.5600471 388.275200
  16345  16359  16364     1   109.5600471 388.275200
  16346  16349  16353     1   109.5600471 388.275200
  16346  16358  16361     1   107.2600461 396.643200
  16346  16345  16347     1   109.5600471 388.275200
  16347  16345  16359     1   109.5600471 388.275200
  16347  16345  16367     1   109.7800468 425.094400
  16348  16346  16349     1   109.5600471 388.275200
  16348  16346  16358     1   110.2600474 425.931200
  16349  16350  16352     1   109.5600471 388.275200
  16349  16357  16360     1   107.2600461 396.643200
  16350  16351  16354     1   110.2200475 386.601600
  16350  16356  16362     1   107.2600461 396.643200
  16350  16349  16353     1   109.5600471 388.275200
  16351  16350  16352     1   109.5600471 388.275200
  16352  16350  16356     1   110.2600474 425.931200
  16353  16349  16357     1   110.2600474 425.931200
  16354  16351  16355     1   109.5800467 425.931200
  16354  16351  16367     1   109.5800467 425.931200
  16359  16365  16366     1   107.2600461 396.643200
  16363  16359  16365     1   110.2600474 425.931200
  16363  16359  16364     1   108.4600466 328.025600
  16364  16359  16365     1   110.2600474 425.931200
  16368  16369  16371     1   109.5600471 388.275200
  16368  16382  16386     1   109.5600471 388.275200
  16368  16382  16387     1   109.5600471 388.275200
  16369  16368  16370     1   109.5600471 388.275200
  16369  16372  16376     1   109.5600471 388.275200
  16369  16381  16384     1   107.2600461 396.643200
  16370  16368  16382     1   109.5600471 388.275200
  16370  16368  16390     1   109.7800468 425.094400
  16371  16369  16372     1   109.5600471 388.275200
  16371  16369  16381     1   110.2600474 425.931200
  16372  16373  16375     1   109.5600471 388.275200
  16372  16380  16383     1   107.2600461 396.643200
  16373  16372  16376     1   109.5600471 388.275200
  16373  16374  16377     1   110.2200475 386.601600
  16373  16379  16385     1   107.2600461 396.643200
  16374  16373  16375     1   109.5600471 388.275200
  16375  16373  16379     1   110.2600474 425.931200
  16376  16372  16380     1   110.2600474 425.931200
  16377  16374  16378     1   109.5800467 425.931200
  16377  16374  16390     1   109.5800467 425.931200
  16382  16388  16389     1   107.2600461 396.643200
  16386  16382  16388     1   110.2600474 425.931200
  16386  16382  16387     1   108.4600466 328.025600
  16387  16382  16388     1   110.2600474 425.931200
  16391  16392  16394     1   109.5600471 388.275200
  16391  16405  16409     1   109.5600471 388.275200
  16391  16405  16410     1   109.5600471 388.275200
  16392  16395  16399     1   109.5600471 388.275200
  16392  16404  16407     1   107.2600461 396.643200
  16392  16391  16393     1   109.5600471 388.275200
  16393  16391  16405     1   109.5600471 388.275200
  16393  16391  16413     1   109.7800468 425.094400
  16394  16392  16395     1   109.5600471 388.275200
  16394  16392  16404     1   110.2600474 425.931200
  16395  16396  16398     1   109.5600471 388.275200
  16395  16403  16406     1   107.2600461 396.643200
  16396  16397  16400     1   110.2200475 386.601600
  16396  16402  16408     1   107.2600461 396.643200
  16396  16395  16399     1   109.5600471 388.275200
  16397  16396  16398     1   109.5600471 388.275200
  16398  16396  16402     1   110.2600474 425.931200
  16399  16395  16403     1   110.2600474 425.931200
  16400  16397  16401     1   109.5800467 425.931200
  16400  16397  16413     1   109.5800467 425.931200
  16405  16411  16412     1   107.2600461 396.643200
  16409  16405  16411     1   110.2600474 425.931200
  16409  16405  16410     1   108.4600466 328.025600
  16410  16405  16411     1   110.2600474 425.931200
  16414  16415  16417     1   109.5600471 388.275200
  16414  16428  16432     1   109.5600471 388.275200
  16414  16428  16433     1   109.5600471 388.275200
  16415  16414  16416     1   109.5600471 388.275200
  16415  16418  16422     1   109.5600471 388.275200
  16415  16427  16430     1   107.2600461 396.643200
  16416  16414  16428     1   109.5600471 388.275200
  16416  16414  16436     1   109.7800468 425.094400
  16417  16415  16418     1   109.5600471 388.275200
  16417  16415  16427     1   110.2600474 425.931200
  16418  16419  16421     1   109.5600471 388.275200
  16418  16426  16429     1   107.2600461 396.643200
  16419  16418  16422     1   109.5600471 388.275200
  16419  16420  16423     1   110.2200475 386.601600
  16419  16425  16431     1   107.2600461 396.643200
  16420  16419  16421     1   109.5600471 388.275200
  16421  16419  16425     1   110.2600474 425.931200
  16422  16418  16426     1   110.2600474 425.931200
  16423  16420  16424     1   109.5800467 425.931200
  16423  16420  16436     1   109.5800467 425.931200
  16428  16434  16435     1   107.2600461 396.643200
  16432  16428  16434     1   110.2600474 425.931200
  16432  16428  16433     1   108.4600466 328.025600
  16433  16428  16434     1   110.2600474 425.931200
  16437  16438  16440     1   109.5600471 388.275200
  16437  16451  16455     1   109.5600471 388.275200
  16437  16451  16456     1   109.5600471 388.275200
  16438  16441  16445     1   109.5600471 388.275200
  16438  16450  16453     1   107.2600461 396.643200
  16438  16437  16439     1   109.5600471 388.275200
  16439  16437  16451     1   109.5600471 388.275200
  16439  16437  16459     1   109.7800468 425.094400
  16440  16438  16441     1   109.5600471 388.275200
  16440  16438  16450     1   110.2600474 425.931200
  16441  16442  16444     1   109.5600471 388.275200
  16441  16449  16452     1   107.2600461 396.643200
  16442  16443  16446     1   110.2200475 386.601600
  16442  16448  16454     1   107.2600461 396.643200
  16442  16441  16445     1   109.5600471 388.275200
  16443  16442  16444     1   109.5600471 388.275200
  16444  16442  16448     1   110.2600474 425.931200
  16445  16441  16449     1   110.2600474 425.931200
  16446  16443  16447     1   109.5800467 425.931200
  16446  16443  16459     1   109.5800467 425.931200
  16451  16457  16458     1   107.2600461 396.643200
  16455  16451  16457     1   110.2600474 425.931200
  16455  16451  16456     1   108.4600466 328.025600
  16456  16451  16457     1   110.2600474 425.931200
  16460  16461  16463     1   109.5600471 388.275200
  16460  16474  16478     1   109.5600471 388.275200
  16460  16474  16479     1   109.5600471 388.275200
  16461  16460  16462     1   109.5600471 388.275200
  16461  16464  16468     1   109.5600471 388.275200
  16461  16473  16476     1   107.2600461 396.643200
  16462  16460  16474     1   109.5600471 388.275200
  16462  16460  16482     1   109.7800468 425.094400
  16463  16461  16464     1   109.5600471 388.275200
  16463  16461  16473     1   110.2600474 425.931200
  16464  16465  16467     1   109.5600471 388.275200
  16464  16472  16475     1   107.2600461 396.643200
  16465  16464  16468     1   109.5600471 388.275200
  16465  16466  16469     1   110.2200475 386.601600
  16465  16471  16477     1   107.2600461 396.643200
  16466  16465  16467     1   109.5600471 388.275200
  16467  16465  16471     1   110.2600474 425.931200
  16468  16464  16472     1   110.2600474 425.931200
  16469  16466  16470     1   109.5800467 425.931200
  16469  16466  16482     1   109.5800467 425.931200
  16474  16480  16481     1   107.2600461 396.643200
  16478  16474  16480     1   110.2600474 425.931200
  16478  16474  16479     1   108.4600466 328.025600
  16479  16474  16480     1   110.2600474 425.931200
  16483  16484  16486     1   109.5600471 388.275200
  16483  16497  16501     1   109.5600471 388.275200
  16483  16497  16502     1   109.5600471 388.275200
  16484  16487  16491     1   109.5600471 388.275200
  16484  16496  16499     1   107.2600461 396.643200
  16484  16483  16485     1   109.5600471 388.275200
  16485  16483  16497     1   109.5600471 388.275200
  16485  16483  16505     1   109.7800468 425.094400
  16486  16484  16487     1   109.5600471 388.275200
  16486  16484  16496     1   110.2600474 425.931200
  16487  16488  16490     1   109.5600471 388.275200
  16487  16495  16498     1   107.2600461 396.643200
  16488  16489  16492     1   110.2200475 386.601600
  16488  16494  16500     1   107.2600461 396.643200
  16488  16487  16491     1   109.5600471 388.275200
  16489  16488  16490     1   109.5600471 388.275200
  16490  16488  16494     1   110.2600474 425.931200
  16491  16487  16495     1   110.2600474 425.931200
  16492  16489  16493     1   109.5800467 425.931200
  16492  16489  16505     1   109.5800467 425.931200
  16497  16503  16504     1   107.2600461 396.643200
  16501  16497  16503     1   110.2600474 425.931200
  16501  16497  16502     1   108.4600466 328.025600
  16502  16497  16503     1   110.2600474 425.931200
  16506  16507  16509     1   109.5600471 388.275200
  16506  16520  16524     1   109.5600471 388.275200
  16506  16520  16525     1   109.5600471 388.275200
  16507  16506  16508     1   109.5600471 388.275200
  16507  16510  16514     1   109.5600471 388.275200
  16507  16519  16522     1   107.2600461 396.643200
  16508  16506  16520     1   109.5600471 388.275200
  16508  16506  16528     1   109.7800468 425.094400
  16509  16507  16510     1   109.5600471 388.275200
  16509  16507  16519     1   110.2600474 425.931200
  16510  16511  16513     1   109.5600471 388.275200
  16510  16518  16521     1   107.2600461 396.643200
  16511  16510  16514     1   109.5600471 388.275200
  16511  16512  16515     1   110.2200475 386.601600
  16511  16517  16523     1   107.2600461 396.643200
  16512  16511  16513     1   109.5600471 388.275200
  16513  16511  16517     1   110.2600474 425.931200
  16514  16510  16518     1   110.2600474 425.931200
  16515  16512  16516     1   109.5800467 425.931200
  16515  16512  16528     1   109.5800467 425.931200
  16520  16526  16527     1   107.2600461 396.643200
  16524  16520  16526     1   110.2600474 425.931200
  16524  16520  16525     1   108.4600466 328.025600
  16525  16520  16526     1   110.2600474 425.931200
  16529  16530  16532     1   109.5600471 388.275200
  16529  16543  16547     1   109.5600471 388.275200
  16529  16543  16548     1   109.5600471 388.275200
  16530  16533  16537     1   109.5600471 388.275200
  16530  16542  16545     1   107.2600461 396.643200
  16530  16529  16531     1   109.5600471 388.275200
  16531  16529  16543     1   109.5600471 388.275200
  16531  16529  16551     1   109.7800468 425.094400
  16532  16530  16533     1   109.5600471 388.275200
  16532  16530  16542     1   110.2600474 425.931200
  16533  16534  16536     1   109.5600471 388.275200
  16533  16541  16544     1   107.2600461 396.643200
  16534  16535  16538     1   110.2200475 386.601600
  16534  16540  16546     1   107.2600461 396.643200
  16534  16533  16537     1   109.5600471 388.275200
  16535  16534  16536     1   109.5600471 388.275200
  16536  16534  16540     1   110.2600474 425.931200
  16537  16533  16541     1   110.2600474 425.931200
  16538  16535  16539     1   109.5800467 425.931200
  16538  16535  16551     1   109.5800467 425.931200
  16543  16549  16550     1   107.2600461 396.643200
  16547  16543  16549     1   110.2600474 425.931200
  16547  16543  16548     1   108.4600466 328.025600
  16548  16543  16549     1   110.2600474 425.931200
  16552  16553  16555     1   109.5600471 388.275200
  16552  16566  16570     1   109.5600471 388.275200
  16552  16566  16571     1   109.5600471 388.275200
  16553  16552  16554     1   109.5600471 388.275200
  16553  16556  16560     1   109.5600471 388.275200
  16553  16565  16568     1   107.2600461 396.643200
  16554  16552  16566     1   109.5600471 388.275200
  16554  16552  16574     1   109.7800468 425.094400
  16555  16553  16556     1   109.5600471 388.275200
  16555  16553  16565     1   110.2600474 425.931200
  16556  16557  16559     1   109.5600471 388.275200
  16556  16564  16567     1   107.2600461 396.643200
  16557  16556  16560     1   109.5600471 388.275200
  16557  16558  16561     1   110.2200475 386.601600
  16557  16563  16569     1   107.2600461 396.643200
  16558  16557  16559     1   109.5600471 388.275200
  16559  16557  16563     1   110.2600474 425.931200
  16560  16556  16564     1   110.2600474 425.931200
  16561  16558  16562     1   109.5800467 425.931200
  16561  16558  16574     1   109.5800467 425.931200
  16566  16572  16573     1   107.2600461 396.643200
  16570  16566  16572     1   110.2600474 425.931200
  16570  16566  16571     1   108.4600466 328.025600
  16571  16566  16572     1   110.2600474 425.931200
  16575  16576  16578     1   109.5600471 388.275200
  16575  16589  16593     1   109.5600471 388.275200
  16575  16589  16594     1   109.5600471 388.275200
  16576  16579  16583     1   109.5600471 388.275200
  16576  16588  16591     1   107.2600461 396.643200
  16576  16575  16577     1   109.5600471 388.275200
  16577  16575  16589     1   109.5600471 388.275200
  16577  16575  16597     1   109.7800468 425.094400
  16578  16576  16579     1   109.5600471 388.275200
  16578  16576  16588     1   110.2600474 425.931200
  16579  16580  16582     1   109.5600471 388.275200
  16579  16587  16590     1   107.2600461 396.643200
  16580  16581  16584     1   110.2200475 386.601600
  16580  16586  16592     1   107.2600461 396.643200
  16580  16579  16583     1   109.5600471 388.275200
  16581  16580  16582     1   109.5600471 388.275200
  16582  16580  16586     1   110.2600474 425.931200
  16583  16579  16587     1   110.2600474 425.931200
  16584  16581  16585     1   109.5800467 425.931200
  16584  16581  16597     1   109.5800467 425.931200
  16589  16595  16596     1   107.2600461 396.643200
  16593  16589  16595     1   110.2600474 425.931200
  16593  16589  16594     1   108.4600466 328.025600
  16594  16589  16595     1   110.2600474 425.931200
  16598  16599  16601     1   109.5600471 388.275200
  16598  16612  16616     1   109.5600471 388.275200
  16598  16612  16617     1   109.5600471 388.275200
  16599  16598  16600     1   109.5600471 388.275200
  16599  16602  16606     1   109.5600471 388.275200
  16599  16611  16614     1   107.2600461 396.643200
  16600  16598  16612     1   109.5600471 388.275200
  16600  16598  16620     1   109.7800468 425.094400
  16601  16599  16602     1   109.5600471 388.275200
  16601  16599  16611     1   110.2600474 425.931200
  16602  16603  16605     1   109.5600471 388.275200
  16602  16610  16613     1   107.2600461 396.643200
  16603  16602  16606     1   109.5600471 388.275200
  16603  16604  16607     1   110.2200475 386.601600
  16603  16609  16615     1   107.2600461 396.643200
  16604  16603  16605     1   109.5600471 388.275200
  16605  16603  16609     1   110.2600474 425.931200
  16606  16602  16610     1   110.2600474 425.931200
  16607  16604  16608     1   109.5800467 425.931200
  16607  16604  16620     1   109.5800467 425.931200
  16612  16618  16619     1   107.2600461 396.643200
  16616  16612  16618     1   110.2600474 425.931200
  16616  16612  16617     1   108.4600466 328.025600
  16617  16612  16618     1   110.2600474 425.931200
  16621  16622  16624     1   109.5600471 388.275200
  16621  16635  16639     1   109.5600471 388.275200
  16621  16635  16640     1   109.5600471 388.275200
  16622  16625  16629     1   109.5600471 388.275200
  16622  16634  16637     1   107.2600461 396.643200
  16622  16621  16623     1   109.5600471 388.275200
  16623  16621  16635     1   109.5600471 388.275200
  16623  16621  16643     1   109.7800468 425.094400
  16624  16622  16625     1   109.5600471 388.275200
  16624  16622  16634     1   110.2600474 425.931200
  16625  16626  16628     1   109.5600471 388.275200
  16625  16633  16636     1   107.2600461 396.643200
  16626  16627  16630     1   110.2200475 386.601600
  16626  16632  16638     1   107.2600461 396.643200
  16626  16625  16629     1   109.5600471 388.275200
  16627  16626  16628     1   109.5600471 388.275200
  16628  16626  16632     1   110.2600474 425.931200
  16629  16625  16633     1   110.2600474 425.931200
  16630  16627  16631     1   109.5800467 425.931200
  16630  16627  16643     1   109.5800467 425.931200
  16635  16641  16642     1   107.2600461 396.643200
  16639  16635  16641     1   110.2600474 425.931200
  16639  16635  16640     1   108.4600466 328.025600
  16640  16635  16641     1   110.2600474 425.931200
  16644  16645  16647     1   109.5600471 388.275200
  16644  16658  16662     1   109.5600471 388.275200
  16644  16658  16663     1   109.5600471 388.275200
  16645  16644  16646     1   109.5600471 388.275200
  16645  16648  16652     1   109.5600471 388.275200
  16645  16657  16660     1   107.2600461 396.643200
  16646  16644  16658     1   109.5600471 388.275200
  16646  16644  16666     1   109.7800468 425.094400
  16647  16645  16648     1   109.5600471 388.275200
  16647  16645  16657     1   110.2600474 425.931200
  16648  16649  16651     1   109.5600471 388.275200
  16648  16656  16659     1   107.2600461 396.643200
  16649  16648  16652     1   109.5600471 388.275200
  16649  16650  16653     1   110.2200475 386.601600
  16649  16655  16661     1   107.2600461 396.643200
  16650  16649  16651     1   109.5600471 388.275200
  16651  16649  16655     1   110.2600474 425.931200
  16652  16648  16656     1   110.2600474 425.931200
  16653  16650  16654     1   109.5800467 425.931200
  16653  16650  16666     1   109.5800467 425.931200
  16658  16664  16665     1   107.2600461 396.643200
  16662  16658  16664     1   110.2600474 425.931200
  16662  16658  16663     1   108.4600466 328.025600
  16663  16658  16664     1   110.2600474 425.931200
  16667  16668  16670     1   109.5600471 388.275200
  16667  16681  16685     1   109.5600471 388.275200
  16667  16681  16686     1   109.5600471 388.275200
  16668  16671  16675     1   109.5600471 388.275200
  16668  16680  16683     1   107.2600461 396.643200
  16668  16667  16669     1   109.5600471 388.275200
  16669  16667  16681     1   109.5600471 388.275200
  16669  16667  16689     1   109.7800468 425.094400
  16670  16668  16671     1   109.5600471 388.275200
  16670  16668  16680     1   110.2600474 425.931200
  16671  16672  16674     1   109.5600471 388.275200
  16671  16679  16682     1   107.2600461 396.643200
  16672  16673  16676     1   110.2200475 386.601600
  16672  16678  16684     1   107.2600461 396.643200
  16672  16671  16675     1   109.5600471 388.275200
  16673  16672  16674     1   109.5600471 388.275200
  16674  16672  16678     1   110.2600474 425.931200
  16675  16671  16679     1   110.2600474 425.931200
  16676  16673  16677     1   109.5800467 425.931200
  16676  16673  16689     1   109.5800467 425.931200
  16681  16687  16688     1   107.2600461 396.643200
  16685  16681  16687     1   110.2600474 425.931200
  16685  16681  16686     1   108.4600466 328.025600
  16686  16681  16687     1   110.2600474 425.931200
  16690  16691  16693     1   109.5600471 388.275200
  16690  16704  16708     1   109.5600471 388.275200
  16690  16704  16709     1   109.5600471 388.275200
  16691  16690  16692     1   109.5600471 388.275200
  16691  16694  16698     1   109.5600471 388.275200
  16691  16703  16706     1   107.2600461 396.643200
  16692  16690  16704     1   109.5600471 388.275200
  16692  16690  16712     1   109.7800468 425.094400
  16693  16691  16694     1   109.5600471 388.275200
  16693  16691  16703     1   110.2600474 425.931200
  16694  16695  16697     1   109.5600471 388.275200
  16694  16702  16705     1   107.2600461 396.643200
  16695  16694  16698     1   109.5600471 388.275200
  16695  16696  16699     1   110.2200475 386.601600
  16695  16701  16707     1   107.2600461 396.643200
  16696  16695  16697     1   109.5600471 388.275200
  16697  16695  16701     1   110.2600474 425.931200
  16698  16694  16702     1   110.2600474 425.931200
  16699  16696  16700     1   109.5800467 425.931200
  16699  16696  16712     1   109.5800467 425.931200
  16704  16710  16711     1   107.2600461 396.643200
  16708  16704  16710     1   110.2600474 425.931200
  16708  16704  16709     1   108.4600466 328.025600
  16709  16704  16710     1   110.2600474 425.931200
  16713  16714  16716     1   109.5600471 388.275200
  16713  16727  16731     1   109.5600471 388.275200
  16713  16727  16732     1   109.5600471 388.275200
  16714  16717  16721     1   109.5600471 388.275200
  16714  16726  16729     1   107.2600461 396.643200
  16714  16713  16715     1   109.5600471 388.275200
  16715  16713  16727     1   109.5600471 388.275200
  16715  16713  16735     1   109.7800468 425.094400
  16716  16714  16717     1   109.5600471 388.275200
  16716  16714  16726     1   110.2600474 425.931200
  16717  16718  16720     1   109.5600471 388.275200
  16717  16725  16728     1   107.2600461 396.643200
  16718  16719  16722     1   110.2200475 386.601600
  16718  16724  16730     1   107.2600461 396.643200
  16718  16717  16721     1   109.5600471 388.275200
  16719  16718  16720     1   109.5600471 388.275200
  16720  16718  16724     1   110.2600474 425.931200
  16721  16717  16725     1   110.2600474 425.931200
  16722  16719  16723     1   109.5800467 425.931200
  16722  16719  16735     1   109.5800467 425.931200
  16727  16733  16734     1   107.2600461 396.643200
  16731  16727  16733     1   110.2600474 425.931200
  16731  16727  16732     1   108.4600466 328.025600
  16732  16727  16733     1   110.2600474 425.931200
  16736  16737  16739     1   109.5600471 388.275200
  16736  16750  16754     1   109.5600471 388.275200
  16736  16750  16755     1   109.5600471 388.275200
  16737  16736  16738     1   109.5600471 388.275200
  16737  16740  16744     1   109.5600471 388.275200
  16737  16749  16752     1   107.2600461 396.643200
  16738  16736  16750     1   109.5600471 388.275200
  16738  16736  16758     1   109.7800468 425.094400
  16739  16737  16740     1   109.5600471 388.275200
  16739  16737  16749     1   110.2600474 425.931200
  16740  16741  16743     1   109.5600471 388.275200
  16740  16748  16751     1   107.2600461 396.643200
  16741  16740  16744     1   109.5600471 388.275200
  16741  16742  16745     1   110.2200475 386.601600
  16741  16747  16753     1   107.2600461 396.643200
  16742  16741  16743     1   109.5600471 388.275200
  16743  16741  16747     1   110.2600474 425.931200
  16744  16740  16748     1   110.2600474 425.931200
  16745  16742  16746     1   109.5800467 425.931200
  16745  16742  16758     1   109.5800467 425.931200
  16750  16756  16757     1   107.2600461 396.643200
  16754  16750  16756     1   110.2600474 425.931200
  16754  16750  16755     1   108.4600466 328.025600
  16755  16750  16756     1   110.2600474 425.931200
  16759  16760  16762     1   109.5600471 388.275200
  16759  16773  16777     1   109.5600471 388.275200
  16759  16773  16778     1   109.5600471 388.275200
  16760  16763  16767     1   109.5600471 388.275200
  16760  16772  16775     1   107.2600461 396.643200
  16760  16759  16761     1   109.5600471 388.275200
  16761  16759  16773     1   109.5600471 388.275200
  16761  16759  16781     1   109.7800468 425.094400
  16762  16760  16763     1   109.5600471 388.275200
  16762  16760  16772     1   110.2600474 425.931200
  16763  16764  16766     1   109.5600471 388.275200
  16763  16771  16774     1   107.2600461 396.643200
  16764  16765  16768     1   110.2200475 386.601600
  16764  16770  16776     1   107.2600461 396.643200
  16764  16763  16767     1   109.5600471 388.275200
  16765  16764  16766     1   109.5600471 388.275200
  16766  16764  16770     1   110.2600474 425.931200
  16767  16763  16771     1   110.2600474 425.931200
  16768  16765  16769     1   109.5800467 425.931200
  16768  16765  16781     1   109.5800467 425.931200
  16773  16779  16780     1   107.2600461 396.643200
  16777  16773  16779     1   110.2600474 425.931200
  16777  16773  16778     1   108.4600466 328.025600
  16778  16773  16779     1   110.2600474 425.931200
  16782  16783  16785     1   109.5600471 388.275200
  16782  16796  16800     1   109.5600471 388.275200
  16782  16796  16801     1   109.5600471 388.275200
  16783  16782  16784     1   109.5600471 388.275200
  16783  16786  16790     1   109.5600471 388.275200
  16783  16795  16798     1   107.2600461 396.643200
  16784  16782  16796     1   109.5600471 388.275200
  16784  16782  16804     1   109.7800468 425.094400
  16785  16783  16786     1   109.5600471 388.275200
  16785  16783  16795     1   110.2600474 425.931200
  16786  16787  16789     1   109.5600471 388.275200
  16786  16794  16797     1   107.2600461 396.643200
  16787  16786  16790     1   109.5600471 388.275200
  16787  16788  16791     1   110.2200475 386.601600
  16787  16793  16799     1   107.2600461 396.643200
  16788  16787  16789     1   109.5600471 388.275200
  16789  16787  16793     1   110.2600474 425.931200
  16790  16786  16794     1   110.2600474 425.931200
  16791  16788  16792     1   109.5800467 425.931200
  16791  16788  16804     1   109.5800467 425.931200
  16796  16802  16803     1   107.2600461 396.643200
  16800  16796  16802     1   110.2600474 425.931200
  16800  16796  16801     1   108.4600466 328.025600
  16801  16796  16802     1   110.2600474 425.931200
  16805  16806  16808     1   109.5600471 388.275200
  16805  16819  16823     1   109.5600471 388.275200
  16805  16819  16824     1   109.5600471 388.275200
  16806  16809  16813     1   109.5600471 388.275200
  16806  16818  16821     1   107.2600461 396.643200
  16806  16805  16807     1   109.5600471 388.275200
  16807  16805  16819     1   109.5600471 388.275200
  16807  16805  16827     1   109.7800468 425.094400
  16808  16806  16809     1   109.5600471 388.275200
  16808  16806  16818     1   110.2600474 425.931200
  16809  16810  16812     1   109.5600471 388.275200
  16809  16817  16820     1   107.2600461 396.643200
  16810  16811  16814     1   110.2200475 386.601600
  16810  16816  16822     1   107.2600461 396.643200
  16810  16809  16813     1   109.5600471 388.275200
  16811  16810  16812     1   109.5600471 388.275200
  16812  16810  16816     1   110.2600474 425.931200
  16813  16809  16817     1   110.2600474 425.931200
  16814  16811  16815     1   109.5800467 425.931200
  16814  16811  16827     1   109.5800467 425.931200
  16819  16825  16826     1   107.2600461 396.643200
  16823  16819  16825     1   110.2600474 425.931200
  16823  16819  16824     1   108.4600466 328.025600
  16824  16819  16825     1   110.2600474 425.931200
  16828  16829  16831     1   109.5600471 388.275200
  16828  16842  16846     1   109.5600471 388.275200
  16828  16842  16847     1   109.5600471 388.275200
  16829  16828  16830     1   109.5600471 388.275200
  16829  16832  16836     1   109.5600471 388.275200
  16829  16841  16844     1   107.2600461 396.643200
  16830  16828  16842     1   109.5600471 388.275200
  16830  16828  16850     1   109.7800468 425.094400
  16831  16829  16832     1   109.5600471 388.275200
  16831  16829  16841     1   110.2600474 425.931200
  16832  16833  16835     1   109.5600471 388.275200
  16832  16840  16843     1   107.2600461 396.643200
  16833  16832  16836     1   109.5600471 388.275200
  16833  16834  16837     1   110.2200475 386.601600
  16833  16839  16845     1   107.2600461 396.643200
  16834  16833  16835     1   109.5600471 388.275200
  16835  16833  16839     1   110.2600474 425.931200
  16836  16832  16840     1   110.2600474 425.931200
  16837  16834  16838     1   109.5800467 425.931200
  16837  16834  16850     1   109.5800467 425.931200
  16842  16848  16849     1   107.2600461 396.643200
  16846  16842  16848     1   110.2600474 425.931200
  16846  16842  16847     1   108.4600466 328.025600
  16847  16842  16848     1   110.2600474 425.931200
  16851  16852  16854     1   109.5600471 388.275200
  16851  16865  16869     1   109.5600471 388.275200
  16851  16865  16870     1   109.5600471 388.275200
  16852  16855  16859     1   109.5600471 388.275200
  16852  16864  16867     1   107.2600461 396.643200
  16852  16851  16853     1   109.5600471 388.275200
  16853  16851  16865     1   109.5600471 388.275200
  16853  16851  16873     1   109.7800468 425.094400
  16854  16852  16855     1   109.5600471 388.275200
  16854  16852  16864     1   110.2600474 425.931200
  16855  16856  16858     1   109.5600471 388.275200
  16855  16863  16866     1   107.2600461 396.643200
  16856  16857  16860     1   110.2200475 386.601600
  16856  16862  16868     1   107.2600461 396.643200
  16856  16855  16859     1   109.5600471 388.275200
  16857  16856  16858     1   109.5600471 388.275200
  16858  16856  16862     1   110.2600474 425.931200
  16859  16855  16863     1   110.2600474 425.931200
  16860  16857  16861     1   109.5800467 425.931200
  16860  16857  16873     1   109.5800467 425.931200
  16865  16871  16872     1   107.2600461 396.643200
  16869  16865  16871     1   110.2600474 425.931200
  16869  16865  16870     1   108.4600466 328.025600
  16870  16865  16871     1   110.2600474 425.931200
  16874  16875  16877     1   109.5600471 388.275200
  16874  16888  16892     1   109.5600471 388.275200
  16874  16888  16893     1   109.5600471 388.275200
  16875  16874  16876     1   109.5600471 388.275200
  16875  16878  16882     1   109.5600471 388.275200
  16875  16887  16890     1   107.2600461 396.643200
  16876  16874  16888     1   109.5600471 388.275200
  16876  16874  16896     1   109.7800468 425.094400
  16877  16875  16878     1   109.5600471 388.275200
  16877  16875  16887     1   110.2600474 425.931200
  16878  16879  16881     1   109.5600471 388.275200
  16878  16886  16889     1   107.2600461 396.643200
  16879  16878  16882     1   109.5600471 388.275200
  16879  16880  16883     1   110.2200475 386.601600
  16879  16885  16891     1   107.2600461 396.643200
  16880  16879  16881     1   109.5600471 388.275200
  16881  16879  16885     1   110.2600474 425.931200
  16882  16878  16886     1   110.2600474 425.931200
  16883  16880  16884     1   109.5800467 425.931200
  16883  16880  16896     1   109.5800467 425.931200
  16888  16894  16895     1   107.2600461 396.643200
  16892  16888  16894     1   110.2600474 425.931200
  16892  16888  16893     1   108.4600466 328.025600
  16893  16888  16894     1   110.2600474 425.931200
  16897  16898  16900     1   109.5600471 388.275200
  16897  16911  16915     1   109.5600471 388.275200
  16897  16911  16916     1   109.5600471 388.275200
  16898  16901  16905     1   109.5600471 388.275200
  16898  16910  16913     1   107.2600461 396.643200
  16898  16897  16899     1   109.5600471 388.275200
  16899  16897  16911     1   109.5600471 388.275200
  16899  16897  16919     1   109.7800468 425.094400
  16900  16898  16901     1   109.5600471 388.275200
  16900  16898  16910     1   110.2600474 425.931200
  16901  16902  16904     1   109.5600471 388.275200
  16901  16909  16912     1   107.2600461 396.643200
  16902  16903  16906     1   110.2200475 386.601600
  16902  16908  16914     1   107.2600461 396.643200
  16902  16901  16905     1   109.5600471 388.275200
  16903  16902  16904     1   109.5600471 388.275200
  16904  16902  16908     1   110.2600474 425.931200
  16905  16901  16909     1   110.2600474 425.931200
  16906  16903  16907     1   109.5800467 425.931200
  16906  16903  16919     1   109.5800467 425.931200
  16911  16917  16918     1   107.2600461 396.643200
  16915  16911  16917     1   110.2600474 425.931200
  16915  16911  16916     1   108.4600466 328.025600
  16916  16911  16917     1   110.2600474 425.931200
  16920  16921  16923     1   109.5600471 388.275200
  16920  16934  16938     1   109.5600471 388.275200
  16920  16934  16939     1   109.5600471 388.275200
  16921  16920  16922     1   109.5600471 388.275200
  16921  16924  16928     1   109.5600471 388.275200
  16921  16933  16936     1   107.2600461 396.643200
  16922  16920  16934     1   109.5600471 388.275200
  16922  16920  16942     1   109.7800468 425.094400
  16923  16921  16924     1   109.5600471 388.275200
  16923  16921  16933     1   110.2600474 425.931200
  16924  16925  16927     1   109.5600471 388.275200
  16924  16932  16935     1   107.2600461 396.643200
  16925  16924  16928     1   109.5600471 388.275200
  16925  16926  16929     1   110.2200475 386.601600
  16925  16931  16937     1   107.2600461 396.643200
  16926  16925  16927     1   109.5600471 388.275200
  16927  16925  16931     1   110.2600474 425.931200
  16928  16924  16932     1   110.2600474 425.931200
  16929  16926  16930     1   109.5800467 425.931200
  16929  16926  16942     1   109.5800467 425.931200
  16934  16940  16941     1   107.2600461 396.643200
  16938  16934  16940     1   110.2600474 425.931200
  16938  16934  16939     1   108.4600466 328.025600
  16939  16934  16940     1   110.2600474 425.931200
  16943  16944  16946     1   109.5600471 388.275200
  16943  16957  16961     1   109.5600471 388.275200
  16943  16957  16962     1   109.5600471 388.275200
  16944  16947  16951     1   109.5600471 388.275200
  16944  16956  16959     1   107.2600461 396.643200
  16944  16943  16945     1   109.5600471 388.275200
  16945  16943  16957     1   109.5600471 388.275200
  16945  16943  16965     1   109.7800468 425.094400
  16946  16944  16947     1   109.5600471 388.275200
  16946  16944  16956     1   110.2600474 425.931200
  16947  16948  16950     1   109.5600471 388.275200
  16947  16955  16958     1   107.2600461 396.643200
  16948  16949  16952     1   110.2200475 386.601600
  16948  16954  16960     1   107.2600461 396.643200
  16948  16947  16951     1   109.5600471 388.275200
  16949  16948  16950     1   109.5600471 388.275200
  16950  16948  16954     1   110.2600474 425.931200
  16951  16947  16955     1   110.2600474 425.931200
  16952  16949  16953     1   109.5800467 425.931200
  16952  16949  16965     1   109.5800467 425.931200
  16957  16963  16964     1   107.2600461 396.643200
  16961  16957  16963     1   110.2600474 425.931200
  16961  16957  16962     1   108.4600466 328.025600
  16962  16957  16963     1   110.2600474 425.931200
  16966  16967  16969     1   109.5600471 388.275200
  16966  16980  16984     1   109.5600471 388.275200
  16966  16980  16985     1   109.5600471 388.275200
  16967  16966  16968     1   109.5600471 388.275200
  16967  16970  16974     1   109.5600471 388.275200
  16967  16979  16982     1   107.2600461 396.643200
  16968  16966  16980     1   109.5600471 388.275200
  16968  16966  16988     1   109.7800468 425.094400
  16969  16967  16970     1   109.5600471 388.275200
  16969  16967  16979     1   110.2600474 425.931200
  16970  16971  16973     1   109.5600471 388.275200
  16970  16978  16981     1   107.2600461 396.643200
  16971  16970  16974     1   109.5600471 388.275200
  16971  16972  16975     1   110.2200475 386.601600
  16971  16977  16983     1   107.2600461 396.643200
  16972  16971  16973     1   109.5600471 388.275200
  16973  16971  16977     1   110.2600474 425.931200
  16974  16970  16978     1   110.2600474 425.931200
  16975  16972  16976     1   109.5800467 425.931200
  16975  16972  16988     1   109.5800467 425.931200
  16980  16986  16987     1   107.2600461 396.643200
  16984  16980  16986     1   110.2600474 425.931200
  16984  16980  16985     1   108.4600466 328.025600
  16985  16980  16986     1   110.2600474 425.931200
  16989  16990  16992     1   109.5600471 388.275200
  16989  17003  17007     1   109.5600471 388.275200
  16989  17003  17008     1   109.5600471 388.275200
  16990  16993  16997     1   109.5600471 388.275200
  16990  17002  17005     1   107.2600461 396.643200
  16990  16989  16991     1   109.5600471 388.275200
  16991  16989  17003     1   109.5600471 388.275200
  16991  16989  17011     1   109.7800468 425.094400
  16992  16990  16993     1   109.5600471 388.275200
  16992  16990  17002     1   110.2600474 425.931200
  16993  16994  16996     1   109.5600471 388.275200
  16993  17001  17004     1   107.2600461 396.643200
  16994  16995  16998     1   110.2200475 386.601600
  16994  17000  17006     1   107.2600461 396.643200
  16994  16993  16997     1   109.5600471 388.275200
  16995  16994  16996     1   109.5600471 388.275200
  16996  16994  17000     1   110.2600474 425.931200
  16997  16993  17001     1   110.2600474 425.931200
  16998  16995  16999     1   109.5800467 425.931200
  16998  16995  17011     1   109.5800467 425.931200
  17003  17009  17010     1   107.2600461 396.643200
  17007  17003  17009     1   110.2600474 425.931200
  17007  17003  17008     1   108.4600466 328.025600
  17008  17003  17009     1   110.2600474 425.931200
  17012  17013  17015     1   109.5600471 388.275200
  17012  17026  17030     1   109.5600471 388.275200
  17012  17026  17031     1   109.5600471 388.275200
  17013  17012  17014     1   109.5600471 388.275200
  17013  17016  17020     1   109.5600471 388.275200
  17013  17025  17028     1   107.2600461 396.643200
  17014  17012  17026     1   109.5600471 388.275200
  17014  17012  17034     1   109.7800468 425.094400
  17015  17013  17016     1   109.5600471 388.275200
  17015  17013  17025     1   110.2600474 425.931200
  17016  17017  17019     1   109.5600471 388.275200
  17016  17024  17027     1   107.2600461 396.643200
  17017  17016  17020     1   109.5600471 388.275200
  17017  17018  17021     1   110.2200475 386.601600
  17017  17023  17029     1   107.2600461 396.643200
  17018  17017  17019     1   109.5600471 388.275200
  17019  17017  17023     1   110.2600474 425.931200
  17020  17016  17024     1   110.2600474 425.931200
  17021  17018  17022     1   109.5800467 425.931200
  17021  17018  17034     1   109.5800467 425.931200
  17026  17032  17033     1   107.2600461 396.643200
  17030  17026  17032     1   110.2600474 425.931200
  17030  17026  17031     1   108.4600466 328.025600
  17031  17026  17032     1   110.2600474 425.931200
  17035  17036  17038     1   109.5600471 388.275200
  17035  17049  17053     1   109.5600471 388.275200
  17035  17049  17054     1   109.5600471 388.275200
  17036  17039  17043     1   109.5600471 388.275200
  17036  17048  17051     1   107.2600461 396.643200
  17036  17035  17037     1   109.5600471 388.275200
  17037  17035  17049     1   109.5600471 388.275200
  17037  17035  17057     1   109.7800468 425.094400
  17038  17036  17039     1   109.5600471 388.275200
  17038  17036  17048     1   110.2600474 425.931200
  17039  17040  17042     1   109.5600471 388.275200
  17039  17047  17050     1   107.2600461 396.643200
  17040  17041  17044     1   110.2200475 386.601600
  17040  17046  17052     1   107.2600461 396.643200
  17040  17039  17043     1   109.5600471 388.275200
  17041  17040  17042     1   109.5600471 388.275200
  17042  17040  17046     1   110.2600474 425.931200
  17043  17039  17047     1   110.2600474 425.931200
  17044  17041  17045     1   109.5800467 425.931200
  17044  17041  17057     1   109.5800467 425.931200
  17049  17055  17056     1   107.2600461 396.643200
  17053  17049  17055     1   110.2600474 425.931200
  17053  17049  17054     1   108.4600466 328.025600
  17054  17049  17055     1   110.2600474 425.931200
  17058  17059  17061     1   109.5600471 388.275200
  17058  17072  17076     1   109.5600471 388.275200
  17058  17072  17077     1   109.5600471 388.275200
  17059  17058  17060     1   109.5600471 388.275200
  17059  17062  17066     1   109.5600471 388.275200
  17059  17071  17074     1   107.2600461 396.643200
  17060  17058  17072     1   109.5600471 388.275200
  17060  17058  17080     1   109.7800468 425.094400
  17061  17059  17062     1   109.5600471 388.275200
  17061  17059  17071     1   110.2600474 425.931200
  17062  17063  17065     1   109.5600471 388.275200
  17062  17070  17073     1   107.2600461 396.643200
  17063  17062  17066     1   109.5600471 388.275200
  17063  17064  17067     1   110.2200475 386.601600
  17063  17069  17075     1   107.2600461 396.643200
  17064  17063  17065     1   109.5600471 388.275200
  17065  17063  17069     1   110.2600474 425.931200
  17066  17062  17070     1   110.2600474 425.931200
  17067  17064  17068     1   109.5800467 425.931200
  17067  17064  17080     1   109.5800467 425.931200
  17072  17078  17079     1   107.2600461 396.643200
  17076  17072  17078     1   110.2600474 425.931200
  17076  17072  17077     1   108.4600466 328.025600
  17077  17072  17078     1   110.2600474 425.931200
  17081  17082  17084     1   109.5600471 388.275200
  17081  17095  17099     1   109.5600471 388.275200
  17081  17095  17100     1   109.5600471 388.275200
  17082  17085  17089     1   109.5600471 388.275200
  17082  17094  17097     1   107.2600461 396.643200
  17082  17081  17083     1   109.5600471 388.275200
  17083  17081  17095     1   109.5600471 388.275200
  17083  17081  17103     1   109.7800468 425.094400
  17084  17082  17085     1   109.5600471 388.275200
  17084  17082  17094     1   110.2600474 425.931200
  17085  17086  17088     1   109.5600471 388.275200
  17085  17093  17096     1   107.2600461 396.643200
  17086  17087  17090     1   110.2200475 386.601600
  17086  17092  17098     1   107.2600461 396.643200
  17086  17085  17089     1   109.5600471 388.275200
  17087  17086  17088     1   109.5600471 388.275200
  17088  17086  17092     1   110.2600474 425.931200
  17089  17085  17093     1   110.2600474 425.931200
  17090  17087  17091     1   109.5800467 425.931200
  17090  17087  17103     1   109.5800467 425.931200
  17095  17101  17102     1   107.2600461 396.643200
  17099  17095  17101     1   110.2600474 425.931200
  17099  17095  17100     1   108.4600466 328.025600
  17100  17095  17101     1   110.2600474 425.931200
  17104  17105  17107     1   109.5600471 388.275200
  17104  17118  17122     1   109.5600471 388.275200
  17104  17118  17123     1   109.5600471 388.275200
  17105  17104  17106     1   109.5600471 388.275200
  17105  17108  17112     1   109.5600471 388.275200
  17105  17117  17120     1   107.2600461 396.643200
  17106  17104  17118     1   109.5600471 388.275200
  17106  17104  17126     1   109.7800468 425.094400
  17107  17105  17108     1   109.5600471 388.275200
  17107  17105  17117     1   110.2600474 425.931200
  17108  17109  17111     1   109.5600471 388.275200
  17108  17116  17119     1   107.2600461 396.643200
  17109  17108  17112     1   109.5600471 388.275200
  17109  17110  17113     1   110.2200475 386.601600
  17109  17115  17121     1   107.2600461 396.643200
  17110  17109  17111     1   109.5600471 388.275200
  17111  17109  17115     1   110.2600474 425.931200
  17112  17108  17116     1   110.2600474 425.931200
  17113  17110  17114     1   109.5800467 425.931200
  17113  17110  17126     1   109.5800467 425.931200
  17118  17124  17125     1   107.2600461 396.643200
  17122  17118  17124     1   110.2600474 425.931200
  17122  17118  17123     1   108.4600466 328.025600
  17123  17118  17124     1   110.2600474 425.931200
  17127  17128  17130     1   109.5600471 388.275200
  17127  17141  17145     1   109.5600471 388.275200
  17127  17141  17146     1   109.5600471 388.275200
  17128  17131  17135     1   109.5600471 388.275200
  17128  17140  17143     1   107.2600461 396.643200
  17128  17127  17129     1   109.5600471 388.275200
  17129  17127  17141     1   109.5600471 388.275200
  17129  17127  17149     1   109.7800468 425.094400
  17130  17128  17131     1   109.5600471 388.275200
  17130  17128  17140     1   110.2600474 425.931200
  17131  17132  17134     1   109.5600471 388.275200
  17131  17139  17142     1   107.2600461 396.643200
  17132  17133  17136     1   110.2200475 386.601600
  17132  17138  17144     1   107.2600461 396.643200
  17132  17131  17135     1   109.5600471 388.275200
  17133  17132  17134     1   109.5600471 388.275200
  17134  17132  17138     1   110.2600474 425.931200
  17135  17131  17139     1   110.2600474 425.931200
  17136  17133  17137     1   109.5800467 425.931200
  17136  17133  17149     1   109.5800467 425.931200
  17141  17147  17148     1   107.2600461 396.643200
  17145  17141  17147     1   110.2600474 425.931200
  17145  17141  17146     1   108.4600466 328.025600
  17146  17141  17147     1   110.2600474 425.931200
  17150  17151  17153     1   109.5600471 388.275200
  17150  17164  17168     1   109.5600471 388.275200
  17150  17164  17169     1   109.5600471 388.275200
  17151  17150  17152     1   109.5600471 388.275200
  17151  17154  17158     1   109.5600471 388.275200
  17151  17163  17166     1   107.2600461 396.643200
  17152  17150  17164     1   109.5600471 388.275200
  17152  17150  17172     1   109.7800468 425.094400
  17153  17151  17154     1   109.5600471 388.275200
  17153  17151  17163     1   110.2600474 425.931200
  17154  17155  17157     1   109.5600471 388.275200
  17154  17162  17165     1   107.2600461 396.643200
  17155  17154  17158     1   109.5600471 388.275200
  17155  17156  17159     1   110.2200475 386.601600
  17155  17161  17167     1   107.2600461 396.643200
  17156  17155  17157     1   109.5600471 388.275200
  17157  17155  17161     1   110.2600474 425.931200
  17158  17154  17162     1   110.2600474 425.931200
  17159  17156  17160     1   109.5800467 425.931200
  17159  17156  17172     1   109.5800467 425.931200
  17164  17170  17171     1   107.2600461 396.643200
  17168  17164  17170     1   110.2600474 425.931200
  17168  17164  17169     1   108.4600466 328.025600
  17169  17164  17170     1   110.2600474 425.931200
  17173  17174  17176     1   109.5600471 388.275200
  17173  17187  17191     1   109.5600471 388.275200
  17173  17187  17192     1   109.5600471 388.275200
  17174  17177  17181     1   109.5600471 388.275200
  17174  17186  17189     1   107.2600461 396.643200
  17174  17173  17175     1   109.5600471 388.275200
  17175  17173  17187     1   109.5600471 388.275200
  17175  17173  17195     1   109.7800468 425.094400
  17176  17174  17177     1   109.5600471 388.275200
  17176  17174  17186     1   110.2600474 425.931200
  17177  17178  17180     1   109.5600471 388.275200
  17177  17185  17188     1   107.2600461 396.643200
  17178  17179  17182     1   110.2200475 386.601600
  17178  17184  17190     1   107.2600461 396.643200
  17178  17177  17181     1   109.5600471 388.275200
  17179  17178  17180     1   109.5600471 388.275200
  17180  17178  17184     1   110.2600474 425.931200
  17181  17177  17185     1   110.2600474 425.931200
  17182  17179  17183     1   109.5800467 425.931200
  17182  17179  17195     1   109.5800467 425.931200
  17187  17193  17194     1   107.2600461 396.643200
  17191  17187  17193     1   110.2600474 425.931200
  17191  17187  17192     1   108.4600466 328.025600
  17192  17187  17193     1   110.2600474 425.931200
  17196  17197  17199     1   109.5600471 388.275200
  17196  17210  17214     1   109.5600471 388.275200
  17196  17210  17215     1   109.5600471 388.275200
  17197  17196  17198     1   109.5600471 388.275200
  17197  17200  17204     1   109.5600471 388.275200
  17197  17209  17212     1   107.2600461 396.643200
  17198  17196  17210     1   109.5600471 388.275200
  17198  17196  17218     1   109.7800468 425.094400
  17199  17197  17200     1   109.5600471 388.275200
  17199  17197  17209     1   110.2600474 425.931200
  17200  17201  17203     1   109.5600471 388.275200
  17200  17208  17211     1   107.2600461 396.643200
  17201  17200  17204     1   109.5600471 388.275200
  17201  17202  17205     1   110.2200475 386.601600
  17201  17207  17213     1   107.2600461 396.643200
  17202  17201  17203     1   109.5600471 388.275200
  17203  17201  17207     1   110.2600474 425.931200
  17204  17200  17208     1   110.2600474 425.931200
  17205  17202  17206     1   109.5800467 425.931200
  17205  17202  17218     1   109.5800467 425.931200
  17210  17216  17217     1   107.2600461 396.643200
  17214  17210  17216     1   110.2600474 425.931200
  17214  17210  17215     1   108.4600466 328.025600
  17215  17210  17216     1   110.2600474 425.931200
  17219  17220  17222     1   109.5600471 388.275200
  17219  17233  17237     1   109.5600471 388.275200
  17219  17233  17238     1   109.5600471 388.275200
  17220  17223  17227     1   109.5600471 388.275200
  17220  17232  17235     1   107.2600461 396.643200
  17220  17219  17221     1   109.5600471 388.275200
  17221  17219  17233     1   109.5600471 388.275200
  17221  17219  17241     1   109.7800468 425.094400
  17222  17220  17223     1   109.5600471 388.275200
  17222  17220  17232     1   110.2600474 425.931200
  17223  17224  17226     1   109.5600471 388.275200
  17223  17231  17234     1   107.2600461 396.643200
  17224  17225  17228     1   110.2200475 386.601600
  17224  17230  17236     1   107.2600461 396.643200
  17224  17223  17227     1   109.5600471 388.275200
  17225  17224  17226     1   109.5600471 388.275200
  17226  17224  17230     1   110.2600474 425.931200
  17227  17223  17231     1   110.2600474 425.931200
  17228  17225  17229     1   109.5800467 425.931200
  17228  17225  17241     1   109.5800467 425.931200
  17233  17239  17240     1   107.2600461 396.643200
  17237  17233  17239     1   110.2600474 425.931200
  17237  17233  17238     1   108.4600466 328.025600
  17238  17233  17239     1   110.2600474 425.931200
  17242  17243  17245     1   109.5600471 388.275200
  17242  17256  17260     1   109.5600471 388.275200
  17242  17256  17261     1   109.5600471 388.275200
  17243  17242  17244     1   109.5600471 388.275200
  17243  17246  17250     1   109.5600471 388.275200
  17243  17255  17258     1   107.2600461 396.643200
  17244  17242  17256     1   109.5600471 388.275200
  17244  17242  17264     1   109.7800468 425.094400
  17245  17243  17246     1   109.5600471 388.275200
  17245  17243  17255     1   110.2600474 425.931200
  17246  17247  17249     1   109.5600471 388.275200
  17246  17254  17257     1   107.2600461 396.643200
  17247  17246  17250     1   109.5600471 388.275200
  17247  17248  17251     1   110.2200475 386.601600
  17247  17253  17259     1   107.2600461 396.643200
  17248  17247  17249     1   109.5600471 388.275200
  17249  17247  17253     1   110.2600474 425.931200
  17250  17246  17254     1   110.2600474 425.931200
  17251  17248  17252     1   109.5800467 425.931200
  17251  17248  17264     1   109.5800467 425.931200
  17256  17262  17263     1   107.2600461 396.643200
  17260  17256  17262     1   110.2600474 425.931200
  17260  17256  17261     1   108.4600466 328.025600
  17261  17256  17262     1   110.2600474 425.931200
  17265  17266  17268     1   109.5600471 388.275200
  17265  17279  17283     1   109.5600471 388.275200
  17265  17279  17284     1   109.5600471 388.275200
  17266  17269  17273     1   109.5600471 388.275200
  17266  17278  17281     1   107.2600461 396.643200
  17266  17265  17267     1   109.5600471 388.275200
  17267  17265  17279     1   109.5600471 388.275200
  17267  17265  17287     1   109.7800468 425.094400
  17268  17266  17269     1   109.5600471 388.275200
  17268  17266  17278     1   110.2600474 425.931200
  17269  17270  17272     1   109.5600471 388.275200
  17269  17277  17280     1   107.2600461 396.643200
  17270  17271  17274     1   110.2200475 386.601600
  17270  17276  17282     1   107.2600461 396.643200
  17270  17269  17273     1   109.5600471 388.275200
  17271  17270  17272     1   109.5600471 388.275200
  17272  17270  17276     1   110.2600474 425.931200
  17273  17269  17277     1   110.2600474 425.931200
  17274  17271  17275     1   109.5800467 425.931200
  17274  17271  17287     1   109.5800467 425.931200
  17279  17285  17286     1   107.2600461 396.643200
  17283  17279  17285     1   110.2600474 425.931200
  17283  17279  17284     1   108.4600466 328.025600
  17284  17279  17285     1   110.2600474 425.931200
  17288  17289  17291     1   109.5600471 388.275200
  17288  17302  17306     1   109.5600471 388.275200
  17288  17302  17307     1   109.5600471 388.275200
  17289  17288  17290     1   109.5600471 388.275200
  17289  17292  17296     1   109.5600471 388.275200
  17289  17301  17304     1   107.2600461 396.643200
  17290  17288  17302     1   109.5600471 388.275200
  17290  17288  17310     1   109.7800468 425.094400
  17291  17289  17292     1   109.5600471 388.275200
  17291  17289  17301     1   110.2600474 425.931200
  17292  17293  17295     1   109.5600471 388.275200
  17292  17300  17303     1   107.2600461 396.643200
  17293  17292  17296     1   109.5600471 388.275200
  17293  17294  17297     1   110.2200475 386.601600
  17293  17299  17305     1   107.2600461 396.643200
  17294  17293  17295     1   109.5600471 388.275200
  17295  17293  17299     1   110.2600474 425.931200
  17296  17292  17300     1   110.2600474 425.931200
  17297  17294  17298     1   109.5800467 425.931200
  17297  17294  17310     1   109.5800467 425.931200
  17302  17308  17309     1   107.2600461 396.643200
  17306  17302  17308     1   110.2600474 425.931200
  17306  17302  17307     1   108.4600466 328.025600
  17307  17302  17308     1   110.2600474 425.931200
  17311  17312  17314     1   109.5600471 388.275200
  17311  17325  17329     1   109.5600471 388.275200
  17311  17325  17330     1   109.5600471 388.275200
  17312  17315  17319     1   109.5600471 388.275200
  17312  17324  17327     1   107.2600461 396.643200
  17312  17311  17313     1   109.5600471 388.275200
  17313  17311  17325     1   109.5600471 388.275200
  17313  17311  17333     1   109.7800468 425.094400
  17314  17312  17315     1   109.5600471 388.275200
  17314  17312  17324     1   110.2600474 425.931200
  17315  17316  17318     1   109.5600471 388.275200
  17315  17323  17326     1   107.2600461 396.643200
  17316  17317  17320     1   110.2200475 386.601600
  17316  17322  17328     1   107.2600461 396.643200
  17316  17315  17319     1   109.5600471 388.275200
  17317  17316  17318     1   109.5600471 388.275200
  17318  17316  17322     1   110.2600474 425.931200
  17319  17315  17323     1   110.2600474 425.931200
  17320  17317  17321     1   109.5800467 425.931200
  17320  17317  17333     1   109.5800467 425.931200
  17325  17331  17332     1   107.2600461 396.643200
  17329  17325  17331     1   110.2600474 425.931200
  17329  17325  17330     1   108.4600466 328.025600
  17330  17325  17331     1   110.2600474 425.931200
  17334  17335  17337     1   109.5600471 388.275200
  17334  17348  17352     1   109.5600471 388.275200
  17334  17348  17353     1   109.5600471 388.275200
  17335  17334  17336     1   109.5600471 388.275200
  17335  17338  17342     1   109.5600471 388.275200
  17335  17347  17350     1   107.2600461 396.643200
  17336  17334  17348     1   109.5600471 388.275200
  17336  17334  17356     1   109.7800468 425.094400
  17337  17335  17338     1   109.5600471 388.275200
  17337  17335  17347     1   110.2600474 425.931200
  17338  17339  17341     1   109.5600471 388.275200
  17338  17346  17349     1   107.2600461 396.643200
  17339  17338  17342     1   109.5600471 388.275200
  17339  17340  17343     1   110.2200475 386.601600
  17339  17345  17351     1   107.2600461 396.643200
  17340  17339  17341     1   109.5600471 388.275200
  17341  17339  17345     1   110.2600474 425.931200
  17342  17338  17346     1   110.2600474 425.931200
  17343  17340  17344     1   109.5800467 425.931200
  17343  17340  17356     1   109.5800467 425.931200
  17348  17354  17355     1   107.2600461 396.643200
  17352  17348  17354     1   110.2600474 425.931200
  17352  17348  17353     1   108.4600466 328.025600
  17353  17348  17354     1   110.2600474 425.931200
  17357  17358  17360     1   109.5600471 388.275200
  17357  17371  17375     1   109.5600471 388.275200
  17357  17371  17376     1   109.5600471 388.275200
  17358  17361  17365     1   109.5600471 388.275200
  17358  17370  17373     1   107.2600461 396.643200
  17358  17357  17359     1   109.5600471 388.275200
  17359  17357  17371     1   109.5600471 388.275200
  17359  17357  17379     1   109.7800468 425.094400
  17360  17358  17361     1   109.5600471 388.275200
  17360  17358  17370     1   110.2600474 425.931200
  17361  17362  17364     1   109.5600471 388.275200
  17361  17369  17372     1   107.2600461 396.643200
  17362  17363  17366     1   110.2200475 386.601600
  17362  17368  17374     1   107.2600461 396.643200
  17362  17361  17365     1   109.5600471 388.275200
  17363  17362  17364     1   109.5600471 388.275200
  17364  17362  17368     1   110.2600474 425.931200
  17365  17361  17369     1   110.2600474 425.931200
  17366  17363  17367     1   109.5800467 425.931200
  17366  17363  17379     1   109.5800467 425.931200
  17371  17377  17378     1   107.2600461 396.643200
  17375  17371  17377     1   110.2600474 425.931200
  17375  17371  17376     1   108.4600466 328.025600
  17376  17371  17377     1   110.2600474 425.931200
  17380  17381  17383     1   109.5600471 388.275200
  17380  17394  17398     1   109.5600471 388.275200
  17380  17394  17399     1   109.5600471 388.275200
  17381  17380  17382     1   109.5600471 388.275200
  17381  17384  17388     1   109.5600471 388.275200
  17381  17393  17396     1   107.2600461 396.643200
  17382  17380  17394     1   109.5600471 388.275200
  17382  17380  17402     1   109.7800468 425.094400
  17383  17381  17384     1   109.5600471 388.275200
  17383  17381  17393     1   110.2600474 425.931200
  17384  17385  17387     1   109.5600471 388.275200
  17384  17392  17395     1   107.2600461 396.643200
  17385  17384  17388     1   109.5600471 388.275200
  17385  17386  17389     1   110.2200475 386.601600
  17385  17391  17397     1   107.2600461 396.643200
  17386  17385  17387     1   109.5600471 388.275200
  17387  17385  17391     1   110.2600474 425.931200
  17388  17384  17392     1   110.2600474 425.931200
  17389  17386  17390     1   109.5800467 425.931200
  17389  17386  17402     1   109.5800467 425.931200
  17394  17400  17401     1   107.2600461 396.643200
  17398  17394  17400     1   110.2600474 425.931200
  17398  17394  17399     1   108.4600466 328.025600
  17399  17394  17400     1   110.2600474 425.931200
  17403  17404  17406     1   109.5600471 388.275200
  17403  17417  17421     1   109.5600471 388.275200
  17403  17417  17422     1   109.5600471 388.275200
  17404  17407  17411     1   109.5600471 388.275200
  17404  17416  17419     1   107.2600461 396.643200
  17404  17403  17405     1   109.5600471 388.275200
  17405  17403  17417     1   109.5600471 388.275200
  17405  17403  17425     1   109.7800468 425.094400
  17406  17404  17407     1   109.5600471 388.275200
  17406  17404  17416     1   110.2600474 425.931200
  17407  17408  17410     1   109.5600471 388.275200
  17407  17415  17418     1   107.2600461 396.643200
  17408  17409  17412     1   110.2200475 386.601600
  17408  17414  17420     1   107.2600461 396.643200
  17408  17407  17411     1   109.5600471 388.275200
  17409  17408  17410     1   109.5600471 388.275200
  17410  17408  17414     1   110.2600474 425.931200
  17411  17407  17415     1   110.2600474 425.931200
  17412  17409  17413     1   109.5800467 425.931200
  17412  17409  17425     1   109.5800467 425.931200
  17417  17423  17424     1   107.2600461 396.643200
  17421  17417  17423     1   110.2600474 425.931200
  17421  17417  17422     1   108.4600466 328.025600
  17422  17417  17423     1   110.2600474 425.931200
  17426  17427  17429     1   109.5600471 388.275200
  17426  17440  17444     1   109.5600471 388.275200
  17426  17440  17445     1   109.5600471 388.275200
  17427  17426  17428     1   109.5600471 388.275200
  17427  17430  17434     1   109.5600471 388.275200
  17427  17439  17442     1   107.2600461 396.643200
  17428  17426  17440     1   109.5600471 388.275200
  17428  17426  17448     1   109.7800468 425.094400
  17429  17427  17430     1   109.5600471 388.275200
  17429  17427  17439     1   110.2600474 425.931200
  17430  17431  17433     1   109.5600471 388.275200
  17430  17438  17441     1   107.2600461 396.643200
  17431  17430  17434     1   109.5600471 388.275200
  17431  17432  17435     1   110.2200475 386.601600
  17431  17437  17443     1   107.2600461 396.643200
  17432  17431  17433     1   109.5600471 388.275200
  17433  17431  17437     1   110.2600474 425.931200
  17434  17430  17438     1   110.2600474 425.931200
  17435  17432  17436     1   109.5800467 425.931200
  17435  17432  17448     1   109.5800467 425.931200
  17440  17446  17447     1   107.2600461 396.643200
  17444  17440  17446     1   110.2600474 425.931200
  17444  17440  17445     1   108.4600466 328.025600
  17445  17440  17446     1   110.2600474 425.931200
  17449  17450  17452     1   109.5600471 388.275200
  17449  17463  17467     1   109.5600471 388.275200
  17449  17463  17468     1   109.5600471 388.275200
  17450  17453  17457     1   109.5600471 388.275200
  17450  17462  17465     1   107.2600461 396.643200
  17450  17449  17451     1   109.5600471 388.275200
  17451  17449  17463     1   109.5600471 388.275200
  17451  17449  17471     1   109.7800468 425.094400
  17452  17450  17453     1   109.5600471 388.275200
  17452  17450  17462     1   110.2600474 425.931200
  17453  17454  17456     1   109.5600471 388.275200
  17453  17461  17464     1   107.2600461 396.643200
  17454  17455  17458     1   110.2200475 386.601600
  17454  17460  17466     1   107.2600461 396.643200
  17454  17453  17457     1   109.5600471 388.275200
  17455  17454  17456     1   109.5600471 388.275200
  17456  17454  17460     1   110.2600474 425.931200
  17457  17453  17461     1   110.2600474 425.931200
  17458  17455  17459     1   109.5800467 425.931200
  17458  17455  17471     1   109.5800467 425.931200
  17463  17469  17470     1   107.2600461 396.643200
  17467  17463  17469     1   110.2600474 425.931200
  17467  17463  17468     1   108.4600466 328.025600
  17468  17463  17469     1   110.2600474 425.931200
  17472  17473  17475     1   109.5600471 388.275200
  17472  17486  17490     1   109.5600471 388.275200
  17472  17486  17491     1   109.5600471 388.275200
  17473  17472  17474     1   109.5600471 388.275200
  17473  17476  17480     1   109.5600471 388.275200
  17473  17485  17488     1   107.2600461 396.643200
  17474  17472  17486     1   109.5600471 388.275200
  17474  17472  17494     1   109.7800468 425.094400
  17475  17473  17476     1   109.5600471 388.275200
  17475  17473  17485     1   110.2600474 425.931200
  17476  17477  17479     1   109.5600471 388.275200
  17476  17484  17487     1   107.2600461 396.643200
  17477  17476  17480     1   109.5600471 388.275200
  17477  17478  17481     1   110.2200475 386.601600
  17477  17483  17489     1   107.2600461 396.643200
  17478  17477  17479     1   109.5600471 388.275200
  17479  17477  17483     1   110.2600474 425.931200
  17480  17476  17484     1   110.2600474 425.931200
  17481  17478  17482     1   109.5800467 425.931200
  17481  17478  17494     1   109.5800467 425.931200
  17486  17492  17493     1   107.2600461 396.643200
  17490  17486  17492     1   110.2600474 425.931200
  17490  17486  17491     1   108.4600466 328.025600
  17491  17486  17492     1   110.2600474 425.931200
  17495  17496  17498     1   109.5600471 388.275200
  17495  17509  17513     1   109.5600471 388.275200
  17495  17509  17514     1   109.5600471 388.275200
  17496  17499  17503     1   109.5600471 388.275200
  17496  17508  17511     1   107.2600461 396.643200
  17496  17495  17497     1   109.5600471 388.275200
  17497  17495  17509     1   109.5600471 388.275200
  17497  17495  17517     1   109.7800468 425.094400
  17498  17496  17499     1   109.5600471 388.275200
  17498  17496  17508     1   110.2600474 425.931200
  17499  17500  17502     1   109.5600471 388.275200
  17499  17507  17510     1   107.2600461 396.643200
  17500  17501  17504     1   110.2200475 386.601600
  17500  17506  17512     1   107.2600461 396.643200
  17500  17499  17503     1   109.5600471 388.275200
  17501  17500  17502     1   109.5600471 388.275200
  17502  17500  17506     1   110.2600474 425.931200
  17503  17499  17507     1   110.2600474 425.931200
  17504  17501  17505     1   109.5800467 425.931200
  17504  17501  17517     1   109.5800467 425.931200
  17509  17515  17516     1   107.2600461 396.643200
  17513  17509  17515     1   110.2600474 425.931200
  17513  17509  17514     1   108.4600466 328.025600
  17514  17509  17515     1   110.2600474 425.931200
  17518  17519  17521     1   109.5600471 388.275200
  17518  17532  17536     1   109.5600471 388.275200
  17518  17532  17537     1   109.5600471 388.275200
  17519  17518  17520     1   109.5600471 388.275200
  17519  17522  17526     1   109.5600471 388.275200
  17519  17531  17534     1   107.2600461 396.643200
  17520  17518  17532     1   109.5600471 388.275200
  17520  17518  17540     1   109.7800468 425.094400
  17521  17519  17522     1   109.5600471 388.275200
  17521  17519  17531     1   110.2600474 425.931200
  17522  17523  17525     1   109.5600471 388.275200
  17522  17530  17533     1   107.2600461 396.643200
  17523  17522  17526     1   109.5600471 388.275200
  17523  17524  17527     1   110.2200475 386.601600
  17523  17529  17535     1   107.2600461 396.643200
  17524  17523  17525     1   109.5600471 388.275200
  17525  17523  17529     1   110.2600474 425.931200
  17526  17522  17530     1   110.2600474 425.931200
  17527  17524  17528     1   109.5800467 425.931200
  17527  17524  17540     1   109.5800467 425.931200
  17532  17538  17539     1   107.2600461 396.643200
  17536  17532  17538     1   110.2600474 425.931200
  17536  17532  17537     1   108.4600466 328.025600
  17537  17532  17538     1   110.2600474 425.931200
  17541  17542  17544     1   109.5600471 388.275200
  17541  17555  17559     1   109.5600471 388.275200
  17541  17555  17560     1   109.5600471 388.275200
  17542  17545  17549     1   109.5600471 388.275200
  17542  17554  17557     1   107.2600461 396.643200
  17542  17541  17543     1   109.5600471 388.275200
  17543  17541  17555     1   109.5600471 388.275200
  17543  17541  17563     1   109.7800468 425.094400
  17544  17542  17545     1   109.5600471 388.275200
  17544  17542  17554     1   110.2600474 425.931200
  17545  17546  17548     1   109.5600471 388.275200
  17545  17553  17556     1   107.2600461 396.643200
  17546  17547  17550     1   110.2200475 386.601600
  17546  17552  17558     1   107.2600461 396.643200
  17546  17545  17549     1   109.5600471 388.275200
  17547  17546  17548     1   109.5600471 388.275200
  17548  17546  17552     1   110.2600474 425.931200
  17549  17545  17553     1   110.2600474 425.931200
  17550  17547  17551     1   109.5800467 425.931200
  17550  17547  17563     1   109.5800467 425.931200
  17555  17561  17562     1   107.2600461 396.643200
  17559  17555  17561     1   110.2600474 425.931200
  17559  17555  17560     1   108.4600466 328.025600
  17560  17555  17561     1   110.2600474 425.931200
  17564  17565  17567     1   109.5600471 388.275200
  17564  17578  17582     1   109.5600471 388.275200
  17564  17578  17583     1   109.5600471 388.275200
  17565  17564  17566     1   109.5600471 388.275200
  17565  17568  17572     1   109.5600471 388.275200
  17565  17577  17580     1   107.2600461 396.643200
  17566  17564  17578     1   109.5600471 388.275200
  17566  17564  17586     1   109.7800468 425.094400
  17567  17565  17568     1   109.5600471 388.275200
  17567  17565  17577     1   110.2600474 425.931200
  17568  17569  17571     1   109.5600471 388.275200
  17568  17576  17579     1   107.2600461 396.643200
  17569  17568  17572     1   109.5600471 388.275200
  17569  17570  17573     1   110.2200475 386.601600
  17569  17575  17581     1   107.2600461 396.643200
  17570  17569  17571     1   109.5600471 388.275200
  17571  17569  17575     1   110.2600474 425.931200
  17572  17568  17576     1   110.2600474 425.931200
  17573  17570  17574     1   109.5800467 425.931200
  17573  17570  17586     1   109.5800467 425.931200
  17578  17584  17585     1   107.2600461 396.643200
  17582  17578  17584     1   110.2600474 425.931200
  17582  17578  17583     1   108.4600466 328.025600
  17583  17578  17584     1   110.2600474 425.931200
  17587  17588  17590     1   109.5600471 388.275200
  17587  17601  17605     1   109.5600471 388.275200
  17587  17601  17606     1   109.5600471 388.275200
  17588  17591  17595     1   109.5600471 388.275200
  17588  17600  17603     1   107.2600461 396.643200
  17588  17587  17589     1   109.5600471 388.275200
  17589  17587  17601     1   109.5600471 388.275200
  17589  17587  17609     1   109.7800468 425.094400
  17590  17588  17591     1   109.5600471 388.275200
  17590  17588  17600     1   110.2600474 425.931200
  17591  17592  17594     1   109.5600471 388.275200
  17591  17599  17602     1   107.2600461 396.643200
  17592  17593  17596     1   110.2200475 386.601600
  17592  17598  17604     1   107.2600461 396.643200
  17592  17591  17595     1   109.5600471 388.275200
  17593  17592  17594     1   109.5600471 388.275200
  17594  17592  17598     1   110.2600474 425.931200
  17595  17591  17599     1   110.2600474 425.931200
  17596  17593  17597     1   109.5800467 425.931200
  17596  17593  17609     1   109.5800467 425.931200
  17601  17607  17608     1   107.2600461 396.643200
  17605  17601  17607     1   110.2600474 425.931200
  17605  17601  17606     1   108.4600466 328.025600
  17606  17601  17607     1   110.2600474 425.931200
  17610  17611  17613     1   109.5600471 388.275200
  17610  17624  17628     1   109.5600471 388.275200
  17610  17624  17629     1   109.5600471 388.275200
  17611  17610  17612     1   109.5600471 388.275200
  17611  17614  17618     1   109.5600471 388.275200
  17611  17623  17626     1   107.2600461 396.643200
  17612  17610  17624     1   109.5600471 388.275200
  17612  17610  17632     1   109.7800468 425.094400
  17613  17611  17614     1   109.5600471 388.275200
  17613  17611  17623     1   110.2600474 425.931200
  17614  17615  17617     1   109.5600471 388.275200
  17614  17622  17625     1   107.2600461 396.643200
  17615  17614  17618     1   109.5600471 388.275200
  17615  17616  17619     1   110.2200475 386.601600
  17615  17621  17627     1   107.2600461 396.643200
  17616  17615  17617     1   109.5600471 388.275200
  17617  17615  17621     1   110.2600474 425.931200
  17618  17614  17622     1   110.2600474 425.931200
  17619  17616  17620     1   109.5800467 425.931200
  17619  17616  17632     1   109.5800467 425.931200
  17624  17630  17631     1   107.2600461 396.643200
  17628  17624  17630     1   110.2600474 425.931200
  17628  17624  17629     1   108.4600466 328.025600
  17629  17624  17630     1   110.2600474 425.931200
  17633  17634  17636     1   109.5600471 388.275200
  17633  17647  17651     1   109.5600471 388.275200
  17633  17647  17652     1   109.5600471 388.275200
  17634  17637  17641     1   109.5600471 388.275200
  17634  17646  17649     1   107.2600461 396.643200
  17634  17633  17635     1   109.5600471 388.275200
  17635  17633  17647     1   109.5600471 388.275200
  17635  17633  17655     1   109.7800468 425.094400
  17636  17634  17637     1   109.5600471 388.275200
  17636  17634  17646     1   110.2600474 425.931200
  17637  17638  17640     1   109.5600471 388.275200
  17637  17645  17648     1   107.2600461 396.643200
  17638  17639  17642     1   110.2200475 386.601600
  17638  17644  17650     1   107.2600461 396.643200
  17638  17637  17641     1   109.5600471 388.275200
  17639  17638  17640     1   109.5600471 388.275200
  17640  17638  17644     1   110.2600474 425.931200
  17641  17637  17645     1   110.2600474 425.931200
  17642  17639  17643     1   109.5800467 425.931200
  17642  17639  17655     1   109.5800467 425.931200
  17647  17653  17654     1   107.2600461 396.643200
  17651  17647  17653     1   110.2600474 425.931200
  17651  17647  17652     1   108.4600466 328.025600
  17652  17647  17653     1   110.2600474 425.931200
  17656  17657  17659     1   109.5600471 388.275200
  17656  17670  17674     1   109.5600471 388.275200
  17656  17670  17675     1   109.5600471 388.275200
  17657  17656  17658     1   109.5600471 388.275200
  17657  17660  17664     1   109.5600471 388.275200
  17657  17669  17672     1   107.2600461 396.643200
  17658  17656  17670     1   109.5600471 388.275200
  17658  17656  17678     1   109.7800468 425.094400
  17659  17657  17660     1   109.5600471 388.275200
  17659  17657  17669     1   110.2600474 425.931200
  17660  17661  17663     1   109.5600471 388.275200
  17660  17668  17671     1   107.2600461 396.643200
  17661  17660  17664     1   109.5600471 388.275200
  17661  17662  17665     1   110.2200475 386.601600
  17661  17667  17673     1   107.2600461 396.643200
  17662  17661  17663     1   109.5600471 388.275200
  17663  17661  17667     1   110.2600474 425.931200
  17664  17660  17668     1   110.2600474 425.931200
  17665  17662  17666     1   109.5800467 425.931200
  17665  17662  17678     1   109.5800467 425.931200
  17670  17676  17677     1   107.2600461 396.643200
  17674  17670  17676     1   110.2600474 425.931200
  17674  17670  17675     1   108.4600466 328.025600
  17675  17670  17676     1   110.2600474 425.931200
  17679  17680  17682     1   109.5600471 388.275200
  17679  17693  17697     1   109.5600471 388.275200
  17679  17693  17698     1   109.5600471 388.275200
  17680  17683  17687     1   109.5600471 388.275200
  17680  17692  17695     1   107.2600461 396.643200
  17680  17679  17681     1   109.5600471 388.275200
  17681  17679  17693     1   109.5600471 388.275200
  17681  17679  17701     1   109.7800468 425.094400
  17682  17680  17683     1   109.5600471 388.275200
  17682  17680  17692     1   110.2600474 425.931200
  17683  17684  17686     1   109.5600471 388.275200
  17683  17691  17694     1   107.2600461 396.643200
  17684  17685  17688     1   110.2200475 386.601600
  17684  17690  17696     1   107.2600461 396.643200
  17684  17683  17687     1   109.5600471 388.275200
  17685  17684  17686     1   109.5600471 388.275200
  17686  17684  17690     1   110.2600474 425.931200
  17687  17683  17691     1   110.2600474 425.931200
  17688  17685  17689     1   109.5800467 425.931200
  17688  17685  17701     1   109.5800467 425.931200
  17693  17699  17700     1   107.2600461 396.643200
  17697  17693  17699     1   110.2600474 425.931200
  17697  17693  17698     1   108.4600466 328.025600
  17698  17693  17699     1   110.2600474 425.931200
  17702  17703  17705     1   109.5600471 388.275200
  17702  17716  17720     1   109.5600471 388.275200
  17702  17716  17721     1   109.5600471 388.275200
  17703  17702  17704     1   109.5600471 388.275200
  17703  17706  17710     1   109.5600471 388.275200
  17703  17715  17718     1   107.2600461 396.643200
  17704  17702  17716     1   109.5600471 388.275200
  17704  17702  17724     1   109.7800468 425.094400
  17705  17703  17706     1   109.5600471 388.275200
  17705  17703  17715     1   110.2600474 425.931200
  17706  17707  17709     1   109.5600471 388.275200
  17706  17714  17717     1   107.2600461 396.643200
  17707  17706  17710     1   109.5600471 388.275200
  17707  17708  17711     1   110.2200475 386.601600
  17707  17713  17719     1   107.2600461 396.643200
  17708  17707  17709     1   109.5600471 388.275200
  17709  17707  17713     1   110.2600474 425.931200
  17710  17706  17714     1   110.2600474 425.931200
  17711  17708  17712     1   109.5800467 425.931200
  17711  17708  17724     1   109.5800467 425.931200
  17716  17722  17723     1   107.2600461 396.643200
  17720  17716  17722     1   110.2600474 425.931200
  17720  17716  17721     1   108.4600466 328.025600
  17721  17716  17722     1   110.2600474 425.931200
  17725  17726  17728     1   109.5600471 388.275200
  17725  17739  17743     1   109.5600471 388.275200
  17725  17739  17744     1   109.5600471 388.275200
  17726  17729  17733     1   109.5600471 388.275200
  17726  17738  17741     1   107.2600461 396.643200
  17726  17725  17727     1   109.5600471 388.275200
  17727  17725  17739     1   109.5600471 388.275200
  17727  17725  17747     1   109.7800468 425.094400
  17728  17726  17729     1   109.5600471 388.275200
  17728  17726  17738     1   110.2600474 425.931200
  17729  17730  17732     1   109.5600471 388.275200
  17729  17737  17740     1   107.2600461 396.643200
  17730  17731  17734     1   110.2200475 386.601600
  17730  17736  17742     1   107.2600461 396.643200
  17730  17729  17733     1   109.5600471 388.275200
  17731  17730  17732     1   109.5600471 388.275200
  17732  17730  17736     1   110.2600474 425.931200
  17733  17729  17737     1   110.2600474 425.931200
  17734  17731  17735     1   109.5800467 425.931200
  17734  17731  17747     1   109.5800467 425.931200
  17739  17745  17746     1   107.2600461 396.643200
  17743  17739  17745     1   110.2600474 425.931200
  17743  17739  17744     1   108.4600466 328.025600
  17744  17739  17745     1   110.2600474 425.931200
  17748  17749  17751     1   109.5600471 388.275200
  17748  17762  17766     1   109.5600471 388.275200
  17748  17762  17767     1   109.5600471 388.275200
  17749  17748  17750     1   109.5600471 388.275200
  17749  17752  17756     1   109.5600471 388.275200
  17749  17761  17764     1   107.2600461 396.643200
  17750  17748  17762     1   109.5600471 388.275200
  17750  17748  17770     1   109.7800468 425.094400
  17751  17749  17752     1   109.5600471 388.275200
  17751  17749  17761     1   110.2600474 425.931200
  17752  17753  17755     1   109.5600471 388.275200
  17752  17760  17763     1   107.2600461 396.643200
  17753  17752  17756     1   109.5600471 388.275200
  17753  17754  17757     1   110.2200475 386.601600
  17753  17759  17765     1   107.2600461 396.643200
  17754  17753  17755     1   109.5600471 388.275200
  17755  17753  17759     1   110.2600474 425.931200
  17756  17752  17760     1   110.2600474 425.931200
  17757  17754  17758     1   109.5800467 425.931200
  17757  17754  17770     1   109.5800467 425.931200
  17762  17768  17769     1   107.2600461 396.643200
  17766  17762  17768     1   110.2600474 425.931200
  17766  17762  17767     1   108.4600466 328.025600
  17767  17762  17768     1   110.2600474 425.931200
  17771  17772  17774     1   109.5600471 388.275200
  17771  17785  17789     1   109.5600471 388.275200
  17771  17785  17790     1   109.5600471 388.275200
  17772  17775  17779     1   109.5600471 388.275200
  17772  17784  17787     1   107.2600461 396.643200
  17772  17771  17773     1   109.5600471 388.275200
  17773  17771  17785     1   109.5600471 388.275200
  17773  17771  17793     1   109.7800468 425.094400
  17774  17772  17775     1   109.5600471 388.275200
  17774  17772  17784     1   110.2600474 425.931200
  17775  17776  17778     1   109.5600471 388.275200
  17775  17783  17786     1   107.2600461 396.643200
  17776  17777  17780     1   110.2200475 386.601600
  17776  17782  17788     1   107.2600461 396.643200
  17776  17775  17779     1   109.5600471 388.275200
  17777  17776  17778     1   109.5600471 388.275200
  17778  17776  17782     1   110.2600474 425.931200
  17779  17775  17783     1   110.2600474 425.931200
  17780  17777  17781     1   109.5800467 425.931200
  17780  17777  17793     1   109.5800467 425.931200
  17785  17791  17792     1   107.2600461 396.643200
  17789  17785  17791     1   110.2600474 425.931200
  17789  17785  17790     1   108.4600466 328.025600
  17790  17785  17791     1   110.2600474 425.931200
  17794  17795  17797     1   109.5600471 388.275200
  17794  17808  17812     1   109.5600471 388.275200
  17794  17808  17813     1   109.5600471 388.275200
  17795  17794  17796     1   109.5600471 388.275200
  17795  17798  17802     1   109.5600471 388.275200
  17795  17807  17810     1   107.2600461 396.643200
  17796  17794  17808     1   109.5600471 388.275200
  17796  17794  17816     1   109.7800468 425.094400
  17797  17795  17798     1   109.5600471 388.275200
  17797  17795  17807     1   110.2600474 425.931200
  17798  17799  17801     1   109.5600471 388.275200
  17798  17806  17809     1   107.2600461 396.643200
  17799  17798  17802     1   109.5600471 388.275200
  17799  17800  17803     1   110.2200475 386.601600
  17799  17805  17811     1   107.2600461 396.643200
  17800  17799  17801     1   109.5600471 388.275200
  17801  17799  17805     1   110.2600474 425.931200
  17802  17798  17806     1   110.2600474 425.931200
  17803  17800  17804     1   109.5800467 425.931200
  17803  17800  17816     1   109.5800467 425.931200
  17808  17814  17815     1   107.2600461 396.643200
  17812  17808  17814     1   110.2600474 425.931200
  17812  17808  17813     1   108.4600466 328.025600
  17813  17808  17814     1   110.2600474 425.931200
  17817  17818  17820     1   109.5600471 388.275200
  17817  17831  17835     1   109.5600471 388.275200
  17817  17831  17836     1   109.5600471 388.275200
  17818  17821  17825     1   109.5600471 388.275200
  17818  17830  17833     1   107.2600461 396.643200
  17818  17817  17819     1   109.5600471 388.275200
  17819  17817  17831     1   109.5600471 388.275200
  17819  17817  17839     1   109.7800468 425.094400
  17820  17818  17821     1   109.5600471 388.275200
  17820  17818  17830     1   110.2600474 425.931200
  17821  17822  17824     1   109.5600471 388.275200
  17821  17829  17832     1   107.2600461 396.643200
  17822  17823  17826     1   110.2200475 386.601600
  17822  17828  17834     1   107.2600461 396.643200
  17822  17821  17825     1   109.5600471 388.275200
  17823  17822  17824     1   109.5600471 388.275200
  17824  17822  17828     1   110.2600474 425.931200
  17825  17821  17829     1   110.2600474 425.931200
  17826  17823  17827     1   109.5800467 425.931200
  17826  17823  17839     1   109.5800467 425.931200
  17831  17837  17838     1   107.2600461 396.643200
  17835  17831  17837     1   110.2600474 425.931200
  17835  17831  17836     1   108.4600466 328.025600
  17836  17831  17837     1   110.2600474 425.931200
  17840  17841  17843     1   109.5600471 388.275200
  17840  17854  17858     1   109.5600471 388.275200
  17840  17854  17859     1   109.5600471 388.275200
  17841  17840  17842     1   109.5600471 388.275200
  17841  17844  17848     1   109.5600471 388.275200
  17841  17853  17856     1   107.2600461 396.643200
  17842  17840  17854     1   109.5600471 388.275200
  17842  17840  17862     1   109.7800468 425.094400
  17843  17841  17844     1   109.5600471 388.275200
  17843  17841  17853     1   110.2600474 425.931200
  17844  17845  17847     1   109.5600471 388.275200
  17844  17852  17855     1   107.2600461 396.643200
  17845  17844  17848     1   109.5600471 388.275200
  17845  17846  17849     1   110.2200475 386.601600
  17845  17851  17857     1   107.2600461 396.643200
  17846  17845  17847     1   109.5600471 388.275200
  17847  17845  17851     1   110.2600474 425.931200
  17848  17844  17852     1   110.2600474 425.931200
  17849  17846  17850     1   109.5800467 425.931200
  17849  17846  17862     1   109.5800467 425.931200
  17854  17860  17861     1   107.2600461 396.643200
  17858  17854  17860     1   110.2600474 425.931200
  17858  17854  17859     1   108.4600466 328.025600
  17859  17854  17860     1   110.2600474 425.931200
  17863  17864  17866     1   109.5600471 388.275200
  17863  17877  17881     1   109.5600471 388.275200
  17863  17877  17882     1   109.5600471 388.275200
  17864  17867  17871     1   109.5600471 388.275200
  17864  17876  17879     1   107.2600461 396.643200
  17864  17863  17865     1   109.5600471 388.275200
  17865  17863  17877     1   109.5600471 388.275200
  17865  17863  17885     1   109.7800468 425.094400
  17866  17864  17867     1   109.5600471 388.275200
  17866  17864  17876     1   110.2600474 425.931200
  17867  17868  17870     1   109.5600471 388.275200
  17867  17875  17878     1   107.2600461 396.643200
  17868  17869  17872     1   110.2200475 386.601600
  17868  17874  17880     1   107.2600461 396.643200
  17868  17867  17871     1   109.5600471 388.275200
  17869  17868  17870     1   109.5600471 388.275200
  17870  17868  17874     1   110.2600474 425.931200
  17871  17867  17875     1   110.2600474 425.931200
  17872  17869  17873     1   109.5800467 425.931200
  17872  17869  17885     1   109.5800467 425.931200
  17877  17883  17884     1   107.2600461 396.643200
  17881  17877  17883     1   110.2600474 425.931200
  17881  17877  17882     1   108.4600466 328.025600
  17882  17877  17883     1   110.2600474 425.931200
  17886  17887  17889     1   109.5600471 388.275200
  17886  17900  17904     1   109.5600471 388.275200
  17886  17900  17905     1   109.5600471 388.275200
  17887  17886  17888     1   109.5600471 388.275200
  17887  17890  17894     1   109.5600471 388.275200
  17887  17899  17902     1   107.2600461 396.643200
  17888  17886  17900     1   109.5600471 388.275200
  17888  17886  17908     1   109.7800468 425.094400
  17889  17887  17890     1   109.5600471 388.275200
  17889  17887  17899     1   110.2600474 425.931200
  17890  17891  17893     1   109.5600471 388.275200
  17890  17898  17901     1   107.2600461 396.643200
  17891  17890  17894     1   109.5600471 388.275200
  17891  17892  17895     1   110.2200475 386.601600
  17891  17897  17903     1   107.2600461 396.643200
  17892  17891  17893     1   109.5600471 388.275200
  17893  17891  17897     1   110.2600474 425.931200
  17894  17890  17898     1   110.2600474 425.931200
  17895  17892  17896     1   109.5800467 425.931200
  17895  17892  17908     1   109.5800467 425.931200
  17900  17906  17907     1   107.2600461 396.643200
  17904  17900  17906     1   110.2600474 425.931200
  17904  17900  17905     1   108.4600466 328.025600
  17905  17900  17906     1   110.2600474 425.931200
  17909  17910  17912     1   109.5600471 388.275200
  17909  17923  17927     1   109.5600471 388.275200
  17909  17923  17928     1   109.5600471 388.275200
  17910  17913  17917     1   109.5600471 388.275200
  17910  17922  17925     1   107.2600461 396.643200
  17910  17909  17911     1   109.5600471 388.275200
  17911  17909  17923     1   109.5600471 388.275200
  17911  17909  17931     1   109.7800468 425.094400
  17912  17910  17913     1   109.5600471 388.275200
  17912  17910  17922     1   110.2600474 425.931200
  17913  17914  17916     1   109.5600471 388.275200
  17913  17921  17924     1   107.2600461 396.643200
  17914  17915  17918     1   110.2200475 386.601600
  17914  17920  17926     1   107.2600461 396.643200
  17914  17913  17917     1   109.5600471 388.275200
  17915  17914  17916     1   109.5600471 388.275200
  17916  17914  17920     1   110.2600474 425.931200
  17917  17913  17921     1   110.2600474 425.931200
  17918  17915  17919     1   109.5800467 425.931200
  17918  17915  17931     1   109.5800467 425.931200
  17923  17929  17930     1   107.2600461 396.643200
  17927  17923  17929     1   110.2600474 425.931200
  17927  17923  17928     1   108.4600466 328.025600
  17928  17923  17929     1   110.2600474 425.931200
  17932  17933  17935     1   109.5600471 388.275200
  17932  17946  17950     1   109.5600471 388.275200
  17932  17946  17951     1   109.5600471 388.275200
  17933  17932  17934     1   109.5600471 388.275200
  17933  17936  17940     1   109.5600471 388.275200
  17933  17945  17948     1   107.2600461 396.643200
  17934  17932  17946     1   109.5600471 388.275200
  17934  17932  17954     1   109.7800468 425.094400
  17935  17933  17936     1   109.5600471 388.275200
  17935  17933  17945     1   110.2600474 425.931200
  17936  17937  17939     1   109.5600471 388.275200
  17936  17944  17947     1   107.2600461 396.643200
  17937  17936  17940     1   109.5600471 388.275200
  17937  17938  17941     1   110.2200475 386.601600
  17937  17943  17949     1   107.2600461 396.643200
  17938  17937  17939     1   109.5600471 388.275200
  17939  17937  17943     1   110.2600474 425.931200
  17940  17936  17944     1   110.2600474 425.931200
  17941  17938  17942     1   109.5800467 425.931200
  17941  17938  17954     1   109.5800467 425.931200
  17946  17952  17953     1   107.2600461 396.643200
  17950  17946  17952     1   110.2600474 425.931200
  17950  17946  17951     1   108.4600466 328.025600
  17951  17946  17952     1   110.2600474 425.931200
  17955  17956  17958     1   109.5600471 388.275200
  17955  17969  17973     1   109.5600471 388.275200
  17955  17969  17974     1   109.5600471 388.275200
  17956  17959  17963     1   109.5600471 388.275200
  17956  17968  17971     1   107.2600461 396.643200
  17956  17955  17957     1   109.5600471 388.275200
  17957  17955  17969     1   109.5600471 388.275200
  17957  17955  17977     1   109.7800468 425.094400
  17958  17956  17959     1   109.5600471 388.275200
  17958  17956  17968     1   110.2600474 425.931200
  17959  17960  17962     1   109.5600471 388.275200
  17959  17967  17970     1   107.2600461 396.643200
  17960  17961  17964     1   110.2200475 386.601600
  17960  17966  17972     1   107.2600461 396.643200
  17960  17959  17963     1   109.5600471 388.275200
  17961  17960  17962     1   109.5600471 388.275200
  17962  17960  17966     1   110.2600474 425.931200
  17963  17959  17967     1   110.2600474 425.931200
  17964  17961  17965     1   109.5800467 425.931200
  17964  17961  17977     1   109.5800467 425.931200
  17969  17975  17976     1   107.2600461 396.643200
  17973  17969  17975     1   110.2600474 425.931200
  17973  17969  17974     1   108.4600466 328.025600
  17974  17969  17975     1   110.2600474 425.931200
  17978  17979  17981     1   109.5600471 388.275200
  17978  17992  17996     1   109.5600471 388.275200
  17978  17992  17997     1   109.5600471 388.275200
  17979  17978  17980     1   109.5600471 388.275200
  17979  17982  17986     1   109.5600471 388.275200
  17979  17991  17994     1   107.2600461 396.643200
  17980  17978  17992     1   109.5600471 388.275200
  17980  17978  18000     1   109.7800468 425.094400
  17981  17979  17982     1   109.5600471 388.275200
  17981  17979  17991     1   110.2600474 425.931200
  17982  17983  17985     1   109.5600471 388.275200
  17982  17990  17993     1   107.2600461 396.643200
  17983  17982  17986     1   109.5600471 388.275200
  17983  17984  17987     1   110.2200475 386.601600
  17983  17989  17995     1   107.2600461 396.643200
  17984  17983  17985     1   109.5600471 388.275200
  17985  17983  17989     1   110.2600474 425.931200
  17986  17982  17990     1   110.2600474 425.931200
  17987  17984  17988     1   109.5800467 425.931200
  17987  17984  18000     1   109.5800467 425.931200
  17992  17998  17999     1   107.2600461 396.643200
  17996  17992  17998     1   110.2600474 425.931200
  17996  17992  17997     1   108.4600466 328.025600
  17997  17992  17998     1   110.2600474 425.931200
  18001  18002  18004     1   109.5600471 388.275200
  18001  18015  18019     1   109.5600471 388.275200
  18001  18015  18020     1   109.5600471 388.275200
  18002  18005  18009     1   109.5600471 388.275200
  18002  18014  18017     1   107.2600461 396.643200
  18002  18001  18003     1   109.5600471 388.275200
  18003  18001  18015     1   109.5600471 388.275200
  18003  18001  18023     1   109.7800468 425.094400
  18004  18002  18005     1   109.5600471 388.275200
  18004  18002  18014     1   110.2600474 425.931200
  18005  18006  18008     1   109.5600471 388.275200
  18005  18013  18016     1   107.2600461 396.643200
  18006  18007  18010     1   110.2200475 386.601600
  18006  18012  18018     1   107.2600461 396.643200
  18006  18005  18009     1   109.5600471 388.275200
  18007  18006  18008     1   109.5600471 388.275200
  18008  18006  18012     1   110.2600474 425.931200
  18009  18005  18013     1   110.2600474 425.931200
  18010  18007  18011     1   109.5800467 425.931200
  18010  18007  18023     1   109.5800467 425.931200
  18015  18021  18022     1   107.2600461 396.643200
  18019  18015  18021     1   110.2600474 425.931200
  18019  18015  18020     1   108.4600466 328.025600
  18020  18015  18021     1   110.2600474 425.931200
  18024  18025  18027     1   109.5600471 388.275200
  18024  18038  18042     1   109.5600471 388.275200
  18024  18038  18043     1   109.5600471 388.275200
  18025  18024  18026     1   109.5600471 388.275200
  18025  18028  18032     1   109.5600471 388.275200
  18025  18037  18040     1   107.2600461 396.643200
  18026  18024  18038     1   109.5600471 388.275200
  18026  18024  18046     1   109.7800468 425.094400
  18027  18025  18028     1   109.5600471 388.275200
  18027  18025  18037     1   110.2600474 425.931200
  18028  18029  18031     1   109.5600471 388.275200
  18028  18036  18039     1   107.2600461 396.643200
  18029  18028  18032     1   109.5600471 388.275200
  18029  18030  18033     1   110.2200475 386.601600
  18029  18035  18041     1   107.2600461 396.643200
  18030  18029  18031     1   109.5600471 388.275200
  18031  18029  18035     1   110.2600474 425.931200
  18032  18028  18036     1   110.2600474 425.931200
  18033  18030  18034     1   109.5800467 425.931200
  18033  18030  18046     1   109.5800467 425.931200
  18038  18044  18045     1   107.2600461 396.643200
  18042  18038  18044     1   110.2600474 425.931200
  18042  18038  18043     1   108.4600466 328.025600
  18043  18038  18044     1   110.2600474 425.931200
  18047  18048  18050     1   109.5600471 388.275200
  18047  18061  18065     1   109.5600471 388.275200
  18047  18061  18066     1   109.5600471 388.275200
  18048  18051  18055     1   109.5600471 388.275200
  18048  18060  18063     1   107.2600461 396.643200
  18048  18047  18049     1   109.5600471 388.275200
  18049  18047  18061     1   109.5600471 388.275200
  18049  18047  18069     1   109.7800468 425.094400
  18050  18048  18051     1   109.5600471 388.275200
  18050  18048  18060     1   110.2600474 425.931200
  18051  18052  18054     1   109.5600471 388.275200
  18051  18059  18062     1   107.2600461 396.643200
  18052  18053  18056     1   110.2200475 386.601600
  18052  18058  18064     1   107.2600461 396.643200
  18052  18051  18055     1   109.5600471 388.275200
  18053  18052  18054     1   109.5600471 388.275200
  18054  18052  18058     1   110.2600474 425.931200
  18055  18051  18059     1   110.2600474 425.931200
  18056  18053  18057     1   109.5800467 425.931200
  18056  18053  18069     1   109.5800467 425.931200
  18061  18067  18068     1   107.2600461 396.643200
  18065  18061  18067     1   110.2600474 425.931200
  18065  18061  18066     1   108.4600466 328.025600
  18066  18061  18067     1   110.2600474 425.931200
  18070  18071  18073     1   109.5600471 388.275200
  18070  18084  18088     1   109.5600471 388.275200
  18070  18084  18089     1   109.5600471 388.275200
  18071  18070  18072     1   109.5600471 388.275200
  18071  18074  18078     1   109.5600471 388.275200
  18071  18083  18086     1   107.2600461 396.643200
  18072  18070  18084     1   109.5600471 388.275200
  18072  18070  18092     1   109.7800468 425.094400
  18073  18071  18074     1   109.5600471 388.275200
  18073  18071  18083     1   110.2600474 425.931200
  18074  18075  18077     1   109.5600471 388.275200
  18074  18082  18085     1   107.2600461 396.643200
  18075  18074  18078     1   109.5600471 388.275200
  18075  18076  18079     1   110.2200475 386.601600
  18075  18081  18087     1   107.2600461 396.643200
  18076  18075  18077     1   109.5600471 388.275200
  18077  18075  18081     1   110.2600474 425.931200
  18078  18074  18082     1   110.2600474 425.931200
  18079  18076  18080     1   109.5800467 425.931200
  18079  18076  18092     1   109.5800467 425.931200
  18084  18090  18091     1   107.2600461 396.643200
  18088  18084  18090     1   110.2600474 425.931200
  18088  18084  18089     1   108.4600466 328.025600
  18089  18084  18090     1   110.2600474 425.931200
  18093  18094  18096     1   109.5600471 388.275200
  18093  18107  18111     1   109.5600471 388.275200
  18093  18107  18112     1   109.5600471 388.275200
  18094  18097  18101     1   109.5600471 388.275200
  18094  18106  18109     1   107.2600461 396.643200
  18094  18093  18095     1   109.5600471 388.275200
  18095  18093  18107     1   109.5600471 388.275200
  18095  18093  18115     1   109.7800468 425.094400
  18096  18094  18097     1   109.5600471 388.275200
  18096  18094  18106     1   110.2600474 425.931200
  18097  18098  18100     1   109.5600471 388.275200
  18097  18105  18108     1   107.2600461 396.643200
  18098  18099  18102     1   110.2200475 386.601600
  18098  18104  18110     1   107.2600461 396.643200
  18098  18097  18101     1   109.5600471 388.275200
  18099  18098  18100     1   109.5600471 388.275200
  18100  18098  18104     1   110.2600474 425.931200
  18101  18097  18105     1   110.2600474 425.931200
  18102  18099  18103     1   109.5800467 425.931200
  18102  18099  18115     1   109.5800467 425.931200
  18107  18113  18114     1   107.2600461 396.643200
  18111  18107  18113     1   110.2600474 425.931200
  18111  18107  18112     1   108.4600466 328.025600
  18112  18107  18113     1   110.2600474 425.931200
  18116  18117  18119     1   109.5600471 388.275200
  18116  18130  18134     1   109.5600471 388.275200
  18116  18130  18135     1   109.5600471 388.275200
  18117  18116  18118     1   109.5600471 388.275200
  18117  18120  18124     1   109.5600471 388.275200
  18117  18129  18132     1   107.2600461 396.643200
  18118  18116  18130     1   109.5600471 388.275200
  18118  18116  18138     1   109.7800468 425.094400
  18119  18117  18120     1   109.5600471 388.275200
  18119  18117  18129     1   110.2600474 425.931200
  18120  18121  18123     1   109.5600471 388.275200
  18120  18128  18131     1   107.2600461 396.643200
  18121  18120  18124     1   109.5600471 388.275200
  18121  18122  18125     1   110.2200475 386.601600
  18121  18127  18133     1   107.2600461 396.643200
  18122  18121  18123     1   109.5600471 388.275200
  18123  18121  18127     1   110.2600474 425.931200
  18124  18120  18128     1   110.2600474 425.931200
  18125  18122  18126     1   109.5800467 425.931200
  18125  18122  18138     1   109.5800467 425.931200
  18130  18136  18137     1   107.2600461 396.643200
  18134  18130  18136     1   110.2600474 425.931200
  18134  18130  18135     1   108.4600466 328.025600
  18135  18130  18136     1   110.2600474 425.931200
  18139  18140  18142     1   109.5600471 388.275200
  18139  18153  18157     1   109.5600471 388.275200
  18139  18153  18158     1   109.5600471 388.275200
  18140  18143  18147     1   109.5600471 388.275200
  18140  18152  18155     1   107.2600461 396.643200
  18140  18139  18141     1   109.5600471 388.275200
  18141  18139  18153     1   109.5600471 388.275200
  18141  18139  18161     1   109.7800468 425.094400
  18142  18140  18143     1   109.5600471 388.275200
  18142  18140  18152     1   110.2600474 425.931200
  18143  18144  18146     1   109.5600471 388.275200
  18143  18151  18154     1   107.2600461 396.643200
  18144  18145  18148     1   110.2200475 386.601600
  18144  18150  18156     1   107.2600461 396.643200
  18144  18143  18147     1   109.5600471 388.275200
  18145  18144  18146     1   109.5600471 388.275200
  18146  18144  18150     1   110.2600474 425.931200
  18147  18143  18151     1   110.2600474 425.931200
  18148  18145  18149     1   109.5800467 425.931200
  18148  18145  18161     1   109.5800467 425.931200
  18153  18159  18160     1   107.2600461 396.643200
  18157  18153  18159     1   110.2600474 425.931200
  18157  18153  18158     1   108.4600466 328.025600
  18158  18153  18159     1   110.2600474 425.931200
  18162  18163  18165     1   109.5600471 388.275200
  18162  18176  18180     1   109.5600471 388.275200
  18162  18176  18181     1   109.5600471 388.275200
  18163  18162  18164     1   109.5600471 388.275200
  18163  18166  18170     1   109.5600471 388.275200
  18163  18175  18178     1   107.2600461 396.643200
  18164  18162  18176     1   109.5600471 388.275200
  18164  18162  18184     1   109.7800468 425.094400
  18165  18163  18166     1   109.5600471 388.275200
  18165  18163  18175     1   110.2600474 425.931200
  18166  18167  18169     1   109.5600471 388.275200
  18166  18174  18177     1   107.2600461 396.643200
  18167  18166  18170     1   109.5600471 388.275200
  18167  18168  18171     1   110.2200475 386.601600
  18167  18173  18179     1   107.2600461 396.643200
  18168  18167  18169     1   109.5600471 388.275200
  18169  18167  18173     1   110.2600474 425.931200
  18170  18166  18174     1   110.2600474 425.931200
  18171  18168  18172     1   109.5800467 425.931200
  18171  18168  18184     1   109.5800467 425.931200
  18176  18182  18183     1   107.2600461 396.643200
  18180  18176  18182     1   110.2600474 425.931200
  18180  18176  18181     1   108.4600466 328.025600
  18181  18176  18182     1   110.2600474 425.931200
  18185  18186  18188     1   109.5600471 388.275200
  18185  18199  18203     1   109.5600471 388.275200
  18185  18199  18204     1   109.5600471 388.275200
  18186  18189  18193     1   109.5600471 388.275200
  18186  18198  18201     1   107.2600461 396.643200
  18186  18185  18187     1   109.5600471 388.275200
  18187  18185  18199     1   109.5600471 388.275200
  18187  18185  18207     1   109.7800468 425.094400
  18188  18186  18189     1   109.5600471 388.275200
  18188  18186  18198     1   110.2600474 425.931200
  18189  18190  18192     1   109.5600471 388.275200
  18189  18197  18200     1   107.2600461 396.643200
  18190  18191  18194     1   110.2200475 386.601600
  18190  18196  18202     1   107.2600461 396.643200
  18190  18189  18193     1   109.5600471 388.275200
  18191  18190  18192     1   109.5600471 388.275200
  18192  18190  18196     1   110.2600474 425.931200
  18193  18189  18197     1   110.2600474 425.931200
  18194  18191  18195     1   109.5800467 425.931200
  18194  18191  18207     1   109.5800467 425.931200
  18199  18205  18206     1   107.2600461 396.643200
  18203  18199  18205     1   110.2600474 425.931200
  18203  18199  18204     1   108.4600466 328.025600
  18204  18199  18205     1   110.2600474 425.931200
  18208  18209  18211     1   109.5600471 388.275200
  18208  18222  18226     1   109.5600471 388.275200
  18208  18222  18227     1   109.5600471 388.275200
  18209  18208  18210     1   109.5600471 388.275200
  18209  18212  18216     1   109.5600471 388.275200
  18209  18221  18224     1   107.2600461 396.643200
  18210  18208  18222     1   109.5600471 388.275200
  18210  18208  18230     1   109.7800468 425.094400
  18211  18209  18212     1   109.5600471 388.275200
  18211  18209  18221     1   110.2600474 425.931200
  18212  18213  18215     1   109.5600471 388.275200
  18212  18220  18223     1   107.2600461 396.643200
  18213  18212  18216     1   109.5600471 388.275200
  18213  18214  18217     1   110.2200475 386.601600
  18213  18219  18225     1   107.2600461 396.643200
  18214  18213  18215     1   109.5600471 388.275200
  18215  18213  18219     1   110.2600474 425.931200
  18216  18212  18220     1   110.2600474 425.931200
  18217  18214  18218     1   109.5800467 425.931200
  18217  18214  18230     1   109.5800467 425.931200
  18222  18228  18229     1   107.2600461 396.643200
  18226  18222  18228     1   110.2600474 425.931200
  18226  18222  18227     1   108.4600466 328.025600
  18227  18222  18228     1   110.2600474 425.931200
  18231  18232  18234     1   109.5600471 388.275200
  18231  18245  18249     1   109.5600471 388.275200
  18231  18245  18250     1   109.5600471 388.275200
  18232  18235  18239     1   109.5600471 388.275200
  18232  18244  18247     1   107.2600461 396.643200
  18232  18231  18233     1   109.5600471 388.275200
  18233  18231  18245     1   109.5600471 388.275200
  18233  18231  18253     1   109.7800468 425.094400
  18234  18232  18235     1   109.5600471 388.275200
  18234  18232  18244     1   110.2600474 425.931200
  18235  18236  18238     1   109.5600471 388.275200
  18235  18243  18246     1   107.2600461 396.643200
  18236  18237  18240     1   110.2200475 386.601600
  18236  18242  18248     1   107.2600461 396.643200
  18236  18235  18239     1   109.5600471 388.275200
  18237  18236  18238     1   109.5600471 388.275200
  18238  18236  18242     1   110.2600474 425.931200
  18239  18235  18243     1   110.2600474 425.931200
  18240  18237  18241     1   109.5800467 425.931200
  18240  18237  18253     1   109.5800467 425.931200
  18245  18251  18252     1   107.2600461 396.643200
  18249  18245  18251     1   110.2600474 425.931200
  18249  18245  18250     1   108.4600466 328.025600
  18250  18245  18251     1   110.2600474 425.931200
  18254  18255  18257     1   109.5600471 388.275200
  18254  18268  18272     1   109.5600471 388.275200
  18254  18268  18273     1   109.5600471 388.275200
  18255  18254  18256     1   109.5600471 388.275200
  18255  18258  18262     1   109.5600471 388.275200
  18255  18267  18270     1   107.2600461 396.643200
  18256  18254  18268     1   109.5600471 388.275200
  18256  18254  18276     1   109.7800468 425.094400
  18257  18255  18258     1   109.5600471 388.275200
  18257  18255  18267     1   110.2600474 425.931200
  18258  18259  18261     1   109.5600471 388.275200
  18258  18266  18269     1   107.2600461 396.643200
  18259  18258  18262     1   109.5600471 388.275200
  18259  18260  18263     1   110.2200475 386.601600
  18259  18265  18271     1   107.2600461 396.643200
  18260  18259  18261     1   109.5600471 388.275200
  18261  18259  18265     1   110.2600474 425.931200
  18262  18258  18266     1   110.2600474 425.931200
  18263  18260  18264     1   109.5800467 425.931200
  18263  18260  18276     1   109.5800467 425.931200
  18268  18274  18275     1   107.2600461 396.643200
  18272  18268  18274     1   110.2600474 425.931200
  18272  18268  18273     1   108.4600466 328.025600
  18273  18268  18274     1   110.2600474 425.931200
  18277  18278  18280     1   109.5600471 388.275200
  18277  18291  18295     1   109.5600471 388.275200
  18277  18291  18296     1   109.5600471 388.275200
  18278  18281  18285     1   109.5600471 388.275200
  18278  18290  18293     1   107.2600461 396.643200
  18278  18277  18279     1   109.5600471 388.275200
  18279  18277  18291     1   109.5600471 388.275200
  18279  18277  18299     1   109.7800468 425.094400
  18280  18278  18281     1   109.5600471 388.275200
  18280  18278  18290     1   110.2600474 425.931200
  18281  18282  18284     1   109.5600471 388.275200
  18281  18289  18292     1   107.2600461 396.643200
  18282  18283  18286     1   110.2200475 386.601600
  18282  18288  18294     1   107.2600461 396.643200
  18282  18281  18285     1   109.5600471 388.275200
  18283  18282  18284     1   109.5600471 388.275200
  18284  18282  18288     1   110.2600474 425.931200
  18285  18281  18289     1   110.2600474 425.931200
  18286  18283  18287     1   109.5800467 425.931200
  18286  18283  18299     1   109.5800467 425.931200
  18291  18297  18298     1   107.2600461 396.643200
  18295  18291  18297     1   110.2600474 425.931200
  18295  18291  18296     1   108.4600466 328.025600
  18296  18291  18297     1   110.2600474 425.931200
  18300  18301  18303     1   109.5600471 388.275200
  18300  18314  18318     1   109.5600471 388.275200
  18300  18314  18319     1   109.5600471 388.275200
  18301  18300  18302     1   109.5600471 388.275200
  18301  18304  18308     1   109.5600471 388.275200
  18301  18313  18316     1   107.2600461 396.643200
  18302  18300  18314     1   109.5600471 388.275200
  18302  18300  18322     1   109.7800468 425.094400
  18303  18301  18304     1   109.5600471 388.275200
  18303  18301  18313     1   110.2600474 425.931200
  18304  18305  18307     1   109.5600471 388.275200
  18304  18312  18315     1   107.2600461 396.643200
  18305  18304  18308     1   109.5600471 388.275200
  18305  18306  18309     1   110.2200475 386.601600
  18305  18311  18317     1   107.2600461 396.643200
  18306  18305  18307     1   109.5600471 388.275200
  18307  18305  18311     1   110.2600474 425.931200
  18308  18304  18312     1   110.2600474 425.931200
  18309  18306  18310     1   109.5800467 425.931200
  18309  18306  18322     1   109.5800467 425.931200
  18314  18320  18321     1   107.2600461 396.643200
  18318  18314  18320     1   110.2600474 425.931200
  18318  18314  18319     1   108.4600466 328.025600
  18319  18314  18320     1   110.2600474 425.931200
  18323  18324  18326     1   109.5600471 388.275200
  18323  18337  18341     1   109.5600471 388.275200
  18323  18337  18342     1   109.5600471 388.275200
  18324  18327  18331     1   109.5600471 388.275200
  18324  18336  18339     1   107.2600461 396.643200
  18324  18323  18325     1   109.5600471 388.275200
  18325  18323  18337     1   109.5600471 388.275200
  18325  18323  18345     1   109.7800468 425.094400
  18326  18324  18327     1   109.5600471 388.275200
  18326  18324  18336     1   110.2600474 425.931200
  18327  18328  18330     1   109.5600471 388.275200
  18327  18335  18338     1   107.2600461 396.643200
  18328  18329  18332     1   110.2200475 386.601600
  18328  18334  18340     1   107.2600461 396.643200
  18328  18327  18331     1   109.5600471 388.275200
  18329  18328  18330     1   109.5600471 388.275200
  18330  18328  18334     1   110.2600474 425.931200
  18331  18327  18335     1   110.2600474 425.931200
  18332  18329  18333     1   109.5800467 425.931200
  18332  18329  18345     1   109.5800467 425.931200
  18337  18343  18344     1   107.2600461 396.643200
  18341  18337  18343     1   110.2600474 425.931200
  18341  18337  18342     1   108.4600466 328.025600
  18342  18337  18343     1   110.2600474 425.931200
  18346  18347  18349     1   109.5600471 388.275200
  18346  18360  18364     1   109.5600471 388.275200
  18346  18360  18365     1   109.5600471 388.275200
  18347  18346  18348     1   109.5600471 388.275200
  18347  18350  18354     1   109.5600471 388.275200
  18347  18359  18362     1   107.2600461 396.643200
  18348  18346  18360     1   109.5600471 388.275200
  18348  18346  18368     1   109.7800468 425.094400
  18349  18347  18350     1   109.5600471 388.275200
  18349  18347  18359     1   110.2600474 425.931200
  18350  18351  18353     1   109.5600471 388.275200
  18350  18358  18361     1   107.2600461 396.643200
  18351  18350  18354     1   109.5600471 388.275200
  18351  18352  18355     1   110.2200475 386.601600
  18351  18357  18363     1   107.2600461 396.643200
  18352  18351  18353     1   109.5600471 388.275200
  18353  18351  18357     1   110.2600474 425.931200
  18354  18350  18358     1   110.2600474 425.931200
  18355  18352  18356     1   109.5800467 425.931200
  18355  18352  18368     1   109.5800467 425.931200
  18360  18366  18367     1   107.2600461 396.643200
  18364  18360  18366     1   110.2600474 425.931200
  18364  18360  18365     1   108.4600466 328.025600
  18365  18360  18366     1   110.2600474 425.931200
  18369  18370  18372     1   109.5600471 388.275200
  18369  18383  18387     1   109.5600471 388.275200
  18369  18383  18388     1   109.5600471 388.275200
  18370  18373  18377     1   109.5600471 388.275200
  18370  18382  18385     1   107.2600461 396.643200
  18370  18369  18371     1   109.5600471 388.275200
  18371  18369  18383     1   109.5600471 388.275200
  18371  18369  18391     1   109.7800468 425.094400
  18372  18370  18373     1   109.5600471 388.275200
  18372  18370  18382     1   110.2600474 425.931200
  18373  18374  18376     1   109.5600471 388.275200
  18373  18381  18384     1   107.2600461 396.643200
  18374  18375  18378     1   110.2200475 386.601600
  18374  18380  18386     1   107.2600461 396.643200
  18374  18373  18377     1   109.5600471 388.275200
  18375  18374  18376     1   109.5600471 388.275200
  18376  18374  18380     1   110.2600474 425.931200
  18377  18373  18381     1   110.2600474 425.931200
  18378  18375  18379     1   109.5800467 425.931200
  18378  18375  18391     1   109.5800467 425.931200
  18383  18389  18390     1   107.2600461 396.643200
  18387  18383  18389     1   110.2600474 425.931200
  18387  18383  18388     1   108.4600466 328.025600
  18388  18383  18389     1   110.2600474 425.931200
  18392  18393  18395     1   109.5600471 388.275200
  18392  18406  18410     1   109.5600471 388.275200
  18392  18406  18411     1   109.5600471 388.275200
  18393  18392  18394     1   109.5600471 388.275200
  18393  18396  18400     1   109.5600471 388.275200
  18393  18405  18408     1   107.2600461 396.643200
  18394  18392  18406     1   109.5600471 388.275200
  18394  18392  18414     1   109.7800468 425.094400
  18395  18393  18396     1   109.5600471 388.275200
  18395  18393  18405     1   110.2600474 425.931200
  18396  18397  18399     1   109.5600471 388.275200
  18396  18404  18407     1   107.2600461 396.643200
  18397  18396  18400     1   109.5600471 388.275200
  18397  18398  18401     1   110.2200475 386.601600
  18397  18403  18409     1   107.2600461 396.643200
  18398  18397  18399     1   109.5600471 388.275200
  18399  18397  18403     1   110.2600474 425.931200
  18400  18396  18404     1   110.2600474 425.931200
  18401  18398  18402     1   109.5800467 425.931200
  18401  18398  18414     1   109.5800467 425.931200
  18406  18412  18413     1   107.2600461 396.643200
  18410  18406  18412     1   110.2600474 425.931200
  18410  18406  18411     1   108.4600466 328.025600
  18411  18406  18412     1   110.2600474 425.931200
  18415  18416  18418     1   109.5600471 388.275200
  18415  18429  18433     1   109.5600471 388.275200
  18415  18429  18434     1   109.5600471 388.275200
  18416  18419  18423     1   109.5600471 388.275200
  18416  18428  18431     1   107.2600461 396.643200
  18416  18415  18417     1   109.5600471 388.275200
  18417  18415  18429     1   109.5600471 388.275200
  18417  18415  18437     1   109.7800468 425.094400
  18418  18416  18419     1   109.5600471 388.275200
  18418  18416  18428     1   110.2600474 425.931200
  18419  18420  18422     1   109.5600471 388.275200
  18419  18427  18430     1   107.2600461 396.643200
  18420  18421  18424     1   110.2200475 386.601600
  18420  18426  18432     1   107.2600461 396.643200
  18420  18419  18423     1   109.5600471 388.275200
  18421  18420  18422     1   109.5600471 388.275200
  18422  18420  18426     1   110.2600474 425.931200
  18423  18419  18427     1   110.2600474 425.931200
  18424  18421  18425     1   109.5800467 425.931200
  18424  18421  18437     1   109.5800467 425.931200
  18429  18435  18436     1   107.2600461 396.643200
  18433  18429  18435     1   110.2600474 425.931200
  18433  18429  18434     1   108.4600466 328.025600
  18434  18429  18435     1   110.2600474 425.931200
  18438  18439  18441     1   109.5600471 388.275200
  18438  18452  18456     1   109.5600471 388.275200
  18438  18452  18457     1   109.5600471 388.275200
  18439  18438  18440     1   109.5600471 388.275200
  18439  18442  18446     1   109.5600471 388.275200
  18439  18451  18454     1   107.2600461 396.643200
  18440  18438  18452     1   109.5600471 388.275200
  18440  18438  18460     1   109.7800468 425.094400
  18441  18439  18442     1   109.5600471 388.275200
  18441  18439  18451     1   110.2600474 425.931200
  18442  18443  18445     1   109.5600471 388.275200
  18442  18450  18453     1   107.2600461 396.643200
  18443  18442  18446     1   109.5600471 388.275200
  18443  18444  18447     1   110.2200475 386.601600
  18443  18449  18455     1   107.2600461 396.643200
  18444  18443  18445     1   109.5600471 388.275200
  18445  18443  18449     1   110.2600474 425.931200
  18446  18442  18450     1   110.2600474 425.931200
  18447  18444  18448     1   109.5800467 425.931200
  18447  18444  18460     1   109.5800467 425.931200
  18452  18458  18459     1   107.2600461 396.643200
  18456  18452  18458     1   110.2600474 425.931200
  18456  18452  18457     1   108.4600466 328.025600
  18457  18452  18458     1   110.2600474 425.931200
  18461  18462  18464     1   109.5600471 388.275200
  18461  18475  18479     1   109.5600471 388.275200
  18461  18475  18480     1   109.5600471 388.275200
  18462  18465  18469     1   109.5600471 388.275200
  18462  18474  18477     1   107.2600461 396.643200
  18462  18461  18463     1   109.5600471 388.275200
  18463  18461  18475     1   109.5600471 388.275200
  18463  18461  18483     1   109.7800468 425.094400
  18464  18462  18465     1   109.5600471 388.275200
  18464  18462  18474     1   110.2600474 425.931200
  18465  18466  18468     1   109.5600471 388.275200
  18465  18473  18476     1   107.2600461 396.643200
  18466  18467  18470     1   110.2200475 386.601600
  18466  18472  18478     1   107.2600461 396.643200
  18466  18465  18469     1   109.5600471 388.275200
  18467  18466  18468     1   109.5600471 388.275200
  18468  18466  18472     1   110.2600474 425.931200
  18469  18465  18473     1   110.2600474 425.931200
  18470  18467  18471     1   109.5800467 425.931200
  18470  18467  18483     1   109.5800467 425.931200
  18475  18481  18482     1   107.2600461 396.643200
  18479  18475  18481     1   110.2600474 425.931200
  18479  18475  18480     1   108.4600466 328.025600
  18480  18475  18481     1   110.2600474 425.931200
  18484  18485  18487     1   109.5600471 388.275200
  18484  18498  18502     1   109.5600471 388.275200
  18484  18498  18503     1   109.5600471 388.275200
  18485  18484  18486     1   109.5600471 388.275200
  18485  18488  18492     1   109.5600471 388.275200
  18485  18497  18500     1   107.2600461 396.643200
  18486  18484  18498     1   109.5600471 388.275200
  18486  18484  18506     1   109.7800468 425.094400
  18487  18485  18488     1   109.5600471 388.275200
  18487  18485  18497     1   110.2600474 425.931200
  18488  18489  18491     1   109.5600471 388.275200
  18488  18496  18499     1   107.2600461 396.643200
  18489  18488  18492     1   109.5600471 388.275200
  18489  18490  18493     1   110.2200475 386.601600
  18489  18495  18501     1   107.2600461 396.643200
  18490  18489  18491     1   109.5600471 388.275200
  18491  18489  18495     1   110.2600474 425.931200
  18492  18488  18496     1   110.2600474 425.931200
  18493  18490  18494     1   109.5800467 425.931200
  18493  18490  18506     1   109.5800467 425.931200
  18498  18504  18505     1   107.2600461 396.643200
  18502  18498  18504     1   110.2600474 425.931200
  18502  18498  18503     1   108.4600466 328.025600
  18503  18498  18504     1   110.2600474 425.931200
  18507  18508  18510     1   109.5600471 388.275200
  18507  18521  18525     1   109.5600471 388.275200
  18507  18521  18526     1   109.5600471 388.275200
  18508  18511  18515     1   109.5600471 388.275200
  18508  18520  18523     1   107.2600461 396.643200
  18508  18507  18509     1   109.5600471 388.275200
  18509  18507  18521     1   109.5600471 388.275200
  18509  18507  18529     1   109.7800468 425.094400
  18510  18508  18511     1   109.5600471 388.275200
  18510  18508  18520     1   110.2600474 425.931200
  18511  18512  18514     1   109.5600471 388.275200
  18511  18519  18522     1   107.2600461 396.643200
  18512  18513  18516     1   110.2200475 386.601600
  18512  18518  18524     1   107.2600461 396.643200
  18512  18511  18515     1   109.5600471 388.275200
  18513  18512  18514     1   109.5600471 388.275200
  18514  18512  18518     1   110.2600474 425.931200
  18515  18511  18519     1   110.2600474 425.931200
  18516  18513  18517     1   109.5800467 425.931200
  18516  18513  18529     1   109.5800467 425.931200
  18521  18527  18528     1   107.2600461 396.643200
  18525  18521  18527     1   110.2600474 425.931200
  18525  18521  18526     1   108.4600466 328.025600
  18526  18521  18527     1   110.2600474 425.931200
  18530  18531  18533     1   109.5600471 388.275200
  18530  18544  18548     1   109.5600471 388.275200
  18530  18544  18549     1   109.5600471 388.275200
  18531  18530  18532     1   109.5600471 388.275200
  18531  18534  18538     1   109.5600471 388.275200
  18531  18543  18546     1   107.2600461 396.643200
  18532  18530  18544     1   109.5600471 388.275200
  18532  18530  18552     1   109.7800468 425.094400
  18533  18531  18534     1   109.5600471 388.275200
  18533  18531  18543     1   110.2600474 425.931200
  18534  18535  18537     1   109.5600471 388.275200
  18534  18542  18545     1   107.2600461 396.643200
  18535  18534  18538     1   109.5600471 388.275200
  18535  18536  18539     1   110.2200475 386.601600
  18535  18541  18547     1   107.2600461 396.643200
  18536  18535  18537     1   109.5600471 388.275200
  18537  18535  18541     1   110.2600474 425.931200
  18538  18534  18542     1   110.2600474 425.931200
  18539  18536  18540     1   109.5800467 425.931200
  18539  18536  18552     1   109.5800467 425.931200
  18544  18550  18551     1   107.2600461 396.643200
  18548  18544  18550     1   110.2600474 425.931200
  18548  18544  18549     1   108.4600466 328.025600
  18549  18544  18550     1   110.2600474 425.931200
  18553  18554  18556     1   109.5600471 388.275200
  18553  18567  18571     1   109.5600471 388.275200
  18553  18567  18572     1   109.5600471 388.275200
  18554  18557  18561     1   109.5600471 388.275200
  18554  18566  18569     1   107.2600461 396.643200
  18554  18553  18555     1   109.5600471 388.275200
  18555  18553  18567     1   109.5600471 388.275200
  18555  18553  18575     1   109.7800468 425.094400
  18556  18554  18557     1   109.5600471 388.275200
  18556  18554  18566     1   110.2600474 425.931200
  18557  18558  18560     1   109.5600471 388.275200
  18557  18565  18568     1   107.2600461 396.643200
  18558  18559  18562     1   110.2200475 386.601600
  18558  18564  18570     1   107.2600461 396.643200
  18558  18557  18561     1   109.5600471 388.275200
  18559  18558  18560     1   109.5600471 388.275200
  18560  18558  18564     1   110.2600474 425.931200
  18561  18557  18565     1   110.2600474 425.931200
  18562  18559  18563     1   109.5800467 425.931200
  18562  18559  18575     1   109.5800467 425.931200
  18567  18573  18574     1   107.2600461 396.643200
  18571  18567  18573     1   110.2600474 425.931200
  18571  18567  18572     1   108.4600466 328.025600
  18572  18567  18573     1   110.2600474 425.931200
  18576  18577  18579     1   109.5600471 388.275200
  18576  18590  18594     1   109.5600471 388.275200
  18576  18590  18595     1   109.5600471 388.275200
  18577  18576  18578     1   109.5600471 388.275200
  18577  18580  18584     1   109.5600471 388.275200
  18577  18589  18592     1   107.2600461 396.643200
  18578  18576  18590     1   109.5600471 388.275200
  18578  18576  18598     1   109.7800468 425.094400
  18579  18577  18580     1   109.5600471 388.275200
  18579  18577  18589     1   110.2600474 425.931200
  18580  18581  18583     1   109.5600471 388.275200
  18580  18588  18591     1   107.2600461 396.643200
  18581  18580  18584     1   109.5600471 388.275200
  18581  18582  18585     1   110.2200475 386.601600
  18581  18587  18593     1   107.2600461 396.643200
  18582  18581  18583     1   109.5600471 388.275200
  18583  18581  18587     1   110.2600474 425.931200
  18584  18580  18588     1   110.2600474 425.931200
  18585  18582  18586     1   109.5800467 425.931200
  18585  18582  18598     1   109.5800467 425.931200
  18590  18596  18597     1   107.2600461 396.643200
  18594  18590  18596     1   110.2600474 425.931200
  18594  18590  18595     1   108.4600466 328.025600
  18595  18590  18596     1   110.2600474 425.931200
  18599  18600  18602     1   109.5600471 388.275200
  18599  18613  18617     1   109.5600471 388.275200
  18599  18613  18618     1   109.5600471 388.275200
  18600  18603  18607     1   109.5600471 388.275200
  18600  18612  18615     1   107.2600461 396.643200
  18600  18599  18601     1   109.5600471 388.275200
  18601  18599  18613     1   109.5600471 388.275200
  18601  18599  18621     1   109.7800468 425.094400
  18602  18600  18603     1   109.5600471 388.275200
  18602  18600  18612     1   110.2600474 425.931200
  18603  18604  18606     1   109.5600471 388.275200
  18603  18611  18614     1   107.2600461 396.643200
  18604  18605  18608     1   110.2200475 386.601600
  18604  18610  18616     1   107.2600461 396.643200
  18604  18603  18607     1   109.5600471 388.275200
  18605  18604  18606     1   109.5600471 388.275200
  18606  18604  18610     1   110.2600474 425.931200
  18607  18603  18611     1   110.2600474 425.931200
  18608  18605  18609     1   109.5800467 425.931200
  18608  18605  18621     1   109.5800467 425.931200
  18613  18619  18620     1   107.2600461 396.643200
  18617  18613  18619     1   110.2600474 425.931200
  18617  18613  18618     1   108.4600466 328.025600
  18618  18613  18619     1   110.2600474 425.931200
  18622  18623  18625     1   109.5600471 388.275200
  18622  18636  18640     1   109.5600471 388.275200
  18622  18636  18641     1   109.5600471 388.275200
  18623  18622  18624     1   109.5600471 388.275200
  18623  18626  18630     1   109.5600471 388.275200
  18623  18635  18638     1   107.2600461 396.643200
  18624  18622  18636     1   109.5600471 388.275200
  18624  18622  18644     1   109.7800468 425.094400
  18625  18623  18626     1   109.5600471 388.275200
  18625  18623  18635     1   110.2600474 425.931200
  18626  18627  18629     1   109.5600471 388.275200
  18626  18634  18637     1   107.2600461 396.643200
  18627  18626  18630     1   109.5600471 388.275200
  18627  18628  18631     1   110.2200475 386.601600
  18627  18633  18639     1   107.2600461 396.643200
  18628  18627  18629     1   109.5600471 388.275200
  18629  18627  18633     1   110.2600474 425.931200
  18630  18626  18634     1   110.2600474 425.931200
  18631  18628  18632     1   109.5800467 425.931200
  18631  18628  18644     1   109.5800467 425.931200
  18636  18642  18643     1   107.2600461 396.643200
  18640  18636  18642     1   110.2600474 425.931200
  18640  18636  18641     1   108.4600466 328.025600
  18641  18636  18642     1   110.2600474 425.931200
  18645  18646  18648     1   109.5600471 388.275200
  18645  18659  18663     1   109.5600471 388.275200
  18645  18659  18664     1   109.5600471 388.275200
  18646  18649  18653     1   109.5600471 388.275200
  18646  18658  18661     1   107.2600461 396.643200
  18646  18645  18647     1   109.5600471 388.275200
  18647  18645  18659     1   109.5600471 388.275200
  18647  18645  18667     1   109.7800468 425.094400
  18648  18646  18649     1   109.5600471 388.275200
  18648  18646  18658     1   110.2600474 425.931200
  18649  18650  18652     1   109.5600471 388.275200
  18649  18657  18660     1   107.2600461 396.643200
  18650  18651  18654     1   110.2200475 386.601600
  18650  18656  18662     1   107.2600461 396.643200
  18650  18649  18653     1   109.5600471 388.275200
  18651  18650  18652     1   109.5600471 388.275200
  18652  18650  18656     1   110.2600474 425.931200
  18653  18649  18657     1   110.2600474 425.931200
  18654  18651  18655     1   109.5800467 425.931200
  18654  18651  18667     1   109.5800467 425.931200
  18659  18665  18666     1   107.2600461 396.643200
  18663  18659  18665     1   110.2600474 425.931200
  18663  18659  18664     1   108.4600466 328.025600
  18664  18659  18665     1   110.2600474 425.931200
  18668  18669  18671     1   109.5600471 388.275200
  18668  18682  18686     1   109.5600471 388.275200
  18668  18682  18687     1   109.5600471 388.275200
  18669  18668  18670     1   109.5600471 388.275200
  18669  18672  18676     1   109.5600471 388.275200
  18669  18681  18684     1   107.2600461 396.643200
  18670  18668  18682     1   109.5600471 388.275200
  18670  18668  18690     1   109.7800468 425.094400
  18671  18669  18672     1   109.5600471 388.275200
  18671  18669  18681     1   110.2600474 425.931200
  18672  18673  18675     1   109.5600471 388.275200
  18672  18680  18683     1   107.2600461 396.643200
  18673  18672  18676     1   109.5600471 388.275200
  18673  18674  18677     1   110.2200475 386.601600
  18673  18679  18685     1   107.2600461 396.643200
  18674  18673  18675     1   109.5600471 388.275200
  18675  18673  18679     1   110.2600474 425.931200
  18676  18672  18680     1   110.2600474 425.931200
  18677  18674  18678     1   109.5800467 425.931200
  18677  18674  18690     1   109.5800467 425.931200
  18682  18688  18689     1   107.2600461 396.643200
  18686  18682  18688     1   110.2600474 425.931200
  18686  18682  18687     1   108.4600466 328.025600
  18687  18682  18688     1   110.2600474 425.931200
  18691  18692  18694     1   109.5600471 388.275200
  18691  18705  18709     1   109.5600471 388.275200
  18691  18705  18710     1   109.5600471 388.275200
  18692  18695  18699     1   109.5600471 388.275200
  18692  18704  18707     1   107.2600461 396.643200
  18692  18691  18693     1   109.5600471 388.275200
  18693  18691  18705     1   109.5600471 388.275200
  18693  18691  18713     1   109.7800468 425.094400
  18694  18692  18695     1   109.5600471 388.275200
  18694  18692  18704     1   110.2600474 425.931200
  18695  18696  18698     1   109.5600471 388.275200
  18695  18703  18706     1   107.2600461 396.643200
  18696  18697  18700     1   110.2200475 386.601600
  18696  18702  18708     1   107.2600461 396.643200
  18696  18695  18699     1   109.5600471 388.275200
  18697  18696  18698     1   109.5600471 388.275200
  18698  18696  18702     1   110.2600474 425.931200
  18699  18695  18703     1   110.2600474 425.931200
  18700  18697  18701     1   109.5800467 425.931200
  18700  18697  18713     1   109.5800467 425.931200
  18705  18711  18712     1   107.2600461 396.643200
  18709  18705  18711     1   110.2600474 425.931200
  18709  18705  18710     1   108.4600466 328.025600
  18710  18705  18711     1   110.2600474 425.931200
  18714  18715  18717     1   109.5600471 388.275200
  18714  18728  18732     1   109.5600471 388.275200
  18714  18728  18733     1   109.5600471 388.275200
  18715  18714  18716     1   109.5600471 388.275200
  18715  18718  18722     1   109.5600471 388.275200
  18715  18727  18730     1   107.2600461 396.643200
  18716  18714  18728     1   109.5600471 388.275200
  18716  18714  18736     1   109.7800468 425.094400
  18717  18715  18718     1   109.5600471 388.275200
  18717  18715  18727     1   110.2600474 425.931200
  18718  18719  18721     1   109.5600471 388.275200
  18718  18726  18729     1   107.2600461 396.643200
  18719  18718  18722     1   109.5600471 388.275200
  18719  18720  18723     1   110.2200475 386.601600
  18719  18725  18731     1   107.2600461 396.643200
  18720  18719  18721     1   109.5600471 388.275200
  18721  18719  18725     1   110.2600474 425.931200
  18722  18718  18726     1   110.2600474 425.931200
  18723  18720  18724     1   109.5800467 425.931200
  18723  18720  18736     1   109.5800467 425.931200
  18728  18734  18735     1   107.2600461 396.643200
  18732  18728  18734     1   110.2600474 425.931200
  18732  18728  18733     1   108.4600466 328.025600
  18733  18728  18734     1   110.2600474 425.931200
  18737  18738  18740     1   109.5600471 388.275200
  18737  18751  18755     1   109.5600471 388.275200
  18737  18751  18756     1   109.5600471 388.275200
  18738  18741  18745     1   109.5600471 388.275200
  18738  18750  18753     1   107.2600461 396.643200
  18738  18737  18739     1   109.5600471 388.275200
  18739  18737  18751     1   109.5600471 388.275200
  18739  18737  18759     1   109.7800468 425.094400
  18740  18738  18741     1   109.5600471 388.275200
  18740  18738  18750     1   110.2600474 425.931200
  18741  18742  18744     1   109.5600471 388.275200
  18741  18749  18752     1   107.2600461 396.643200
  18742  18743  18746     1   110.2200475 386.601600
  18742  18748  18754     1   107.2600461 396.643200
  18742  18741  18745     1   109.5600471 388.275200
  18743  18742  18744     1   109.5600471 388.275200
  18744  18742  18748     1   110.2600474 425.931200
  18745  18741  18749     1   110.2600474 425.931200
  18746  18743  18747     1   109.5800467 425.931200
  18746  18743  18759     1   109.5800467 425.931200
  18751  18757  18758     1   107.2600461 396.643200
  18755  18751  18757     1   110.2600474 425.931200
  18755  18751  18756     1   108.4600466 328.025600
  18756  18751  18757     1   110.2600474 425.931200
  18760  18761  18763     1   109.5600471 388.275200
  18760  18774  18778     1   109.5600471 388.275200
  18760  18774  18779     1   109.5600471 388.275200
  18761  18760  18762     1   109.5600471 388.275200
  18761  18764  18768     1   109.5600471 388.275200
  18761  18773  18776     1   107.2600461 396.643200
  18762  18760  18774     1   109.5600471 388.275200
  18762  18760  18782     1   109.7800468 425.094400
  18763  18761  18764     1   109.5600471 388.275200
  18763  18761  18773     1   110.2600474 425.931200
  18764  18765  18767     1   109.5600471 388.275200
  18764  18772  18775     1   107.2600461 396.643200
  18765  18764  18768     1   109.5600471 388.275200
  18765  18766  18769     1   110.2200475 386.601600
  18765  18771  18777     1   107.2600461 396.643200
  18766  18765  18767     1   109.5600471 388.275200
  18767  18765  18771     1   110.2600474 425.931200
  18768  18764  18772     1   110.2600474 425.931200
  18769  18766  18770     1   109.5800467 425.931200
  18769  18766  18782     1   109.5800467 425.931200
  18774  18780  18781     1   107.2600461 396.643200
  18778  18774  18780     1   110.2600474 425.931200
  18778  18774  18779     1   108.4600466 328.025600
  18779  18774  18780     1   110.2600474 425.931200
  18783  18784  18786     1   109.5600471 388.275200
  18783  18797  18801     1   109.5600471 388.275200
  18783  18797  18802     1   109.5600471 388.275200
  18784  18787  18791     1   109.5600471 388.275200
  18784  18796  18799     1   107.2600461 396.643200
  18784  18783  18785     1   109.5600471 388.275200
  18785  18783  18797     1   109.5600471 388.275200
  18785  18783  18805     1   109.7800468 425.094400
  18786  18784  18787     1   109.5600471 388.275200
  18786  18784  18796     1   110.2600474 425.931200
  18787  18788  18790     1   109.5600471 388.275200
  18787  18795  18798     1   107.2600461 396.643200
  18788  18789  18792     1   110.2200475 386.601600
  18788  18794  18800     1   107.2600461 396.643200
  18788  18787  18791     1   109.5600471 388.275200
  18789  18788  18790     1   109.5600471 388.275200
  18790  18788  18794     1   110.2600474 425.931200
  18791  18787  18795     1   110.2600474 425.931200
  18792  18789  18793     1   109.5800467 425.931200
  18792  18789  18805     1   109.5800467 425.931200
  18797  18803  18804     1   107.2600461 396.643200
  18801  18797  18803     1   110.2600474 425.931200
  18801  18797  18802     1   108.4600466 328.025600
  18802  18797  18803     1   110.2600474 425.931200
  18806  18807  18809     1   109.5600471 388.275200
  18806  18820  18824     1   109.5600471 388.275200
  18806  18820  18825     1   109.5600471 388.275200
  18807  18806  18808     1   109.5600471 388.275200
  18807  18810  18814     1   109.5600471 388.275200
  18807  18819  18822     1   107.2600461 396.643200
  18808  18806  18820     1   109.5600471 388.275200
  18808  18806  18828     1   109.7800468 425.094400
  18809  18807  18810     1   109.5600471 388.275200
  18809  18807  18819     1   110.2600474 425.931200
  18810  18811  18813     1   109.5600471 388.275200
  18810  18818  18821     1   107.2600461 396.643200
  18811  18810  18814     1   109.5600471 388.275200
  18811  18812  18815     1   110.2200475 386.601600
  18811  18817  18823     1   107.2600461 396.643200
  18812  18811  18813     1   109.5600471 388.275200
  18813  18811  18817     1   110.2600474 425.931200
  18814  18810  18818     1   110.2600474 425.931200
  18815  18812  18816     1   109.5800467 425.931200
  18815  18812  18828     1   109.5800467 425.931200
  18820  18826  18827     1   107.2600461 396.643200
  18824  18820  18826     1   110.2600474 425.931200
  18824  18820  18825     1   108.4600466 328.025600
  18825  18820  18826     1   110.2600474 425.931200
  18829  18830  18832     1   109.5600471 388.275200
  18829  18843  18847     1   109.5600471 388.275200
  18829  18843  18848     1   109.5600471 388.275200
  18830  18833  18837     1   109.5600471 388.275200
  18830  18842  18845     1   107.2600461 396.643200
  18830  18829  18831     1   109.5600471 388.275200
  18831  18829  18843     1   109.5600471 388.275200
  18831  18829  18851     1   109.7800468 425.094400
  18832  18830  18833     1   109.5600471 388.275200
  18832  18830  18842     1   110.2600474 425.931200
  18833  18834  18836     1   109.5600471 388.275200
  18833  18841  18844     1   107.2600461 396.643200
  18834  18835  18838     1   110.2200475 386.601600
  18834  18840  18846     1   107.2600461 396.643200
  18834  18833  18837     1   109.5600471 388.275200
  18835  18834  18836     1   109.5600471 388.275200
  18836  18834  18840     1   110.2600474 425.931200
  18837  18833  18841     1   110.2600474 425.931200
  18838  18835  18839     1   109.5800467 425.931200
  18838  18835  18851     1   109.5800467 425.931200
  18843  18849  18850     1   107.2600461 396.643200
  18847  18843  18849     1   110.2600474 425.931200
  18847  18843  18848     1   108.4600466 328.025600
  18848  18843  18849     1   110.2600474 425.931200
  18852  18853  18855     1   109.5600471 388.275200
  18852  18866  18870     1   109.5600471 388.275200
  18852  18866  18871     1   109.5600471 388.275200
  18853  18852  18854     1   109.5600471 388.275200
  18853  18856  18860     1   109.5600471 388.275200
  18853  18865  18868     1   107.2600461 396.643200
  18854  18852  18866     1   109.5600471 388.275200
  18854  18852  18874     1   109.7800468 425.094400
  18855  18853  18856     1   109.5600471 388.275200
  18855  18853  18865     1   110.2600474 425.931200
  18856  18857  18859     1   109.5600471 388.275200
  18856  18864  18867     1   107.2600461 396.643200
  18857  18856  18860     1   109.5600471 388.275200
  18857  18858  18861     1   110.2200475 386.601600
  18857  18863  18869     1   107.2600461 396.643200
  18858  18857  18859     1   109.5600471 388.275200
  18859  18857  18863     1   110.2600474 425.931200
  18860  18856  18864     1   110.2600474 425.931200
  18861  18858  18862     1   109.5800467 425.931200
  18861  18858  18874     1   109.5800467 425.931200
  18866  18872  18873     1   107.2600461 396.643200
  18870  18866  18872     1   110.2600474 425.931200
  18870  18866  18871     1   108.4600466 328.025600
  18871  18866  18872     1   110.2600474 425.931200
  18875  18876  18878     1   109.5600471 388.275200
  18875  18889  18893     1   109.5600471 388.275200
  18875  18889  18894     1   109.5600471 388.275200
  18876  18879  18883     1   109.5600471 388.275200
  18876  18888  18891     1   107.2600461 396.643200
  18876  18875  18877     1   109.5600471 388.275200
  18877  18875  18889     1   109.5600471 388.275200
  18877  18875  18897     1   109.7800468 425.094400
  18878  18876  18879     1   109.5600471 388.275200
  18878  18876  18888     1   110.2600474 425.931200
  18879  18880  18882     1   109.5600471 388.275200
  18879  18887  18890     1   107.2600461 396.643200
  18880  18881  18884     1   110.2200475 386.601600
  18880  18886  18892     1   107.2600461 396.643200
  18880  18879  18883     1   109.5600471 388.275200
  18881  18880  18882     1   109.5600471 388.275200
  18882  18880  18886     1   110.2600474 425.931200
  18883  18879  18887     1   110.2600474 425.931200
  18884  18881  18885     1   109.5800467 425.931200
  18884  18881  18897     1   109.5800467 425.931200
  18889  18895  18896     1   107.2600461 396.643200
  18893  18889  18895     1   110.2600474 425.931200
  18893  18889  18894     1   108.4600466 328.025600
  18894  18889  18895     1   110.2600474 425.931200
  18898  18899  18901     1   109.5600471 388.275200
  18898  18912  18916     1   109.5600471 388.275200
  18898  18912  18917     1   109.5600471 388.275200
  18899  18898  18900     1   109.5600471 388.275200
  18899  18902  18906     1   109.5600471 388.275200
  18899  18911  18914     1   107.2600461 396.643200
  18900  18898  18912     1   109.5600471 388.275200
  18900  18898  18920     1   109.7800468 425.094400
  18901  18899  18902     1   109.5600471 388.275200
  18901  18899  18911     1   110.2600474 425.931200
  18902  18903  18905     1   109.5600471 388.275200
  18902  18910  18913     1   107.2600461 396.643200
  18903  18902  18906     1   109.5600471 388.275200
  18903  18904  18907     1   110.2200475 386.601600
  18903  18909  18915     1   107.2600461 396.643200
  18904  18903  18905     1   109.5600471 388.275200
  18905  18903  18909     1   110.2600474 425.931200
  18906  18902  18910     1   110.2600474 425.931200
  18907  18904  18908     1   109.5800467 425.931200
  18907  18904  18920     1   109.5800467 425.931200
  18912  18918  18919     1   107.2600461 396.643200
  18916  18912  18918     1   110.2600474 425.931200
  18916  18912  18917     1   108.4600466 328.025600
  18917  18912  18918     1   110.2600474 425.931200
  18921  18922  18924     1   109.5600471 388.275200
  18921  18935  18939     1   109.5600471 388.275200
  18921  18935  18940     1   109.5600471 388.275200
  18922  18925  18929     1   109.5600471 388.275200
  18922  18934  18937     1   107.2600461 396.643200
  18922  18921  18923     1   109.5600471 388.275200
  18923  18921  18935     1   109.5600471 388.275200
  18923  18921  18943     1   109.7800468 425.094400
  18924  18922  18925     1   109.5600471 388.275200
  18924  18922  18934     1   110.2600474 425.931200
  18925  18926  18928     1   109.5600471 388.275200
  18925  18933  18936     1   107.2600461 396.643200
  18926  18927  18930     1   110.2200475 386.601600
  18926  18932  18938     1   107.2600461 396.643200
  18926  18925  18929     1   109.5600471 388.275200
  18927  18926  18928     1   109.5600471 388.275200
  18928  18926  18932     1   110.2600474 425.931200
  18929  18925  18933     1   110.2600474 425.931200
  18930  18927  18931     1   109.5800467 425.931200
  18930  18927  18943     1   109.5800467 425.931200
  18935  18941  18942     1   107.2600461 396.643200
  18939  18935  18941     1   110.2600474 425.931200
  18939  18935  18940     1   108.4600466 328.025600
  18940  18935  18941     1   110.2600474 425.931200
  18944  18945  18947     1   109.5600471 388.275200
  18944  18958  18962     1   109.5600471 388.275200
  18944  18958  18963     1   109.5600471 388.275200
  18945  18944  18946     1   109.5600471 388.275200
  18945  18948  18952     1   109.5600471 388.275200
  18945  18957  18960     1   107.2600461 396.643200
  18946  18944  18958     1   109.5600471 388.275200
  18946  18944  18966     1   109.7800468 425.094400
  18947  18945  18948     1   109.5600471 388.275200
  18947  18945  18957     1   110.2600474 425.931200
  18948  18949  18951     1   109.5600471 388.275200
  18948  18956  18959     1   107.2600461 396.643200
  18949  18948  18952     1   109.5600471 388.275200
  18949  18950  18953     1   110.2200475 386.601600
  18949  18955  18961     1   107.2600461 396.643200
  18950  18949  18951     1   109.5600471 388.275200
  18951  18949  18955     1   110.2600474 425.931200
  18952  18948  18956     1   110.2600474 425.931200
  18953  18950  18954     1   109.5800467 425.931200
  18953  18950  18966     1   109.5800467 425.931200
  18958  18964  18965     1   107.2600461 396.643200
  18962  18958  18964     1   110.2600474 425.931200
  18962  18958  18963     1   108.4600466 328.025600
  18963  18958  18964     1   110.2600474 425.931200
  18967  18968  18970     1   109.5600471 388.275200
  18967  18981  18985     1   109.5600471 388.275200
  18967  18981  18986     1   109.5600471 388.275200
  18968  18971  18975     1   109.5600471 388.275200
  18968  18980  18983     1   107.2600461 396.643200
  18968  18967  18969     1   109.5600471 388.275200
  18969  18967  18981     1   109.5600471 388.275200
  18969  18967  18989     1   109.7800468 425.094400
  18970  18968  18971     1   109.5600471 388.275200
  18970  18968  18980     1   110.2600474 425.931200
  18971  18972  18974     1   109.5600471 388.275200
  18971  18979  18982     1   107.2600461 396.643200
  18972  18973  18976     1   110.2200475 386.601600
  18972  18978  18984     1   107.2600461 396.643200
  18972  18971  18975     1   109.5600471 388.275200
  18973  18972  18974     1   109.5600471 388.275200
  18974  18972  18978     1   110.2600474 425.931200
  18975  18971  18979     1   110.2600474 425.931200
  18976  18973  18977     1   109.5800467 425.931200
  18976  18973  18989     1   109.5800467 425.931200
  18981  18987  18988     1   107.2600461 396.643200
  18985  18981  18987     1   110.2600474 425.931200
  18985  18981  18986     1   108.4600466 328.025600
  18986  18981  18987     1   110.2600474 425.931200
  18990  18991  18993     1   109.5600471 388.275200
  18990  19004  19008     1   109.5600471 388.275200
  18990  19004  19009     1   109.5600471 388.275200
  18991  18990  18992     1   109.5600471 388.275200
  18991  18994  18998     1   109.5600471 388.275200
  18991  19003  19006     1   107.2600461 396.643200
  18992  18990  19004     1   109.5600471 388.275200
  18992  18990  19012     1   109.7800468 425.094400
  18993  18991  18994     1   109.5600471 388.275200
  18993  18991  19003     1   110.2600474 425.931200
  18994  18995  18997     1   109.5600471 388.275200
  18994  19002  19005     1   107.2600461 396.643200
  18995  18994  18998     1   109.5600471 388.275200
  18995  18996  18999     1   110.2200475 386.601600
  18995  19001  19007     1   107.2600461 396.643200
  18996  18995  18997     1   109.5600471 388.275200
  18997  18995  19001     1   110.2600474 425.931200
  18998  18994  19002     1   110.2600474 425.931200
  18999  18996  19000     1   109.5800467 425.931200
  18999  18996  19012     1   109.5800467 425.931200
  19004  19010  19011     1   107.2600461 396.643200
  19008  19004  19010     1   110.2600474 425.931200
  19008  19004  19009     1   108.4600466 328.025600
  19009  19004  19010     1   110.2600474 425.931200
  19013  19014  19016     1   109.5600471 388.275200
  19013  19027  19031     1   109.5600471 388.275200
  19013  19027  19032     1   109.5600471 388.275200
  19014  19017  19021     1   109.5600471 388.275200
  19014  19026  19029     1   107.2600461 396.643200
  19014  19013  19015     1   109.5600471 388.275200
  19015  19013  19027     1   109.5600471 388.275200
  19015  19013  19035     1   109.7800468 425.094400
  19016  19014  19017     1   109.5600471 388.275200
  19016  19014  19026     1   110.2600474 425.931200
  19017  19018  19020     1   109.5600471 388.275200
  19017  19025  19028     1   107.2600461 396.643200
  19018  19019  19022     1   110.2200475 386.601600
  19018  19024  19030     1   107.2600461 396.643200
  19018  19017  19021     1   109.5600471 388.275200
  19019  19018  19020     1   109.5600471 388.275200
  19020  19018  19024     1   110.2600474 425.931200
  19021  19017  19025     1   110.2600474 425.931200
  19022  19019  19023     1   109.5800467 425.931200
  19022  19019  19035     1   109.5800467 425.931200
  19027  19033  19034     1   107.2600461 396.643200
  19031  19027  19033     1   110.2600474 425.931200
  19031  19027  19032     1   108.4600466 328.025600
  19032  19027  19033     1   110.2600474 425.931200
  19036  19037  19039     1   109.5600471 388.275200
  19036  19050  19054     1   109.5600471 388.275200
  19036  19050  19055     1   109.5600471 388.275200
  19037  19036  19038     1   109.5600471 388.275200
  19037  19040  19044     1   109.5600471 388.275200
  19037  19049  19052     1   107.2600461 396.643200
  19038  19036  19050     1   109.5600471 388.275200
  19038  19036  19058     1   109.7800468 425.094400
  19039  19037  19040     1   109.5600471 388.275200
  19039  19037  19049     1   110.2600474 425.931200
  19040  19041  19043     1   109.5600471 388.275200
  19040  19048  19051     1   107.2600461 396.643200
  19041  19040  19044     1   109.5600471 388.275200
  19041  19042  19045     1   110.2200475 386.601600
  19041  19047  19053     1   107.2600461 396.643200
  19042  19041  19043     1   109.5600471 388.275200
  19043  19041  19047     1   110.2600474 425.931200
  19044  19040  19048     1   110.2600474 425.931200
  19045  19042  19046     1   109.5800467 425.931200
  19045  19042  19058     1   109.5800467 425.931200
  19050  19056  19057     1   107.2600461 396.643200
  19054  19050  19056     1   110.2600474 425.931200
  19054  19050  19055     1   108.4600466 328.025600
  19055  19050  19056     1   110.2600474 425.931200
  19059  19060  19062     1   109.5600471 388.275200
  19059  19073  19077     1   109.5600471 388.275200
  19059  19073  19078     1   109.5600471 388.275200
  19060  19063  19067     1   109.5600471 388.275200
  19060  19072  19075     1   107.2600461 396.643200
  19060  19059  19061     1   109.5600471 388.275200
  19061  19059  19073     1   109.5600471 388.275200
  19061  19059  19081     1   109.7800468 425.094400
  19062  19060  19063     1   109.5600471 388.275200
  19062  19060  19072     1   110.2600474 425.931200
  19063  19064  19066     1   109.5600471 388.275200
  19063  19071  19074     1   107.2600461 396.643200
  19064  19065  19068     1   110.2200475 386.601600
  19064  19070  19076     1   107.2600461 396.643200
  19064  19063  19067     1   109.5600471 388.275200
  19065  19064  19066     1   109.5600471 388.275200
  19066  19064  19070     1   110.2600474 425.931200
  19067  19063  19071     1   110.2600474 425.931200
  19068  19065  19069     1   109.5800467 425.931200
  19068  19065  19081     1   109.5800467 425.931200
  19073  19079  19080     1   107.2600461 396.643200
  19077  19073  19079     1   110.2600474 425.931200
  19077  19073  19078     1   108.4600466 328.025600
  19078  19073  19079     1   110.2600474 425.931200
  19082  19083  19085     1   109.5600471 388.275200
  19082  19096  19100     1   109.5600471 388.275200
  19082  19096  19101     1   109.5600471 388.275200
  19083  19082  19084     1   109.5600471 388.275200
  19083  19086  19090     1   109.5600471 388.275200
  19083  19095  19098     1   107.2600461 396.643200
  19084  19082  19096     1   109.5600471 388.275200
  19084  19082  19104     1   109.7800468 425.094400
  19085  19083  19086     1   109.5600471 388.275200
  19085  19083  19095     1   110.2600474 425.931200
  19086  19087  19089     1   109.5600471 388.275200
  19086  19094  19097     1   107.2600461 396.643200
  19087  19086  19090     1   109.5600471 388.275200
  19087  19088  19091     1   110.2200475 386.601600
  19087  19093  19099     1   107.2600461 396.643200
  19088  19087  19089     1   109.5600471 388.275200
  19089  19087  19093     1   110.2600474 425.931200
  19090  19086  19094     1   110.2600474 425.931200
  19091  19088  19092     1   109.5800467 425.931200
  19091  19088  19104     1   109.5800467 425.931200
  19096  19102  19103     1   107.2600461 396.643200
  19100  19096  19102     1   110.2600474 425.931200
  19100  19096  19101     1   108.4600466 328.025600
  19101  19096  19102     1   110.2600474 425.931200
  19105  19106  19108     1   109.5600471 388.275200
  19105  19119  19123     1   109.5600471 388.275200
  19105  19119  19124     1   109.5600471 388.275200
  19106  19109  19113     1   109.5600471 388.275200
  19106  19118  19121     1   107.2600461 396.643200
  19106  19105  19107     1   109.5600471 388.275200
  19107  19105  19119     1   109.5600471 388.275200
  19107  19105  19127     1   109.7800468 425.094400
  19108  19106  19109     1   109.5600471 388.275200
  19108  19106  19118     1   110.2600474 425.931200
  19109  19110  19112     1   109.5600471 388.275200
  19109  19117  19120     1   107.2600461 396.643200
  19110  19111  19114     1   110.2200475 386.601600
  19110  19116  19122     1   107.2600461 396.643200
  19110  19109  19113     1   109.5600471 388.275200
  19111  19110  19112     1   109.5600471 388.275200
  19112  19110  19116     1   110.2600474 425.931200
  19113  19109  19117     1   110.2600474 425.931200
  19114  19111  19115     1   109.5800467 425.931200
  19114  19111  19127     1   109.5800467 425.931200
  19119  19125  19126     1   107.2600461 396.643200
  19123  19119  19125     1   110.2600474 425.931200
  19123  19119  19124     1   108.4600466 328.025600
  19124  19119  19125     1   110.2600474 425.931200
  19128  19129  19131     1   109.5600471 388.275200
  19128  19142  19146     1   109.5600471 388.275200
  19128  19142  19147     1   109.5600471 388.275200
  19129  19128  19130     1   109.5600471 388.275200
  19129  19132  19136     1   109.5600471 388.275200
  19129  19141  19144     1   107.2600461 396.643200
  19130  19128  19142     1   109.5600471 388.275200
  19130  19128  19150     1   109.7800468 425.094400
  19131  19129  19132     1   109.5600471 388.275200
  19131  19129  19141     1   110.2600474 425.931200
  19132  19133  19135     1   109.5600471 388.275200
  19132  19140  19143     1   107.2600461 396.643200
  19133  19132  19136     1   109.5600471 388.275200
  19133  19134  19137     1   110.2200475 386.601600
  19133  19139  19145     1   107.2600461 396.643200
  19134  19133  19135     1   109.5600471 388.275200
  19135  19133  19139     1   110.2600474 425.931200
  19136  19132  19140     1   110.2600474 425.931200
  19137  19134  19138     1   109.5800467 425.931200
  19137  19134  19150     1   109.5800467 425.931200
  19142  19148  19149     1   107.2600461 396.643200
  19146  19142  19148     1   110.2600474 425.931200
  19146  19142  19147     1   108.4600466 328.025600
  19147  19142  19148     1   110.2600474 425.931200
  19151  19152  19154     1   109.5600471 388.275200
  19151  19165  19169     1   109.5600471 388.275200
  19151  19165  19170     1   109.5600471 388.275200
  19152  19155  19159     1   109.5600471 388.275200
  19152  19164  19167     1   107.2600461 396.643200
  19152  19151  19153     1   109.5600471 388.275200
  19153  19151  19165     1   109.5600471 388.275200
  19153  19151  19173     1   109.7800468 425.094400
  19154  19152  19155     1   109.5600471 388.275200
  19154  19152  19164     1   110.2600474 425.931200
  19155  19156  19158     1   109.5600471 388.275200
  19155  19163  19166     1   107.2600461 396.643200
  19156  19157  19160     1   110.2200475 386.601600
  19156  19162  19168     1   107.2600461 396.643200
  19156  19155  19159     1   109.5600471 388.275200
  19157  19156  19158     1   109.5600471 388.275200
  19158  19156  19162     1   110.2600474 425.931200
  19159  19155  19163     1   110.2600474 425.931200
  19160  19157  19161     1   109.5800467 425.931200
  19160  19157  19173     1   109.5800467 425.931200
  19165  19171  19172     1   107.2600461 396.643200
  19169  19165  19171     1   110.2600474 425.931200
  19169  19165  19170     1   108.4600466 328.025600
  19170  19165  19171     1   110.2600474 425.931200
  19174  19175  19177     1   109.5600471 388.275200
  19174  19188  19192     1   109.5600471 388.275200
  19174  19188  19193     1   109.5600471 388.275200
  19175  19174  19176     1   109.5600471 388.275200
  19175  19178  19182     1   109.5600471 388.275200
  19175  19187  19190     1   107.2600461 396.643200
  19176  19174  19188     1   109.5600471 388.275200
  19176  19174  19196     1   109.7800468 425.094400
  19177  19175  19178     1   109.5600471 388.275200
  19177  19175  19187     1   110.2600474 425.931200
  19178  19179  19181     1   109.5600471 388.275200
  19178  19186  19189     1   107.2600461 396.643200
  19179  19178  19182     1   109.5600471 388.275200
  19179  19180  19183     1   110.2200475 386.601600
  19179  19185  19191     1   107.2600461 396.643200
  19180  19179  19181     1   109.5600471 388.275200
  19181  19179  19185     1   110.2600474 425.931200
  19182  19178  19186     1   110.2600474 425.931200
  19183  19180  19184     1   109.5800467 425.931200
  19183  19180  19196     1   109.5800467 425.931200
  19188  19194  19195     1   107.2600461 396.643200
  19192  19188  19194     1   110.2600474 425.931200
  19192  19188  19193     1   108.4600466 328.025600
  19193  19188  19194     1   110.2600474 425.931200
  19197  19198  19200     1   109.5600471 388.275200
  19197  19211  19215     1   109.5600471 388.275200
  19197  19211  19216     1   109.5600471 388.275200
  19198  19201  19205     1   109.5600471 388.275200
  19198  19210  19213     1   107.2600461 396.643200
  19198  19197  19199     1   109.5600471 388.275200
  19199  19197  19211     1   109.5600471 388.275200
  19199  19197  19219     1   109.7800468 425.094400
  19200  19198  19201     1   109.5600471 388.275200
  19200  19198  19210     1   110.2600474 425.931200
  19201  19202  19204     1   109.5600471 388.275200
  19201  19209  19212     1   107.2600461 396.643200
  19202  19203  19206     1   110.2200475 386.601600
  19202  19208  19214     1   107.2600461 396.643200
  19202  19201  19205     1   109.5600471 388.275200
  19203  19202  19204     1   109.5600471 388.275200
  19204  19202  19208     1   110.2600474 425.931200
  19205  19201  19209     1   110.2600474 425.931200
  19206  19203  19207     1   109.5800467 425.931200
  19206  19203  19219     1   109.5800467 425.931200
  19211  19217  19218     1   107.2600461 396.643200
  19215  19211  19217     1   110.2600474 425.931200
  19215  19211  19216     1   108.4600466 328.025600
  19216  19211  19217     1   110.2600474 425.931200
  19220  19221  19223     1   109.5600471 388.275200
  19220  19234  19238     1   109.5600471 388.275200
  19220  19234  19239     1   109.5600471 388.275200
  19221  19220  19222     1   109.5600471 388.275200
  19221  19224  19228     1   109.5600471 388.275200
  19221  19233  19236     1   107.2600461 396.643200
  19222  19220  19234     1   109.5600471 388.275200
  19222  19220  19242     1   109.7800468 425.094400
  19223  19221  19224     1   109.5600471 388.275200
  19223  19221  19233     1   110.2600474 425.931200
  19224  19225  19227     1   109.5600471 388.275200
  19224  19232  19235     1   107.2600461 396.643200
  19225  19224  19228     1   109.5600471 388.275200
  19225  19226  19229     1   110.2200475 386.601600
  19225  19231  19237     1   107.2600461 396.643200
  19226  19225  19227     1   109.5600471 388.275200
  19227  19225  19231     1   110.2600474 425.931200
  19228  19224  19232     1   110.2600474 425.931200
  19229  19226  19230     1   109.5800467 425.931200
  19229  19226  19242     1   109.5800467 425.931200
  19234  19240  19241     1   107.2600461 396.643200
  19238  19234  19240     1   110.2600474 425.931200
  19238  19234  19239     1   108.4600466 328.025600
  19239  19234  19240     1   110.2600474 425.931200
  19243  19244  19246     1   109.5600471 388.275200
  19243  19257  19261     1   109.5600471 388.275200
  19243  19257  19262     1   109.5600471 388.275200
  19244  19247  19251     1   109.5600471 388.275200
  19244  19256  19259     1   107.2600461 396.643200
  19244  19243  19245     1   109.5600471 388.275200
  19245  19243  19257     1   109.5600471 388.275200
  19245  19243  19265     1   109.7800468 425.094400
  19246  19244  19247     1   109.5600471 388.275200
  19246  19244  19256     1   110.2600474 425.931200
  19247  19248  19250     1   109.5600471 388.275200
  19247  19255  19258     1   107.2600461 396.643200
  19248  19249  19252     1   110.2200475 386.601600
  19248  19254  19260     1   107.2600461 396.643200
  19248  19247  19251     1   109.5600471 388.275200
  19249  19248  19250     1   109.5600471 388.275200
  19250  19248  19254     1   110.2600474 425.931200
  19251  19247  19255     1   110.2600474 425.931200
  19252  19249  19253     1   109.5800467 425.931200
  19252  19249  19265     1   109.5800467 425.931200
  19257  19263  19264     1   107.2600461 396.643200
  19261  19257  19263     1   110.2600474 425.931200
  19261  19257  19262     1   108.4600466 328.025600
  19262  19257  19263     1   110.2600474 425.931200
  19266  19267  19269     1   109.5600471 388.275200
  19266  19280  19284     1   109.5600471 388.275200
  19266  19280  19285     1   109.5600471 388.275200
  19267  19266  19268     1   109.5600471 388.275200
  19267  19270  19274     1   109.5600471 388.275200
  19267  19279  19282     1   107.2600461 396.643200
  19268  19266  19280     1   109.5600471 388.275200
  19268  19266  19288     1   109.7800468 425.094400
  19269  19267  19270     1   109.5600471 388.275200
  19269  19267  19279     1   110.2600474 425.931200
  19270  19271  19273     1   109.5600471 388.275200
  19270  19278  19281     1   107.2600461 396.643200
  19271  19270  19274     1   109.5600471 388.275200
  19271  19272  19275     1   110.2200475 386.601600
  19271  19277  19283     1   107.2600461 396.643200
  19272  19271  19273     1   109.5600471 388.275200
  19273  19271  19277     1   110.2600474 425.931200
  19274  19270  19278     1   110.2600474 425.931200
  19275  19272  19276     1   109.5800467 425.931200
  19275  19272  19288     1   109.5800467 425.931200
  19280  19286  19287     1   107.2600461 396.643200
  19284  19280  19286     1   110.2600474 425.931200
  19284  19280  19285     1   108.4600466 328.025600
  19285  19280  19286     1   110.2600474 425.931200
  19289  19290  19292     1   109.5600471 388.275200
  19289  19303  19307     1   109.5600471 388.275200
  19289  19303  19308     1   109.5600471 388.275200
  19290  19293  19297     1   109.5600471 388.275200
  19290  19302  19305     1   107.2600461 396.643200
  19290  19289  19291     1   109.5600471 388.275200
  19291  19289  19303     1   109.5600471 388.275200
  19291  19289  19311     1   109.7800468 425.094400
  19292  19290  19293     1   109.5600471 388.275200
  19292  19290  19302     1   110.2600474 425.931200
  19293  19294  19296     1   109.5600471 388.275200
  19293  19301  19304     1   107.2600461 396.643200
  19294  19295  19298     1   110.2200475 386.601600
  19294  19300  19306     1   107.2600461 396.643200
  19294  19293  19297     1   109.5600471 388.275200
  19295  19294  19296     1   109.5600471 388.275200
  19296  19294  19300     1   110.2600474 425.931200
  19297  19293  19301     1   110.2600474 425.931200
  19298  19295  19299     1   109.5800467 425.931200
  19298  19295  19311     1   109.5800467 425.931200
  19303  19309  19310     1   107.2600461 396.643200
  19307  19303  19309     1   110.2600474 425.931200
  19307  19303  19308     1   108.4600466 328.025600
  19308  19303  19309     1   110.2600474 425.931200
  19312  19313  19315     1   109.5600471 388.275200
  19312  19326  19330     1   109.5600471 388.275200
  19312  19326  19331     1   109.5600471 388.275200
  19313  19312  19314     1   109.5600471 388.275200
  19313  19316  19320     1   109.5600471 388.275200
  19313  19325  19328     1   107.2600461 396.643200
  19314  19312  19326     1   109.5600471 388.275200
  19314  19312  19334     1   109.7800468 425.094400
  19315  19313  19316     1   109.5600471 388.275200
  19315  19313  19325     1   110.2600474 425.931200
  19316  19317  19319     1   109.5600471 388.275200
  19316  19324  19327     1   107.2600461 396.643200
  19317  19316  19320     1   109.5600471 388.275200
  19317  19318  19321     1   110.2200475 386.601600
  19317  19323  19329     1   107.2600461 396.643200
  19318  19317  19319     1   109.5600471 388.275200
  19319  19317  19323     1   110.2600474 425.931200
  19320  19316  19324     1   110.2600474 425.931200
  19321  19318  19322     1   109.5800467 425.931200
  19321  19318  19334     1   109.5800467 425.931200
  19326  19332  19333     1   107.2600461 396.643200
  19330  19326  19332     1   110.2600474 425.931200
  19330  19326  19331     1   108.4600466 328.025600
  19331  19326  19332     1   110.2600474 425.931200
  19335  19336  19338     1   109.5600471 388.275200
  19335  19349  19353     1   109.5600471 388.275200
  19335  19349  19354     1   109.5600471 388.275200
  19336  19339  19343     1   109.5600471 388.275200
  19336  19348  19351     1   107.2600461 396.643200
  19336  19335  19337     1   109.5600471 388.275200
  19337  19335  19349     1   109.5600471 388.275200
  19337  19335  19357     1   109.7800468 425.094400
  19338  19336  19339     1   109.5600471 388.275200
  19338  19336  19348     1   110.2600474 425.931200
  19339  19340  19342     1   109.5600471 388.275200
  19339  19347  19350     1   107.2600461 396.643200
  19340  19341  19344     1   110.2200475 386.601600
  19340  19346  19352     1   107.2600461 396.643200
  19340  19339  19343     1   109.5600471 388.275200
  19341  19340  19342     1   109.5600471 388.275200
  19342  19340  19346     1   110.2600474 425.931200
  19343  19339  19347     1   110.2600474 425.931200
  19344  19341  19345     1   109.5800467 425.931200
  19344  19341  19357     1   109.5800467 425.931200
  19349  19355  19356     1   107.2600461 396.643200
  19353  19349  19355     1   110.2600474 425.931200
  19353  19349  19354     1   108.4600466 328.025600
  19354  19349  19355     1   110.2600474 425.931200
  19358  19359  19361     1   109.5600471 388.275200
  19358  19372  19376     1   109.5600471 388.275200
  19358  19372  19377     1   109.5600471 388.275200
  19359  19358  19360     1   109.5600471 388.275200
  19359  19362  19366     1   109.5600471 388.275200
  19359  19371  19374     1   107.2600461 396.643200
  19360  19358  19372     1   109.5600471 388.275200
  19360  19358  19380     1   109.7800468 425.094400
  19361  19359  19362     1   109.5600471 388.275200
  19361  19359  19371     1   110.2600474 425.931200
  19362  19363  19365     1   109.5600471 388.275200
  19362  19370  19373     1   107.2600461 396.643200
  19363  19362  19366     1   109.5600471 388.275200
  19363  19364  19367     1   110.2200475 386.601600
  19363  19369  19375     1   107.2600461 396.643200
  19364  19363  19365     1   109.5600471 388.275200
  19365  19363  19369     1   110.2600474 425.931200
  19366  19362  19370     1   110.2600474 425.931200
  19367  19364  19368     1   109.5800467 425.931200
  19367  19364  19380     1   109.5800467 425.931200
  19372  19378  19379     1   107.2600461 396.643200
  19376  19372  19378     1   110.2600474 425.931200
  19376  19372  19377     1   108.4600466 328.025600
  19377  19372  19378     1   110.2600474 425.931200
  19381  19382  19384     1   109.5600471 388.275200
  19381  19395  19399     1   109.5600471 388.275200
  19381  19395  19400     1   109.5600471 388.275200
  19382  19385  19389     1   109.5600471 388.275200
  19382  19394  19397     1   107.2600461 396.643200
  19382  19381  19383     1   109.5600471 388.275200
  19383  19381  19395     1   109.5600471 388.275200
  19383  19381  19403     1   109.7800468 425.094400
  19384  19382  19385     1   109.5600471 388.275200
  19384  19382  19394     1   110.2600474 425.931200
  19385  19386  19388     1   109.5600471 388.275200
  19385  19393  19396     1   107.2600461 396.643200
  19386  19387  19390     1   110.2200475 386.601600
  19386  19392  19398     1   107.2600461 396.643200
  19386  19385  19389     1   109.5600471 388.275200
  19387  19386  19388     1   109.5600471 388.275200
  19388  19386  19392     1   110.2600474 425.931200
  19389  19385  19393     1   110.2600474 425.931200
  19390  19387  19391     1   109.5800467 425.931200
  19390  19387  19403     1   109.5800467 425.931200
  19395  19401  19402     1   107.2600461 396.643200
  19399  19395  19401     1   110.2600474 425.931200
  19399  19395  19400     1   108.4600466 328.025600
  19400  19395  19401     1   110.2600474 425.931200
  19404  19405  19407     1   109.5600471 388.275200
  19404  19418  19422     1   109.5600471 388.275200
  19404  19418  19423     1   109.5600471 388.275200
  19405  19404  19406     1   109.5600471 388.275200
  19405  19408  19412     1   109.5600471 388.275200
  19405  19417  19420     1   107.2600461 396.643200
  19406  19404  19418     1   109.5600471 388.275200
  19406  19404  19426     1   109.7800468 425.094400
  19407  19405  19408     1   109.5600471 388.275200
  19407  19405  19417     1   110.2600474 425.931200
  19408  19409  19411     1   109.5600471 388.275200
  19408  19416  19419     1   107.2600461 396.643200
  19409  19408  19412     1   109.5600471 388.275200
  19409  19410  19413     1   110.2200475 386.601600
  19409  19415  19421     1   107.2600461 396.643200
  19410  19409  19411     1   109.5600471 388.275200
  19411  19409  19415     1   110.2600474 425.931200
  19412  19408  19416     1   110.2600474 425.931200
  19413  19410  19414     1   109.5800467 425.931200
  19413  19410  19426     1   109.5800467 425.931200
  19418  19424  19425     1   107.2600461 396.643200
  19422  19418  19424     1   110.2600474 425.931200
  19422  19418  19423     1   108.4600466 328.025600
  19423  19418  19424     1   110.2600474 425.931200
  19427  19428  19430     1   109.5600471 388.275200
  19427  19441  19445     1   109.5600471 388.275200
  19427  19441  19446     1   109.5600471 388.275200
  19428  19431  19435     1   109.5600471 388.275200
  19428  19440  19443     1   107.2600461 396.643200
  19428  19427  19429     1   109.5600471 388.275200
  19429  19427  19441     1   109.5600471 388.275200
  19429  19427  19449     1   109.7800468 425.094400
  19430  19428  19431     1   109.5600471 388.275200
  19430  19428  19440     1   110.2600474 425.931200
  19431  19432  19434     1   109.5600471 388.275200
  19431  19439  19442     1   107.2600461 396.643200
  19432  19433  19436     1   110.2200475 386.601600
  19432  19438  19444     1   107.2600461 396.643200
  19432  19431  19435     1   109.5600471 388.275200
  19433  19432  19434     1   109.5600471 388.275200
  19434  19432  19438     1   110.2600474 425.931200
  19435  19431  19439     1   110.2600474 425.931200
  19436  19433  19437     1   109.5800467 425.931200
  19436  19433  19449     1   109.5800467 425.931200
  19441  19447  19448     1   107.2600461 396.643200
  19445  19441  19447     1   110.2600474 425.931200
  19445  19441  19446     1   108.4600466 328.025600
  19446  19441  19447     1   110.2600474 425.931200
  19450  19451  19453     1   109.5600471 388.275200
  19450  19464  19468     1   109.5600471 388.275200
  19450  19464  19469     1   109.5600471 388.275200
  19451  19450  19452     1   109.5600471 388.275200
  19451  19454  19458     1   109.5600471 388.275200
  19451  19463  19466     1   107.2600461 396.643200
  19452  19450  19464     1   109.5600471 388.275200
  19452  19450  19472     1   109.7800468 425.094400
  19453  19451  19454     1   109.5600471 388.275200
  19453  19451  19463     1   110.2600474 425.931200
  19454  19455  19457     1   109.5600471 388.275200
  19454  19462  19465     1   107.2600461 396.643200
  19455  19454  19458     1   109.5600471 388.275200
  19455  19456  19459     1   110.2200475 386.601600
  19455  19461  19467     1   107.2600461 396.643200
  19456  19455  19457     1   109.5600471 388.275200
  19457  19455  19461     1   110.2600474 425.931200
  19458  19454  19462     1   110.2600474 425.931200
  19459  19456  19460     1   109.5800467 425.931200
  19459  19456  19472     1   109.5800467 425.931200
  19464  19470  19471     1   107.2600461 396.643200
  19468  19464  19470     1   110.2600474 425.931200
  19468  19464  19469     1   108.4600466 328.025600
  19469  19464  19470     1   110.2600474 425.931200
  19473  19474  19476     1   109.5600471 388.275200
  19473  19487  19491     1   109.5600471 388.275200
  19473  19487  19492     1   109.5600471 388.275200
  19474  19477  19481     1   109.5600471 388.275200
  19474  19486  19489     1   107.2600461 396.643200
  19474  19473  19475     1   109.5600471 388.275200
  19475  19473  19487     1   109.5600471 388.275200
  19475  19473  19495     1   109.7800468 425.094400
  19476  19474  19477     1   109.5600471 388.275200
  19476  19474  19486     1   110.2600474 425.931200
  19477  19478  19480     1   109.5600471 388.275200
  19477  19485  19488     1   107.2600461 396.643200
  19478  19479  19482     1   110.2200475 386.601600
  19478  19484  19490     1   107.2600461 396.643200
  19478  19477  19481     1   109.5600471 388.275200
  19479  19478  19480     1   109.5600471 388.275200
  19480  19478  19484     1   110.2600474 425.931200
  19481  19477  19485     1   110.2600474 425.931200
  19482  19479  19483     1   109.5800467 425.931200
  19482  19479  19495     1   109.5800467 425.931200
  19487  19493  19494     1   107.2600461 396.643200
  19491  19487  19493     1   110.2600474 425.931200
  19491  19487  19492     1   108.4600466 328.025600
  19492  19487  19493     1   110.2600474 425.931200
  19496  19497  19499     1   109.5600471 388.275200
  19496  19510  19514     1   109.5600471 388.275200
  19496  19510  19515     1   109.5600471 388.275200
  19497  19496  19498     1   109.5600471 388.275200
  19497  19500  19504     1   109.5600471 388.275200
  19497  19509  19512     1   107.2600461 396.643200
  19498  19496  19510     1   109.5600471 388.275200
  19498  19496  19518     1   109.7800468 425.094400
  19499  19497  19500     1   109.5600471 388.275200
  19499  19497  19509     1   110.2600474 425.931200
  19500  19501  19503     1   109.5600471 388.275200
  19500  19508  19511     1   107.2600461 396.643200
  19501  19500  19504     1   109.5600471 388.275200
  19501  19502  19505     1   110.2200475 386.601600
  19501  19507  19513     1   107.2600461 396.643200
  19502  19501  19503     1   109.5600471 388.275200
  19503  19501  19507     1   110.2600474 425.931200
  19504  19500  19508     1   110.2600474 425.931200
  19505  19502  19506     1   109.5800467 425.931200
  19505  19502  19518     1   109.5800467 425.931200
  19510  19516  19517     1   107.2600461 396.643200
  19514  19510  19516     1   110.2600474 425.931200
  19514  19510  19515     1   108.4600466 328.025600
  19515  19510  19516     1   110.2600474 425.931200
  19519  19520  19522     1   109.5600471 388.275200
  19519  19533  19537     1   109.5600471 388.275200
  19519  19533  19538     1   109.5600471 388.275200
  19520  19523  19527     1   109.5600471 388.275200
  19520  19532  19535     1   107.2600461 396.643200
  19520  19519  19521     1   109.5600471 388.275200
  19521  19519  19533     1   109.5600471 388.275200
  19521  19519  19541     1   109.7800468 425.094400
  19522  19520  19523     1   109.5600471 388.275200
  19522  19520  19532     1   110.2600474 425.931200
  19523  19524  19526     1   109.5600471 388.275200
  19523  19531  19534     1   107.2600461 396.643200
  19524  19525  19528     1   110.2200475 386.601600
  19524  19530  19536     1   107.2600461 396.643200
  19524  19523  19527     1   109.5600471 388.275200
  19525  19524  19526     1   109.5600471 388.275200
  19526  19524  19530     1   110.2600474 425.931200
  19527  19523  19531     1   110.2600474 425.931200
  19528  19525  19529     1   109.5800467 425.931200
  19528  19525  19541     1   109.5800467 425.931200
  19533  19539  19540     1   107.2600461 396.643200
  19537  19533  19539     1   110.2600474 425.931200
  19537  19533  19538     1   108.4600466 328.025600
  19538  19533  19539     1   110.2600474 425.931200
  19542  19543  19545     1   109.5600471 388.275200
  19542  19556  19560     1   109.5600471 388.275200
  19542  19556  19561     1   109.5600471 388.275200
  19543  19542  19544     1   109.5600471 388.275200
  19543  19546  19550     1   109.5600471 388.275200
  19543  19555  19558     1   107.2600461 396.643200
  19544  19542  19556     1   109.5600471 388.275200
  19544  19542  19564     1   109.7800468 425.094400
  19545  19543  19546     1   109.5600471 388.275200
  19545  19543  19555     1   110.2600474 425.931200
  19546  19547  19549     1   109.5600471 388.275200
  19546  19554  19557     1   107.2600461 396.643200
  19547  19546  19550     1   109.5600471 388.275200
  19547  19548  19551     1   110.2200475 386.601600
  19547  19553  19559     1   107.2600461 396.643200
  19548  19547  19549     1   109.5600471 388.275200
  19549  19547  19553     1   110.2600474 425.931200
  19550  19546  19554     1   110.2600474 425.931200
  19551  19548  19552     1   109.5800467 425.931200
  19551  19548  19564     1   109.5800467 425.931200
  19556  19562  19563     1   107.2600461 396.643200
  19560  19556  19562     1   110.2600474 425.931200
  19560  19556  19561     1   108.4600466 328.025600
  19561  19556  19562     1   110.2600474 425.931200
  19565  19566  19568     1   109.5600471 388.275200
  19565  19579  19583     1   109.5600471 388.275200
  19565  19579  19584     1   109.5600471 388.275200
  19566  19569  19573     1   109.5600471 388.275200
  19566  19578  19581     1   107.2600461 396.643200
  19566  19565  19567     1   109.5600471 388.275200
  19567  19565  19579     1   109.5600471 388.275200
  19567  19565  19587     1   109.7800468 425.094400
  19568  19566  19569     1   109.5600471 388.275200
  19568  19566  19578     1   110.2600474 425.931200
  19569  19570  19572     1   109.5600471 388.275200
  19569  19577  19580     1   107.2600461 396.643200
  19570  19571  19574     1   110.2200475 386.601600
  19570  19576  19582     1   107.2600461 396.643200
  19570  19569  19573     1   109.5600471 388.275200
  19571  19570  19572     1   109.5600471 388.275200
  19572  19570  19576     1   110.2600474 425.931200
  19573  19569  19577     1   110.2600474 425.931200
  19574  19571  19575     1   109.5800467 425.931200
  19574  19571  19587     1   109.5800467 425.931200
  19579  19585  19586     1   107.2600461 396.643200
  19583  19579  19585     1   110.2600474 425.931200
  19583  19579  19584     1   108.4600466 328.025600
  19584  19579  19585     1   110.2600474 425.931200
  19588  19589  19591     1   109.5600471 388.275200
  19588  19602  19606     1   109.5600471 388.275200
  19588  19602  19607     1   109.5600471 388.275200
  19589  19588  19590     1   109.5600471 388.275200
  19589  19592  19596     1   109.5600471 388.275200
  19589  19601  19604     1   107.2600461 396.643200
  19590  19588  19602     1   109.5600471 388.275200
  19590  19588  19610     1   109.7800468 425.094400
  19591  19589  19592     1   109.5600471 388.275200
  19591  19589  19601     1   110.2600474 425.931200
  19592  19593  19595     1   109.5600471 388.275200
  19592  19600  19603     1   107.2600461 396.643200
  19593  19592  19596     1   109.5600471 388.275200
  19593  19594  19597     1   110.2200475 386.601600
  19593  19599  19605     1   107.2600461 396.643200
  19594  19593  19595     1   109.5600471 388.275200
  19595  19593  19599     1   110.2600474 425.931200
  19596  19592  19600     1   110.2600474 425.931200
  19597  19594  19598     1   109.5800467 425.931200
  19597  19594  19610     1   109.5800467 425.931200
  19602  19608  19609     1   107.2600461 396.643200
  19606  19602  19608     1   110.2600474 425.931200
  19606  19602  19607     1   108.4600466 328.025600
  19607  19602  19608     1   110.2600474 425.931200
  19611  19612  19614     1   109.5600471 388.275200
  19611  19625  19629     1   109.5600471 388.275200
  19611  19625  19630     1   109.5600471 388.275200
  19612  19615  19619     1   109.5600471 388.275200
  19612  19624  19627     1   107.2600461 396.643200
  19612  19611  19613     1   109.5600471 388.275200
  19613  19611  19625     1   109.5600471 388.275200
  19613  19611  19633     1   109.7800468 425.094400
  19614  19612  19615     1   109.5600471 388.275200
  19614  19612  19624     1   110.2600474 425.931200
  19615  19616  19618     1   109.5600471 388.275200
  19615  19623  19626     1   107.2600461 396.643200
  19616  19617  19620     1   110.2200475 386.601600
  19616  19622  19628     1   107.2600461 396.643200
  19616  19615  19619     1   109.5600471 388.275200
  19617  19616  19618     1   109.5600471 388.275200
  19618  19616  19622     1   110.2600474 425.931200
  19619  19615  19623     1   110.2600474 425.931200
  19620  19617  19621     1   109.5800467 425.931200
  19620  19617  19633     1   109.5800467 425.931200
  19625  19631  19632     1   107.2600461 396.643200
  19629  19625  19631     1   110.2600474 425.931200
  19629  19625  19630     1   108.4600466 328.025600
  19630  19625  19631     1   110.2600474 425.931200
  19634  19635  19637     1   109.5600471 388.275200
  19634  19648  19652     1   109.5600471 388.275200
  19634  19648  19653     1   109.5600471 388.275200
  19635  19634  19636     1   109.5600471 388.275200
  19635  19638  19642     1   109.5600471 388.275200
  19635  19647  19650     1   107.2600461 396.643200
  19636  19634  19648     1   109.5600471 388.275200
  19636  19634  19656     1   109.7800468 425.094400
  19637  19635  19638     1   109.5600471 388.275200
  19637  19635  19647     1   110.2600474 425.931200
  19638  19639  19641     1   109.5600471 388.275200
  19638  19646  19649     1   107.2600461 396.643200
  19639  19638  19642     1   109.5600471 388.275200
  19639  19640  19643     1   110.2200475 386.601600
  19639  19645  19651     1   107.2600461 396.643200
  19640  19639  19641     1   109.5600471 388.275200
  19641  19639  19645     1   110.2600474 425.931200
  19642  19638  19646     1   110.2600474 425.931200
  19643  19640  19644     1   109.5800467 425.931200
  19643  19640  19656     1   109.5800467 425.931200
  19648  19654  19655     1   107.2600461 396.643200
  19652  19648  19654     1   110.2600474 425.931200
  19652  19648  19653     1   108.4600466 328.025600
  19653  19648  19654     1   110.2600474 425.931200
  19657  19658  19660     1   109.5600471 388.275200
  19657  19671  19675     1   109.5600471 388.275200
  19657  19671  19676     1   109.5600471 388.275200
  19658  19661  19665     1   109.5600471 388.275200
  19658  19670  19673     1   107.2600461 396.643200
  19658  19657  19659     1   109.5600471 388.275200
  19659  19657  19671     1   109.5600471 388.275200
  19659  19657  19679     1   109.7800468 425.094400
  19660  19658  19661     1   109.5600471 388.275200
  19660  19658  19670     1   110.2600474 425.931200
  19661  19662  19664     1   109.5600471 388.275200
  19661  19669  19672     1   107.2600461 396.643200
  19662  19663  19666     1   110.2200475 386.601600
  19662  19668  19674     1   107.2600461 396.643200
  19662  19661  19665     1   109.5600471 388.275200
  19663  19662  19664     1   109.5600471 388.275200
  19664  19662  19668     1   110.2600474 425.931200
  19665  19661  19669     1   110.2600474 425.931200
  19666  19663  19667     1   109.5800467 425.931200
  19666  19663  19679     1   109.5800467 425.931200
  19671  19677  19678     1   107.2600461 396.643200
  19675  19671  19677     1   110.2600474 425.931200
  19675  19671  19676     1   108.4600466 328.025600
  19676  19671  19677     1   110.2600474 425.931200
  19680  19681  19683     1   109.5600471 388.275200
  19680  19694  19698     1   109.5600471 388.275200
  19680  19694  19699     1   109.5600471 388.275200
  19681  19680  19682     1   109.5600471 388.275200
  19681  19684  19688     1   109.5600471 388.275200
  19681  19693  19696     1   107.2600461 396.643200
  19682  19680  19694     1   109.5600471 388.275200
  19682  19680  19702     1   109.7800468 425.094400
  19683  19681  19684     1   109.5600471 388.275200
  19683  19681  19693     1   110.2600474 425.931200
  19684  19685  19687     1   109.5600471 388.275200
  19684  19692  19695     1   107.2600461 396.643200
  19685  19684  19688     1   109.5600471 388.275200
  19685  19686  19689     1   110.2200475 386.601600
  19685  19691  19697     1   107.2600461 396.643200
  19686  19685  19687     1   109.5600471 388.275200
  19687  19685  19691     1   110.2600474 425.931200
  19688  19684  19692     1   110.2600474 425.931200
  19689  19686  19690     1   109.5800467 425.931200
  19689  19686  19702     1   109.5800467 425.931200
  19694  19700  19701     1   107.2600461 396.643200
  19698  19694  19700     1   110.2600474 425.931200
  19698  19694  19699     1   108.4600466 328.025600
  19699  19694  19700     1   110.2600474 425.931200
  19703  19704  19706     1   109.5600471 388.275200
  19703  19717  19721     1   109.5600471 388.275200
  19703  19717  19722     1   109.5600471 388.275200
  19704  19707  19711     1   109.5600471 388.275200
  19704  19716  19719     1   107.2600461 396.643200
  19704  19703  19705     1   109.5600471 388.275200
  19705  19703  19717     1   109.5600471 388.275200
  19705  19703  19725     1   109.7800468 425.094400
  19706  19704  19707     1   109.5600471 388.275200
  19706  19704  19716     1   110.2600474 425.931200
  19707  19708  19710     1   109.5600471 388.275200
  19707  19715  19718     1   107.2600461 396.643200
  19708  19709  19712     1   110.2200475 386.601600
  19708  19714  19720     1   107.2600461 396.643200
  19708  19707  19711     1   109.5600471 388.275200
  19709  19708  19710     1   109.5600471 388.275200
  19710  19708  19714     1   110.2600474 425.931200
  19711  19707  19715     1   110.2600474 425.931200
  19712  19709  19713     1   109.5800467 425.931200
  19712  19709  19725     1   109.5800467 425.931200
  19717  19723  19724     1   107.2600461 396.643200
  19721  19717  19723     1   110.2600474 425.931200
  19721  19717  19722     1   108.4600466 328.025600
  19722  19717  19723     1   110.2600474 425.931200
  19726  19727  19729     1   109.5600471 388.275200
  19726  19740  19744     1   109.5600471 388.275200
  19726  19740  19745     1   109.5600471 388.275200
  19727  19726  19728     1   109.5600471 388.275200
  19727  19730  19734     1   109.5600471 388.275200
  19727  19739  19742     1   107.2600461 396.643200
  19728  19726  19740     1   109.5600471 388.275200
  19728  19726  19748     1   109.7800468 425.094400
  19729  19727  19730     1   109.5600471 388.275200
  19729  19727  19739     1   110.2600474 425.931200
  19730  19731  19733     1   109.5600471 388.275200
  19730  19738  19741     1   107.2600461 396.643200
  19731  19730  19734     1   109.5600471 388.275200
  19731  19732  19735     1   110.2200475 386.601600
  19731  19737  19743     1   107.2600461 396.643200
  19732  19731  19733     1   109.5600471 388.275200
  19733  19731  19737     1   110.2600474 425.931200
  19734  19730  19738     1   110.2600474 425.931200
  19735  19732  19736     1   109.5800467 425.931200
  19735  19732  19748     1   109.5800467 425.931200
  19740  19746  19747     1   107.2600461 396.643200
  19744  19740  19746     1   110.2600474 425.931200
  19744  19740  19745     1   108.4600466 328.025600
  19745  19740  19746     1   110.2600474 425.931200
  19749  19750  19752     1   109.5600471 388.275200
  19749  19763  19767     1   109.5600471 388.275200
  19749  19763  19768     1   109.5600471 388.275200
  19750  19753  19757     1   109.5600471 388.275200
  19750  19762  19765     1   107.2600461 396.643200
  19750  19749  19751     1   109.5600471 388.275200
  19751  19749  19763     1   109.5600471 388.275200
  19751  19749  19771     1   109.7800468 425.094400
  19752  19750  19753     1   109.5600471 388.275200
  19752  19750  19762     1   110.2600474 425.931200
  19753  19754  19756     1   109.5600471 388.275200
  19753  19761  19764     1   107.2600461 396.643200
  19754  19755  19758     1   110.2200475 386.601600
  19754  19760  19766     1   107.2600461 396.643200
  19754  19753  19757     1   109.5600471 388.275200
  19755  19754  19756     1   109.5600471 388.275200
  19756  19754  19760     1   110.2600474 425.931200
  19757  19753  19761     1   110.2600474 425.931200
  19758  19755  19759     1   109.5800467 425.931200
  19758  19755  19771     1   109.5800467 425.931200
  19763  19769  19770     1   107.2600461 396.643200
  19767  19763  19769     1   110.2600474 425.931200
  19767  19763  19768     1   108.4600466 328.025600
  19768  19763  19769     1   110.2600474 425.931200
  19772  19773  19775     1   109.5600471 388.275200
  19772  19786  19790     1   109.5600471 388.275200
  19772  19786  19791     1   109.5600471 388.275200
  19773  19772  19774     1   109.5600471 388.275200
  19773  19776  19780     1   109.5600471 388.275200
  19773  19785  19788     1   107.2600461 396.643200
  19774  19772  19786     1   109.5600471 388.275200
  19774  19772  19794     1   109.7800468 425.094400
  19775  19773  19776     1   109.5600471 388.275200
  19775  19773  19785     1   110.2600474 425.931200
  19776  19777  19779     1   109.5600471 388.275200
  19776  19784  19787     1   107.2600461 396.643200
  19777  19776  19780     1   109.5600471 388.275200
  19777  19778  19781     1   110.2200475 386.601600
  19777  19783  19789     1   107.2600461 396.643200
  19778  19777  19779     1   109.5600471 388.275200
  19779  19777  19783     1   110.2600474 425.931200
  19780  19776  19784     1   110.2600474 425.931200
  19781  19778  19782     1   109.5800467 425.931200
  19781  19778  19794     1   109.5800467 425.931200
  19786  19792  19793     1   107.2600461 396.643200
  19790  19786  19792     1   110.2600474 425.931200
  19790  19786  19791     1   108.4600466 328.025600
  19791  19786  19792     1   110.2600474 425.931200
  19795  19796  19798     1   109.5600471 388.275200
  19795  19809  19813     1   109.5600471 388.275200
  19795  19809  19814     1   109.5600471 388.275200
  19796  19799  19803     1   109.5600471 388.275200
  19796  19808  19811     1   107.2600461 396.643200
  19796  19795  19797     1   109.5600471 388.275200
  19797  19795  19809     1   109.5600471 388.275200
  19797  19795  19817     1   109.7800468 425.094400
  19798  19796  19799     1   109.5600471 388.275200
  19798  19796  19808     1   110.2600474 425.931200
  19799  19800  19802     1   109.5600471 388.275200
  19799  19807  19810     1   107.2600461 396.643200
  19800  19801  19804     1   110.2200475 386.601600
  19800  19806  19812     1   107.2600461 396.643200
  19800  19799  19803     1   109.5600471 388.275200
  19801  19800  19802     1   109.5600471 388.275200
  19802  19800  19806     1   110.2600474 425.931200
  19803  19799  19807     1   110.2600474 425.931200
  19804  19801  19805     1   109.5800467 425.931200
  19804  19801  19817     1   109.5800467 425.931200
  19809  19815  19816     1   107.2600461 396.643200
  19813  19809  19815     1   110.2600474 425.931200
  19813  19809  19814     1   108.4600466 328.025600
  19814  19809  19815     1   110.2600474 425.931200
  19818  19819  19821     1   109.5600471 388.275200
  19818  19832  19836     1   109.5600471 388.275200
  19818  19832  19837     1   109.5600471 388.275200
  19819  19818  19820     1   109.5600471 388.275200
  19819  19822  19826     1   109.5600471 388.275200
  19819  19831  19834     1   107.2600461 396.643200
  19820  19818  19832     1   109.5600471 388.275200
  19820  19818  19840     1   109.7800468 425.094400
  19821  19819  19822     1   109.5600471 388.275200
  19821  19819  19831     1   110.2600474 425.931200
  19822  19823  19825     1   109.5600471 388.275200
  19822  19830  19833     1   107.2600461 396.643200
  19823  19822  19826     1   109.5600471 388.275200
  19823  19824  19827     1   110.2200475 386.601600
  19823  19829  19835     1   107.2600461 396.643200
  19824  19823  19825     1   109.5600471 388.275200
  19825  19823  19829     1   110.2600474 425.931200
  19826  19822  19830     1   110.2600474 425.931200
  19827  19824  19828     1   109.5800467 425.931200
  19827  19824  19840     1   109.5800467 425.931200
  19832  19838  19839     1   107.2600461 396.643200
  19836  19832  19838     1   110.2600474 425.931200
  19836  19832  19837     1   108.4600466 328.025600
  19837  19832  19838     1   110.2600474 425.931200
  19841  19842  19844     1   109.5600471 388.275200
  19841  19855  19859     1   109.5600471 388.275200
  19841  19855  19860     1   109.5600471 388.275200
  19842  19845  19849     1   109.5600471 388.275200
  19842  19854  19857     1   107.2600461 396.643200
  19842  19841  19843     1   109.5600471 388.275200
  19843  19841  19855     1   109.5600471 388.275200
  19843  19841  19863     1   109.7800468 425.094400
  19844  19842  19845     1   109.5600471 388.275200
  19844  19842  19854     1   110.2600474 425.931200
  19845  19846  19848     1   109.5600471 388.275200
  19845  19853  19856     1   107.2600461 396.643200
  19846  19847  19850     1   110.2200475 386.601600
  19846  19852  19858     1   107.2600461 396.643200
  19846  19845  19849     1   109.5600471 388.275200
  19847  19846  19848     1   109.5600471 388.275200
  19848  19846  19852     1   110.2600474 425.931200
  19849  19845  19853     1   110.2600474 425.931200
  19850  19847  19851     1   109.5800467 425.931200
  19850  19847  19863     1   109.5800467 425.931200
  19855  19861  19862     1   107.2600461 396.643200
  19859  19855  19861     1   110.2600474 425.931200
  19859  19855  19860     1   108.4600466 328.025600
  19860  19855  19861     1   110.2600474 425.931200
  19864  19865  19867     1   109.5600471 388.275200
  19864  19878  19882     1   109.5600471 388.275200
  19864  19878  19883     1   109.5600471 388.275200
  19865  19864  19866     1   109.5600471 388.275200
  19865  19868  19872     1   109.5600471 388.275200
  19865  19877  19880     1   107.2600461 396.643200
  19866  19864  19878     1   109.5600471 388.275200
  19866  19864  19886     1   109.7800468 425.094400
  19867  19865  19868     1   109.5600471 388.275200
  19867  19865  19877     1   110.2600474 425.931200
  19868  19869  19871     1   109.5600471 388.275200
  19868  19876  19879     1   107.2600461 396.643200
  19869  19868  19872     1   109.5600471 388.275200
  19869  19870  19873     1   110.2200475 386.601600
  19869  19875  19881     1   107.2600461 396.643200
  19870  19869  19871     1   109.5600471 388.275200
  19871  19869  19875     1   110.2600474 425.931200
  19872  19868  19876     1   110.2600474 425.931200
  19873  19870  19874     1   109.5800467 425.931200
  19873  19870  19886     1   109.5800467 425.931200
  19878  19884  19885     1   107.2600461 396.643200
  19882  19878  19884     1   110.2600474 425.931200
  19882  19878  19883     1   108.4600466 328.025600
  19883  19878  19884     1   110.2600474 425.931200
  19887  19888  19890     1   109.5600471 388.275200
  19887  19901  19905     1   109.5600471 388.275200
  19887  19901  19906     1   109.5600471 388.275200
  19888  19891  19895     1   109.5600471 388.275200
  19888  19900  19903     1   107.2600461 396.643200
  19888  19887  19889     1   109.5600471 388.275200
  19889  19887  19901     1   109.5600471 388.275200
  19889  19887  19909     1   109.7800468 425.094400
  19890  19888  19891     1   109.5600471 388.275200
  19890  19888  19900     1   110.2600474 425.931200
  19891  19892  19894     1   109.5600471 388.275200
  19891  19899  19902     1   107.2600461 396.643200
  19892  19893  19896     1   110.2200475 386.601600
  19892  19898  19904     1   107.2600461 396.643200
  19892  19891  19895     1   109.5600471 388.275200
  19893  19892  19894     1   109.5600471 388.275200
  19894  19892  19898     1   110.2600474 425.931200
  19895  19891  19899     1   110.2600474 425.931200
  19896  19893  19897     1   109.5800467 425.931200
  19896  19893  19909     1   109.5800467 425.931200
  19901  19907  19908     1   107.2600461 396.643200
  19905  19901  19907     1   110.2600474 425.931200
  19905  19901  19906     1   108.4600466 328.025600
  19906  19901  19907     1   110.2600474 425.931200

[ dihedrals ]
;    ai     aj     ak     al funct         c0         c1         c2         c3         c4         c5
      1      2     14     26     1  0.0000000  0.6508444  3
      1      5     17     20     1  0.0000000  0.6508444  3
      1      8     11     23     1  0.0000000  0.6508444  3
      2      1      5     17     1  180.0000771  2.0083200  2
      2      1      5     17     1  0.0000000  1.2552000  3
      2      1      8     11     1  180.0000771  2.0083200  2
      2      1      8     11     1  0.0000000  1.2552000  3
      2     14     26    115     1  0.0000000  0.6508444  3
      5      1      2     14     1  180.0000771  2.0083200  2
      5      1      2     14     1  0.0000000  1.2552000  3
      5      1      8     11     1  180.0000771  2.0083200  2
      5      1      8     11     1  0.0000000  1.2552000  3
      5     17     20     57     1  0.0000000  0.6508444  3
      8      1      2     14     1  180.0000771  2.0083200  2
      8      1      2     14     1  0.0000000  1.2552000  3
      8      1      5     17     1  180.0000771  2.0083200  2
      8      1      5     17     1  0.0000000  1.2552000  3
      8     11     23     86     1  0.0000000  0.6508444  3
     11     23     86     77     1  180.0000771  0.4184000  2
     11     23     86     77     1  0.0000000  1.6024720  3
     14     26    115    106     1  180.0000771  0.4184000  2
     14     26    115    106     1  0.0000000  1.6024720  3
     17     20     57     48     1  180.0000771  0.4184000  2
     17     20     57     48     1  0.0000000  1.6024720  3
     20     57     48     39     1  180.0000771  0.4184000  2
     20     57     48     39     1  0.0000000  1.6024720  3
     23     86     77     68     1  180.0000771  0.4184000  2
     23     86     77     68     1  0.0000000  1.6024720  3
     26    115    106     97     1  180.0000771  0.4184000  2
     26    115    106     97     1  0.0000000  1.6024720  3
     29     30     42     54     1  0.0000000  0.6508444  3
     29     33     45     51     1  0.0000000  0.6508444  3
     29     36     39     48     1  0.0000000  0.6508444  3
     30     29     33     45     1  180.0000771  2.0083200  2
     30     29     33     45     1  0.0000000  1.2552000  3
     30     29     36     39     1  180.0000771  2.0083200  2
     30     29     36     39     1  0.0000000  1.2552000  3
     30     42     54    173     1  0.0000000  0.6508444  3
     33     29     30     42     1  180.0000771  2.0083200  2
     33     29     30     42     1  0.0000000  1.2552000  3
     33     29     36     39     1  180.0000771  2.0083200  2
     33     29     36     39     1  0.0000000  1.2552000  3
     33     45     51    144     1  0.0000000  0.6508444  3
     36     29     30     42     1  180.0000771  2.0083200  2
     36     29     30     42     1  0.0000000  1.2552000  3
     36     29     33     45     1  180.0000771  2.0083200  2
     36     29     33     45     1  0.0000000  1.2552000  3
     36     39     48     57     1  0.0000000  0.6508444  3
     42     54    173    164     1  180.0000771  0.4184000  2
     42     54    173    164     1  0.0000000  1.6024720  3
     45     51    144    135     1  180.0000771  0.4184000  2
     45     51    144    135     1  0.0000000  1.6024720  3
     51    144    135    126     1  180.0000771  0.4184000  2
     51    144    135    126     1  0.0000000  1.6024720  3
     54    173    164    155     1  180.0000771  0.4184000  2
     54    173    164    155     1  0.0000000  1.6024720  3
     58     59     71     83     1  0.0000000  0.6508444  3
     58     62     74     80     1  0.0000000  0.6508444  3
     58     65     68     77     1  0.0000000  0.6508444  3
     59     58     62     74     1  180.0000771  2.0083200  2
     59     58     62     74     1  0.0000000  1.2552000  3
     59     58     65     68     1  180.0000771  2.0083200  2
     59     58     65     68     1  0.0000000  1.2552000  3
     59     71     83    231     1  0.0000000  0.6508444  3
     62     58     59     71     1  180.0000771  2.0083200  2
     62     58     59     71     1  0.0000000  1.2552000  3
     62     58     65     68     1  180.0000771  2.0083200  2
     62     58     65     68     1  0.0000000  1.2552000  3
     62     74     80    202     1  0.0000000  0.6508444  3
     65     58     59     71     1  180.0000771  2.0083200  2
     65     58     59     71     1  0.0000000  1.2552000  3
     65     58     62     74     1  180.0000771  2.0083200  2
     65     58     62     74     1  0.0000000  1.2552000  3
     65     68     77     86     1  0.0000000  0.6508444  3
     71     83    231    222     1  180.0000771  0.4184000  2
     71     83    231    222     1  0.0000000  1.6024720  3
     74     80    202    193     1  180.0000771  0.4184000  2
     74     80    202    193     1  0.0000000  1.6024720  3
     80    202    193    184     1  180.0000771  0.4184000  2
     80    202    193    184     1  0.0000000  1.6024720  3
     83    231    222    213     1  180.0000771  0.4184000  2
     83    231    222    213     1  0.0000000  1.6024720  3
     87     88    100    112     1  0.0000000  0.6508444  3
     87     91    103    109     1  0.0000000  0.6508444  3
     87     94     97    106     1  0.0000000  0.6508444  3
     88     87     91    103     1  180.0000771  2.0083200  2
     88     87     91    103     1  0.0000000  1.2552000  3
     88     87     94     97     1  180.0000771  2.0083200  2
     88     87     94     97     1  0.0000000  1.2552000  3
     88    100    112    289     1  0.0000000  0.6508444  3
     91     87     88    100     1  180.0000771  2.0083200  2
     91     87     88    100     1  0.0000000  1.2552000  3
     91     87     94     97     1  180.0000771  2.0083200  2
     91     87     94     97     1  0.0000000  1.2552000  3
     91    103    109    260     1  0.0000000  0.6508444  3
     94     87     88    100     1  180.0000771  2.0083200  2
     94     87     88    100     1  0.0000000  1.2552000  3
     94     87     91    103     1  180.0000771  2.0083200  2
     94     87     91    103     1  0.0000000  1.2552000  3
     94     97    106    115     1  0.0000000  0.6508444  3
    100    112    289    280     1  180.0000771  0.4184000  2
    100    112    289    280     1  0.0000000  1.6024720  3
    103    109    260    251     1  180.0000771  0.4184000  2
    103    109    260    251     1  0.0000000  1.6024720  3
    109    260    251    242     1  180.0000771  0.4184000  2
    109    260    251    242     1  0.0000000  1.6024720  3
    112    289    280    271     1  180.0000771  0.4184000  2
    112    289    280    271     1  0.0000000  1.6024720  3
    116    117    129    141     1  0.0000000  0.6508444  3
    116    120    132    138     1  0.0000000  0.6508444  3
    116    123    126    135     1  0.0000000  0.6508444  3
    117    116    120    132     1  180.0000771  2.0083200  2
    117    116    120    132     1  0.0000000  1.2552000  3
    117    116    123    126     1  180.0000771  2.0083200  2
    117    116    123    126     1  0.0000000  1.2552000  3
    117    129    141    347     1  0.0000000  0.6508444  3
    120    116    117    129     1  180.0000771  2.0083200  2
    120    116    117    129     1  0.0000000  1.2552000  3
    120    116    123    126     1  180.0000771  2.0083200  2
    120    116    123    126     1  0.0000000  1.2552000  3
    120    132    138    318     1  0.0000000  0.6508444  3
    123    116    117    129     1  180.0000771  2.0083200  2
    123    116    117    129     1  0.0000000  1.2552000  3
    123    116    120    132     1  180.0000771  2.0083200  2
    123    116    120    132     1  0.0000000  1.2552000  3
    123    126    135    144     1  0.0000000  0.6508444  3
    129    141    347    338     1  180.0000771  0.4184000  2
    129    141    347    338     1  0.0000000  1.6024720  3
    132    138    318    309     1  180.0000771  0.4184000  2
    132    138    318    309     1  0.0000000  1.6024720  3
    138    318    309    300     1  180.0000771  0.4184000  2
    138    318    309    300     1  0.0000000  1.6024720  3
    141    347    338    329     1  180.0000771  0.4184000  2
    141    347    338    329     1  0.0000000  1.6024720  3
    145    146    158    170     1  0.0000000  0.6508444  3
    145    149    161    167     1  0.0000000  0.6508444  3
    145    152    155    164     1  0.0000000  0.6508444  3
    146    145    149    161     1  180.0000771  2.0083200  2
    146    145    149    161     1  0.0000000  1.2552000  3
    146    145    152    155     1  180.0000771  2.0083200  2
    146    145    152    155     1  0.0000000  1.2552000  3
    146    158    170    405     1  0.0000000  0.6508444  3
    149    145    146    158     1  180.0000771  2.0083200  2
    149    145    146    158     1  0.0000000  1.2552000  3
    149    145    152    155     1  180.0000771  2.0083200  2
    149    145    152    155     1  0.0000000  1.2552000  3
    149    161    167    376     1  0.0000000  0.6508444  3
    152    145    146    158     1  180.0000771  2.0083200  2
    152    145    146    158     1  0.0000000  1.2552000  3
    152    145    149    161     1  180.0000771  2.0083200  2
    152    145    149    161     1  0.0000000  1.2552000  3
    152    155    164    173     1  0.0000000  0.6508444  3
    158    170    405    396     1  180.0000771  0.4184000  2
    158    170    405    396     1  0.0000000  1.6024720  3
    161    167    376    367     1  180.0000771  0.4184000  2
    161    167    376    367     1  0.0000000  1.6024720  3
    167    376    367    358     1  180.0000771  0.4184000  2
    167    376    367    358     1  0.0000000  1.6024720  3
    170    405    396    387     1  180.0000771  0.4184000  2
    170    405    396    387     1  0.0000000  1.6024720  3
    174    175    187    199     1  0.0000000  0.6508444  3
    174    178    190    196     1  0.0000000  0.6508444  3
    174    181    184    193     1  0.0000000  0.6508444  3
    175    174    178    190     1  180.0000771  2.0083200  2
    175    174    178    190     1  0.0000000  1.2552000  3
    175    174    181    184     1  180.0000771  2.0083200  2
    175    174    181    184     1  0.0000000  1.2552000  3
    175    187    199    463     1  0.0000000  0.6508444  3
    178    174    175    187     1  180.0000771  2.0083200  2
    178    174    175    187     1  0.0000000  1.2552000  3
    178    174    181    184     1  180.0000771  2.0083200  2
    178    174    181    184     1  0.0000000  1.2552000  3
    178    190    196    434     1  0.0000000  0.6508444  3
    181    174    175    187     1  180.0000771  2.0083200  2
    181    174    175    187     1  0.0000000  1.2552000  3
    181    174    178    190     1  180.0000771  2.0083200  2
    181    174    178    190     1  0.0000000  1.2552000  3
    181    184    193    202     1  0.0000000  0.6508444  3
    187    199    463    454     1  180.0000771  0.4184000  2
    187    199    463    454     1  0.0000000  1.6024720  3
    190    196    434    425     1  180.0000771  0.4184000  2
    190    196    434    425     1  0.0000000  1.6024720  3
    196    434    425    416     1  180.0000771  0.4184000  2
    196    434    425    416     1  0.0000000  1.6024720  3
    199    463    454    445     1  180.0000771  0.4184000  2
    199    463    454    445     1  0.0000000  1.6024720  3
    203    204    216    228     1  0.0000000  0.6508444  3
    203    207    219    225     1  0.0000000  0.6508444  3
    203    210    213    222     1  0.0000000  0.6508444  3
    204    203    207    219     1  180.0000771  2.0083200  2
    204    203    207    219     1  0.0000000  1.2552000  3
    204    203    210    213     1  180.0000771  2.0083200  2
    204    203    210    213     1  0.0000000  1.2552000  3
    204    216    228    521     1  0.0000000  0.6508444  3
    207    203    204    216     1  180.0000771  2.0083200  2
    207    203    204    216     1  0.0000000  1.2552000  3
    207    203    210    213     1  180.0000771  2.0083200  2
    207    203    210    213     1  0.0000000  1.2552000  3
    207    219    225    492     1  0.0000000  0.6508444  3
    210    203    204    216     1  180.0000771  2.0083200  2
    210    203    204    216     1  0.0000000  1.2552000  3
    210    203    207    219     1  180.0000771  2.0083200  2
    210    203    207    219     1  0.0000000  1.2552000  3
    210    213    222    231     1  0.0000000  0.6508444  3
    216    228    521    512     1  180.0000771  0.4184000  2
    216    228    521    512     1  0.0000000  1.6024720  3
    219    225    492    483     1  180.0000771  0.4184000  2
    219    225    492    483     1  0.0000000  1.6024720  3
    225    492    483    474     1  180.0000771  0.4184000  2
    225    492    483    474     1  0.0000000  1.6024720  3
    228    521    512    503     1  180.0000771  0.4184000  2
    228    521    512    503     1  0.0000000  1.6024720  3
    232    233    245    257     1  0.0000000  0.6508444  3
    232    236    248    254     1  0.0000000  0.6508444  3
    232    239    242    251     1  0.0000000  0.6508444  3
    233    232    236    248     1  180.0000771  2.0083200  2
    233    232    236    248     1  0.0000000  1.2552000  3
    233    232    239    242     1  180.0000771  2.0083200  2
    233    232    239    242     1  0.0000000  1.2552000  3
    233    245    257    579     1  0.0000000  0.6508444  3
    236    232    233    245     1  180.0000771  2.0083200  2
    236    232    233    245     1  0.0000000  1.2552000  3
    236    232    239    242     1  180.0000771  2.0083200  2
    236    232    239    242     1  0.0000000  1.2552000  3
    236    248    254    550     1  0.0000000  0.6508444  3
    239    232    233    245     1  180.0000771  2.0083200  2
    239    232    233    245     1  0.0000000  1.2552000  3
    239    232    236    248     1  180.0000771  2.0083200  2
    239    232    236    248     1  0.0000000  1.2552000  3
    239    242    251    260     1  0.0000000  0.6508444  3
    245    257    579    570     1  180.0000771  0.4184000  2
    245    257    579    570     1  0.0000000  1.6024720  3
    248    254    550    541     1  180.0000771  0.4184000  2
    248    254    550    541     1  0.0000000  1.6024720  3
    254    550    541    532     1  180.0000771  0.4184000  2
    254    550    541    532     1  0.0000000  1.6024720  3
    257    579    570    561     1  180.0000771  0.4184000  2
    257    579    570    561     1  0.0000000  1.6024720  3
    261    262    274    286     1  0.0000000  0.6508444  3
    261    265    277    283     1  0.0000000  0.6508444  3
    261    268    271    280     1  0.0000000  0.6508444  3
    262    261    265    277     1  180.0000771  2.0083200  2
    262    261    265    277     1  0.0000000  1.2552000  3
    262    261    268    271     1  180.0000771  2.0083200  2
    262    261    268    271     1  0.0000000  1.2552000  3
    262    274    286    637     1  0.0000000  0.6508444  3
    265    261    262    274     1  180.0000771  2.0083200  2
    265    261    262    274     1  0.0000000  1.2552000  3
    265    261    268    271     1  180.0000771  2.0083200  2
    265    261    268    271     1  0.0000000  1.2552000  3
    265    277    283    608     1  0.0000000  0.6508444  3
    268    261    262    274     1  180.0000771  2.0083200  2
    268    261    262    274     1  0.0000000  1.2552000  3
    268    261    265    277     1  180.0000771  2.0083200  2
    268    261    265    277     1  0.0000000  1.2552000  3
    268    271    280    289     1  0.0000000  0.6508444  3
    274    286    637    628     1  180.0000771  0.4184000  2
    274    286    637    628     1  0.0000000  1.6024720  3
    277    283    608    599     1  180.0000771  0.4184000  2
    277    283    608    599     1  0.0000000  1.6024720  3
    283    608    599    590     1  180.0000771  0.4184000  2
    283    608    599    590     1  0.0000000  1.6024720  3
    286    637    628    619     1  180.0000771  0.4184000  2
    286    637    628    619     1  0.0000000  1.6024720  3
    290    291    303    315     1  0.0000000  0.6508444  3
    290    294    306    312     1  0.0000000  0.6508444  3
    290    297    300    309     1  0.0000000  0.6508444  3
    291    290    294    306     1  180.0000771  2.0083200  2
    291    290    294    306     1  0.0000000  1.2552000  3
    291    290    297    300     1  180.0000771  2.0083200  2
    291    290    297    300     1  0.0000000  1.2552000  3
    291    303    315    695     1  0.0000000  0.6508444  3
    294    290    291    303     1  180.0000771  2.0083200  2
    294    290    291    303     1  0.0000000  1.2552000  3
    294    290    297    300     1  180.0000771  2.0083200  2
    294    290    297    300     1  0.0000000  1.2552000  3
    294    306    312    666     1  0.0000000  0.6508444  3
    297    290    291    303     1  180.0000771  2.0083200  2
    297    290    291    303     1  0.0000000  1.2552000  3
    297    290    294    306     1  180.0000771  2.0083200  2
    297    290    294    306     1  0.0000000  1.2552000  3
    297    300    309    318     1  0.0000000  0.6508444  3
    303    315    695    686     1  180.0000771  0.4184000  2
    303    315    695    686     1  0.0000000  1.6024720  3
    306    312    666    657     1  180.0000771  0.4184000  2
    306    312    666    657     1  0.0000000  1.6024720  3
    312    666    657    648     1  180.0000771  0.4184000  2
    312    666    657    648     1  0.0000000  1.6024720  3
    315    695    686    677     1  180.0000771  0.4184000  2
    315    695    686    677     1  0.0000000  1.6024720  3
    319    320    332    344     1  0.0000000  0.6508444  3
    319    323    335    341     1  0.0000000  0.6508444  3
    319    326    329    338     1  0.0000000  0.6508444  3
    320    319    323    335     1  180.0000771  2.0083200  2
    320    319    323    335     1  0.0000000  1.2552000  3
    320    319    326    329     1  180.0000771  2.0083200  2
    320    319    326    329     1  0.0000000  1.2552000  3
    320    332    344    753     1  0.0000000  0.6508444  3
    323    319    320    332     1  180.0000771  2.0083200  2
    323    319    320    332     1  0.0000000  1.2552000  3
    323    319    326    329     1  180.0000771  2.0083200  2
    323    319    326    329     1  0.0000000  1.2552000  3
    323    335    341    724     1  0.0000000  0.6508444  3
    326    319    320    332     1  180.0000771  2.0083200  2
    326    319    320    332     1  0.0000000  1.2552000  3
    326    319    323    335     1  180.0000771  2.0083200  2
    326    319    323    335     1  0.0000000  1.2552000  3
    326    329    338    347     1  0.0000000  0.6508444  3
    332    344    753    744     1  180.0000771  0.4184000  2
    332    344    753    744     1  0.0000000  1.6024720  3
    335    341    724    715     1  180.0000771  0.4184000  2
    335    341    724    715     1  0.0000000  1.6024720  3
    341    724    715    706     1  180.0000771  0.4184000  2
    341    724    715    706     1  0.0000000  1.6024720  3
    344    753    744    735     1  180.0000771  0.4184000  2
    344    753    744    735     1  0.0000000  1.6024720  3
    348    349    361    373     1  0.0000000  0.6508444  3
    348    352    364    370     1  0.0000000  0.6508444  3
    348    355    358    367     1  0.0000000  0.6508444  3
    349    348    352    364     1  180.0000771  2.0083200  2
    349    348    352    364     1  0.0000000  1.2552000  3
    349    348    355    358     1  180.0000771  2.0083200  2
    349    348    355    358     1  0.0000000  1.2552000  3
    349    361    373    811     1  0.0000000  0.6508444  3
    352    348    349    361     1  180.0000771  2.0083200  2
    352    348    349    361     1  0.0000000  1.2552000  3
    352    348    355    358     1  180.0000771  2.0083200  2
    352    348    355    358     1  0.0000000  1.2552000  3
    352    364    370    782     1  0.0000000  0.6508444  3
    355    348    349    361     1  180.0000771  2.0083200  2
    355    348    349    361     1  0.0000000  1.2552000  3
    355    348    352    364     1  180.0000771  2.0083200  2
    355    348    352    364     1  0.0000000  1.2552000  3
    355    358    367    376     1  0.0000000  0.6508444  3
    361    373    811    802     1  180.0000771  0.4184000  2
    361    373    811    802     1  0.0000000  1.6024720  3
    364    370    782    773     1  180.0000771  0.4184000  2
    364    370    782    773     1  0.0000000  1.6024720  3
    370    782    773    764     1  180.0000771  0.4184000  2
    370    782    773    764     1  0.0000000  1.6024720  3
    373    811    802    793     1  180.0000771  0.4184000  2
    373    811    802    793     1  0.0000000  1.6024720  3
    377    378    390    402     1  0.0000000  0.6508444  3
    377    381    393    399     1  0.0000000  0.6508444  3
    377    384    387    396     1  0.0000000  0.6508444  3
    378    377    381    393     1  180.0000771  2.0083200  2
    378    377    381    393     1  0.0000000  1.2552000  3
    378    377    384    387     1  180.0000771  2.0083200  2
    378    377    384    387     1  0.0000000  1.2552000  3
    378    390    402    869     1  0.0000000  0.6508444  3
    381    377    378    390     1  180.0000771  2.0083200  2
    381    377    378    390     1  0.0000000  1.2552000  3
    381    377    384    387     1  180.0000771  2.0083200  2
    381    377    384    387     1  0.0000000  1.2552000  3
    381    393    399    840     1  0.0000000  0.6508444  3
    384    377    378    390     1  180.0000771  2.0083200  2
    384    377    378    390     1  0.0000000  1.2552000  3
    384    377    381    393     1  180.0000771  2.0083200  2
    384    377    381    393     1  0.0000000  1.2552000  3
    384    387    396    405     1  0.0000000  0.6508444  3
    390    402    869    860     1  180.0000771  0.4184000  2
    390    402    869    860     1  0.0000000  1.6024720  3
    393    399    840    831     1  180.0000771  0.4184000  2
    393    399    840    831     1  0.0000000  1.6024720  3
    399    840    831    822     1  180.0000771  0.4184000  2
    399    840    831    822     1  0.0000000  1.6024720  3
    402    869    860    851     1  180.0000771  0.4184000  2
    402    869    860    851     1  0.0000000  1.6024720  3
    406    407    419    431     1  0.0000000  0.6508444  3
    406    410    422    428     1  0.0000000  0.6508444  3
    406    413    416    425     1  0.0000000  0.6508444  3
    407    406    410    422     1  180.0000771  2.0083200  2
    407    406    410    422     1  0.0000000  1.2552000  3
    407    406    413    416     1  180.0000771  2.0083200  2
    407    406    413    416     1  0.0000000  1.2552000  3
    407    419    431    927     1  0.0000000  0.6508444  3
    410    406    407    419     1  180.0000771  2.0083200  2
    410    406    407    419     1  0.0000000  1.2552000  3
    410    406    413    416     1  180.0000771  2.0083200  2
    410    406    413    416     1  0.0000000  1.2552000  3
    410    422    428    898     1  0.0000000  0.6508444  3
    413    406    407    419     1  180.0000771  2.0083200  2
    413    406    407    419     1  0.0000000  1.2552000  3
    413    406    410    422     1  180.0000771  2.0083200  2
    413    406    410    422     1  0.0000000  1.2552000  3
    413    416    425    434     1  0.0000000  0.6508444  3
    419    431    927    918     1  180.0000771  0.4184000  2
    419    431    927    918     1  0.0000000  1.6024720  3
    422    428    898    889     1  180.0000771  0.4184000  2
    422    428    898    889     1  0.0000000  1.6024720  3
    428    898    889    880     1  180.0000771  0.4184000  2
    428    898    889    880     1  0.0000000  1.6024720  3
    431    927    918    909     1  180.0000771  0.4184000  2
    431    927    918    909     1  0.0000000  1.6024720  3
    435    436    448    460     1  0.0000000  0.6508444  3
    435    439    451    457     1  0.0000000  0.6508444  3
    435    442    445    454     1  0.0000000  0.6508444  3
    436    435    439    451     1  180.0000771  2.0083200  2
    436    435    439    451     1  0.0000000  1.2552000  3
    436    435    442    445     1  180.0000771  2.0083200  2
    436    435    442    445     1  0.0000000  1.2552000  3
    436    448    460    985     1  0.0000000  0.6508444  3
    439    435    436    448     1  180.0000771  2.0083200  2
    439    435    436    448     1  0.0000000  1.2552000  3
    439    435    442    445     1  180.0000771  2.0083200  2
    439    435    442    445     1  0.0000000  1.2552000  3
    439    451    457    956     1  0.0000000  0.6508444  3
    442    435    436    448     1  180.0000771  2.0083200  2
    442    435    436    448     1  0.0000000  1.2552000  3
    442    435    439    451     1  180.0000771  2.0083200  2
    442    435    439    451     1  0.0000000  1.2552000  3
    442    445    454    463     1  0.0000000  0.6508444  3
    448    460    985    976     1  180.0000771  0.4184000  2
    448    460    985    976     1  0.0000000  1.6024720  3
    451    457    956    947     1  180.0000771  0.4184000  2
    451    457    956    947     1  0.0000000  1.6024720  3
    457    956    947    938     1  180.0000771  0.4184000  2
    457    956    947    938     1  0.0000000  1.6024720  3
    460    985    976    967     1  180.0000771  0.4184000  2
    460    985    976    967     1  0.0000000  1.6024720  3
    464    465    477    489     1  0.0000000  0.6508444  3
    464    468    480    486     1  0.0000000  0.6508444  3
    464    471    474    483     1  0.0000000  0.6508444  3
    465    464    468    480     1  180.0000771  2.0083200  2
    465    464    468    480     1  0.0000000  1.2552000  3
    465    464    471    474     1  180.0000771  2.0083200  2
    465    464    471    474     1  0.0000000  1.2552000  3
    465    477    489   1043     1  0.0000000  0.6508444  3
    468    464    465    477     1  180.0000771  2.0083200  2
    468    464    465    477     1  0.0000000  1.2552000  3
    468    464    471    474     1  180.0000771  2.0083200  2
    468    464    471    474     1  0.0000000  1.2552000  3
    468    480    486   1014     1  0.0000000  0.6508444  3
    471    464    465    477     1  180.0000771  2.0083200  2
    471    464    465    477     1  0.0000000  1.2552000  3
    471    464    468    480     1  180.0000771  2.0083200  2
    471    464    468    480     1  0.0000000  1.2552000  3
    471    474    483    492     1  0.0000000  0.6508444  3
    477    489   1043   1034     1  180.0000771  0.4184000  2
    477    489   1043   1034     1  0.0000000  1.6024720  3
    480    486   1014   1005     1  180.0000771  0.4184000  2
    480    486   1014   1005     1  0.0000000  1.6024720  3
    486   1014   1005    996     1  180.0000771  0.4184000  2
    486   1014   1005    996     1  0.0000000  1.6024720  3
    489   1043   1034   1025     1  180.0000771  0.4184000  2
    489   1043   1034   1025     1  0.0000000  1.6024720  3
    493    494    506    518     1  0.0000000  0.6508444  3
    493    497    509    515     1  0.0000000  0.6508444  3
    493    500    503    512     1  0.0000000  0.6508444  3
    494    493    497    509     1  180.0000771  2.0083200  2
    494    493    497    509     1  0.0000000  1.2552000  3
    494    493    500    503     1  180.0000771  2.0083200  2
    494    493    500    503     1  0.0000000  1.2552000  3
    494    506    518   1101     1  0.0000000  0.6508444  3
    497    493    494    506     1  180.0000771  2.0083200  2
    497    493    494    506     1  0.0000000  1.2552000  3
    497    493    500    503     1  180.0000771  2.0083200  2
    497    493    500    503     1  0.0000000  1.2552000  3
    497    509    515   1072     1  0.0000000  0.6508444  3
    500    493    494    506     1  180.0000771  2.0083200  2
    500    493    494    506     1  0.0000000  1.2552000  3
    500    493    497    509     1  180.0000771  2.0083200  2
    500    493    497    509     1  0.0000000  1.2552000  3
    500    503    512    521     1  0.0000000  0.6508444  3
    506    518   1101   1092     1  180.0000771  0.4184000  2
    506    518   1101   1092     1  0.0000000  1.6024720  3
    509    515   1072   1063     1  180.0000771  0.4184000  2
    509    515   1072   1063     1  0.0000000  1.6024720  3
    515   1072   1063   1054     1  180.0000771  0.4184000  2
    515   1072   1063   1054     1  0.0000000  1.6024720  3
    518   1101   1092   1083     1  180.0000771  0.4184000  2
    518   1101   1092   1083     1  0.0000000  1.6024720  3
    522    523    535    547     1  0.0000000  0.6508444  3
    522    526    538    544     1  0.0000000  0.6508444  3
    522    529    532    541     1  0.0000000  0.6508444  3
    523    522    526    538     1  180.0000771  2.0083200  2
    523    522    526    538     1  0.0000000  1.2552000  3
    523    522    529    532     1  180.0000771  2.0083200  2
    523    522    529    532     1  0.0000000  1.2552000  3
    523    535    547   1159     1  0.0000000  0.6508444  3
    526    522    523    535     1  180.0000771  2.0083200  2
    526    522    523    535     1  0.0000000  1.2552000  3
    526    522    529    532     1  180.0000771  2.0083200  2
    526    522    529    532     1  0.0000000  1.2552000  3
    526    538    544   1130     1  0.0000000  0.6508444  3
    529    522    523    535     1  180.0000771  2.0083200  2
    529    522    523    535     1  0.0000000  1.2552000  3
    529    522    526    538     1  180.0000771  2.0083200  2
    529    522    526    538     1  0.0000000  1.2552000  3
    529    532    541    550     1  0.0000000  0.6508444  3
    535    547   1159   1150     1  180.0000771  0.4184000  2
    535    547   1159   1150     1  0.0000000  1.6024720  3
    538    544   1130   1121     1  180.0000771  0.4184000  2
    538    544   1130   1121     1  0.0000000  1.6024720  3
    544   1130   1121   1112     1  180.0000771  0.4184000  2
    544   1130   1121   1112     1  0.0000000  1.6024720  3
    547   1159   1150   1141     1  180.0000771  0.4184000  2
    547   1159   1150   1141     1  0.0000000  1.6024720  3
    551    552    564    576     1  0.0000000  0.6508444  3
    551    555    567    573     1  0.0000000  0.6508444  3
    551    558    561    570     1  0.0000000  0.6508444  3
    552    551    555    567     1  180.0000771  2.0083200  2
    552    551    555    567     1  0.0000000  1.2552000  3
    552    551    558    561     1  180.0000771  2.0083200  2
    552    551    558    561     1  0.0000000  1.2552000  3
    552    564    576   1217     1  0.0000000  0.6508444  3
    555    551    552    564     1  180.0000771  2.0083200  2
    555    551    552    564     1  0.0000000  1.2552000  3
    555    551    558    561     1  180.0000771  2.0083200  2
    555    551    558    561     1  0.0000000  1.2552000  3
    555    567    573   1188     1  0.0000000  0.6508444  3
    558    551    552    564     1  180.0000771  2.0083200  2
    558    551    552    564     1  0.0000000  1.2552000  3
    558    551    555    567     1  180.0000771  2.0083200  2
    558    551    555    567     1  0.0000000  1.2552000  3
    558    561    570    579     1  0.0000000  0.6508444  3
    564    576   1217   1208     1  180.0000771  0.4184000  2
    564    576   1217   1208     1  0.0000000  1.6024720  3
    567    573   1188   1179     1  180.0000771  0.4184000  2
    567    573   1188   1179     1  0.0000000  1.6024720  3
    573   1188   1179   1170     1  180.0000771  0.4184000  2
    573   1188   1179   1170     1  0.0000000  1.6024720  3
    576   1217   1208   1199     1  180.0000771  0.4184000  2
    576   1217   1208   1199     1  0.0000000  1.6024720  3
    580    581    593    605     1  0.0000000  0.6508444  3
    580    584    596    602     1  0.0000000  0.6508444  3
    580    587    590    599     1  0.0000000  0.6508444  3
    581    580    584    596     1  180.0000771  2.0083200  2
    581    580    584    596     1  0.0000000  1.2552000  3
    581    580    587    590     1  180.0000771  2.0083200  2
    581    580    587    590     1  0.0000000  1.2552000  3
    581    593    605   1275     1  0.0000000  0.6508444  3
    584    580    581    593     1  180.0000771  2.0083200  2
    584    580    581    593     1  0.0000000  1.2552000  3
    584    580    587    590     1  180.0000771  2.0083200  2
    584    580    587    590     1  0.0000000  1.2552000  3
    584    596    602   1246     1  0.0000000  0.6508444  3
    587    580    581    593     1  180.0000771  2.0083200  2
    587    580    581    593     1  0.0000000  1.2552000  3
    587    580    584    596     1  180.0000771  2.0083200  2
    587    580    584    596     1  0.0000000  1.2552000  3
    587    590    599    608     1  0.0000000  0.6508444  3
    593    605   1275   1266     1  180.0000771  0.4184000  2
    593    605   1275   1266     1  0.0000000  1.6024720  3
    596    602   1246   1237     1  180.0000771  0.4184000  2
    596    602   1246   1237     1  0.0000000  1.6024720  3
    602   1246   1237   1228     1  180.0000771  0.4184000  2
    602   1246   1237   1228     1  0.0000000  1.6024720  3
    605   1275   1266   1257     1  180.0000771  0.4184000  2
    605   1275   1266   1257     1  0.0000000  1.6024720  3
    609    610    622    634     1  0.0000000  0.6508444  3
    609    613    625    631     1  0.0000000  0.6508444  3
    609    616    619    628     1  0.0000000  0.6508444  3
    610    609    613    625     1  180.0000771  2.0083200  2
    610    609    613    625     1  0.0000000  1.2552000  3
    610    609    616    619     1  180.0000771  2.0083200  2
    610    609    616    619     1  0.0000000  1.2552000  3
    610    622    634   1333     1  0.0000000  0.6508444  3
    613    609    610    622     1  180.0000771  2.0083200  2
    613    609    610    622     1  0.0000000  1.2552000  3
    613    609    616    619     1  180.0000771  2.0083200  2
    613    609    616    619     1  0.0000000  1.2552000  3
    613    625    631   1304     1  0.0000000  0.6508444  3
    616    609    610    622     1  180.0000771  2.0083200  2
    616    609    610    622     1  0.0000000  1.2552000  3
    616    609    613    625     1  180.0000771  2.0083200  2
    616    609    613    625     1  0.0000000  1.2552000  3
    616    619    628    637     1  0.0000000  0.6508444  3
    622    634   1333   1324     1  180.0000771  0.4184000  2
    622    634   1333   1324     1  0.0000000  1.6024720  3
    625    631   1304   1295     1  180.0000771  0.4184000  2
    625    631   1304   1295     1  0.0000000  1.6024720  3
    631   1304   1295   1286     1  180.0000771  0.4184000  2
    631   1304   1295   1286     1  0.0000000  1.6024720  3
    634   1333   1324   1315     1  180.0000771  0.4184000  2
    634   1333   1324   1315     1  0.0000000  1.6024720  3
    638    639    651    663     1  0.0000000  0.6508444  3
    638    642    654    660     1  0.0000000  0.6508444  3
    638    645    648    657     1  0.0000000  0.6508444  3
    639    638    642    654     1  180.0000771  2.0083200  2
    639    638    642    654     1  0.0000000  1.2552000  3
    639    638    645    648     1  180.0000771  2.0083200  2
    639    638    645    648     1  0.0000000  1.2552000  3
    639    651    663   1391     1  0.0000000  0.6508444  3
    642    638    639    651     1  180.0000771  2.0083200  2
    642    638    639    651     1  0.0000000  1.2552000  3
    642    638    645    648     1  180.0000771  2.0083200  2
    642    638    645    648     1  0.0000000  1.2552000  3
    642    654    660   1362     1  0.0000000  0.6508444  3
    645    638    639    651     1  180.0000771  2.0083200  2
    645    638    639    651     1  0.0000000  1.2552000  3
    645    638    642    654     1  180.0000771  2.0083200  2
    645    638    642    654     1  0.0000000  1.2552000  3
    645    648    657    666     1  0.0000000  0.6508444  3
    651    663   1391   1382     1  180.0000771  0.4184000  2
    651    663   1391   1382     1  0.0000000  1.6024720  3
    654    660   1362   1353     1  180.0000771  0.4184000  2
    654    660   1362   1353     1  0.0000000  1.6024720  3
    660   1362   1353   1344     1  180.0000771  0.4184000  2
    660   1362   1353   1344     1  0.0000000  1.6024720  3
    663   1391   1382   1373     1  180.0000771  0.4184000  2
    663   1391   1382   1373     1  0.0000000  1.6024720  3
    667    668    680    692     1  0.0000000  0.6508444  3
    667    671    683    689     1  0.0000000  0.6508444  3
    667    674    677    686     1  0.0000000  0.6508444  3
    668    667    671    683     1  180.0000771  2.0083200  2
    668    667    671    683     1  0.0000000  1.2552000  3
    668    667    674    677     1  180.0000771  2.0083200  2
    668    667    674    677     1  0.0000000  1.2552000  3
    668    680    692   1449     1  0.0000000  0.6508444  3
    671    667    668    680     1  180.0000771  2.0083200  2
    671    667    668    680     1  0.0000000  1.2552000  3
    671    667    674    677     1  180.0000771  2.0083200  2
    671    667    674    677     1  0.0000000  1.2552000  3
    671    683    689   1420     1  0.0000000  0.6508444  3
    674    667    668    680     1  180.0000771  2.0083200  2
    674    667    668    680     1  0.0000000  1.2552000  3
    674    667    671    683     1  180.0000771  2.0083200  2
    674    667    671    683     1  0.0000000  1.2552000  3
    674    677    686    695     1  0.0000000  0.6508444  3
    680    692   1449   1440     1  180.0000771  0.4184000  2
    680    692   1449   1440     1  0.0000000  1.6024720  3
    683    689   1420   1411     1  180.0000771  0.4184000  2
    683    689   1420   1411     1  0.0000000  1.6024720  3
    689   1420   1411   1402     1  180.0000771  0.4184000  2
    689   1420   1411   1402     1  0.0000000  1.6024720  3
    692   1449   1440   1431     1  180.0000771  0.4184000  2
    692   1449   1440   1431     1  0.0000000  1.6024720  3
    696    697    709    721     1  0.0000000  0.6508444  3
    696    700    712    718     1  0.0000000  0.6508444  3
    696    703    706    715     1  0.0000000  0.6508444  3
    697    696    700    712     1  180.0000771  2.0083200  2
    697    696    700    712     1  0.0000000  1.2552000  3
    697    696    703    706     1  180.0000771  2.0083200  2
    697    696    703    706     1  0.0000000  1.2552000  3
    697    709    721   1507     1  0.0000000  0.6508444  3
    700    696    697    709     1  180.0000771  2.0083200  2
    700    696    697    709     1  0.0000000  1.2552000  3
    700    696    703    706     1  180.0000771  2.0083200  2
    700    696    703    706     1  0.0000000  1.2552000  3
    700    712    718   1478     1  0.0000000  0.6508444  3
    703    696    697    709     1  180.0000771  2.0083200  2
    703    696    697    709     1  0.0000000  1.2552000  3
    703    696    700    712     1  180.0000771  2.0083200  2
    703    696    700    712     1  0.0000000  1.2552000  3
    703    706    715    724     1  0.0000000  0.6508444  3
    709    721   1507   1498     1  180.0000771  0.4184000  2
    709    721   1507   1498     1  0.0000000  1.6024720  3
    712    718   1478   1469     1  180.0000771  0.4184000  2
    712    718   1478   1469     1  0.0000000  1.6024720  3
    718   1478   1469   1460     1  180.0000771  0.4184000  2
    718   1478   1469   1460     1  0.0000000  1.6024720  3
    721   1507   1498   1489     1  180.0000771  0.4184000  2
    721   1507   1498   1489     1  0.0000000  1.6024720  3
    725    726    738    750     1  0.0000000  0.6508444  3
    725    729    741    747     1  0.0000000  0.6508444  3
    725    732    735    744     1  0.0000000  0.6508444  3
    726    725    729    741     1  180.0000771  2.0083200  2
    726    725    729    741     1  0.0000000  1.2552000  3
    726    725    732    735     1  180.0000771  2.0083200  2
    726    725    732    735     1  0.0000000  1.2552000  3
    726    738    750   1565     1  0.0000000  0.6508444  3
    729    725    726    738     1  180.0000771  2.0083200  2
    729    725    726    738     1  0.0000000  1.2552000  3
    729    725    732    735     1  180.0000771  2.0083200  2
    729    725    732    735     1  0.0000000  1.2552000  3
    729    741    747   1536     1  0.0000000  0.6508444  3
    732    725    726    738     1  180.0000771  2.0083200  2
    732    725    726    738     1  0.0000000  1.2552000  3
    732    725    729    741     1  180.0000771  2.0083200  2
    732    725    729    741     1  0.0000000  1.2552000  3
    732    735    744    753     1  0.0000000  0.6508444  3
    738    750   1565   1556     1  180.0000771  0.4184000  2
    738    750   1565   1556     1  0.0000000  1.6024720  3
    741    747   1536   1527     1  180.0000771  0.4184000  2
    741    747   1536   1527     1  0.0000000  1.6024720  3
    747   1536   1527   1518     1  180.0000771  0.4184000  2
    747   1536   1527   1518     1  0.0000000  1.6024720  3
    750   1565   1556   1547     1  180.0000771  0.4184000  2
    750   1565   1556   1547     1  0.0000000  1.6024720  3
    754    755    767    779     1  0.0000000  0.6508444  3
    754    758    770    776     1  0.0000000  0.6508444  3
    754    761    764    773     1  0.0000000  0.6508444  3
    755    754    758    770     1  180.0000771  2.0083200  2
    755    754    758    770     1  0.0000000  1.2552000  3
    755    754    761    764     1  180.0000771  2.0083200  2
    755    754    761    764     1  0.0000000  1.2552000  3
    755    767    779   1623     1  0.0000000  0.6508444  3
    758    754    755    767     1  180.0000771  2.0083200  2
    758    754    755    767     1  0.0000000  1.2552000  3
    758    754    761    764     1  180.0000771  2.0083200  2
    758    754    761    764     1  0.0000000  1.2552000  3
    758    770    776   1594     1  0.0000000  0.6508444  3
    761    754    755    767     1  180.0000771  2.0083200  2
    761    754    755    767     1  0.0000000  1.2552000  3
    761    754    758    770     1  180.0000771  2.0083200  2
    761    754    758    770     1  0.0000000  1.2552000  3
    761    764    773    782     1  0.0000000  0.6508444  3
    767    779   1623   1614     1  180.0000771  0.4184000  2
    767    779   1623   1614     1  0.0000000  1.6024720  3
    770    776   1594   1585     1  180.0000771  0.4184000  2
    770    776   1594   1585     1  0.0000000  1.6024720  3
    776   1594   1585   1576     1  180.0000771  0.4184000  2
    776   1594   1585   1576     1  0.0000000  1.6024720  3
    779   1623   1614   1605     1  180.0000771  0.4184000  2
    779   1623   1614   1605     1  0.0000000  1.6024720  3
    783    784    796    808     1  0.0000000  0.6508444  3
    783    787    799    805     1  0.0000000  0.6508444  3
    783    790    793    802     1  0.0000000  0.6508444  3
    784    783    787    799     1  180.0000771  2.0083200  2
    784    783    787    799     1  0.0000000  1.2552000  3
    784    783    790    793     1  180.0000771  2.0083200  2
    784    783    790    793     1  0.0000000  1.2552000  3
    784    796    808   1681     1  0.0000000  0.6508444  3
    787    783    784    796     1  180.0000771  2.0083200  2
    787    783    784    796     1  0.0000000  1.2552000  3
    787    783    790    793     1  180.0000771  2.0083200  2
    787    783    790    793     1  0.0000000  1.2552000  3
    787    799    805   1652     1  0.0000000  0.6508444  3
    790    783    784    796     1  180.0000771  2.0083200  2
    790    783    784    796     1  0.0000000  1.2552000  3
    790    783    787    799     1  180.0000771  2.0083200  2
    790    783    787    799     1  0.0000000  1.2552000  3
    790    793    802    811     1  0.0000000  0.6508444  3
    796    808   1681   1672     1  180.0000771  0.4184000  2
    796    808   1681   1672     1  0.0000000  1.6024720  3
    799    805   1652   1643     1  180.0000771  0.4184000  2
    799    805   1652   1643     1  0.0000000  1.6024720  3
    805   1652   1643   1634     1  180.0000771  0.4184000  2
    805   1652   1643   1634     1  0.0000000  1.6024720  3
    808   1681   1672   1663     1  180.0000771  0.4184000  2
    808   1681   1672   1663     1  0.0000000  1.6024720  3
    812    813    825    837     1  0.0000000  0.6508444  3
    812    816    828    834     1  0.0000000  0.6508444  3
    812    819    822    831     1  0.0000000  0.6508444  3
    813    812    816    828     1  180.0000771  2.0083200  2
    813    812    816    828     1  0.0000000  1.2552000  3
    813    812    819    822     1  180.0000771  2.0083200  2
    813    812    819    822     1  0.0000000  1.2552000  3
    813    825    837   1739     1  0.0000000  0.6508444  3
    816    812    813    825     1  180.0000771  2.0083200  2
    816    812    813    825     1  0.0000000  1.2552000  3
    816    812    819    822     1  180.0000771  2.0083200  2
    816    812    819    822     1  0.0000000  1.2552000  3
    816    828    834   1710     1  0.0000000  0.6508444  3
    819    812    813    825     1  180.0000771  2.0083200  2
    819    812    813    825     1  0.0000000  1.2552000  3
    819    812    816    828     1  180.0000771  2.0083200  2
    819    812    816    828     1  0.0000000  1.2552000  3
    819    822    831    840     1  0.0000000  0.6508444  3
    825    837   1739   1730     1  180.0000771  0.4184000  2
    825    837   1739   1730     1  0.0000000  1.6024720  3
    828    834   1710   1701     1  180.0000771  0.4184000  2
    828    834   1710   1701     1  0.0000000  1.6024720  3
    834   1710   1701   1692     1  180.0000771  0.4184000  2
    834   1710   1701   1692     1  0.0000000  1.6024720  3
    837   1739   1730   1721     1  180.0000771  0.4184000  2
    837   1739   1730   1721     1  0.0000000  1.6024720  3
    841    842    854    866     1  0.0000000  0.6508444  3
    841    845    857    863     1  0.0000000  0.6508444  3
    841    848    851    860     1  0.0000000  0.6508444  3
    842    841    845    857     1  180.0000771  2.0083200  2
    842    841    845    857     1  0.0000000  1.2552000  3
    842    841    848    851     1  180.0000771  2.0083200  2
    842    841    848    851     1  0.0000000  1.2552000  3
    842    854    866   1797     1  0.0000000  0.6508444  3
    845    841    842    854     1  180.0000771  2.0083200  2
    845    841    842    854     1  0.0000000  1.2552000  3
    845    841    848    851     1  180.0000771  2.0083200  2
    845    841    848    851     1  0.0000000  1.2552000  3
    845    857    863   1768     1  0.0000000  0.6508444  3
    848    841    842    854     1  180.0000771  2.0083200  2
    848    841    842    854     1  0.0000000  1.2552000  3
    848    841    845    857     1  180.0000771  2.0083200  2
    848    841    845    857     1  0.0000000  1.2552000  3
    848    851    860    869     1  0.0000000  0.6508444  3
    854    866   1797   1788     1  180.0000771  0.4184000  2
    854    866   1797   1788     1  0.0000000  1.6024720  3
    857    863   1768   1759     1  180.0000771  0.4184000  2
    857    863   1768   1759     1  0.0000000  1.6024720  3
    863   1768   1759   1750     1  180.0000771  0.4184000  2
    863   1768   1759   1750     1  0.0000000  1.6024720  3
    866   1797   1788   1779     1  180.0000771  0.4184000  2
    866   1797   1788   1779     1  0.0000000  1.6024720  3
    870    871    883    895     1  0.0000000  0.6508444  3
    870    874    886    892     1  0.0000000  0.6508444  3
    870    877    880    889     1  0.0000000  0.6508444  3
    871    870    874    886     1  180.0000771  2.0083200  2
    871    870    874    886     1  0.0000000  1.2552000  3
    871    870    877    880     1  180.0000771  2.0083200  2
    871    870    877    880     1  0.0000000  1.2552000  3
    871    883    895   1855     1  0.0000000  0.6508444  3
    874    870    871    883     1  180.0000771  2.0083200  2
    874    870    871    883     1  0.0000000  1.2552000  3
    874    870    877    880     1  180.0000771  2.0083200  2
    874    870    877    880     1  0.0000000  1.2552000  3
    874    886    892   1826     1  0.0000000  0.6508444  3
    877    870    871    883     1  180.0000771  2.0083200  2
    877    870    871    883     1  0.0000000  1.2552000  3
    877    870    874    886     1  180.0000771  2.0083200  2
    877    870    874    886     1  0.0000000  1.2552000  3
    877    880    889    898     1  0.0000000  0.6508444  3
    883    895   1855   1846     1  180.0000771  0.4184000  2
    883    895   1855   1846     1  0.0000000  1.6024720  3
    886    892   1826   1817     1  180.0000771  0.4184000  2
    886    892   1826   1817     1  0.0000000  1.6024720  3
    892   1826   1817   1808     1  180.0000771  0.4184000  2
    892   1826   1817   1808     1  0.0000000  1.6024720  3
    895   1855   1846   1837     1  180.0000771  0.4184000  2
    895   1855   1846   1837     1  0.0000000  1.6024720  3
    899    900    912    924     1  0.0000000  0.6508444  3
    899    903    915    921     1  0.0000000  0.6508444  3
    899    906    909    918     1  0.0000000  0.6508444  3
    900    899    903    915     1  180.0000771  2.0083200  2
    900    899    903    915     1  0.0000000  1.2552000  3
    900    899    906    909     1  180.0000771  2.0083200  2
    900    899    906    909     1  0.0000000  1.2552000  3
    900    912    924   1913     1  0.0000000  0.6508444  3
    903    899    900    912     1  180.0000771  2.0083200  2
    903    899    900    912     1  0.0000000  1.2552000  3
    903    899    906    909     1  180.0000771  2.0083200  2
    903    899    906    909     1  0.0000000  1.2552000  3
    903    915    921   1884     1  0.0000000  0.6508444  3
    906    899    900    912     1  180.0000771  2.0083200  2
    906    899    900    912     1  0.0000000  1.2552000  3
    906    899    903    915     1  180.0000771  2.0083200  2
    906    899    903    915     1  0.0000000  1.2552000  3
    906    909    918    927     1  0.0000000  0.6508444  3
    912    924   1913   1904     1  180.0000771  0.4184000  2
    912    924   1913   1904     1  0.0000000  1.6024720  3
    915    921   1884   1875     1  180.0000771  0.4184000  2
    915    921   1884   1875     1  0.0000000  1.6024720  3
    921   1884   1875   1866     1  180.0000771  0.4184000  2
    921   1884   1875   1866     1  0.0000000  1.6024720  3
    924   1913   1904   1895     1  180.0000771  0.4184000  2
    924   1913   1904   1895     1  0.0000000  1.6024720  3
    928    929    941    953     1  0.0000000  0.6508444  3
    928    932    944    950     1  0.0000000  0.6508444  3
    928    935    938    947     1  0.0000000  0.6508444  3
    929    928    932    944     1  180.0000771  2.0083200  2
    929    928    932    944     1  0.0000000  1.2552000  3
    929    928    935    938     1  180.0000771  2.0083200  2
    929    928    935    938     1  0.0000000  1.2552000  3
    929    941    953   1971     1  0.0000000  0.6508444  3
    932    928    929    941     1  180.0000771  2.0083200  2
    932    928    929    941     1  0.0000000  1.2552000  3
    932    928    935    938     1  180.0000771  2.0083200  2
    932    928    935    938     1  0.0000000  1.2552000  3
    932    944    950   1942     1  0.0000000  0.6508444  3
    935    928    929    941     1  180.0000771  2.0083200  2
    935    928    929    941     1  0.0000000  1.2552000  3
    935    928    932    944     1  180.0000771  2.0083200  2
    935    928    932    944     1  0.0000000  1.2552000  3
    935    938    947    956     1  0.0000000  0.6508444  3
    941    953   1971   1962     1  180.0000771  0.4184000  2
    941    953   1971   1962     1  0.0000000  1.6024720  3
    944    950   1942   1933     1  180.0000771  0.4184000  2
    944    950   1942   1933     1  0.0000000  1.6024720  3
    950   1942   1933   1924     1  180.0000771  0.4184000  2
    950   1942   1933   1924     1  0.0000000  1.6024720  3
    953   1971   1962   1953     1  180.0000771  0.4184000  2
    953   1971   1962   1953     1  0.0000000  1.6024720  3
    957    958    970    982     1  0.0000000  0.6508444  3
    957    961    973    979     1  0.0000000  0.6508444  3
    957    964    967    976     1  0.0000000  0.6508444  3
    958    957    961    973     1  180.0000771  2.0083200  2
    958    957    961    973     1  0.0000000  1.2552000  3
    958    957    964    967     1  180.0000771  2.0083200  2
    958    957    964    967     1  0.0000000  1.2552000  3
    958    970    982   2029     1  0.0000000  0.6508444  3
    961    957    958    970     1  180.0000771  2.0083200  2
    961    957    958    970     1  0.0000000  1.2552000  3
    961    957    964    967     1  180.0000771  2.0083200  2
    961    957    964    967     1  0.0000000  1.2552000  3
    961    973    979   2000     1  0.0000000  0.6508444  3
    964    957    958    970     1  180.0000771  2.0083200  2
    964    957    958    970     1  0.0000000  1.2552000  3
    964    957    961    973     1  180.0000771  2.0083200  2
    964    957    961    973     1  0.0000000  1.2552000  3
    964    967    976    985     1  0.0000000  0.6508444  3
    970    982   2029   2020     1  180.0000771  0.4184000  2
    970    982   2029   2020     1  0.0000000  1.6024720  3
    973    979   2000   1991     1  180.0000771  0.4184000  2
    973    979   2000   1991     1  0.0000000  1.6024720  3
    979   2000   1991   1982     1  180.0000771  0.4184000  2
    979   2000   1991   1982     1  0.0000000  1.6024720  3
    982   2029   2020   2011     1  180.0000771  0.4184000  2
    982   2029   2020   2011     1  0.0000000  1.6024720  3
    986    987    999   1011     1  0.0000000  0.6508444  3
    986    990   1002   1008     1  0.0000000  0.6508444  3
    986    993    996   1005     1  0.0000000  0.6508444  3
    987    986    990   1002     1  180.0000771  2.0083200  2
    987    986    990   1002     1  0.0000000  1.2552000  3
    987    986    993    996     1  180.0000771  2.0083200  2
    987    986    993    996     1  0.0000000  1.2552000  3
    987    999   1011   2087     1  0.0000000  0.6508444  3
    990    986    987    999     1  180.0000771  2.0083200  2
    990    986    987    999     1  0.0000000  1.2552000  3
    990    986    993    996     1  180.0000771  2.0083200  2
    990    986    993    996     1  0.0000000  1.2552000  3
    990   1002   1008   2058     1  0.0000000  0.6508444  3
    993    986    987    999     1  180.0000771  2.0083200  2
    993    986    987    999     1  0.0000000  1.2552000  3
    993    986    990   1002     1  180.0000771  2.0083200  2
    993    986    990   1002     1  0.0000000  1.2552000  3
    993    996   1005   1014     1  0.0000000  0.6508444  3
    999   1011   2087   2078     1  180.0000771  0.4184000  2
    999   1011   2087   2078     1  0.0000000  1.6024720  3
   1002   1008   2058   2049     1  180.0000771  0.4184000  2
   1002   1008   2058   2049     1  0.0000000  1.6024720  3
   1008   2058   2049   2040     1  180.0000771  0.4184000  2
   1008   2058   2049   2040     1  0.0000000  1.6024720  3
   1011   2087   2078   2069     1  180.0000771  0.4184000  2
   1011   2087   2078   2069     1  0.0000000  1.6024720  3
   1015   1016   1028   1040     1  0.0000000  0.6508444  3
   1015   1019   1031   1037     1  0.0000000  0.6508444  3
   1015   1022   1025   1034     1  0.0000000  0.6508444  3
   1016   1015   1019   1031     1  180.0000771  2.0083200  2
   1016   1015   1019   1031     1  0.0000000  1.2552000  3
   1016   1015   1022   1025     1  180.0000771  2.0083200  2
   1016   1015   1022   1025     1  0.0000000  1.2552000  3
   1016   1028   1040   2145     1  0.0000000  0.6508444  3
   1019   1015   1016   1028     1  180.0000771  2.0083200  2
   1019   1015   1016   1028     1  0.0000000  1.2552000  3
   1019   1015   1022   1025     1  180.0000771  2.0083200  2
   1019   1015   1022   1025     1  0.0000000  1.2552000  3
   1019   1031   1037   2116     1  0.0000000  0.6508444  3
   1022   1015   1016   1028     1  180.0000771  2.0083200  2
   1022   1015   1016   1028     1  0.0000000  1.2552000  3
   1022   1015   1019   1031     1  180.0000771  2.0083200  2
   1022   1015   1019   1031     1  0.0000000  1.2552000  3
   1022   1025   1034   1043     1  0.0000000  0.6508444  3
   1028   1040   2145   2136     1  180.0000771  0.4184000  2
   1028   1040   2145   2136     1  0.0000000  1.6024720  3
   1031   1037   2116   2107     1  180.0000771  0.4184000  2
   1031   1037   2116   2107     1  0.0000000  1.6024720  3
   1037   2116   2107   2098     1  180.0000771  0.4184000  2
   1037   2116   2107   2098     1  0.0000000  1.6024720  3
   1040   2145   2136   2127     1  180.0000771  0.4184000  2
   1040   2145   2136   2127     1  0.0000000  1.6024720  3
   1044   1045   1057   1069     1  0.0000000  0.6508444  3
   1044   1048   1060   1066     1  0.0000000  0.6508444  3
   1044   1051   1054   1063     1  0.0000000  0.6508444  3
   1045   1044   1048   1060     1  180.0000771  2.0083200  2
   1045   1044   1048   1060     1  0.0000000  1.2552000  3
   1045   1044   1051   1054     1  180.0000771  2.0083200  2
   1045   1044   1051   1054     1  0.0000000  1.2552000  3
   1045   1057   1069   2203     1  0.0000000  0.6508444  3
   1048   1044   1045   1057     1  180.0000771  2.0083200  2
   1048   1044   1045   1057     1  0.0000000  1.2552000  3
   1048   1044   1051   1054     1  180.0000771  2.0083200  2
   1048   1044   1051   1054     1  0.0000000  1.2552000  3
   1048   1060   1066   2174     1  0.0000000  0.6508444  3
   1051   1044   1045   1057     1  180.0000771  2.0083200  2
   1051   1044   1045   1057     1  0.0000000  1.2552000  3
   1051   1044   1048   1060     1  180.0000771  2.0083200  2
   1051   1044   1048   1060     1  0.0000000  1.2552000  3
   1051   1054   1063   1072     1  0.0000000  0.6508444  3
   1057   1069   2203   2194     1  180.0000771  0.4184000  2
   1057   1069   2203   2194     1  0.0000000  1.6024720  3
   1060   1066   2174   2165     1  180.0000771  0.4184000  2
   1060   1066   2174   2165     1  0.0000000  1.6024720  3
   1066   2174   2165   2156     1  180.0000771  0.4184000  2
   1066   2174   2165   2156     1  0.0000000  1.6024720  3
   1069   2203   2194   2185     1  180.0000771  0.4184000  2
   1069   2203   2194   2185     1  0.0000000  1.6024720  3
   1073   1074   1086   1098     1  0.0000000  0.6508444  3
   1073   1077   1089   1095     1  0.0000000  0.6508444  3
   1073   1080   1083   1092     1  0.0000000  0.6508444  3
   1074   1073   1077   1089     1  180.0000771  2.0083200  2
   1074   1073   1077   1089     1  0.0000000  1.2552000  3
   1074   1073   1080   1083     1  180.0000771  2.0083200  2
   1074   1073   1080   1083     1  0.0000000  1.2552000  3
   1074   1086   1098   2261     1  0.0000000  0.6508444  3
   1077   1073   1074   1086     1  180.0000771  2.0083200  2
   1077   1073   1074   1086     1  0.0000000  1.2552000  3
   1077   1073   1080   1083     1  180.0000771  2.0083200  2
   1077   1073   1080   1083     1  0.0000000  1.2552000  3
   1077   1089   1095   2232     1  0.0000000  0.6508444  3
   1080   1073   1074   1086     1  180.0000771  2.0083200  2
   1080   1073   1074   1086     1  0.0000000  1.2552000  3
   1080   1073   1077   1089     1  180.0000771  2.0083200  2
   1080   1073   1077   1089     1  0.0000000  1.2552000  3
   1080   1083   1092   1101     1  0.0000000  0.6508444  3
   1086   1098   2261   2252     1  180.0000771  0.4184000  2
   1086   1098   2261   2252     1  0.0000000  1.6024720  3
   1089   1095   2232   2223     1  180.0000771  0.4184000  2
   1089   1095   2232   2223     1  0.0000000  1.6024720  3
   1095   2232   2223   2214     1  180.0000771  0.4184000  2
   1095   2232   2223   2214     1  0.0000000  1.6024720  3
   1098   2261   2252   2243     1  180.0000771  0.4184000  2
   1098   2261   2252   2243     1  0.0000000  1.6024720  3
   1102   1103   1115   1127     1  0.0000000  0.6508444  3
   1102   1106   1118   1124     1  0.0000000  0.6508444  3
   1102   1109   1112   1121     1  0.0000000  0.6508444  3
   1103   1102   1106   1118     1  180.0000771  2.0083200  2
   1103   1102   1106   1118     1  0.0000000  1.2552000  3
   1103   1102   1109   1112     1  180.0000771  2.0083200  2
   1103   1102   1109   1112     1  0.0000000  1.2552000  3
   1103   1115   1127   2319     1  0.0000000  0.6508444  3
   1106   1102   1103   1115     1  180.0000771  2.0083200  2
   1106   1102   1103   1115     1  0.0000000  1.2552000  3
   1106   1102   1109   1112     1  180.0000771  2.0083200  2
   1106   1102   1109   1112     1  0.0000000  1.2552000  3
   1106   1118   1124   2290     1  0.0000000  0.6508444  3
   1109   1102   1103   1115     1  180.0000771  2.0083200  2
   1109   1102   1103   1115     1  0.0000000  1.2552000  3
   1109   1102   1106   1118     1  180.0000771  2.0083200  2
   1109   1102   1106   1118     1  0.0000000  1.2552000  3
   1109   1112   1121   1130     1  0.0000000  0.6508444  3
   1115   1127   2319   2310     1  180.0000771  0.4184000  2
   1115   1127   2319   2310     1  0.0000000  1.6024720  3
   1118   1124   2290   2281     1  180.0000771  0.4184000  2
   1118   1124   2290   2281     1  0.0000000  1.6024720  3
   1124   2290   2281   2272     1  180.0000771  0.4184000  2
   1124   2290   2281   2272     1  0.0000000  1.6024720  3
   1127   2319   2310   2301     1  180.0000771  0.4184000  2
   1127   2319   2310   2301     1  0.0000000  1.6024720  3
   1131   1132   1144   1156     1  0.0000000  0.6508444  3
   1131   1135   1147   1153     1  0.0000000  0.6508444  3
   1131   1138   1141   1150     1  0.0000000  0.6508444  3
   1132   1131   1135   1147     1  180.0000771  2.0083200  2
   1132   1131   1135   1147     1  0.0000000  1.2552000  3
   1132   1131   1138   1141     1  180.0000771  2.0083200  2
   1132   1131   1138   1141     1  0.0000000  1.2552000  3
   1132   1144   1156   2377     1  0.0000000  0.6508444  3
   1135   1131   1132   1144     1  180.0000771  2.0083200  2
   1135   1131   1132   1144     1  0.0000000  1.2552000  3
   1135   1131   1138   1141     1  180.0000771  2.0083200  2
   1135   1131   1138   1141     1  0.0000000  1.2552000  3
   1135   1147   1153   2348     1  0.0000000  0.6508444  3
   1138   1131   1132   1144     1  180.0000771  2.0083200  2
   1138   1131   1132   1144     1  0.0000000  1.2552000  3
   1138   1131   1135   1147     1  180.0000771  2.0083200  2
   1138   1131   1135   1147     1  0.0000000  1.2552000  3
   1138   1141   1150   1159     1  0.0000000  0.6508444  3
   1144   1156   2377   2368     1  180.0000771  0.4184000  2
   1144   1156   2377   2368     1  0.0000000  1.6024720  3
   1147   1153   2348   2339     1  180.0000771  0.4184000  2
   1147   1153   2348   2339     1  0.0000000  1.6024720  3
   1153   2348   2339   2330     1  180.0000771  0.4184000  2
   1153   2348   2339   2330     1  0.0000000  1.6024720  3
   1156   2377   2368   2359     1  180.0000771  0.4184000  2
   1156   2377   2368   2359     1  0.0000000  1.6024720  3
   1160   1161   1173   1185     1  0.0000000  0.6508444  3
   1160   1164   1176   1182     1  0.0000000  0.6508444  3
   1160   1167   1170   1179     1  0.0000000  0.6508444  3
   1161   1160   1164   1176     1  180.0000771  2.0083200  2
   1161   1160   1164   1176     1  0.0000000  1.2552000  3
   1161   1160   1167   1170     1  180.0000771  2.0083200  2
   1161   1160   1167   1170     1  0.0000000  1.2552000  3
   1161   1173   1185   2435     1  0.0000000  0.6508444  3
   1164   1160   1161   1173     1  180.0000771  2.0083200  2
   1164   1160   1161   1173     1  0.0000000  1.2552000  3
   1164   1160   1167   1170     1  180.0000771  2.0083200  2
   1164   1160   1167   1170     1  0.0000000  1.2552000  3
   1164   1176   1182   2406     1  0.0000000  0.6508444  3
   1167   1160   1161   1173     1  180.0000771  2.0083200  2
   1167   1160   1161   1173     1  0.0000000  1.2552000  3
   1167   1160   1164   1176     1  180.0000771  2.0083200  2
   1167   1160   1164   1176     1  0.0000000  1.2552000  3
   1167   1170   1179   1188     1  0.0000000  0.6508444  3
   1173   1185   2435   2426     1  180.0000771  0.4184000  2
   1173   1185   2435   2426     1  0.0000000  1.6024720  3
   1176   1182   2406   2397     1  180.0000771  0.4184000  2
   1176   1182   2406   2397     1  0.0000000  1.6024720  3
   1182   2406   2397   2388     1  180.0000771  0.4184000  2
   1182   2406   2397   2388     1  0.0000000  1.6024720  3
   1185   2435   2426   2417     1  180.0000771  0.4184000  2
   1185   2435   2426   2417     1  0.0000000  1.6024720  3
   1189   1190   1202   1214     1  0.0000000  0.6508444  3
   1189   1193   1205   1211     1  0.0000000  0.6508444  3
   1189   1196   1199   1208     1  0.0000000  0.6508444  3
   1190   1189   1193   1205     1  180.0000771  2.0083200  2
   1190   1189   1193   1205     1  0.0000000  1.2552000  3
   1190   1189   1196   1199     1  180.0000771  2.0083200  2
   1190   1189   1196   1199     1  0.0000000  1.2552000  3
   1190   1202   1214   2493     1  0.0000000  0.6508444  3
   1193   1189   1190   1202     1  180.0000771  2.0083200  2
   1193   1189   1190   1202     1  0.0000000  1.2552000  3
   1193   1189   1196   1199     1  180.0000771  2.0083200  2
   1193   1189   1196   1199     1  0.0000000  1.2552000  3
   1193   1205   1211   2464     1  0.0000000  0.6508444  3
   1196   1189   1190   1202     1  180.0000771  2.0083200  2
   1196   1189   1190   1202     1  0.0000000  1.2552000  3
   1196   1189   1193   1205     1  180.0000771  2.0083200  2
   1196   1189   1193   1205     1  0.0000000  1.2552000  3
   1196   1199   1208   1217     1  0.0000000  0.6508444  3
   1202   1214   2493   2484     1  180.0000771  0.4184000  2
   1202   1214   2493   2484     1  0.0000000  1.6024720  3
   1205   1211   2464   2455     1  180.0000771  0.4184000  2
   1205   1211   2464   2455     1  0.0000000  1.6024720  3
   1211   2464   2455   2446     1  180.0000771  0.4184000  2
   1211   2464   2455   2446     1  0.0000000  1.6024720  3
   1214   2493   2484   2475     1  180.0000771  0.4184000  2
   1214   2493   2484   2475     1  0.0000000  1.6024720  3
   1218   1219   1231   1243     1  0.0000000  0.6508444  3
   1218   1222   1234   1240     1  0.0000000  0.6508444  3
   1218   1225   1228   1237     1  0.0000000  0.6508444  3
   1219   1218   1222   1234     1  180.0000771  2.0083200  2
   1219   1218   1222   1234     1  0.0000000  1.2552000  3
   1219   1218   1225   1228     1  180.0000771  2.0083200  2
   1219   1218   1225   1228     1  0.0000000  1.2552000  3
   1219   1231   1243   2551     1  0.0000000  0.6508444  3
   1222   1218   1219   1231     1  180.0000771  2.0083200  2
   1222   1218   1219   1231     1  0.0000000  1.2552000  3
   1222   1218   1225   1228     1  180.0000771  2.0083200  2
   1222   1218   1225   1228     1  0.0000000  1.2552000  3
   1222   1234   1240   2522     1  0.0000000  0.6508444  3
   1225   1218   1219   1231     1  180.0000771  2.0083200  2
   1225   1218   1219   1231     1  0.0000000  1.2552000  3
   1225   1218   1222   1234     1  180.0000771  2.0083200  2
   1225   1218   1222   1234     1  0.0000000  1.2552000  3
   1225   1228   1237   1246     1  0.0000000  0.6508444  3
   1231   1243   2551   2542     1  180.0000771  0.4184000  2
   1231   1243   2551   2542     1  0.0000000  1.6024720  3
   1234   1240   2522   2513     1  180.0000771  0.4184000  2
   1234   1240   2522   2513     1  0.0000000  1.6024720  3
   1240   2522   2513   2504     1  180.0000771  0.4184000  2
   1240   2522   2513   2504     1  0.0000000  1.6024720  3
   1243   2551   2542   2533     1  180.0000771  0.4184000  2
   1243   2551   2542   2533     1  0.0000000  1.6024720  3
   1247   1248   1260   1272     1  0.0000000  0.6508444  3
   1247   1251   1263   1269     1  0.0000000  0.6508444  3
   1247   1254   1257   1266     1  0.0000000  0.6508444  3
   1248   1247   1251   1263     1  180.0000771  2.0083200  2
   1248   1247   1251   1263     1  0.0000000  1.2552000  3
   1248   1247   1254   1257     1  180.0000771  2.0083200  2
   1248   1247   1254   1257     1  0.0000000  1.2552000  3
   1248   1260   1272   2609     1  0.0000000  0.6508444  3
   1251   1247   1248   1260     1  180.0000771  2.0083200  2
   1251   1247   1248   1260     1  0.0000000  1.2552000  3
   1251   1247   1254   1257     1  180.0000771  2.0083200  2
   1251   1247   1254   1257     1  0.0000000  1.2552000  3
   1251   1263   1269   2580     1  0.0000000  0.6508444  3
   1254   1247   1248   1260     1  180.0000771  2.0083200  2
   1254   1247   1248   1260     1  0.0000000  1.2552000  3
   1254   1247   1251   1263     1  180.0000771  2.0083200  2
   1254   1247   1251   1263     1  0.0000000  1.2552000  3
   1254   1257   1266   1275     1  0.0000000  0.6508444  3
   1260   1272   2609   2600     1  180.0000771  0.4184000  2
   1260   1272   2609   2600     1  0.0000000  1.6024720  3
   1263   1269   2580   2571     1  180.0000771  0.4184000  2
   1263   1269   2580   2571     1  0.0000000  1.6024720  3
   1269   2580   2571   2562     1  180.0000771  0.4184000  2
   1269   2580   2571   2562     1  0.0000000  1.6024720  3
   1272   2609   2600   2591     1  180.0000771  0.4184000  2
   1272   2609   2600   2591     1  0.0000000  1.6024720  3
   1276   1277   1289   1301     1  0.0000000  0.6508444  3
   1276   1280   1292   1298     1  0.0000000  0.6508444  3
   1276   1283   1286   1295     1  0.0000000  0.6508444  3
   1277   1276   1280   1292     1  180.0000771  2.0083200  2
   1277   1276   1280   1292     1  0.0000000  1.2552000  3
   1277   1276   1283   1286     1  180.0000771  2.0083200  2
   1277   1276   1283   1286     1  0.0000000  1.2552000  3
   1277   1289   1301   2667     1  0.0000000  0.6508444  3
   1280   1276   1277   1289     1  180.0000771  2.0083200  2
   1280   1276   1277   1289     1  0.0000000  1.2552000  3
   1280   1276   1283   1286     1  180.0000771  2.0083200  2
   1280   1276   1283   1286     1  0.0000000  1.2552000  3
   1280   1292   1298   2638     1  0.0000000  0.6508444  3
   1283   1276   1277   1289     1  180.0000771  2.0083200  2
   1283   1276   1277   1289     1  0.0000000  1.2552000  3
   1283   1276   1280   1292     1  180.0000771  2.0083200  2
   1283   1276   1280   1292     1  0.0000000  1.2552000  3
   1283   1286   1295   1304     1  0.0000000  0.6508444  3
   1289   1301   2667   2658     1  180.0000771  0.4184000  2
   1289   1301   2667   2658     1  0.0000000  1.6024720  3
   1292   1298   2638   2629     1  180.0000771  0.4184000  2
   1292   1298   2638   2629     1  0.0000000  1.6024720  3
   1298   2638   2629   2620     1  180.0000771  0.4184000  2
   1298   2638   2629   2620     1  0.0000000  1.6024720  3
   1301   2667   2658   2649     1  180.0000771  0.4184000  2
   1301   2667   2658   2649     1  0.0000000  1.6024720  3
   1305   1306   1318   1330     1  0.0000000  0.6508444  3
   1305   1309   1321   1327     1  0.0000000  0.6508444  3
   1305   1312   1315   1324     1  0.0000000  0.6508444  3
   1306   1305   1309   1321     1  180.0000771  2.0083200  2
   1306   1305   1309   1321     1  0.0000000  1.2552000  3
   1306   1305   1312   1315     1  180.0000771  2.0083200  2
   1306   1305   1312   1315     1  0.0000000  1.2552000  3
   1306   1318   1330   2725     1  0.0000000  0.6508444  3
   1309   1305   1306   1318     1  180.0000771  2.0083200  2
   1309   1305   1306   1318     1  0.0000000  1.2552000  3
   1309   1305   1312   1315     1  180.0000771  2.0083200  2
   1309   1305   1312   1315     1  0.0000000  1.2552000  3
   1309   1321   1327   2696     1  0.0000000  0.6508444  3
   1312   1305   1306   1318     1  180.0000771  2.0083200  2
   1312   1305   1306   1318     1  0.0000000  1.2552000  3
   1312   1305   1309   1321     1  180.0000771  2.0083200  2
   1312   1305   1309   1321     1  0.0000000  1.2552000  3
   1312   1315   1324   1333     1  0.0000000  0.6508444  3
   1318   1330   2725   2716     1  180.0000771  0.4184000  2
   1318   1330   2725   2716     1  0.0000000  1.6024720  3
   1321   1327   2696   2687     1  180.0000771  0.4184000  2
   1321   1327   2696   2687     1  0.0000000  1.6024720  3
   1327   2696   2687   2678     1  180.0000771  0.4184000  2
   1327   2696   2687   2678     1  0.0000000  1.6024720  3
   1330   2725   2716   2707     1  180.0000771  0.4184000  2
   1330   2725   2716   2707     1  0.0000000  1.6024720  3
   1334   1335   1347   1359     1  0.0000000  0.6508444  3
   1334   1338   1350   1356     1  0.0000000  0.6508444  3
   1334   1341   1344   1353     1  0.0000000  0.6508444  3
   1335   1334   1338   1350     1  180.0000771  2.0083200  2
   1335   1334   1338   1350     1  0.0000000  1.2552000  3
   1335   1334   1341   1344     1  180.0000771  2.0083200  2
   1335   1334   1341   1344     1  0.0000000  1.2552000  3
   1335   1347   1359   2783     1  0.0000000  0.6508444  3
   1338   1334   1335   1347     1  180.0000771  2.0083200  2
   1338   1334   1335   1347     1  0.0000000  1.2552000  3
   1338   1334   1341   1344     1  180.0000771  2.0083200  2
   1338   1334   1341   1344     1  0.0000000  1.2552000  3
   1338   1350   1356   2754     1  0.0000000  0.6508444  3
   1341   1334   1335   1347     1  180.0000771  2.0083200  2
   1341   1334   1335   1347     1  0.0000000  1.2552000  3
   1341   1334   1338   1350     1  180.0000771  2.0083200  2
   1341   1334   1338   1350     1  0.0000000  1.2552000  3
   1341   1344   1353   1362     1  0.0000000  0.6508444  3
   1347   1359   2783   2774     1  180.0000771  0.4184000  2
   1347   1359   2783   2774     1  0.0000000  1.6024720  3
   1350   1356   2754   2745     1  180.0000771  0.4184000  2
   1350   1356   2754   2745     1  0.0000000  1.6024720  3
   1356   2754   2745   2736     1  180.0000771  0.4184000  2
   1356   2754   2745   2736     1  0.0000000  1.6024720  3
   1359   2783   2774   2765     1  180.0000771  0.4184000  2
   1359   2783   2774   2765     1  0.0000000  1.6024720  3
   1363   1364   1376   1388     1  0.0000000  0.6508444  3
   1363   1367   1379   1385     1  0.0000000  0.6508444  3
   1363   1370   1373   1382     1  0.0000000  0.6508444  3
   1364   1363   1367   1379     1  180.0000771  2.0083200  2
   1364   1363   1367   1379     1  0.0000000  1.2552000  3
   1364   1363   1370   1373     1  180.0000771  2.0083200  2
   1364   1363   1370   1373     1  0.0000000  1.2552000  3
   1364   1376   1388   2841     1  0.0000000  0.6508444  3
   1367   1363   1364   1376     1  180.0000771  2.0083200  2
   1367   1363   1364   1376     1  0.0000000  1.2552000  3
   1367   1363   1370   1373     1  180.0000771  2.0083200  2
   1367   1363   1370   1373     1  0.0000000  1.2552000  3
   1367   1379   1385   2812     1  0.0000000  0.6508444  3
   1370   1363   1364   1376     1  180.0000771  2.0083200  2
   1370   1363   1364   1376     1  0.0000000  1.2552000  3
   1370   1363   1367   1379     1  180.0000771  2.0083200  2
   1370   1363   1367   1379     1  0.0000000  1.2552000  3
   1370   1373   1382   1391     1  0.0000000  0.6508444  3
   1376   1388   2841   2832     1  180.0000771  0.4184000  2
   1376   1388   2841   2832     1  0.0000000  1.6024720  3
   1379   1385   2812   2803     1  180.0000771  0.4184000  2
   1379   1385   2812   2803     1  0.0000000  1.6024720  3
   1385   2812   2803   2794     1  180.0000771  0.4184000  2
   1385   2812   2803   2794     1  0.0000000  1.6024720  3
   1388   2841   2832   2823     1  180.0000771  0.4184000  2
   1388   2841   2832   2823     1  0.0000000  1.6024720  3
   1392   1393   1405   1417     1  0.0000000  0.6508444  3
   1392   1396   1408   1414     1  0.0000000  0.6508444  3
   1392   1399   1402   1411     1  0.0000000  0.6508444  3
   1393   1392   1396   1408     1  180.0000771  2.0083200  2
   1393   1392   1396   1408     1  0.0000000  1.2552000  3
   1393   1392   1399   1402     1  180.0000771  2.0083200  2
   1393   1392   1399   1402     1  0.0000000  1.2552000  3
   1393   1405   1417   2899     1  0.0000000  0.6508444  3
   1396   1392   1393   1405     1  180.0000771  2.0083200  2
   1396   1392   1393   1405     1  0.0000000  1.2552000  3
   1396   1392   1399   1402     1  180.0000771  2.0083200  2
   1396   1392   1399   1402     1  0.0000000  1.2552000  3
   1396   1408   1414   2870     1  0.0000000  0.6508444  3
   1399   1392   1393   1405     1  180.0000771  2.0083200  2
   1399   1392   1393   1405     1  0.0000000  1.2552000  3
   1399   1392   1396   1408     1  180.0000771  2.0083200  2
   1399   1392   1396   1408     1  0.0000000  1.2552000  3
   1399   1402   1411   1420     1  0.0000000  0.6508444  3
   1405   1417   2899   2890     1  180.0000771  0.4184000  2
   1405   1417   2899   2890     1  0.0000000  1.6024720  3
   1408   1414   2870   2861     1  180.0000771  0.4184000  2
   1408   1414   2870   2861     1  0.0000000  1.6024720  3
   1414   2870   2861   2852     1  180.0000771  0.4184000  2
   1414   2870   2861   2852     1  0.0000000  1.6024720  3
   1417   2899   2890   2881     1  180.0000771  0.4184000  2
   1417   2899   2890   2881     1  0.0000000  1.6024720  3
   1421   1422   1434   1446     1  0.0000000  0.6508444  3
   1421   1425   1437   1443     1  0.0000000  0.6508444  3
   1421   1428   1431   1440     1  0.0000000  0.6508444  3
   1422   1421   1425   1437     1  180.0000771  2.0083200  2
   1422   1421   1425   1437     1  0.0000000  1.2552000  3
   1422   1421   1428   1431     1  180.0000771  2.0083200  2
   1422   1421   1428   1431     1  0.0000000  1.2552000  3
   1422   1434   1446   2957     1  0.0000000  0.6508444  3
   1425   1421   1422   1434     1  180.0000771  2.0083200  2
   1425   1421   1422   1434     1  0.0000000  1.2552000  3
   1425   1421   1428   1431     1  180.0000771  2.0083200  2
   1425   1421   1428   1431     1  0.0000000  1.2552000  3
   1425   1437   1443   2928     1  0.0000000  0.6508444  3
   1428   1421   1422   1434     1  180.0000771  2.0083200  2
   1428   1421   1422   1434     1  0.0000000  1.2552000  3
   1428   1421   1425   1437     1  180.0000771  2.0083200  2
   1428   1421   1425   1437     1  0.0000000  1.2552000  3
   1428   1431   1440   1449     1  0.0000000  0.6508444  3
   1434   1446   2957   2948     1  180.0000771  0.4184000  2
   1434   1446   2957   2948     1  0.0000000  1.6024720  3
   1437   1443   2928   2919     1  180.0000771  0.4184000  2
   1437   1443   2928   2919     1  0.0000000  1.6024720  3
   1443   2928   2919   2910     1  180.0000771  0.4184000  2
   1443   2928   2919   2910     1  0.0000000  1.6024720  3
   1446   2957   2948   2939     1  180.0000771  0.4184000  2
   1446   2957   2948   2939     1  0.0000000  1.6024720  3
   1450   1451   1463   1475     1  0.0000000  0.6508444  3
   1450   1454   1466   1472     1  0.0000000  0.6508444  3
   1450   1457   1460   1469     1  0.0000000  0.6508444  3
   1451   1450   1454   1466     1  180.0000771  2.0083200  2
   1451   1450   1454   1466     1  0.0000000  1.2552000  3
   1451   1450   1457   1460     1  180.0000771  2.0083200  2
   1451   1450   1457   1460     1  0.0000000  1.2552000  3
   1451   1463   1475   3015     1  0.0000000  0.6508444  3
   1454   1450   1451   1463     1  180.0000771  2.0083200  2
   1454   1450   1451   1463     1  0.0000000  1.2552000  3
   1454   1450   1457   1460     1  180.0000771  2.0083200  2
   1454   1450   1457   1460     1  0.0000000  1.2552000  3
   1454   1466   1472   2986     1  0.0000000  0.6508444  3
   1457   1450   1451   1463     1  180.0000771  2.0083200  2
   1457   1450   1451   1463     1  0.0000000  1.2552000  3
   1457   1450   1454   1466     1  180.0000771  2.0083200  2
   1457   1450   1454   1466     1  0.0000000  1.2552000  3
   1457   1460   1469   1478     1  0.0000000  0.6508444  3
   1463   1475   3015   3006     1  180.0000771  0.4184000  2
   1463   1475   3015   3006     1  0.0000000  1.6024720  3
   1466   1472   2986   2977     1  180.0000771  0.4184000  2
   1466   1472   2986   2977     1  0.0000000  1.6024720  3
   1472   2986   2977   2968     1  180.0000771  0.4184000  2
   1472   2986   2977   2968     1  0.0000000  1.6024720  3
   1475   3015   3006   2997     1  180.0000771  0.4184000  2
   1475   3015   3006   2997     1  0.0000000  1.6024720  3
   1479   1480   1492   1504     1  0.0000000  0.6508444  3
   1479   1483   1495   1501     1  0.0000000  0.6508444  3
   1479   1486   1489   1498     1  0.0000000  0.6508444  3
   1480   1479   1483   1495     1  180.0000771  2.0083200  2
   1480   1479   1483   1495     1  0.0000000  1.2552000  3
   1480   1479   1486   1489     1  180.0000771  2.0083200  2
   1480   1479   1486   1489     1  0.0000000  1.2552000  3
   1480   1492   1504   3073     1  0.0000000  0.6508444  3
   1483   1479   1480   1492     1  180.0000771  2.0083200  2
   1483   1479   1480   1492     1  0.0000000  1.2552000  3
   1483   1479   1486   1489     1  180.0000771  2.0083200  2
   1483   1479   1486   1489     1  0.0000000  1.2552000  3
   1483   1495   1501   3044     1  0.0000000  0.6508444  3
   1486   1479   1480   1492     1  180.0000771  2.0083200  2
   1486   1479   1480   1492     1  0.0000000  1.2552000  3
   1486   1479   1483   1495     1  180.0000771  2.0083200  2
   1486   1479   1483   1495     1  0.0000000  1.2552000  3
   1486   1489   1498   1507     1  0.0000000  0.6508444  3
   1492   1504   3073   3064     1  180.0000771  0.4184000  2
   1492   1504   3073   3064     1  0.0000000  1.6024720  3
   1495   1501   3044   3035     1  180.0000771  0.4184000  2
   1495   1501   3044   3035     1  0.0000000  1.6024720  3
   1501   3044   3035   3026     1  180.0000771  0.4184000  2
   1501   3044   3035   3026     1  0.0000000  1.6024720  3
   1504   3073   3064   3055     1  180.0000771  0.4184000  2
   1504   3073   3064   3055     1  0.0000000  1.6024720  3
   1508   1509   1521   1533     1  0.0000000  0.6508444  3
   1508   1512   1524   1530     1  0.0000000  0.6508444  3
   1508   1515   1518   1527     1  0.0000000  0.6508444  3
   1509   1508   1512   1524     1  180.0000771  2.0083200  2
   1509   1508   1512   1524     1  0.0000000  1.2552000  3
   1509   1508   1515   1518     1  180.0000771  2.0083200  2
   1509   1508   1515   1518     1  0.0000000  1.2552000  3
   1509   1521   1533   3131     1  0.0000000  0.6508444  3
   1512   1508   1509   1521     1  180.0000771  2.0083200  2
   1512   1508   1509   1521     1  0.0000000  1.2552000  3
   1512   1508   1515   1518     1  180.0000771  2.0083200  2
   1512   1508   1515   1518     1  0.0000000  1.2552000  3
   1512   1524   1530   3102     1  0.0000000  0.6508444  3
   1515   1508   1509   1521     1  180.0000771  2.0083200  2
   1515   1508   1509   1521     1  0.0000000  1.2552000  3
   1515   1508   1512   1524     1  180.0000771  2.0083200  2
   1515   1508   1512   1524     1  0.0000000  1.2552000  3
   1515   1518   1527   1536     1  0.0000000  0.6508444  3
   1521   1533   3131   3122     1  180.0000771  0.4184000  2
   1521   1533   3131   3122     1  0.0000000  1.6024720  3
   1524   1530   3102   3093     1  180.0000771  0.4184000  2
   1524   1530   3102   3093     1  0.0000000  1.6024720  3
   1530   3102   3093   3084     1  180.0000771  0.4184000  2
   1530   3102   3093   3084     1  0.0000000  1.6024720  3
   1533   3131   3122   3113     1  180.0000771  0.4184000  2
   1533   3131   3122   3113     1  0.0000000  1.6024720  3
   1537   1538   1550   1562     1  0.0000000  0.6508444  3
   1537   1541   1553   1559     1  0.0000000  0.6508444  3
   1537   1544   1547   1556     1  0.0000000  0.6508444  3
   1538   1537   1541   1553     1  180.0000771  2.0083200  2
   1538   1537   1541   1553     1  0.0000000  1.2552000  3
   1538   1537   1544   1547     1  180.0000771  2.0083200  2
   1538   1537   1544   1547     1  0.0000000  1.2552000  3
   1538   1550   1562   3189     1  0.0000000  0.6508444  3
   1541   1537   1538   1550     1  180.0000771  2.0083200  2
   1541   1537   1538   1550     1  0.0000000  1.2552000  3
   1541   1537   1544   1547     1  180.0000771  2.0083200  2
   1541   1537   1544   1547     1  0.0000000  1.2552000  3
   1541   1553   1559   3160     1  0.0000000  0.6508444  3
   1544   1537   1538   1550     1  180.0000771  2.0083200  2
   1544   1537   1538   1550     1  0.0000000  1.2552000  3
   1544   1537   1541   1553     1  180.0000771  2.0083200  2
   1544   1537   1541   1553     1  0.0000000  1.2552000  3
   1544   1547   1556   1565     1  0.0000000  0.6508444  3
   1550   1562   3189   3180     1  180.0000771  0.4184000  2
   1550   1562   3189   3180     1  0.0000000  1.6024720  3
   1553   1559   3160   3151     1  180.0000771  0.4184000  2
   1553   1559   3160   3151     1  0.0000000  1.6024720  3
   1559   3160   3151   3142     1  180.0000771  0.4184000  2
   1559   3160   3151   3142     1  0.0000000  1.6024720  3
   1562   3189   3180   3171     1  180.0000771  0.4184000  2
   1562   3189   3180   3171     1  0.0000000  1.6024720  3
   1566   1567   1579   1591     1  0.0000000  0.6508444  3
   1566   1570   1582   1588     1  0.0000000  0.6508444  3
   1566   1573   1576   1585     1  0.0000000  0.6508444  3
   1567   1566   1570   1582     1  180.0000771  2.0083200  2
   1567   1566   1570   1582     1  0.0000000  1.2552000  3
   1567   1566   1573   1576     1  180.0000771  2.0083200  2
   1567   1566   1573   1576     1  0.0000000  1.2552000  3
   1567   1579   1591   3247     1  0.0000000  0.6508444  3
   1570   1566   1567   1579     1  180.0000771  2.0083200  2
   1570   1566   1567   1579     1  0.0000000  1.2552000  3
   1570   1566   1573   1576     1  180.0000771  2.0083200  2
   1570   1566   1573   1576     1  0.0000000  1.2552000  3
   1570   1582   1588   3218     1  0.0000000  0.6508444  3
   1573   1566   1567   1579     1  180.0000771  2.0083200  2
   1573   1566   1567   1579     1  0.0000000  1.2552000  3
   1573   1566   1570   1582     1  180.0000771  2.0083200  2
   1573   1566   1570   1582     1  0.0000000  1.2552000  3
   1573   1576   1585   1594     1  0.0000000  0.6508444  3
   1579   1591   3247   3238     1  180.0000771  0.4184000  2
   1579   1591   3247   3238     1  0.0000000  1.6024720  3
   1582   1588   3218   3209     1  180.0000771  0.4184000  2
   1582   1588   3218   3209     1  0.0000000  1.6024720  3
   1588   3218   3209   3200     1  180.0000771  0.4184000  2
   1588   3218   3209   3200     1  0.0000000  1.6024720  3
   1591   3247   3238   3229     1  180.0000771  0.4184000  2
   1591   3247   3238   3229     1  0.0000000  1.6024720  3
   1595   1596   1608   1620     1  0.0000000  0.6508444  3
   1595   1599   1611   1617     1  0.0000000  0.6508444  3
   1595   1602   1605   1614     1  0.0000000  0.6508444  3
   1596   1595   1599   1611     1  180.0000771  2.0083200  2
   1596   1595   1599   1611     1  0.0000000  1.2552000  3
   1596   1595   1602   1605     1  180.0000771  2.0083200  2
   1596   1595   1602   1605     1  0.0000000  1.2552000  3
   1596   1608   1620   3305     1  0.0000000  0.6508444  3
   1599   1595   1596   1608     1  180.0000771  2.0083200  2
   1599   1595   1596   1608     1  0.0000000  1.2552000  3
   1599   1595   1602   1605     1  180.0000771  2.0083200  2
   1599   1595   1602   1605     1  0.0000000  1.2552000  3
   1599   1611   1617   3276     1  0.0000000  0.6508444  3
   1602   1595   1596   1608     1  180.0000771  2.0083200  2
   1602   1595   1596   1608     1  0.0000000  1.2552000  3
   1602   1595   1599   1611     1  180.0000771  2.0083200  2
   1602   1595   1599   1611     1  0.0000000  1.2552000  3
   1602   1605   1614   1623     1  0.0000000  0.6508444  3
   1608   1620   3305   3296     1  180.0000771  0.4184000  2
   1608   1620   3305   3296     1  0.0000000  1.6024720  3
   1611   1617   3276   3267     1  180.0000771  0.4184000  2
   1611   1617   3276   3267     1  0.0000000  1.6024720  3
   1617   3276   3267   3258     1  180.0000771  0.4184000  2
   1617   3276   3267   3258     1  0.0000000  1.6024720  3
   1620   3305   3296   3287     1  180.0000771  0.4184000  2
   1620   3305   3296   3287     1  0.0000000  1.6024720  3
   1624   1625   1637   1649     1  0.0000000  0.6508444  3
   1624   1628   1640   1646     1  0.0000000  0.6508444  3
   1624   1631   1634   1643     1  0.0000000  0.6508444  3
   1625   1624   1628   1640     1  180.0000771  2.0083200  2
   1625   1624   1628   1640     1  0.0000000  1.2552000  3
   1625   1624   1631   1634     1  180.0000771  2.0083200  2
   1625   1624   1631   1634     1  0.0000000  1.2552000  3
   1625   1637   1649   3363     1  0.0000000  0.6508444  3
   1628   1624   1625   1637     1  180.0000771  2.0083200  2
   1628   1624   1625   1637     1  0.0000000  1.2552000  3
   1628   1624   1631   1634     1  180.0000771  2.0083200  2
   1628   1624   1631   1634     1  0.0000000  1.2552000  3
   1628   1640   1646   3334     1  0.0000000  0.6508444  3
   1631   1624   1625   1637     1  180.0000771  2.0083200  2
   1631   1624   1625   1637     1  0.0000000  1.2552000  3
   1631   1624   1628   1640     1  180.0000771  2.0083200  2
   1631   1624   1628   1640     1  0.0000000  1.2552000  3
   1631   1634   1643   1652     1  0.0000000  0.6508444  3
   1637   1649   3363   3354     1  180.0000771  0.4184000  2
   1637   1649   3363   3354     1  0.0000000  1.6024720  3
   1640   1646   3334   3325     1  180.0000771  0.4184000  2
   1640   1646   3334   3325     1  0.0000000  1.6024720  3
   1646   3334   3325   3316     1  180.0000771  0.4184000  2
   1646   3334   3325   3316     1  0.0000000  1.6024720  3
   1649   3363   3354   3345     1  180.0000771  0.4184000  2
   1649   3363   3354   3345     1  0.0000000  1.6024720  3
   1653   1654   1666   1678     1  0.0000000  0.6508444  3
   1653   1657   1669   1675     1  0.0000000  0.6508444  3
   1653   1660   1663   1672     1  0.0000000  0.6508444  3
   1654   1653   1657   1669     1  180.0000771  2.0083200  2
   1654   1653   1657   1669     1  0.0000000  1.2552000  3
   1654   1653   1660   1663     1  180.0000771  2.0083200  2
   1654   1653   1660   1663     1  0.0000000  1.2552000  3
   1654   1666   1678   3421     1  0.0000000  0.6508444  3
   1657   1653   1654   1666     1  180.0000771  2.0083200  2
   1657   1653   1654   1666     1  0.0000000  1.2552000  3
   1657   1653   1660   1663     1  180.0000771  2.0083200  2
   1657   1653   1660   1663     1  0.0000000  1.2552000  3
   1657   1669   1675   3392     1  0.0000000  0.6508444  3
   1660   1653   1654   1666     1  180.0000771  2.0083200  2
   1660   1653   1654   1666     1  0.0000000  1.2552000  3
   1660   1653   1657   1669     1  180.0000771  2.0083200  2
   1660   1653   1657   1669     1  0.0000000  1.2552000  3
   1660   1663   1672   1681     1  0.0000000  0.6508444  3
   1666   1678   3421   3412     1  180.0000771  0.4184000  2
   1666   1678   3421   3412     1  0.0000000  1.6024720  3
   1669   1675   3392   3383     1  180.0000771  0.4184000  2
   1669   1675   3392   3383     1  0.0000000  1.6024720  3
   1675   3392   3383   3374     1  180.0000771  0.4184000  2
   1675   3392   3383   3374     1  0.0000000  1.6024720  3
   1678   3421   3412   3403     1  180.0000771  0.4184000  2
   1678   3421   3412   3403     1  0.0000000  1.6024720  3
   1682   1683   1695   1707     1  0.0000000  0.6508444  3
   1682   1686   1698   1704     1  0.0000000  0.6508444  3
   1682   1689   1692   1701     1  0.0000000  0.6508444  3
   1683   1682   1686   1698     1  180.0000771  2.0083200  2
   1683   1682   1686   1698     1  0.0000000  1.2552000  3
   1683   1682   1689   1692     1  180.0000771  2.0083200  2
   1683   1682   1689   1692     1  0.0000000  1.2552000  3
   1683   1695   1707   3479     1  0.0000000  0.6508444  3
   1686   1682   1683   1695     1  180.0000771  2.0083200  2
   1686   1682   1683   1695     1  0.0000000  1.2552000  3
   1686   1682   1689   1692     1  180.0000771  2.0083200  2
   1686   1682   1689   1692     1  0.0000000  1.2552000  3
   1686   1698   1704   3450     1  0.0000000  0.6508444  3
   1689   1682   1683   1695     1  180.0000771  2.0083200  2
   1689   1682   1683   1695     1  0.0000000  1.2552000  3
   1689   1682   1686   1698     1  180.0000771  2.0083200  2
   1689   1682   1686   1698     1  0.0000000  1.2552000  3
   1689   1692   1701   1710     1  0.0000000  0.6508444  3
   1695   1707   3479   3470     1  180.0000771  0.4184000  2
   1695   1707   3479   3470     1  0.0000000  1.6024720  3
   1698   1704   3450   3441     1  180.0000771  0.4184000  2
   1698   1704   3450   3441     1  0.0000000  1.6024720  3
   1704   3450   3441   3432     1  180.0000771  0.4184000  2
   1704   3450   3441   3432     1  0.0000000  1.6024720  3
   1707   3479   3470   3461     1  180.0000771  0.4184000  2
   1707   3479   3470   3461     1  0.0000000  1.6024720  3
   1711   1712   1724   1736     1  0.0000000  0.6508444  3
   1711   1715   1727   1733     1  0.0000000  0.6508444  3
   1711   1718   1721   1730     1  0.0000000  0.6508444  3
   1712   1711   1715   1727     1  180.0000771  2.0083200  2
   1712   1711   1715   1727     1  0.0000000  1.2552000  3
   1712   1711   1718   1721     1  180.0000771  2.0083200  2
   1712   1711   1718   1721     1  0.0000000  1.2552000  3
   1712   1724   1736   3537     1  0.0000000  0.6508444  3
   1715   1711   1712   1724     1  180.0000771  2.0083200  2
   1715   1711   1712   1724     1  0.0000000  1.2552000  3
   1715   1711   1718   1721     1  180.0000771  2.0083200  2
   1715   1711   1718   1721     1  0.0000000  1.2552000  3
   1715   1727   1733   3508     1  0.0000000  0.6508444  3
   1718   1711   1712   1724     1  180.0000771  2.0083200  2
   1718   1711   1712   1724     1  0.0000000  1.2552000  3
   1718   1711   1715   1727     1  180.0000771  2.0083200  2
   1718   1711   1715   1727     1  0.0000000  1.2552000  3
   1718   1721   1730   1739     1  0.0000000  0.6508444  3
   1724   1736   3537   3528     1  180.0000771  0.4184000  2
   1724   1736   3537   3528     1  0.0000000  1.6024720  3
   1727   1733   3508   3499     1  180.0000771  0.4184000  2
   1727   1733   3508   3499     1  0.0000000  1.6024720  3
   1733   3508   3499   3490     1  180.0000771  0.4184000  2
   1733   3508   3499   3490     1  0.0000000  1.6024720  3
   1736   3537   3528   3519     1  180.0000771  0.4184000  2
   1736   3537   3528   3519     1  0.0000000  1.6024720  3
   1740   1741   1753   1765     1  0.0000000  0.6508444  3
   1740   1744   1756   1762     1  0.0000000  0.6508444  3
   1740   1747   1750   1759     1  0.0000000  0.6508444  3
   1741   1740   1744   1756     1  180.0000771  2.0083200  2
   1741   1740   1744   1756     1  0.0000000  1.2552000  3
   1741   1740   1747   1750     1  180.0000771  2.0083200  2
   1741   1740   1747   1750     1  0.0000000  1.2552000  3
   1741   1753   1765   3595     1  0.0000000  0.6508444  3
   1744   1740   1741   1753     1  180.0000771  2.0083200  2
   1744   1740   1741   1753     1  0.0000000  1.2552000  3
   1744   1740   1747   1750     1  180.0000771  2.0083200  2
   1744   1740   1747   1750     1  0.0000000  1.2552000  3
   1744   1756   1762   3566     1  0.0000000  0.6508444  3
   1747   1740   1741   1753     1  180.0000771  2.0083200  2
   1747   1740   1741   1753     1  0.0000000  1.2552000  3
   1747   1740   1744   1756     1  180.0000771  2.0083200  2
   1747   1740   1744   1756     1  0.0000000  1.2552000  3
   1747   1750   1759   1768     1  0.0000000  0.6508444  3
   1753   1765   3595   3586     1  180.0000771  0.4184000  2
   1753   1765   3595   3586     1  0.0000000  1.6024720  3
   1756   1762   3566   3557     1  180.0000771  0.4184000  2
   1756   1762   3566   3557     1  0.0000000  1.6024720  3
   1762   3566   3557   3548     1  180.0000771  0.4184000  2
   1762   3566   3557   3548     1  0.0000000  1.6024720  3
   1765   3595   3586   3577     1  180.0000771  0.4184000  2
   1765   3595   3586   3577     1  0.0000000  1.6024720  3
   1769   1770   1782   1794     1  0.0000000  0.6508444  3
   1769   1773   1785   1791     1  0.0000000  0.6508444  3
   1769   1776   1779   1788     1  0.0000000  0.6508444  3
   1770   1769   1773   1785     1  180.0000771  2.0083200  2
   1770   1769   1773   1785     1  0.0000000  1.2552000  3
   1770   1769   1776   1779     1  180.0000771  2.0083200  2
   1770   1769   1776   1779     1  0.0000000  1.2552000  3
   1770   1782   1794   3653     1  0.0000000  0.6508444  3
   1773   1769   1770   1782     1  180.0000771  2.0083200  2
   1773   1769   1770   1782     1  0.0000000  1.2552000  3
   1773   1769   1776   1779     1  180.0000771  2.0083200  2
   1773   1769   1776   1779     1  0.0000000  1.2552000  3
   1773   1785   1791   3624     1  0.0000000  0.6508444  3
   1776   1769   1770   1782     1  180.0000771  2.0083200  2
   1776   1769   1770   1782     1  0.0000000  1.2552000  3
   1776   1769   1773   1785     1  180.0000771  2.0083200  2
   1776   1769   1773   1785     1  0.0000000  1.2552000  3
   1776   1779   1788   1797     1  0.0000000  0.6508444  3
   1782   1794   3653   3644     1  180.0000771  0.4184000  2
   1782   1794   3653   3644     1  0.0000000  1.6024720  3
   1785   1791   3624   3615     1  180.0000771  0.4184000  2
   1785   1791   3624   3615     1  0.0000000  1.6024720  3
   1791   3624   3615   3606     1  180.0000771  0.4184000  2
   1791   3624   3615   3606     1  0.0000000  1.6024720  3
   1794   3653   3644   3635     1  180.0000771  0.4184000  2
   1794   3653   3644   3635     1  0.0000000  1.6024720  3
   1798   1799   1811   1823     1  0.0000000  0.6508444  3
   1798   1802   1814   1820     1  0.0000000  0.6508444  3
   1798   1805   1808   1817     1  0.0000000  0.6508444  3
   1799   1798   1802   1814     1  180.0000771  2.0083200  2
   1799   1798   1802   1814     1  0.0000000  1.2552000  3
   1799   1798   1805   1808     1  180.0000771  2.0083200  2
   1799   1798   1805   1808     1  0.0000000  1.2552000  3
   1799   1811   1823   3711     1  0.0000000  0.6508444  3
   1802   1798   1799   1811     1  180.0000771  2.0083200  2
   1802   1798   1799   1811     1  0.0000000  1.2552000  3
   1802   1798   1805   1808     1  180.0000771  2.0083200  2
   1802   1798   1805   1808     1  0.0000000  1.2552000  3
   1802   1814   1820   3682     1  0.0000000  0.6508444  3
   1805   1798   1799   1811     1  180.0000771  2.0083200  2
   1805   1798   1799   1811     1  0.0000000  1.2552000  3
   1805   1798   1802   1814     1  180.0000771  2.0083200  2
   1805   1798   1802   1814     1  0.0000000  1.2552000  3
   1805   1808   1817   1826     1  0.0000000  0.6508444  3
   1811   1823   3711   3702     1  180.0000771  0.4184000  2
   1811   1823   3711   3702     1  0.0000000  1.6024720  3
   1814   1820   3682   3673     1  180.0000771  0.4184000  2
   1814   1820   3682   3673     1  0.0000000  1.6024720  3
   1820   3682   3673   3664     1  180.0000771  0.4184000  2
   1820   3682   3673   3664     1  0.0000000  1.6024720  3
   1823   3711   3702   3693     1  180.0000771  0.4184000  2
   1823   3711   3702   3693     1  0.0000000  1.6024720  3
   1827   1828   1840   1852     1  0.0000000  0.6508444  3
   1827   1831   1843   1849     1  0.0000000  0.6508444  3
   1827   1834   1837   1846     1  0.0000000  0.6508444  3
   1828   1827   1831   1843     1  180.0000771  2.0083200  2
   1828   1827   1831   1843     1  0.0000000  1.2552000  3
   1828   1827   1834   1837     1  180.0000771  2.0083200  2
   1828   1827   1834   1837     1  0.0000000  1.2552000  3
   1828   1840   1852   3769     1  0.0000000  0.6508444  3
   1831   1827   1828   1840     1  180.0000771  2.0083200  2
   1831   1827   1828   1840     1  0.0000000  1.2552000  3
   1831   1827   1834   1837     1  180.0000771  2.0083200  2
   1831   1827   1834   1837     1  0.0000000  1.2552000  3
   1831   1843   1849   3740     1  0.0000000  0.6508444  3
   1834   1827   1828   1840     1  180.0000771  2.0083200  2
   1834   1827   1828   1840     1  0.0000000  1.2552000  3
   1834   1827   1831   1843     1  180.0000771  2.0083200  2
   1834   1827   1831   1843     1  0.0000000  1.2552000  3
   1834   1837   1846   1855     1  0.0000000  0.6508444  3
   1840   1852   3769   3760     1  180.0000771  0.4184000  2
   1840   1852   3769   3760     1  0.0000000  1.6024720  3
   1843   1849   3740   3731     1  180.0000771  0.4184000  2
   1843   1849   3740   3731     1  0.0000000  1.6024720  3
   1849   3740   3731   3722     1  180.0000771  0.4184000  2
   1849   3740   3731   3722     1  0.0000000  1.6024720  3
   1852   3769   3760   3751     1  180.0000771  0.4184000  2
   1852   3769   3760   3751     1  0.0000000  1.6024720  3
   1856   1857   1869   1881     1  0.0000000  0.6508444  3
   1856   1860   1872   1878     1  0.0000000  0.6508444  3
   1856   1863   1866   1875     1  0.0000000  0.6508444  3
   1857   1856   1860   1872     1  180.0000771  2.0083200  2
   1857   1856   1860   1872     1  0.0000000  1.2552000  3
   1857   1856   1863   1866     1  180.0000771  2.0083200  2
   1857   1856   1863   1866     1  0.0000000  1.2552000  3
   1857   1869   1881   3827     1  0.0000000  0.6508444  3
   1860   1856   1857   1869     1  180.0000771  2.0083200  2
   1860   1856   1857   1869     1  0.0000000  1.2552000  3
   1860   1856   1863   1866     1  180.0000771  2.0083200  2
   1860   1856   1863   1866     1  0.0000000  1.2552000  3
   1860   1872   1878   3798     1  0.0000000  0.6508444  3
   1863   1856   1857   1869     1  180.0000771  2.0083200  2
   1863   1856   1857   1869     1  0.0000000  1.2552000  3
   1863   1856   1860   1872     1  180.0000771  2.0083200  2
   1863   1856   1860   1872     1  0.0000000  1.2552000  3
   1863   1866   1875   1884     1  0.0000000  0.6508444  3
   1869   1881   3827   3818     1  180.0000771  0.4184000  2
   1869   1881   3827   3818     1  0.0000000  1.6024720  3
   1872   1878   3798   3789     1  180.0000771  0.4184000  2
   1872   1878   3798   3789     1  0.0000000  1.6024720  3
   1878   3798   3789   3780     1  180.0000771  0.4184000  2
   1878   3798   3789   3780     1  0.0000000  1.6024720  3
   1881   3827   3818   3809     1  180.0000771  0.4184000  2
   1881   3827   3818   3809     1  0.0000000  1.6024720  3
   1885   1886   1898   1910     1  0.0000000  0.6508444  3
   1885   1889   1901   1907     1  0.0000000  0.6508444  3
   1885   1892   1895   1904     1  0.0000000  0.6508444  3
   1886   1885   1889   1901     1  180.0000771  2.0083200  2
   1886   1885   1889   1901     1  0.0000000  1.2552000  3
   1886   1885   1892   1895     1  180.0000771  2.0083200  2
   1886   1885   1892   1895     1  0.0000000  1.2552000  3
   1886   1898   1910   3885     1  0.0000000  0.6508444  3
   1889   1885   1886   1898     1  180.0000771  2.0083200  2
   1889   1885   1886   1898     1  0.0000000  1.2552000  3
   1889   1885   1892   1895     1  180.0000771  2.0083200  2
   1889   1885   1892   1895     1  0.0000000  1.2552000  3
   1889   1901   1907   3856     1  0.0000000  0.6508444  3
   1892   1885   1886   1898     1  180.0000771  2.0083200  2
   1892   1885   1886   1898     1  0.0000000  1.2552000  3
   1892   1885   1889   1901     1  180.0000771  2.0083200  2
   1892   1885   1889   1901     1  0.0000000  1.2552000  3
   1892   1895   1904   1913     1  0.0000000  0.6508444  3
   1898   1910   3885   3876     1  180.0000771  0.4184000  2
   1898   1910   3885   3876     1  0.0000000  1.6024720  3
   1901   1907   3856   3847     1  180.0000771  0.4184000  2
   1901   1907   3856   3847     1  0.0000000  1.6024720  3
   1907   3856   3847   3838     1  180.0000771  0.4184000  2
   1907   3856   3847   3838     1  0.0000000  1.6024720  3
   1910   3885   3876   3867     1  180.0000771  0.4184000  2
   1910   3885   3876   3867     1  0.0000000  1.6024720  3
   1914   1915   1927   1939     1  0.0000000  0.6508444  3
   1914   1918   1930   1936     1  0.0000000  0.6508444  3
   1914   1921   1924   1933     1  0.0000000  0.6508444  3
   1915   1914   1918   1930     1  180.0000771  2.0083200  2
   1915   1914   1918   1930     1  0.0000000  1.2552000  3
   1915   1914   1921   1924     1  180.0000771  2.0083200  2
   1915   1914   1921   1924     1  0.0000000  1.2552000  3
   1915   1927   1939   3943     1  0.0000000  0.6508444  3
   1918   1914   1915   1927     1  180.0000771  2.0083200  2
   1918   1914   1915   1927     1  0.0000000  1.2552000  3
   1918   1914   1921   1924     1  180.0000771  2.0083200  2
   1918   1914   1921   1924     1  0.0000000  1.2552000  3
   1918   1930   1936   3914     1  0.0000000  0.6508444  3
   1921   1914   1915   1927     1  180.0000771  2.0083200  2
   1921   1914   1915   1927     1  0.0000000  1.2552000  3
   1921   1914   1918   1930     1  180.0000771  2.0083200  2
   1921   1914   1918   1930     1  0.0000000  1.2552000  3
   1921   1924   1933   1942     1  0.0000000  0.6508444  3
   1927   1939   3943   3934     1  180.0000771  0.4184000  2
   1927   1939   3943   3934     1  0.0000000  1.6024720  3
   1930   1936   3914   3905     1  180.0000771  0.4184000  2
   1930   1936   3914   3905     1  0.0000000  1.6024720  3
   1936   3914   3905   3896     1  180.0000771  0.4184000  2
   1936   3914   3905   3896     1  0.0000000  1.6024720  3
   1939   3943   3934   3925     1  180.0000771  0.4184000  2
   1939   3943   3934   3925     1  0.0000000  1.6024720  3
   1943   1944   1956   1968     1  0.0000000  0.6508444  3
   1943   1947   1959   1965     1  0.0000000  0.6508444  3
   1943   1950   1953   1962     1  0.0000000  0.6508444  3
   1944   1943   1947   1959     1  180.0000771  2.0083200  2
   1944   1943   1947   1959     1  0.0000000  1.2552000  3
   1944   1943   1950   1953     1  180.0000771  2.0083200  2
   1944   1943   1950   1953     1  0.0000000  1.2552000  3
   1944   1956   1968   4001     1  0.0000000  0.6508444  3
   1947   1943   1944   1956     1  180.0000771  2.0083200  2
   1947   1943   1944   1956     1  0.0000000  1.2552000  3
   1947   1943   1950   1953     1  180.0000771  2.0083200  2
   1947   1943   1950   1953     1  0.0000000  1.2552000  3
   1947   1959   1965   3972     1  0.0000000  0.6508444  3
   1950   1943   1944   1956     1  180.0000771  2.0083200  2
   1950   1943   1944   1956     1  0.0000000  1.2552000  3
   1950   1943   1947   1959     1  180.0000771  2.0083200  2
   1950   1943   1947   1959     1  0.0000000  1.2552000  3
   1950   1953   1962   1971     1  0.0000000  0.6508444  3
   1956   1968   4001   3992     1  180.0000771  0.4184000  2
   1956   1968   4001   3992     1  0.0000000  1.6024720  3
   1959   1965   3972   3963     1  180.0000771  0.4184000  2
   1959   1965   3972   3963     1  0.0000000  1.6024720  3
   1965   3972   3963   3954     1  180.0000771  0.4184000  2
   1965   3972   3963   3954     1  0.0000000  1.6024720  3
   1968   4001   3992   3983     1  180.0000771  0.4184000  2
   1968   4001   3992   3983     1  0.0000000  1.6024720  3
   1972   1973   1985   1997     1  0.0000000  0.6508444  3
   1972   1976   1988   1994     1  0.0000000  0.6508444  3
   1972   1979   1982   1991     1  0.0000000  0.6508444  3
   1973   1972   1976   1988     1  180.0000771  2.0083200  2
   1973   1972   1976   1988     1  0.0000000  1.2552000  3
   1973   1972   1979   1982     1  180.0000771  2.0083200  2
   1973   1972   1979   1982     1  0.0000000  1.2552000  3
   1973   1985   1997   4059     1  0.0000000  0.6508444  3
   1976   1972   1973   1985     1  180.0000771  2.0083200  2
   1976   1972   1973   1985     1  0.0000000  1.2552000  3
   1976   1972   1979   1982     1  180.0000771  2.0083200  2
   1976   1972   1979   1982     1  0.0000000  1.2552000  3
   1976   1988   1994   4030     1  0.0000000  0.6508444  3
   1979   1972   1973   1985     1  180.0000771  2.0083200  2
   1979   1972   1973   1985     1  0.0000000  1.2552000  3
   1979   1972   1976   1988     1  180.0000771  2.0083200  2
   1979   1972   1976   1988     1  0.0000000  1.2552000  3
   1979   1982   1991   2000     1  0.0000000  0.6508444  3
   1985   1997   4059   4050     1  180.0000771  0.4184000  2
   1985   1997   4059   4050     1  0.0000000  1.6024720  3
   1988   1994   4030   4021     1  180.0000771  0.4184000  2
   1988   1994   4030   4021     1  0.0000000  1.6024720  3
   1994   4030   4021   4012     1  180.0000771  0.4184000  2
   1994   4030   4021   4012     1  0.0000000  1.6024720  3
   1997   4059   4050   4041     1  180.0000771  0.4184000  2
   1997   4059   4050   4041     1  0.0000000  1.6024720  3
   2001   2002   2014   2026     1  0.0000000  0.6508444  3
   2001   2005   2017   2023     1  0.0000000  0.6508444  3
   2001   2008   2011   2020     1  0.0000000  0.6508444  3
   2002   2001   2005   2017     1  180.0000771  2.0083200  2
   2002   2001   2005   2017     1  0.0000000  1.2552000  3
   2002   2001   2008   2011     1  180.0000771  2.0083200  2
   2002   2001   2008   2011     1  0.0000000  1.2552000  3
   2002   2014   2026   4117     1  0.0000000  0.6508444  3
   2005   2001   2002   2014     1  180.0000771  2.0083200  2
   2005   2001   2002   2014     1  0.0000000  1.2552000  3
   2005   2001   2008   2011     1  180.0000771  2.0083200  2
   2005   2001   2008   2011     1  0.0000000  1.2552000  3
   2005   2017   2023   4088     1  0.0000000  0.6508444  3
   2008   2001   2002   2014     1  180.0000771  2.0083200  2
   2008   2001   2002   2014     1  0.0000000  1.2552000  3
   2008   2001   2005   2017     1  180.0000771  2.0083200  2
   2008   2001   2005   2017     1  0.0000000  1.2552000  3
   2008   2011   2020   2029     1  0.0000000  0.6508444  3
   2014   2026   4117   4108     1  180.0000771  0.4184000  2
   2014   2026   4117   4108     1  0.0000000  1.6024720  3
   2017   2023   4088   4079     1  180.0000771  0.4184000  2
   2017   2023   4088   4079     1  0.0000000  1.6024720  3
   2023   4088   4079   4070     1  180.0000771  0.4184000  2
   2023   4088   4079   4070     1  0.0000000  1.6024720  3
   2026   4117   4108   4099     1  180.0000771  0.4184000  2
   2026   4117   4108   4099     1  0.0000000  1.6024720  3
   2030   2031   2043   2055     1  0.0000000  0.6508444  3
   2030   2034   2046   2052     1  0.0000000  0.6508444  3
   2030   2037   2040   2049     1  0.0000000  0.6508444  3
   2031   2030   2034   2046     1  180.0000771  2.0083200  2
   2031   2030   2034   2046     1  0.0000000  1.2552000  3
   2031   2030   2037   2040     1  180.0000771  2.0083200  2
   2031   2030   2037   2040     1  0.0000000  1.2552000  3
   2031   2043   2055   4175     1  0.0000000  0.6508444  3
   2034   2030   2031   2043     1  180.0000771  2.0083200  2
   2034   2030   2031   2043     1  0.0000000  1.2552000  3
   2034   2030   2037   2040     1  180.0000771  2.0083200  2
   2034   2030   2037   2040     1  0.0000000  1.2552000  3
   2034   2046   2052   4146     1  0.0000000  0.6508444  3
   2037   2030   2031   2043     1  180.0000771  2.0083200  2
   2037   2030   2031   2043     1  0.0000000  1.2552000  3
   2037   2030   2034   2046     1  180.0000771  2.0083200  2
   2037   2030   2034   2046     1  0.0000000  1.2552000  3
   2037   2040   2049   2058     1  0.0000000  0.6508444  3
   2043   2055   4175   4166     1  180.0000771  0.4184000  2
   2043   2055   4175   4166     1  0.0000000  1.6024720  3
   2046   2052   4146   4137     1  180.0000771  0.4184000  2
   2046   2052   4146   4137     1  0.0000000  1.6024720  3
   2052   4146   4137   4128     1  180.0000771  0.4184000  2
   2052   4146   4137   4128     1  0.0000000  1.6024720  3
   2055   4175   4166   4157     1  180.0000771  0.4184000  2
   2055   4175   4166   4157     1  0.0000000  1.6024720  3
   2059   2060   2072   2084     1  0.0000000  0.6508444  3
   2059   2063   2075   2081     1  0.0000000  0.6508444  3
   2059   2066   2069   2078     1  0.0000000  0.6508444  3
   2060   2059   2063   2075     1  180.0000771  2.0083200  2
   2060   2059   2063   2075     1  0.0000000  1.2552000  3
   2060   2059   2066   2069     1  180.0000771  2.0083200  2
   2060   2059   2066   2069     1  0.0000000  1.2552000  3
   2060   2072   2084   4233     1  0.0000000  0.6508444  3
   2063   2059   2060   2072     1  180.0000771  2.0083200  2
   2063   2059   2060   2072     1  0.0000000  1.2552000  3
   2063   2059   2066   2069     1  180.0000771  2.0083200  2
   2063   2059   2066   2069     1  0.0000000  1.2552000  3
   2063   2075   2081   4204     1  0.0000000  0.6508444  3
   2066   2059   2060   2072     1  180.0000771  2.0083200  2
   2066   2059   2060   2072     1  0.0000000  1.2552000  3
   2066   2059   2063   2075     1  180.0000771  2.0083200  2
   2066   2059   2063   2075     1  0.0000000  1.2552000  3
   2066   2069   2078   2087     1  0.0000000  0.6508444  3
   2072   2084   4233   4224     1  180.0000771  0.4184000  2
   2072   2084   4233   4224     1  0.0000000  1.6024720  3
   2075   2081   4204   4195     1  180.0000771  0.4184000  2
   2075   2081   4204   4195     1  0.0000000  1.6024720  3
   2081   4204   4195   4186     1  180.0000771  0.4184000  2
   2081   4204   4195   4186     1  0.0000000  1.6024720  3
   2084   4233   4224   4215     1  180.0000771  0.4184000  2
   2084   4233   4224   4215     1  0.0000000  1.6024720  3
   2088   2089   2101   2113     1  0.0000000  0.6508444  3
   2088   2092   2104   2110     1  0.0000000  0.6508444  3
   2088   2095   2098   2107     1  0.0000000  0.6508444  3
   2089   2088   2092   2104     1  180.0000771  2.0083200  2
   2089   2088   2092   2104     1  0.0000000  1.2552000  3
   2089   2088   2095   2098     1  180.0000771  2.0083200  2
   2089   2088   2095   2098     1  0.0000000  1.2552000  3
   2089   2101   2113   4291     1  0.0000000  0.6508444  3
   2092   2088   2089   2101     1  180.0000771  2.0083200  2
   2092   2088   2089   2101     1  0.0000000  1.2552000  3
   2092   2088   2095   2098     1  180.0000771  2.0083200  2
   2092   2088   2095   2098     1  0.0000000  1.2552000  3
   2092   2104   2110   4262     1  0.0000000  0.6508444  3
   2095   2088   2089   2101     1  180.0000771  2.0083200  2
   2095   2088   2089   2101     1  0.0000000  1.2552000  3
   2095   2088   2092   2104     1  180.0000771  2.0083200  2
   2095   2088   2092   2104     1  0.0000000  1.2552000  3
   2095   2098   2107   2116     1  0.0000000  0.6508444  3
   2101   2113   4291   4282     1  180.0000771  0.4184000  2
   2101   2113   4291   4282     1  0.0000000  1.6024720  3
   2104   2110   4262   4253     1  180.0000771  0.4184000  2
   2104   2110   4262   4253     1  0.0000000  1.6024720  3
   2110   4262   4253   4244     1  180.0000771  0.4184000  2
   2110   4262   4253   4244     1  0.0000000  1.6024720  3
   2113   4291   4282   4273     1  180.0000771  0.4184000  2
   2113   4291   4282   4273     1  0.0000000  1.6024720  3
   2117   2118   2130   2142     1  0.0000000  0.6508444  3
   2117   2121   2133   2139     1  0.0000000  0.6508444  3
   2117   2124   2127   2136     1  0.0000000  0.6508444  3
   2118   2117   2121   2133     1  180.0000771  2.0083200  2
   2118   2117   2121   2133     1  0.0000000  1.2552000  3
   2118   2117   2124   2127     1  180.0000771  2.0083200  2
   2118   2117   2124   2127     1  0.0000000  1.2552000  3
   2118   2130   2142   4349     1  0.0000000  0.6508444  3
   2121   2117   2118   2130     1  180.0000771  2.0083200  2
   2121   2117   2118   2130     1  0.0000000  1.2552000  3
   2121   2117   2124   2127     1  180.0000771  2.0083200  2
   2121   2117   2124   2127     1  0.0000000  1.2552000  3
   2121   2133   2139   4320     1  0.0000000  0.6508444  3
   2124   2117   2118   2130     1  180.0000771  2.0083200  2
   2124   2117   2118   2130     1  0.0000000  1.2552000  3
   2124   2117   2121   2133     1  180.0000771  2.0083200  2
   2124   2117   2121   2133     1  0.0000000  1.2552000  3
   2124   2127   2136   2145     1  0.0000000  0.6508444  3
   2130   2142   4349   4340     1  180.0000771  0.4184000  2
   2130   2142   4349   4340     1  0.0000000  1.6024720  3
   2133   2139   4320   4311     1  180.0000771  0.4184000  2
   2133   2139   4320   4311     1  0.0000000  1.6024720  3
   2139   4320   4311   4302     1  180.0000771  0.4184000  2
   2139   4320   4311   4302     1  0.0000000  1.6024720  3
   2142   4349   4340   4331     1  180.0000771  0.4184000  2
   2142   4349   4340   4331     1  0.0000000  1.6024720  3
   2146   2147   2159   2171     1  0.0000000  0.6508444  3
   2146   2150   2162   2168     1  0.0000000  0.6508444  3
   2146   2153   2156   2165     1  0.0000000  0.6508444  3
   2147   2146   2150   2162     1  180.0000771  2.0083200  2
   2147   2146   2150   2162     1  0.0000000  1.2552000  3
   2147   2146   2153   2156     1  180.0000771  2.0083200  2
   2147   2146   2153   2156     1  0.0000000  1.2552000  3
   2147   2159   2171   4407     1  0.0000000  0.6508444  3
   2150   2146   2147   2159     1  180.0000771  2.0083200  2
   2150   2146   2147   2159     1  0.0000000  1.2552000  3
   2150   2146   2153   2156     1  180.0000771  2.0083200  2
   2150   2146   2153   2156     1  0.0000000  1.2552000  3
   2150   2162   2168   4378     1  0.0000000  0.6508444  3
   2153   2146   2147   2159     1  180.0000771  2.0083200  2
   2153   2146   2147   2159     1  0.0000000  1.2552000  3
   2153   2146   2150   2162     1  180.0000771  2.0083200  2
   2153   2146   2150   2162     1  0.0000000  1.2552000  3
   2153   2156   2165   2174     1  0.0000000  0.6508444  3
   2159   2171   4407   4398     1  180.0000771  0.4184000  2
   2159   2171   4407   4398     1  0.0000000  1.6024720  3
   2162   2168   4378   4369     1  180.0000771  0.4184000  2
   2162   2168   4378   4369     1  0.0000000  1.6024720  3
   2168   4378   4369   4360     1  180.0000771  0.4184000  2
   2168   4378   4369   4360     1  0.0000000  1.6024720  3
   2171   4407   4398   4389     1  180.0000771  0.4184000  2
   2171   4407   4398   4389     1  0.0000000  1.6024720  3
   2175   2176   2188   2200     1  0.0000000  0.6508444  3
   2175   2179   2191   2197     1  0.0000000  0.6508444  3
   2175   2182   2185   2194     1  0.0000000  0.6508444  3
   2176   2175   2179   2191     1  180.0000771  2.0083200  2
   2176   2175   2179   2191     1  0.0000000  1.2552000  3
   2176   2175   2182   2185     1  180.0000771  2.0083200  2
   2176   2175   2182   2185     1  0.0000000  1.2552000  3
   2176   2188   2200   4465     1  0.0000000  0.6508444  3
   2179   2175   2176   2188     1  180.0000771  2.0083200  2
   2179   2175   2176   2188     1  0.0000000  1.2552000  3
   2179   2175   2182   2185     1  180.0000771  2.0083200  2
   2179   2175   2182   2185     1  0.0000000  1.2552000  3
   2179   2191   2197   4436     1  0.0000000  0.6508444  3
   2182   2175   2176   2188     1  180.0000771  2.0083200  2
   2182   2175   2176   2188     1  0.0000000  1.2552000  3
   2182   2175   2179   2191     1  180.0000771  2.0083200  2
   2182   2175   2179   2191     1  0.0000000  1.2552000  3
   2182   2185   2194   2203     1  0.0000000  0.6508444  3
   2188   2200   4465   4456     1  180.0000771  0.4184000  2
   2188   2200   4465   4456     1  0.0000000  1.6024720  3
   2191   2197   4436   4427     1  180.0000771  0.4184000  2
   2191   2197   4436   4427     1  0.0000000  1.6024720  3
   2197   4436   4427   4418     1  180.0000771  0.4184000  2
   2197   4436   4427   4418     1  0.0000000  1.6024720  3
   2200   4465   4456   4447     1  180.0000771  0.4184000  2
   2200   4465   4456   4447     1  0.0000000  1.6024720  3
   2204   2205   2217   2229     1  0.0000000  0.6508444  3
   2204   2208   2220   2226     1  0.0000000  0.6508444  3
   2204   2211   2214   2223     1  0.0000000  0.6508444  3
   2205   2204   2208   2220     1  180.0000771  2.0083200  2
   2205   2204   2208   2220     1  0.0000000  1.2552000  3
   2205   2204   2211   2214     1  180.0000771  2.0083200  2
   2205   2204   2211   2214     1  0.0000000  1.2552000  3
   2205   2217   2229   4523     1  0.0000000  0.6508444  3
   2208   2204   2205   2217     1  180.0000771  2.0083200  2
   2208   2204   2205   2217     1  0.0000000  1.2552000  3
   2208   2204   2211   2214     1  180.0000771  2.0083200  2
   2208   2204   2211   2214     1  0.0000000  1.2552000  3
   2208   2220   2226   4494     1  0.0000000  0.6508444  3
   2211   2204   2205   2217     1  180.0000771  2.0083200  2
   2211   2204   2205   2217     1  0.0000000  1.2552000  3
   2211   2204   2208   2220     1  180.0000771  2.0083200  2
   2211   2204   2208   2220     1  0.0000000  1.2552000  3
   2211   2214   2223   2232     1  0.0000000  0.6508444  3
   2217   2229   4523   4514     1  180.0000771  0.4184000  2
   2217   2229   4523   4514     1  0.0000000  1.6024720  3
   2220   2226   4494   4485     1  180.0000771  0.4184000  2
   2220   2226   4494   4485     1  0.0000000  1.6024720  3
   2226   4494   4485   4476     1  180.0000771  0.4184000  2
   2226   4494   4485   4476     1  0.0000000  1.6024720  3
   2229   4523   4514   4505     1  180.0000771  0.4184000  2
   2229   4523   4514   4505     1  0.0000000  1.6024720  3
   2233   2234   2246   2258     1  0.0000000  0.6508444  3
   2233   2237   2249   2255     1  0.0000000  0.6508444  3
   2233   2240   2243   2252     1  0.0000000  0.6508444  3
   2234   2233   2237   2249     1  180.0000771  2.0083200  2
   2234   2233   2237   2249     1  0.0000000  1.2552000  3
   2234   2233   2240   2243     1  180.0000771  2.0083200  2
   2234   2233   2240   2243     1  0.0000000  1.2552000  3
   2234   2246   2258   4581     1  0.0000000  0.6508444  3
   2237   2233   2234   2246     1  180.0000771  2.0083200  2
   2237   2233   2234   2246     1  0.0000000  1.2552000  3
   2237   2233   2240   2243     1  180.0000771  2.0083200  2
   2237   2233   2240   2243     1  0.0000000  1.2552000  3
   2237   2249   2255   4552     1  0.0000000  0.6508444  3
   2240   2233   2234   2246     1  180.0000771  2.0083200  2
   2240   2233   2234   2246     1  0.0000000  1.2552000  3
   2240   2233   2237   2249     1  180.0000771  2.0083200  2
   2240   2233   2237   2249     1  0.0000000  1.2552000  3
   2240   2243   2252   2261     1  0.0000000  0.6508444  3
   2246   2258   4581   4572     1  180.0000771  0.4184000  2
   2246   2258   4581   4572     1  0.0000000  1.6024720  3
   2249   2255   4552   4543     1  180.0000771  0.4184000  2
   2249   2255   4552   4543     1  0.0000000  1.6024720  3
   2255   4552   4543   4534     1  180.0000771  0.4184000  2
   2255   4552   4543   4534     1  0.0000000  1.6024720  3
   2258   4581   4572   4563     1  180.0000771  0.4184000  2
   2258   4581   4572   4563     1  0.0000000  1.6024720  3
   2262   2263   2275   2287     1  0.0000000  0.6508444  3
   2262   2266   2278   2284     1  0.0000000  0.6508444  3
   2262   2269   2272   2281     1  0.0000000  0.6508444  3
   2263   2262   2266   2278     1  180.0000771  2.0083200  2
   2263   2262   2266   2278     1  0.0000000  1.2552000  3
   2263   2262   2269   2272     1  180.0000771  2.0083200  2
   2263   2262   2269   2272     1  0.0000000  1.2552000  3
   2263   2275   2287   4639     1  0.0000000  0.6508444  3
   2266   2262   2263   2275     1  180.0000771  2.0083200  2
   2266   2262   2263   2275     1  0.0000000  1.2552000  3
   2266   2262   2269   2272     1  180.0000771  2.0083200  2
   2266   2262   2269   2272     1  0.0000000  1.2552000  3
   2266   2278   2284   4610     1  0.0000000  0.6508444  3
   2269   2262   2263   2275     1  180.0000771  2.0083200  2
   2269   2262   2263   2275     1  0.0000000  1.2552000  3
   2269   2262   2266   2278     1  180.0000771  2.0083200  2
   2269   2262   2266   2278     1  0.0000000  1.2552000  3
   2269   2272   2281   2290     1  0.0000000  0.6508444  3
   2275   2287   4639   4630     1  180.0000771  0.4184000  2
   2275   2287   4639   4630     1  0.0000000  1.6024720  3
   2278   2284   4610   4601     1  180.0000771  0.4184000  2
   2278   2284   4610   4601     1  0.0000000  1.6024720  3
   2284   4610   4601   4592     1  180.0000771  0.4184000  2
   2284   4610   4601   4592     1  0.0000000  1.6024720  3
   2287   4639   4630   4621     1  180.0000771  0.4184000  2
   2287   4639   4630   4621     1  0.0000000  1.6024720  3
   2291   2292   2304   2316     1  0.0000000  0.6508444  3
   2291   2295   2307   2313     1  0.0000000  0.6508444  3
   2291   2298   2301   2310     1  0.0000000  0.6508444  3
   2292   2291   2295   2307     1  180.0000771  2.0083200  2
   2292   2291   2295   2307     1  0.0000000  1.2552000  3
   2292   2291   2298   2301     1  180.0000771  2.0083200  2
   2292   2291   2298   2301     1  0.0000000  1.2552000  3
   2292   2304   2316   4697     1  0.0000000  0.6508444  3
   2295   2291   2292   2304     1  180.0000771  2.0083200  2
   2295   2291   2292   2304     1  0.0000000  1.2552000  3
   2295   2291   2298   2301     1  180.0000771  2.0083200  2
   2295   2291   2298   2301     1  0.0000000  1.2552000  3
   2295   2307   2313   4668     1  0.0000000  0.6508444  3
   2298   2291   2292   2304     1  180.0000771  2.0083200  2
   2298   2291   2292   2304     1  0.0000000  1.2552000  3
   2298   2291   2295   2307     1  180.0000771  2.0083200  2
   2298   2291   2295   2307     1  0.0000000  1.2552000  3
   2298   2301   2310   2319     1  0.0000000  0.6508444  3
   2304   2316   4697   4688     1  180.0000771  0.4184000  2
   2304   2316   4697   4688     1  0.0000000  1.6024720  3
   2307   2313   4668   4659     1  180.0000771  0.4184000  2
   2307   2313   4668   4659     1  0.0000000  1.6024720  3
   2313   4668   4659   4650     1  180.0000771  0.4184000  2
   2313   4668   4659   4650     1  0.0000000  1.6024720  3
   2316   4697   4688   4679     1  180.0000771  0.4184000  2
   2316   4697   4688   4679     1  0.0000000  1.6024720  3
   2320   2321   2333   2345     1  0.0000000  0.6508444  3
   2320   2324   2336   2342     1  0.0000000  0.6508444  3
   2320   2327   2330   2339     1  0.0000000  0.6508444  3
   2321   2320   2324   2336     1  180.0000771  2.0083200  2
   2321   2320   2324   2336     1  0.0000000  1.2552000  3
   2321   2320   2327   2330     1  180.0000771  2.0083200  2
   2321   2320   2327   2330     1  0.0000000  1.2552000  3
   2321   2333   2345   4755     1  0.0000000  0.6508444  3
   2324   2320   2321   2333     1  180.0000771  2.0083200  2
   2324   2320   2321   2333     1  0.0000000  1.2552000  3
   2324   2320   2327   2330     1  180.0000771  2.0083200  2
   2324   2320   2327   2330     1  0.0000000  1.2552000  3
   2324   2336   2342   4726     1  0.0000000  0.6508444  3
   2327   2320   2321   2333     1  180.0000771  2.0083200  2
   2327   2320   2321   2333     1  0.0000000  1.2552000  3
   2327   2320   2324   2336     1  180.0000771  2.0083200  2
   2327   2320   2324   2336     1  0.0000000  1.2552000  3
   2327   2330   2339   2348     1  0.0000000  0.6508444  3
   2333   2345   4755   4746     1  180.0000771  0.4184000  2
   2333   2345   4755   4746     1  0.0000000  1.6024720  3
   2336   2342   4726   4717     1  180.0000771  0.4184000  2
   2336   2342   4726   4717     1  0.0000000  1.6024720  3
   2342   4726   4717   4708     1  180.0000771  0.4184000  2
   2342   4726   4717   4708     1  0.0000000  1.6024720  3
   2345   4755   4746   4737     1  180.0000771  0.4184000  2
   2345   4755   4746   4737     1  0.0000000  1.6024720  3
   2349   2350   2362   2374     1  0.0000000  0.6508444  3
   2349   2353   2365   2371     1  0.0000000  0.6508444  3
   2349   2356   2359   2368     1  0.0000000  0.6508444  3
   2350   2349   2353   2365     1  180.0000771  2.0083200  2
   2350   2349   2353   2365     1  0.0000000  1.2552000  3
   2350   2349   2356   2359     1  180.0000771  2.0083200  2
   2350   2349   2356   2359     1  0.0000000  1.2552000  3
   2350   2362   2374   4813     1  0.0000000  0.6508444  3
   2353   2349   2350   2362     1  180.0000771  2.0083200  2
   2353   2349   2350   2362     1  0.0000000  1.2552000  3
   2353   2349   2356   2359     1  180.0000771  2.0083200  2
   2353   2349   2356   2359     1  0.0000000  1.2552000  3
   2353   2365   2371   4784     1  0.0000000  0.6508444  3
   2356   2349   2350   2362     1  180.0000771  2.0083200  2
   2356   2349   2350   2362     1  0.0000000  1.2552000  3
   2356   2349   2353   2365     1  180.0000771  2.0083200  2
   2356   2349   2353   2365     1  0.0000000  1.2552000  3
   2356   2359   2368   2377     1  0.0000000  0.6508444  3
   2362   2374   4813   4804     1  180.0000771  0.4184000  2
   2362   2374   4813   4804     1  0.0000000  1.6024720  3
   2365   2371   4784   4775     1  180.0000771  0.4184000  2
   2365   2371   4784   4775     1  0.0000000  1.6024720  3
   2371   4784   4775   4766     1  180.0000771  0.4184000  2
   2371   4784   4775   4766     1  0.0000000  1.6024720  3
   2374   4813   4804   4795     1  180.0000771  0.4184000  2
   2374   4813   4804   4795     1  0.0000000  1.6024720  3
   2378   2379   2391   2403     1  0.0000000  0.6508444  3
   2378   2382   2394   2400     1  0.0000000  0.6508444  3
   2378   2385   2388   2397     1  0.0000000  0.6508444  3
   2379   2378   2382   2394     1  180.0000771  2.0083200  2
   2379   2378   2382   2394     1  0.0000000  1.2552000  3
   2379   2378   2385   2388     1  180.0000771  2.0083200  2
   2379   2378   2385   2388     1  0.0000000  1.2552000  3
   2379   2391   2403   4871     1  0.0000000  0.6508444  3
   2382   2378   2379   2391     1  180.0000771  2.0083200  2
   2382   2378   2379   2391     1  0.0000000  1.2552000  3
   2382   2378   2385   2388     1  180.0000771  2.0083200  2
   2382   2378   2385   2388     1  0.0000000  1.2552000  3
   2382   2394   2400   4842     1  0.0000000  0.6508444  3
   2385   2378   2379   2391     1  180.0000771  2.0083200  2
   2385   2378   2379   2391     1  0.0000000  1.2552000  3
   2385   2378   2382   2394     1  180.0000771  2.0083200  2
   2385   2378   2382   2394     1  0.0000000  1.2552000  3
   2385   2388   2397   2406     1  0.0000000  0.6508444  3
   2391   2403   4871   4862     1  180.0000771  0.4184000  2
   2391   2403   4871   4862     1  0.0000000  1.6024720  3
   2394   2400   4842   4833     1  180.0000771  0.4184000  2
   2394   2400   4842   4833     1  0.0000000  1.6024720  3
   2400   4842   4833   4824     1  180.0000771  0.4184000  2
   2400   4842   4833   4824     1  0.0000000  1.6024720  3
   2403   4871   4862   4853     1  180.0000771  0.4184000  2
   2403   4871   4862   4853     1  0.0000000  1.6024720  3
   2407   2408   2420   2432     1  0.0000000  0.6508444  3
   2407   2411   2423   2429     1  0.0000000  0.6508444  3
   2407   2414   2417   2426     1  0.0000000  0.6508444  3
   2408   2407   2411   2423     1  180.0000771  2.0083200  2
   2408   2407   2411   2423     1  0.0000000  1.2552000  3
   2408   2407   2414   2417     1  180.0000771  2.0083200  2
   2408   2407   2414   2417     1  0.0000000  1.2552000  3
   2408   2420   2432   4929     1  0.0000000  0.6508444  3
   2411   2407   2408   2420     1  180.0000771  2.0083200  2
   2411   2407   2408   2420     1  0.0000000  1.2552000  3
   2411   2407   2414   2417     1  180.0000771  2.0083200  2
   2411   2407   2414   2417     1  0.0000000  1.2552000  3
   2411   2423   2429   4900     1  0.0000000  0.6508444  3
   2414   2407   2408   2420     1  180.0000771  2.0083200  2
   2414   2407   2408   2420     1  0.0000000  1.2552000  3
   2414   2407   2411   2423     1  180.0000771  2.0083200  2
   2414   2407   2411   2423     1  0.0000000  1.2552000  3
   2414   2417   2426   2435     1  0.0000000  0.6508444  3
   2420   2432   4929   4920     1  180.0000771  0.4184000  2
   2420   2432   4929   4920     1  0.0000000  1.6024720  3
   2423   2429   4900   4891     1  180.0000771  0.4184000  2
   2423   2429   4900   4891     1  0.0000000  1.6024720  3
   2429   4900   4891   4882     1  180.0000771  0.4184000  2
   2429   4900   4891   4882     1  0.0000000  1.6024720  3
   2432   4929   4920   4911     1  180.0000771  0.4184000  2
   2432   4929   4920   4911     1  0.0000000  1.6024720  3
   2436   2437   2449   2461     1  0.0000000  0.6508444  3
   2436   2440   2452   2458     1  0.0000000  0.6508444  3
   2436   2443   2446   2455     1  0.0000000  0.6508444  3
   2437   2436   2440   2452     1  180.0000771  2.0083200  2
   2437   2436   2440   2452     1  0.0000000  1.2552000  3
   2437   2436   2443   2446     1  180.0000771  2.0083200  2
   2437   2436   2443   2446     1  0.0000000  1.2552000  3
   2437   2449   2461   4987     1  0.0000000  0.6508444  3
   2440   2436   2437   2449     1  180.0000771  2.0083200  2
   2440   2436   2437   2449     1  0.0000000  1.2552000  3
   2440   2436   2443   2446     1  180.0000771  2.0083200  2
   2440   2436   2443   2446     1  0.0000000  1.2552000  3
   2440   2452   2458   4958     1  0.0000000  0.6508444  3
   2443   2436   2437   2449     1  180.0000771  2.0083200  2
   2443   2436   2437   2449     1  0.0000000  1.2552000  3
   2443   2436   2440   2452     1  180.0000771  2.0083200  2
   2443   2436   2440   2452     1  0.0000000  1.2552000  3
   2443   2446   2455   2464     1  0.0000000  0.6508444  3
   2449   2461   4987   4978     1  180.0000771  0.4184000  2
   2449   2461   4987   4978     1  0.0000000  1.6024720  3
   2452   2458   4958   4949     1  180.0000771  0.4184000  2
   2452   2458   4958   4949     1  0.0000000  1.6024720  3
   2458   4958   4949   4940     1  180.0000771  0.4184000  2
   2458   4958   4949   4940     1  0.0000000  1.6024720  3
   2461   4987   4978   4969     1  180.0000771  0.4184000  2
   2461   4987   4978   4969     1  0.0000000  1.6024720  3
   2465   2466   2478   2490     1  0.0000000  0.6508444  3
   2465   2469   2481   2487     1  0.0000000  0.6508444  3
   2465   2472   2475   2484     1  0.0000000  0.6508444  3
   2466   2465   2469   2481     1  180.0000771  2.0083200  2
   2466   2465   2469   2481     1  0.0000000  1.2552000  3
   2466   2465   2472   2475     1  180.0000771  2.0083200  2
   2466   2465   2472   2475     1  0.0000000  1.2552000  3
   2466   2478   2490   5045     1  0.0000000  0.6508444  3
   2469   2465   2466   2478     1  180.0000771  2.0083200  2
   2469   2465   2466   2478     1  0.0000000  1.2552000  3
   2469   2465   2472   2475     1  180.0000771  2.0083200  2
   2469   2465   2472   2475     1  0.0000000  1.2552000  3
   2469   2481   2487   5016     1  0.0000000  0.6508444  3
   2472   2465   2466   2478     1  180.0000771  2.0083200  2
   2472   2465   2466   2478     1  0.0000000  1.2552000  3
   2472   2465   2469   2481     1  180.0000771  2.0083200  2
   2472   2465   2469   2481     1  0.0000000  1.2552000  3
   2472   2475   2484   2493     1  0.0000000  0.6508444  3
   2478   2490   5045   5036     1  180.0000771  0.4184000  2
   2478   2490   5045   5036     1  0.0000000  1.6024720  3
   2481   2487   5016   5007     1  180.0000771  0.4184000  2
   2481   2487   5016   5007     1  0.0000000  1.6024720  3
   2487   5016   5007   4998     1  180.0000771  0.4184000  2
   2487   5016   5007   4998     1  0.0000000  1.6024720  3
   2490   5045   5036   5027     1  180.0000771  0.4184000  2
   2490   5045   5036   5027     1  0.0000000  1.6024720  3
   2494   2495   2507   2519     1  0.0000000  0.6508444  3
   2494   2498   2510   2516     1  0.0000000  0.6508444  3
   2494   2501   2504   2513     1  0.0000000  0.6508444  3
   2495   2494   2498   2510     1  180.0000771  2.0083200  2
   2495   2494   2498   2510     1  0.0000000  1.2552000  3
   2495   2494   2501   2504     1  180.0000771  2.0083200  2
   2495   2494   2501   2504     1  0.0000000  1.2552000  3
   2495   2507   2519   5103     1  0.0000000  0.6508444  3
   2498   2494   2495   2507     1  180.0000771  2.0083200  2
   2498   2494   2495   2507     1  0.0000000  1.2552000  3
   2498   2494   2501   2504     1  180.0000771  2.0083200  2
   2498   2494   2501   2504     1  0.0000000  1.2552000  3
   2498   2510   2516   5074     1  0.0000000  0.6508444  3
   2501   2494   2495   2507     1  180.0000771  2.0083200  2
   2501   2494   2495   2507     1  0.0000000  1.2552000  3
   2501   2494   2498   2510     1  180.0000771  2.0083200  2
   2501   2494   2498   2510     1  0.0000000  1.2552000  3
   2501   2504   2513   2522     1  0.0000000  0.6508444  3
   2507   2519   5103   5094     1  180.0000771  0.4184000  2
   2507   2519   5103   5094     1  0.0000000  1.6024720  3
   2510   2516   5074   5065     1  180.0000771  0.4184000  2
   2510   2516   5074   5065     1  0.0000000  1.6024720  3
   2516   5074   5065   5056     1  180.0000771  0.4184000  2
   2516   5074   5065   5056     1  0.0000000  1.6024720  3
   2519   5103   5094   5085     1  180.0000771  0.4184000  2
   2519   5103   5094   5085     1  0.0000000  1.6024720  3
   2523   2524   2536   2548     1  0.0000000  0.6508444  3
   2523   2527   2539   2545     1  0.0000000  0.6508444  3
   2523   2530   2533   2542     1  0.0000000  0.6508444  3
   2524   2523   2527   2539     1  180.0000771  2.0083200  2
   2524   2523   2527   2539     1  0.0000000  1.2552000  3
   2524   2523   2530   2533     1  180.0000771  2.0083200  2
   2524   2523   2530   2533     1  0.0000000  1.2552000  3
   2524   2536   2548   5161     1  0.0000000  0.6508444  3
   2527   2523   2524   2536     1  180.0000771  2.0083200  2
   2527   2523   2524   2536     1  0.0000000  1.2552000  3
   2527   2523   2530   2533     1  180.0000771  2.0083200  2
   2527   2523   2530   2533     1  0.0000000  1.2552000  3
   2527   2539   2545   5132     1  0.0000000  0.6508444  3
   2530   2523   2524   2536     1  180.0000771  2.0083200  2
   2530   2523   2524   2536     1  0.0000000  1.2552000  3
   2530   2523   2527   2539     1  180.0000771  2.0083200  2
   2530   2523   2527   2539     1  0.0000000  1.2552000  3
   2530   2533   2542   2551     1  0.0000000  0.6508444  3
   2536   2548   5161   5152     1  180.0000771  0.4184000  2
   2536   2548   5161   5152     1  0.0000000  1.6024720  3
   2539   2545   5132   5123     1  180.0000771  0.4184000  2
   2539   2545   5132   5123     1  0.0000000  1.6024720  3
   2545   5132   5123   5114     1  180.0000771  0.4184000  2
   2545   5132   5123   5114     1  0.0000000  1.6024720  3
   2548   5161   5152   5143     1  180.0000771  0.4184000  2
   2548   5161   5152   5143     1  0.0000000  1.6024720  3
   2552   2553   2565   2577     1  0.0000000  0.6508444  3
   2552   2556   2568   2574     1  0.0000000  0.6508444  3
   2552   2559   2562   2571     1  0.0000000  0.6508444  3
   2553   2552   2556   2568     1  180.0000771  2.0083200  2
   2553   2552   2556   2568     1  0.0000000  1.2552000  3
   2553   2552   2559   2562     1  180.0000771  2.0083200  2
   2553   2552   2559   2562     1  0.0000000  1.2552000  3
   2553   2565   2577   5219     1  0.0000000  0.6508444  3
   2556   2552   2553   2565     1  180.0000771  2.0083200  2
   2556   2552   2553   2565     1  0.0000000  1.2552000  3
   2556   2552   2559   2562     1  180.0000771  2.0083200  2
   2556   2552   2559   2562     1  0.0000000  1.2552000  3
   2556   2568   2574   5190     1  0.0000000  0.6508444  3
   2559   2552   2553   2565     1  180.0000771  2.0083200  2
   2559   2552   2553   2565     1  0.0000000  1.2552000  3
   2559   2552   2556   2568     1  180.0000771  2.0083200  2
   2559   2552   2556   2568     1  0.0000000  1.2552000  3
   2559   2562   2571   2580     1  0.0000000  0.6508444  3
   2565   2577   5219   5210     1  180.0000771  0.4184000  2
   2565   2577   5219   5210     1  0.0000000  1.6024720  3
   2568   2574   5190   5181     1  180.0000771  0.4184000  2
   2568   2574   5190   5181     1  0.0000000  1.6024720  3
   2574   5190   5181   5172     1  180.0000771  0.4184000  2
   2574   5190   5181   5172     1  0.0000000  1.6024720  3
   2577   5219   5210   5201     1  180.0000771  0.4184000  2
   2577   5219   5210   5201     1  0.0000000  1.6024720  3
   2581   2582   2594   2606     1  0.0000000  0.6508444  3
   2581   2585   2597   2603     1  0.0000000  0.6508444  3
   2581   2588   2591   2600     1  0.0000000  0.6508444  3
   2582   2581   2585   2597     1  180.0000771  2.0083200  2
   2582   2581   2585   2597     1  0.0000000  1.2552000  3
   2582   2581   2588   2591     1  180.0000771  2.0083200  2
   2582   2581   2588   2591     1  0.0000000  1.2552000  3
   2582   2594   2606   5277     1  0.0000000  0.6508444  3
   2585   2581   2582   2594     1  180.0000771  2.0083200  2
   2585   2581   2582   2594     1  0.0000000  1.2552000  3
   2585   2581   2588   2591     1  180.0000771  2.0083200  2
   2585   2581   2588   2591     1  0.0000000  1.2552000  3
   2585   2597   2603   5248     1  0.0000000  0.6508444  3
   2588   2581   2582   2594     1  180.0000771  2.0083200  2
   2588   2581   2582   2594     1  0.0000000  1.2552000  3
   2588   2581   2585   2597     1  180.0000771  2.0083200  2
   2588   2581   2585   2597     1  0.0000000  1.2552000  3
   2588   2591   2600   2609     1  0.0000000  0.6508444  3
   2594   2606   5277   5268     1  180.0000771  0.4184000  2
   2594   2606   5277   5268     1  0.0000000  1.6024720  3
   2597   2603   5248   5239     1  180.0000771  0.4184000  2
   2597   2603   5248   5239     1  0.0000000  1.6024720  3
   2603   5248   5239   5230     1  180.0000771  0.4184000  2
   2603   5248   5239   5230     1  0.0000000  1.6024720  3
   2606   5277   5268   5259     1  180.0000771  0.4184000  2
   2606   5277   5268   5259     1  0.0000000  1.6024720  3
   2610   2611   2623   2635     1  0.0000000  0.6508444  3
   2610   2614   2626   2632     1  0.0000000  0.6508444  3
   2610   2617   2620   2629     1  0.0000000  0.6508444  3
   2611   2610   2614   2626     1  180.0000771  2.0083200  2
   2611   2610   2614   2626     1  0.0000000  1.2552000  3
   2611   2610   2617   2620     1  180.0000771  2.0083200  2
   2611   2610   2617   2620     1  0.0000000  1.2552000  3
   2611   2623   2635   5335     1  0.0000000  0.6508444  3
   2614   2610   2611   2623     1  180.0000771  2.0083200  2
   2614   2610   2611   2623     1  0.0000000  1.2552000  3
   2614   2610   2617   2620     1  180.0000771  2.0083200  2
   2614   2610   2617   2620     1  0.0000000  1.2552000  3
   2614   2626   2632   5306     1  0.0000000  0.6508444  3
   2617   2610   2611   2623     1  180.0000771  2.0083200  2
   2617   2610   2611   2623     1  0.0000000  1.2552000  3
   2617   2610   2614   2626     1  180.0000771  2.0083200  2
   2617   2610   2614   2626     1  0.0000000  1.2552000  3
   2617   2620   2629   2638     1  0.0000000  0.6508444  3
   2623   2635   5335   5326     1  180.0000771  0.4184000  2
   2623   2635   5335   5326     1  0.0000000  1.6024720  3
   2626   2632   5306   5297     1  180.0000771  0.4184000  2
   2626   2632   5306   5297     1  0.0000000  1.6024720  3
   2632   5306   5297   5288     1  180.0000771  0.4184000  2
   2632   5306   5297   5288     1  0.0000000  1.6024720  3
   2635   5335   5326   5317     1  180.0000771  0.4184000  2
   2635   5335   5326   5317     1  0.0000000  1.6024720  3
   2639   2640   2652   2664     1  0.0000000  0.6508444  3
   2639   2643   2655   2661     1  0.0000000  0.6508444  3
   2639   2646   2649   2658     1  0.0000000  0.6508444  3
   2640   2639   2643   2655     1  180.0000771  2.0083200  2
   2640   2639   2643   2655     1  0.0000000  1.2552000  3
   2640   2639   2646   2649     1  180.0000771  2.0083200  2
   2640   2639   2646   2649     1  0.0000000  1.2552000  3
   2640   2652   2664   5393     1  0.0000000  0.6508444  3
   2643   2639   2640   2652     1  180.0000771  2.0083200  2
   2643   2639   2640   2652     1  0.0000000  1.2552000  3
   2643   2639   2646   2649     1  180.0000771  2.0083200  2
   2643   2639   2646   2649     1  0.0000000  1.2552000  3
   2643   2655   2661   5364     1  0.0000000  0.6508444  3
   2646   2639   2640   2652     1  180.0000771  2.0083200  2
   2646   2639   2640   2652     1  0.0000000  1.2552000  3
   2646   2639   2643   2655     1  180.0000771  2.0083200  2
   2646   2639   2643   2655     1  0.0000000  1.2552000  3
   2646   2649   2658   2667     1  0.0000000  0.6508444  3
   2652   2664   5393   5384     1  180.0000771  0.4184000  2
   2652   2664   5393   5384     1  0.0000000  1.6024720  3
   2655   2661   5364   5355     1  180.0000771  0.4184000  2
   2655   2661   5364   5355     1  0.0000000  1.6024720  3
   2661   5364   5355   5346     1  180.0000771  0.4184000  2
   2661   5364   5355   5346     1  0.0000000  1.6024720  3
   2664   5393   5384   5375     1  180.0000771  0.4184000  2
   2664   5393   5384   5375     1  0.0000000  1.6024720  3
   2668   2669   2681   2693     1  0.0000000  0.6508444  3
   2668   2672   2684   2690     1  0.0000000  0.6508444  3
   2668   2675   2678   2687     1  0.0000000  0.6508444  3
   2669   2668   2672   2684     1  180.0000771  2.0083200  2
   2669   2668   2672   2684     1  0.0000000  1.2552000  3
   2669   2668   2675   2678     1  180.0000771  2.0083200  2
   2669   2668   2675   2678     1  0.0000000  1.2552000  3
   2669   2681   2693   5451     1  0.0000000  0.6508444  3
   2672   2668   2669   2681     1  180.0000771  2.0083200  2
   2672   2668   2669   2681     1  0.0000000  1.2552000  3
   2672   2668   2675   2678     1  180.0000771  2.0083200  2
   2672   2668   2675   2678     1  0.0000000  1.2552000  3
   2672   2684   2690   5422     1  0.0000000  0.6508444  3
   2675   2668   2669   2681     1  180.0000771  2.0083200  2
   2675   2668   2669   2681     1  0.0000000  1.2552000  3
   2675   2668   2672   2684     1  180.0000771  2.0083200  2
   2675   2668   2672   2684     1  0.0000000  1.2552000  3
   2675   2678   2687   2696     1  0.0000000  0.6508444  3
   2681   2693   5451   5442     1  180.0000771  0.4184000  2
   2681   2693   5451   5442     1  0.0000000  1.6024720  3
   2684   2690   5422   5413     1  180.0000771  0.4184000  2
   2684   2690   5422   5413     1  0.0000000  1.6024720  3
   2690   5422   5413   5404     1  180.0000771  0.4184000  2
   2690   5422   5413   5404     1  0.0000000  1.6024720  3
   2693   5451   5442   5433     1  180.0000771  0.4184000  2
   2693   5451   5442   5433     1  0.0000000  1.6024720  3
   2697   2698   2710   2722     1  0.0000000  0.6508444  3
   2697   2701   2713   2719     1  0.0000000  0.6508444  3
   2697   2704   2707   2716     1  0.0000000  0.6508444  3
   2698   2697   2701   2713     1  180.0000771  2.0083200  2
   2698   2697   2701   2713     1  0.0000000  1.2552000  3
   2698   2697   2704   2707     1  180.0000771  2.0083200  2
   2698   2697   2704   2707     1  0.0000000  1.2552000  3
   2698   2710   2722   5509     1  0.0000000  0.6508444  3
   2701   2697   2698   2710     1  180.0000771  2.0083200  2
   2701   2697   2698   2710     1  0.0000000  1.2552000  3
   2701   2697   2704   2707     1  180.0000771  2.0083200  2
   2701   2697   2704   2707     1  0.0000000  1.2552000  3
   2701   2713   2719   5480     1  0.0000000  0.6508444  3
   2704   2697   2698   2710     1  180.0000771  2.0083200  2
   2704   2697   2698   2710     1  0.0000000  1.2552000  3
   2704   2697   2701   2713     1  180.0000771  2.0083200  2
   2704   2697   2701   2713     1  0.0000000  1.2552000  3
   2704   2707   2716   2725     1  0.0000000  0.6508444  3
   2710   2722   5509   5500     1  180.0000771  0.4184000  2
   2710   2722   5509   5500     1  0.0000000  1.6024720  3
   2713   2719   5480   5471     1  180.0000771  0.4184000  2
   2713   2719   5480   5471     1  0.0000000  1.6024720  3
   2719   5480   5471   5462     1  180.0000771  0.4184000  2
   2719   5480   5471   5462     1  0.0000000  1.6024720  3
   2722   5509   5500   5491     1  180.0000771  0.4184000  2
   2722   5509   5500   5491     1  0.0000000  1.6024720  3
   2726   2727   2739   2751     1  0.0000000  0.6508444  3
   2726   2730   2742   2748     1  0.0000000  0.6508444  3
   2726   2733   2736   2745     1  0.0000000  0.6508444  3
   2727   2726   2730   2742     1  180.0000771  2.0083200  2
   2727   2726   2730   2742     1  0.0000000  1.2552000  3
   2727   2726   2733   2736     1  180.0000771  2.0083200  2
   2727   2726   2733   2736     1  0.0000000  1.2552000  3
   2727   2739   2751   5567     1  0.0000000  0.6508444  3
   2730   2726   2727   2739     1  180.0000771  2.0083200  2
   2730   2726   2727   2739     1  0.0000000  1.2552000  3
   2730   2726   2733   2736     1  180.0000771  2.0083200  2
   2730   2726   2733   2736     1  0.0000000  1.2552000  3
   2730   2742   2748   5538     1  0.0000000  0.6508444  3
   2733   2726   2727   2739     1  180.0000771  2.0083200  2
   2733   2726   2727   2739     1  0.0000000  1.2552000  3
   2733   2726   2730   2742     1  180.0000771  2.0083200  2
   2733   2726   2730   2742     1  0.0000000  1.2552000  3
   2733   2736   2745   2754     1  0.0000000  0.6508444  3
   2739   2751   5567   5558     1  180.0000771  0.4184000  2
   2739   2751   5567   5558     1  0.0000000  1.6024720  3
   2742   2748   5538   5529     1  180.0000771  0.4184000  2
   2742   2748   5538   5529     1  0.0000000  1.6024720  3
   2748   5538   5529   5520     1  180.0000771  0.4184000  2
   2748   5538   5529   5520     1  0.0000000  1.6024720  3
   2751   5567   5558   5549     1  180.0000771  0.4184000  2
   2751   5567   5558   5549     1  0.0000000  1.6024720  3
   2755   2756   2768   2780     1  0.0000000  0.6508444  3
   2755   2759   2771   2777     1  0.0000000  0.6508444  3
   2755   2762   2765   2774     1  0.0000000  0.6508444  3
   2756   2755   2759   2771     1  180.0000771  2.0083200  2
   2756   2755   2759   2771     1  0.0000000  1.2552000  3
   2756   2755   2762   2765     1  180.0000771  2.0083200  2
   2756   2755   2762   2765     1  0.0000000  1.2552000  3
   2756   2768   2780   5625     1  0.0000000  0.6508444  3
   2759   2755   2756   2768     1  180.0000771  2.0083200  2
   2759   2755   2756   2768     1  0.0000000  1.2552000  3
   2759   2755   2762   2765     1  180.0000771  2.0083200  2
   2759   2755   2762   2765     1  0.0000000  1.2552000  3
   2759   2771   2777   5596     1  0.0000000  0.6508444  3
   2762   2755   2756   2768     1  180.0000771  2.0083200  2
   2762   2755   2756   2768     1  0.0000000  1.2552000  3
   2762   2755   2759   2771     1  180.0000771  2.0083200  2
   2762   2755   2759   2771     1  0.0000000  1.2552000  3
   2762   2765   2774   2783     1  0.0000000  0.6508444  3
   2768   2780   5625   5616     1  180.0000771  0.4184000  2
   2768   2780   5625   5616     1  0.0000000  1.6024720  3
   2771   2777   5596   5587     1  180.0000771  0.4184000  2
   2771   2777   5596   5587     1  0.0000000  1.6024720  3
   2777   5596   5587   5578     1  180.0000771  0.4184000  2
   2777   5596   5587   5578     1  0.0000000  1.6024720  3
   2780   5625   5616   5607     1  180.0000771  0.4184000  2
   2780   5625   5616   5607     1  0.0000000  1.6024720  3
   2784   2785   2797   2809     1  0.0000000  0.6508444  3
   2784   2788   2800   2806     1  0.0000000  0.6508444  3
   2784   2791   2794   2803     1  0.0000000  0.6508444  3
   2785   2784   2788   2800     1  180.0000771  2.0083200  2
   2785   2784   2788   2800     1  0.0000000  1.2552000  3
   2785   2784   2791   2794     1  180.0000771  2.0083200  2
   2785   2784   2791   2794     1  0.0000000  1.2552000  3
   2785   2797   2809   5683     1  0.0000000  0.6508444  3
   2788   2784   2785   2797     1  180.0000771  2.0083200  2
   2788   2784   2785   2797     1  0.0000000  1.2552000  3
   2788   2784   2791   2794     1  180.0000771  2.0083200  2
   2788   2784   2791   2794     1  0.0000000  1.2552000  3
   2788   2800   2806   5654     1  0.0000000  0.6508444  3
   2791   2784   2785   2797     1  180.0000771  2.0083200  2
   2791   2784   2785   2797     1  0.0000000  1.2552000  3
   2791   2784   2788   2800     1  180.0000771  2.0083200  2
   2791   2784   2788   2800     1  0.0000000  1.2552000  3
   2791   2794   2803   2812     1  0.0000000  0.6508444  3
   2797   2809   5683   5674     1  180.0000771  0.4184000  2
   2797   2809   5683   5674     1  0.0000000  1.6024720  3
   2800   2806   5654   5645     1  180.0000771  0.4184000  2
   2800   2806   5654   5645     1  0.0000000  1.6024720  3
   2806   5654   5645   5636     1  180.0000771  0.4184000  2
   2806   5654   5645   5636     1  0.0000000  1.6024720  3
   2809   5683   5674   5665     1  180.0000771  0.4184000  2
   2809   5683   5674   5665     1  0.0000000  1.6024720  3
   2813   2814   2826   2838     1  0.0000000  0.6508444  3
   2813   2817   2829   2835     1  0.0000000  0.6508444  3
   2813   2820   2823   2832     1  0.0000000  0.6508444  3
   2814   2813   2817   2829     1  180.0000771  2.0083200  2
   2814   2813   2817   2829     1  0.0000000  1.2552000  3
   2814   2813   2820   2823     1  180.0000771  2.0083200  2
   2814   2813   2820   2823     1  0.0000000  1.2552000  3
   2814   2826   2838   5741     1  0.0000000  0.6508444  3
   2817   2813   2814   2826     1  180.0000771  2.0083200  2
   2817   2813   2814   2826     1  0.0000000  1.2552000  3
   2817   2813   2820   2823     1  180.0000771  2.0083200  2
   2817   2813   2820   2823     1  0.0000000  1.2552000  3
   2817   2829   2835   5712     1  0.0000000  0.6508444  3
   2820   2813   2814   2826     1  180.0000771  2.0083200  2
   2820   2813   2814   2826     1  0.0000000  1.2552000  3
   2820   2813   2817   2829     1  180.0000771  2.0083200  2
   2820   2813   2817   2829     1  0.0000000  1.2552000  3
   2820   2823   2832   2841     1  0.0000000  0.6508444  3
   2826   2838   5741   5732     1  180.0000771  0.4184000  2
   2826   2838   5741   5732     1  0.0000000  1.6024720  3
   2829   2835   5712   5703     1  180.0000771  0.4184000  2
   2829   2835   5712   5703     1  0.0000000  1.6024720  3
   2835   5712   5703   5694     1  180.0000771  0.4184000  2
   2835   5712   5703   5694     1  0.0000000  1.6024720  3
   2838   5741   5732   5723     1  180.0000771  0.4184000  2
   2838   5741   5732   5723     1  0.0000000  1.6024720  3
   2842   2843   2855   2867     1  0.0000000  0.6508444  3
   2842   2846   2858   2864     1  0.0000000  0.6508444  3
   2842   2849   2852   2861     1  0.0000000  0.6508444  3
   2843   2842   2846   2858     1  180.0000771  2.0083200  2
   2843   2842   2846   2858     1  0.0000000  1.2552000  3
   2843   2842   2849   2852     1  180.0000771  2.0083200  2
   2843   2842   2849   2852     1  0.0000000  1.2552000  3
   2843   2855   2867   5799     1  0.0000000  0.6508444  3
   2846   2842   2843   2855     1  180.0000771  2.0083200  2
   2846   2842   2843   2855     1  0.0000000  1.2552000  3
   2846   2842   2849   2852     1  180.0000771  2.0083200  2
   2846   2842   2849   2852     1  0.0000000  1.2552000  3
   2846   2858   2864   5770     1  0.0000000  0.6508444  3
   2849   2842   2843   2855     1  180.0000771  2.0083200  2
   2849   2842   2843   2855     1  0.0000000  1.2552000  3
   2849   2842   2846   2858     1  180.0000771  2.0083200  2
   2849   2842   2846   2858     1  0.0000000  1.2552000  3
   2849   2852   2861   2870     1  0.0000000  0.6508444  3
   2855   2867   5799   5790     1  180.0000771  0.4184000  2
   2855   2867   5799   5790     1  0.0000000  1.6024720  3
   2858   2864   5770   5761     1  180.0000771  0.4184000  2
   2858   2864   5770   5761     1  0.0000000  1.6024720  3
   2864   5770   5761   5752     1  180.0000771  0.4184000  2
   2864   5770   5761   5752     1  0.0000000  1.6024720  3
   2867   5799   5790   5781     1  180.0000771  0.4184000  2
   2867   5799   5790   5781     1  0.0000000  1.6024720  3
   2871   2872   2884   2896     1  0.0000000  0.6508444  3
   2871   2875   2887   2893     1  0.0000000  0.6508444  3
   2871   2878   2881   2890     1  0.0000000  0.6508444  3
   2872   2871   2875   2887     1  180.0000771  2.0083200  2
   2872   2871   2875   2887     1  0.0000000  1.2552000  3
   2872   2871   2878   2881     1  180.0000771  2.0083200  2
   2872   2871   2878   2881     1  0.0000000  1.2552000  3
   2872   2884   2896   5857     1  0.0000000  0.6508444  3
   2875   2871   2872   2884     1  180.0000771  2.0083200  2
   2875   2871   2872   2884     1  0.0000000  1.2552000  3
   2875   2871   2878   2881     1  180.0000771  2.0083200  2
   2875   2871   2878   2881     1  0.0000000  1.2552000  3
   2875   2887   2893   5828     1  0.0000000  0.6508444  3
   2878   2871   2872   2884     1  180.0000771  2.0083200  2
   2878   2871   2872   2884     1  0.0000000  1.2552000  3
   2878   2871   2875   2887     1  180.0000771  2.0083200  2
   2878   2871   2875   2887     1  0.0000000  1.2552000  3
   2878   2881   2890   2899     1  0.0000000  0.6508444  3
   2884   2896   5857   5848     1  180.0000771  0.4184000  2
   2884   2896   5857   5848     1  0.0000000  1.6024720  3
   2887   2893   5828   5819     1  180.0000771  0.4184000  2
   2887   2893   5828   5819     1  0.0000000  1.6024720  3
   2893   5828   5819   5810     1  180.0000771  0.4184000  2
   2893   5828   5819   5810     1  0.0000000  1.6024720  3
   2896   5857   5848   5839     1  180.0000771  0.4184000  2
   2896   5857   5848   5839     1  0.0000000  1.6024720  3
   2900   2901   2913   2925     1  0.0000000  0.6508444  3
   2900   2904   2916   2922     1  0.0000000  0.6508444  3
   2900   2907   2910   2919     1  0.0000000  0.6508444  3
   2901   2900   2904   2916     1  180.0000771  2.0083200  2
   2901   2900   2904   2916     1  0.0000000  1.2552000  3
   2901   2900   2907   2910     1  180.0000771  2.0083200  2
   2901   2900   2907   2910     1  0.0000000  1.2552000  3
   2901   2913   2925   5915     1  0.0000000  0.6508444  3
   2904   2900   2901   2913     1  180.0000771  2.0083200  2
   2904   2900   2901   2913     1  0.0000000  1.2552000  3
   2904   2900   2907   2910     1  180.0000771  2.0083200  2
   2904   2900   2907   2910     1  0.0000000  1.2552000  3
   2904   2916   2922   5886     1  0.0000000  0.6508444  3
   2907   2900   2901   2913     1  180.0000771  2.0083200  2
   2907   2900   2901   2913     1  0.0000000  1.2552000  3
   2907   2900   2904   2916     1  180.0000771  2.0083200  2
   2907   2900   2904   2916     1  0.0000000  1.2552000  3
   2907   2910   2919   2928     1  0.0000000  0.6508444  3
   2913   2925   5915   5906     1  180.0000771  0.4184000  2
   2913   2925   5915   5906     1  0.0000000  1.6024720  3
   2916   2922   5886   5877     1  180.0000771  0.4184000  2
   2916   2922   5886   5877     1  0.0000000  1.6024720  3
   2922   5886   5877   5868     1  180.0000771  0.4184000  2
   2922   5886   5877   5868     1  0.0000000  1.6024720  3
   2925   5915   5906   5897     1  180.0000771  0.4184000  2
   2925   5915   5906   5897     1  0.0000000  1.6024720  3
   2929   2930   2942   2954     1  0.0000000  0.6508444  3
   2929   2933   2945   2951     1  0.0000000  0.6508444  3
   2929   2936   2939   2948     1  0.0000000  0.6508444  3
   2930   2929   2933   2945     1  180.0000771  2.0083200  2
   2930   2929   2933   2945     1  0.0000000  1.2552000  3
   2930   2929   2936   2939     1  180.0000771  2.0083200  2
   2930   2929   2936   2939     1  0.0000000  1.2552000  3
   2930   2942   2954   5973     1  0.0000000  0.6508444  3
   2933   2929   2930   2942     1  180.0000771  2.0083200  2
   2933   2929   2930   2942     1  0.0000000  1.2552000  3
   2933   2929   2936   2939     1  180.0000771  2.0083200  2
   2933   2929   2936   2939     1  0.0000000  1.2552000  3
   2933   2945   2951   5944     1  0.0000000  0.6508444  3
   2936   2929   2930   2942     1  180.0000771  2.0083200  2
   2936   2929   2930   2942     1  0.0000000  1.2552000  3
   2936   2929   2933   2945     1  180.0000771  2.0083200  2
   2936   2929   2933   2945     1  0.0000000  1.2552000  3
   2936   2939   2948   2957     1  0.0000000  0.6508444  3
   2942   2954   5973   5964     1  180.0000771  0.4184000  2
   2942   2954   5973   5964     1  0.0000000  1.6024720  3
   2945   2951   5944   5935     1  180.0000771  0.4184000  2
   2945   2951   5944   5935     1  0.0000000  1.6024720  3
   2951   5944   5935   5926     1  180.0000771  0.4184000  2
   2951   5944   5935   5926     1  0.0000000  1.6024720  3
   2954   5973   5964   5955     1  180.0000771  0.4184000  2
   2954   5973   5964   5955     1  0.0000000  1.6024720  3
   2958   2959   2971   2983     1  0.0000000  0.6508444  3
   2958   2962   2974   2980     1  0.0000000  0.6508444  3
   2958   2965   2968   2977     1  0.0000000  0.6508444  3
   2959   2958   2962   2974     1  180.0000771  2.0083200  2
   2959   2958   2962   2974     1  0.0000000  1.2552000  3
   2959   2958   2965   2968     1  180.0000771  2.0083200  2
   2959   2958   2965   2968     1  0.0000000  1.2552000  3
   2959   2971   2983   6031     1  0.0000000  0.6508444  3
   2962   2958   2959   2971     1  180.0000771  2.0083200  2
   2962   2958   2959   2971     1  0.0000000  1.2552000  3
   2962   2958   2965   2968     1  180.0000771  2.0083200  2
   2962   2958   2965   2968     1  0.0000000  1.2552000  3
   2962   2974   2980   6002     1  0.0000000  0.6508444  3
   2965   2958   2959   2971     1  180.0000771  2.0083200  2
   2965   2958   2959   2971     1  0.0000000  1.2552000  3
   2965   2958   2962   2974     1  180.0000771  2.0083200  2
   2965   2958   2962   2974     1  0.0000000  1.2552000  3
   2965   2968   2977   2986     1  0.0000000  0.6508444  3
   2971   2983   6031   6022     1  180.0000771  0.4184000  2
   2971   2983   6031   6022     1  0.0000000  1.6024720  3
   2974   2980   6002   5993     1  180.0000771  0.4184000  2
   2974   2980   6002   5993     1  0.0000000  1.6024720  3
   2980   6002   5993   5984     1  180.0000771  0.4184000  2
   2980   6002   5993   5984     1  0.0000000  1.6024720  3
   2983   6031   6022   6013     1  180.0000771  0.4184000  2
   2983   6031   6022   6013     1  0.0000000  1.6024720  3
   2987   2988   3000   3012     1  0.0000000  0.6508444  3
   2987   2991   3003   3009     1  0.0000000  0.6508444  3
   2987   2994   2997   3006     1  0.0000000  0.6508444  3
   2988   2987   2991   3003     1  180.0000771  2.0083200  2
   2988   2987   2991   3003     1  0.0000000  1.2552000  3
   2988   2987   2994   2997     1  180.0000771  2.0083200  2
   2988   2987   2994   2997     1  0.0000000  1.2552000  3
   2988   3000   3012   6089     1  0.0000000  0.6508444  3
   2991   2987   2988   3000     1  180.0000771  2.0083200  2
   2991   2987   2988   3000     1  0.0000000  1.2552000  3
   2991   2987   2994   2997     1  180.0000771  2.0083200  2
   2991   2987   2994   2997     1  0.0000000  1.2552000  3
   2991   3003   3009   6060     1  0.0000000  0.6508444  3
   2994   2987   2988   3000     1  180.0000771  2.0083200  2
   2994   2987   2988   3000     1  0.0000000  1.2552000  3
   2994   2987   2991   3003     1  180.0000771  2.0083200  2
   2994   2987   2991   3003     1  0.0000000  1.2552000  3
   2994   2997   3006   3015     1  0.0000000  0.6508444  3
   3000   3012   6089   6080     1  180.0000771  0.4184000  2
   3000   3012   6089   6080     1  0.0000000  1.6024720  3
   3003   3009   6060   6051     1  180.0000771  0.4184000  2
   3003   3009   6060   6051     1  0.0000000  1.6024720  3
   3009   6060   6051   6042     1  180.0000771  0.4184000  2
   3009   6060   6051   6042     1  0.0000000  1.6024720  3
   3012   6089   6080   6071     1  180.0000771  0.4184000  2
   3012   6089   6080   6071     1  0.0000000  1.6024720  3
   3016   3017   3029   3041     1  0.0000000  0.6508444  3
   3016   3020   3032   3038     1  0.0000000  0.6508444  3
   3016   3023   3026   3035     1  0.0000000  0.6508444  3
   3017   3016   3020   3032     1  180.0000771  2.0083200  2
   3017   3016   3020   3032     1  0.0000000  1.2552000  3
   3017   3016   3023   3026     1  180.0000771  2.0083200  2
   3017   3016   3023   3026     1  0.0000000  1.2552000  3
   3017   3029   3041   6147     1  0.0000000  0.6508444  3
   3020   3016   3017   3029     1  180.0000771  2.0083200  2
   3020   3016   3017   3029     1  0.0000000  1.2552000  3
   3020   3016   3023   3026     1  180.0000771  2.0083200  2
   3020   3016   3023   3026     1  0.0000000  1.2552000  3
   3020   3032   3038   6118     1  0.0000000  0.6508444  3
   3023   3016   3017   3029     1  180.0000771  2.0083200  2
   3023   3016   3017   3029     1  0.0000000  1.2552000  3
   3023   3016   3020   3032     1  180.0000771  2.0083200  2
   3023   3016   3020   3032     1  0.0000000  1.2552000  3
   3023   3026   3035   3044     1  0.0000000  0.6508444  3
   3029   3041   6147   6138     1  180.0000771  0.4184000  2
   3029   3041   6147   6138     1  0.0000000  1.6024720  3
   3032   3038   6118   6109     1  180.0000771  0.4184000  2
   3032   3038   6118   6109     1  0.0000000  1.6024720  3
   3038   6118   6109   6100     1  180.0000771  0.4184000  2
   3038   6118   6109   6100     1  0.0000000  1.6024720  3
   3041   6147   6138   6129     1  180.0000771  0.4184000  2
   3041   6147   6138   6129     1  0.0000000  1.6024720  3
   3045   3046   3058   3070     1  0.0000000  0.6508444  3
   3045   3049   3061   3067     1  0.0000000  0.6508444  3
   3045   3052   3055   3064     1  0.0000000  0.6508444  3
   3046   3045   3049   3061     1  180.0000771  2.0083200  2
   3046   3045   3049   3061     1  0.0000000  1.2552000  3
   3046   3045   3052   3055     1  180.0000771  2.0083200  2
   3046   3045   3052   3055     1  0.0000000  1.2552000  3
   3046   3058   3070   6205     1  0.0000000  0.6508444  3
   3049   3045   3046   3058     1  180.0000771  2.0083200  2
   3049   3045   3046   3058     1  0.0000000  1.2552000  3
   3049   3045   3052   3055     1  180.0000771  2.0083200  2
   3049   3045   3052   3055     1  0.0000000  1.2552000  3
   3049   3061   3067   6176     1  0.0000000  0.6508444  3
   3052   3045   3046   3058     1  180.0000771  2.0083200  2
   3052   3045   3046   3058     1  0.0000000  1.2552000  3
   3052   3045   3049   3061     1  180.0000771  2.0083200  2
   3052   3045   3049   3061     1  0.0000000  1.2552000  3
   3052   3055   3064   3073     1  0.0000000  0.6508444  3
   3058   3070   6205   6196     1  180.0000771  0.4184000  2
   3058   3070   6205   6196     1  0.0000000  1.6024720  3
   3061   3067   6176   6167     1  180.0000771  0.4184000  2
   3061   3067   6176   6167     1  0.0000000  1.6024720  3
   3067   6176   6167   6158     1  180.0000771  0.4184000  2
   3067   6176   6167   6158     1  0.0000000  1.6024720  3
   3070   6205   6196   6187     1  180.0000771  0.4184000  2
   3070   6205   6196   6187     1  0.0000000  1.6024720  3
   3074   3075   3087   3099     1  0.0000000  0.6508444  3
   3074   3078   3090   3096     1  0.0000000  0.6508444  3
   3074   3081   3084   3093     1  0.0000000  0.6508444  3
   3075   3074   3078   3090     1  180.0000771  2.0083200  2
   3075   3074   3078   3090     1  0.0000000  1.2552000  3
   3075   3074   3081   3084     1  180.0000771  2.0083200  2
   3075   3074   3081   3084     1  0.0000000  1.2552000  3
   3075   3087   3099   6263     1  0.0000000  0.6508444  3
   3078   3074   3075   3087     1  180.0000771  2.0083200  2
   3078   3074   3075   3087     1  0.0000000  1.2552000  3
   3078   3074   3081   3084     1  180.0000771  2.0083200  2
   3078   3074   3081   3084     1  0.0000000  1.2552000  3
   3078   3090   3096   6234     1  0.0000000  0.6508444  3
   3081   3074   3075   3087     1  180.0000771  2.0083200  2
   3081   3074   3075   3087     1  0.0000000  1.2552000  3
   3081   3074   3078   3090     1  180.0000771  2.0083200  2
   3081   3074   3078   3090     1  0.0000000  1.2552000  3
   3081   3084   3093   3102     1  0.0000000  0.6508444  3
   3087   3099   6263   6254     1  180.0000771  0.4184000  2
   3087   3099   6263   6254     1  0.0000000  1.6024720  3
   3090   3096   6234   6225     1  180.0000771  0.4184000  2
   3090   3096   6234   6225     1  0.0000000  1.6024720  3
   3096   6234   6225   6216     1  180.0000771  0.4184000  2
   3096   6234   6225   6216     1  0.0000000  1.6024720  3
   3099   6263   6254   6245     1  180.0000771  0.4184000  2
   3099   6263   6254   6245     1  0.0000000  1.6024720  3
   3103   3104   3116   3128     1  0.0000000  0.6508444  3
   3103   3107   3119   3125     1  0.0000000  0.6508444  3
   3103   3110   3113   3122     1  0.0000000  0.6508444  3
   3104   3103   3107   3119     1  180.0000771  2.0083200  2
   3104   3103   3107   3119     1  0.0000000  1.2552000  3
   3104   3103   3110   3113     1  180.0000771  2.0083200  2
   3104   3103   3110   3113     1  0.0000000  1.2552000  3
   3104   3116   3128   6321     1  0.0000000  0.6508444  3
   3107   3103   3104   3116     1  180.0000771  2.0083200  2
   3107   3103   3104   3116     1  0.0000000  1.2552000  3
   3107   3103   3110   3113     1  180.0000771  2.0083200  2
   3107   3103   3110   3113     1  0.0000000  1.2552000  3
   3107   3119   3125   6292     1  0.0000000  0.6508444  3
   3110   3103   3104   3116     1  180.0000771  2.0083200  2
   3110   3103   3104   3116     1  0.0000000  1.2552000  3
   3110   3103   3107   3119     1  180.0000771  2.0083200  2
   3110   3103   3107   3119     1  0.0000000  1.2552000  3
   3110   3113   3122   3131     1  0.0000000  0.6508444  3
   3116   3128   6321   6312     1  180.0000771  0.4184000  2
   3116   3128   6321   6312     1  0.0000000  1.6024720  3
   3119   3125   6292   6283     1  180.0000771  0.4184000  2
   3119   3125   6292   6283     1  0.0000000  1.6024720  3
   3125   6292   6283   6274     1  180.0000771  0.4184000  2
   3125   6292   6283   6274     1  0.0000000  1.6024720  3
   3128   6321   6312   6303     1  180.0000771  0.4184000  2
   3128   6321   6312   6303     1  0.0000000  1.6024720  3
   3132   3133   3145   3157     1  0.0000000  0.6508444  3
   3132   3136   3148   3154     1  0.0000000  0.6508444  3
   3132   3139   3142   3151     1  0.0000000  0.6508444  3
   3133   3132   3136   3148     1  180.0000771  2.0083200  2
   3133   3132   3136   3148     1  0.0000000  1.2552000  3
   3133   3132   3139   3142     1  180.0000771  2.0083200  2
   3133   3132   3139   3142     1  0.0000000  1.2552000  3
   3133   3145   3157   6379     1  0.0000000  0.6508444  3
   3136   3132   3133   3145     1  180.0000771  2.0083200  2
   3136   3132   3133   3145     1  0.0000000  1.2552000  3
   3136   3132   3139   3142     1  180.0000771  2.0083200  2
   3136   3132   3139   3142     1  0.0000000  1.2552000  3
   3136   3148   3154   6350     1  0.0000000  0.6508444  3
   3139   3132   3133   3145     1  180.0000771  2.0083200  2
   3139   3132   3133   3145     1  0.0000000  1.2552000  3
   3139   3132   3136   3148     1  180.0000771  2.0083200  2
   3139   3132   3136   3148     1  0.0000000  1.2552000  3
   3139   3142   3151   3160     1  0.0000000  0.6508444  3
   3145   3157   6379   6370     1  180.0000771  0.4184000  2
   3145   3157   6379   6370     1  0.0000000  1.6024720  3
   3148   3154   6350   6341     1  180.0000771  0.4184000  2
   3148   3154   6350   6341     1  0.0000000  1.6024720  3
   3154   6350   6341   6332     1  180.0000771  0.4184000  2
   3154   6350   6341   6332     1  0.0000000  1.6024720  3
   3157   6379   6370   6361     1  180.0000771  0.4184000  2
   3157   6379   6370   6361     1  0.0000000  1.6024720  3
   3161   3162   3174   3186     1  0.0000000  0.6508444  3
   3161   3165   3177   3183     1  0.0000000  0.6508444  3
   3161   3168   3171   3180     1  0.0000000  0.6508444  3
   3162   3161   3165   3177     1  180.0000771  2.0083200  2
   3162   3161   3165   3177     1  0.0000000  1.2552000  3
   3162   3161   3168   3171     1  180.0000771  2.0083200  2
   3162   3161   3168   3171     1  0.0000000  1.2552000  3
   3162   3174   3186   6437     1  0.0000000  0.6508444  3
   3165   3161   3162   3174     1  180.0000771  2.0083200  2
   3165   3161   3162   3174     1  0.0000000  1.2552000  3
   3165   3161   3168   3171     1  180.0000771  2.0083200  2
   3165   3161   3168   3171     1  0.0000000  1.2552000  3
   3165   3177   3183   6408     1  0.0000000  0.6508444  3
   3168   3161   3162   3174     1  180.0000771  2.0083200  2
   3168   3161   3162   3174     1  0.0000000  1.2552000  3
   3168   3161   3165   3177     1  180.0000771  2.0083200  2
   3168   3161   3165   3177     1  0.0000000  1.2552000  3
   3168   3171   3180   3189     1  0.0000000  0.6508444  3
   3174   3186   6437   6428     1  180.0000771  0.4184000  2
   3174   3186   6437   6428     1  0.0000000  1.6024720  3
   3177   3183   6408   6399     1  180.0000771  0.4184000  2
   3177   3183   6408   6399     1  0.0000000  1.6024720  3
   3183   6408   6399   6390     1  180.0000771  0.4184000  2
   3183   6408   6399   6390     1  0.0000000  1.6024720  3
   3186   6437   6428   6419     1  180.0000771  0.4184000  2
   3186   6437   6428   6419     1  0.0000000  1.6024720  3
   3190   3191   3203   3215     1  0.0000000  0.6508444  3
   3190   3194   3206   3212     1  0.0000000  0.6508444  3
   3190   3197   3200   3209     1  0.0000000  0.6508444  3
   3191   3190   3194   3206     1  180.0000771  2.0083200  2
   3191   3190   3194   3206     1  0.0000000  1.2552000  3
   3191   3190   3197   3200     1  180.0000771  2.0083200  2
   3191   3190   3197   3200     1  0.0000000  1.2552000  3
   3191   3203   3215   6495     1  0.0000000  0.6508444  3
   3194   3190   3191   3203     1  180.0000771  2.0083200  2
   3194   3190   3191   3203     1  0.0000000  1.2552000  3
   3194   3190   3197   3200     1  180.0000771  2.0083200  2
   3194   3190   3197   3200     1  0.0000000  1.2552000  3
   3194   3206   3212   6466     1  0.0000000  0.6508444  3
   3197   3190   3191   3203     1  180.0000771  2.0083200  2
   3197   3190   3191   3203     1  0.0000000  1.2552000  3
   3197   3190   3194   3206     1  180.0000771  2.0083200  2
   3197   3190   3194   3206     1  0.0000000  1.2552000  3
   3197   3200   3209   3218     1  0.0000000  0.6508444  3
   3203   3215   6495   6486     1  180.0000771  0.4184000  2
   3203   3215   6495   6486     1  0.0000000  1.6024720  3
   3206   3212   6466   6457     1  180.0000771  0.4184000  2
   3206   3212   6466   6457     1  0.0000000  1.6024720  3
   3212   6466   6457   6448     1  180.0000771  0.4184000  2
   3212   6466   6457   6448     1  0.0000000  1.6024720  3
   3215   6495   6486   6477     1  180.0000771  0.4184000  2
   3215   6495   6486   6477     1  0.0000000  1.6024720  3
   3219   3220   3232   3244     1  0.0000000  0.6508444  3
   3219   3223   3235   3241     1  0.0000000  0.6508444  3
   3219   3226   3229   3238     1  0.0000000  0.6508444  3
   3220   3219   3223   3235     1  180.0000771  2.0083200  2
   3220   3219   3223   3235     1  0.0000000  1.2552000  3
   3220   3219   3226   3229     1  180.0000771  2.0083200  2
   3220   3219   3226   3229     1  0.0000000  1.2552000  3
   3220   3232   3244   6553     1  0.0000000  0.6508444  3
   3223   3219   3220   3232     1  180.0000771  2.0083200  2
   3223   3219   3220   3232     1  0.0000000  1.2552000  3
   3223   3219   3226   3229     1  180.0000771  2.0083200  2
   3223   3219   3226   3229     1  0.0000000  1.2552000  3
   3223   3235   3241   6524     1  0.0000000  0.6508444  3
   3226   3219   3220   3232     1  180.0000771  2.0083200  2
   3226   3219   3220   3232     1  0.0000000  1.2552000  3
   3226   3219   3223   3235     1  180.0000771  2.0083200  2
   3226   3219   3223   3235     1  0.0000000  1.2552000  3
   3226   3229   3238   3247     1  0.0000000  0.6508444  3
   3232   3244   6553   6544     1  180.0000771  0.4184000  2
   3232   3244   6553   6544     1  0.0000000  1.6024720  3
   3235   3241   6524   6515     1  180.0000771  0.4184000  2
   3235   3241   6524   6515     1  0.0000000  1.6024720  3
   3241   6524   6515   6506     1  180.0000771  0.4184000  2
   3241   6524   6515   6506     1  0.0000000  1.6024720  3
   3244   6553   6544   6535     1  180.0000771  0.4184000  2
   3244   6553   6544   6535     1  0.0000000  1.6024720  3
   3248   3249   3261   3273     1  0.0000000  0.6508444  3
   3248   3252   3264   3270     1  0.0000000  0.6508444  3
   3248   3255   3258   3267     1  0.0000000  0.6508444  3
   3249   3248   3252   3264     1  180.0000771  2.0083200  2
   3249   3248   3252   3264     1  0.0000000  1.2552000  3
   3249   3248   3255   3258     1  180.0000771  2.0083200  2
   3249   3248   3255   3258     1  0.0000000  1.2552000  3
   3249   3261   3273   6611     1  0.0000000  0.6508444  3
   3252   3248   3249   3261     1  180.0000771  2.0083200  2
   3252   3248   3249   3261     1  0.0000000  1.2552000  3
   3252   3248   3255   3258     1  180.0000771  2.0083200  2
   3252   3248   3255   3258     1  0.0000000  1.2552000  3
   3252   3264   3270   6582     1  0.0000000  0.6508444  3
   3255   3248   3249   3261     1  180.0000771  2.0083200  2
   3255   3248   3249   3261     1  0.0000000  1.2552000  3
   3255   3248   3252   3264     1  180.0000771  2.0083200  2
   3255   3248   3252   3264     1  0.0000000  1.2552000  3
   3255   3258   3267   3276     1  0.0000000  0.6508444  3
   3261   3273   6611   6602     1  180.0000771  0.4184000  2
   3261   3273   6611   6602     1  0.0000000  1.6024720  3
   3264   3270   6582   6573     1  180.0000771  0.4184000  2
   3264   3270   6582   6573     1  0.0000000  1.6024720  3
   3270   6582   6573   6564     1  180.0000771  0.4184000  2
   3270   6582   6573   6564     1  0.0000000  1.6024720  3
   3273   6611   6602   6593     1  180.0000771  0.4184000  2
   3273   6611   6602   6593     1  0.0000000  1.6024720  3
   3277   3278   3290   3302     1  0.0000000  0.6508444  3
   3277   3281   3293   3299     1  0.0000000  0.6508444  3
   3277   3284   3287   3296     1  0.0000000  0.6508444  3
   3278   3277   3281   3293     1  180.0000771  2.0083200  2
   3278   3277   3281   3293     1  0.0000000  1.2552000  3
   3278   3277   3284   3287     1  180.0000771  2.0083200  2
   3278   3277   3284   3287     1  0.0000000  1.2552000  3
   3278   3290   3302   6669     1  0.0000000  0.6508444  3
   3281   3277   3278   3290     1  180.0000771  2.0083200  2
   3281   3277   3278   3290     1  0.0000000  1.2552000  3
   3281   3277   3284   3287     1  180.0000771  2.0083200  2
   3281   3277   3284   3287     1  0.0000000  1.2552000  3
   3281   3293   3299   6640     1  0.0000000  0.6508444  3
   3284   3277   3278   3290     1  180.0000771  2.0083200  2
   3284   3277   3278   3290     1  0.0000000  1.2552000  3
   3284   3277   3281   3293     1  180.0000771  2.0083200  2
   3284   3277   3281   3293     1  0.0000000  1.2552000  3
   3284   3287   3296   3305     1  0.0000000  0.6508444  3
   3290   3302   6669   6660     1  180.0000771  0.4184000  2
   3290   3302   6669   6660     1  0.0000000  1.6024720  3
   3293   3299   6640   6631     1  180.0000771  0.4184000  2
   3293   3299   6640   6631     1  0.0000000  1.6024720  3
   3299   6640   6631   6622     1  180.0000771  0.4184000  2
   3299   6640   6631   6622     1  0.0000000  1.6024720  3
   3302   6669   6660   6651     1  180.0000771  0.4184000  2
   3302   6669   6660   6651     1  0.0000000  1.6024720  3
   3306   3307   3319   3331     1  0.0000000  0.6508444  3
   3306   3310   3322   3328     1  0.0000000  0.6508444  3
   3306   3313   3316   3325     1  0.0000000  0.6508444  3
   3307   3306   3310   3322     1  180.0000771  2.0083200  2
   3307   3306   3310   3322     1  0.0000000  1.2552000  3
   3307   3306   3313   3316     1  180.0000771  2.0083200  2
   3307   3306   3313   3316     1  0.0000000  1.2552000  3
   3307   3319   3331   6727     1  0.0000000  0.6508444  3
   3310   3306   3307   3319     1  180.0000771  2.0083200  2
   3310   3306   3307   3319     1  0.0000000  1.2552000  3
   3310   3306   3313   3316     1  180.0000771  2.0083200  2
   3310   3306   3313   3316     1  0.0000000  1.2552000  3
   3310   3322   3328   6698     1  0.0000000  0.6508444  3
   3313   3306   3307   3319     1  180.0000771  2.0083200  2
   3313   3306   3307   3319     1  0.0000000  1.2552000  3
   3313   3306   3310   3322     1  180.0000771  2.0083200  2
   3313   3306   3310   3322     1  0.0000000  1.2552000  3
   3313   3316   3325   3334     1  0.0000000  0.6508444  3
   3319   3331   6727   6718     1  180.0000771  0.4184000  2
   3319   3331   6727   6718     1  0.0000000  1.6024720  3
   3322   3328   6698   6689     1  180.0000771  0.4184000  2
   3322   3328   6698   6689     1  0.0000000  1.6024720  3
   3328   6698   6689   6680     1  180.0000771  0.4184000  2
   3328   6698   6689   6680     1  0.0000000  1.6024720  3
   3331   6727   6718   6709     1  180.0000771  0.4184000  2
   3331   6727   6718   6709     1  0.0000000  1.6024720  3
   3335   3336   3348   3360     1  0.0000000  0.6508444  3
   3335   3339   3351   3357     1  0.0000000  0.6508444  3
   3335   3342   3345   3354     1  0.0000000  0.6508444  3
   3336   3335   3339   3351     1  180.0000771  2.0083200  2
   3336   3335   3339   3351     1  0.0000000  1.2552000  3
   3336   3335   3342   3345     1  180.0000771  2.0083200  2
   3336   3335   3342   3345     1  0.0000000  1.2552000  3
   3336   3348   3360   6785     1  0.0000000  0.6508444  3
   3339   3335   3336   3348     1  180.0000771  2.0083200  2
   3339   3335   3336   3348     1  0.0000000  1.2552000  3
   3339   3335   3342   3345     1  180.0000771  2.0083200  2
   3339   3335   3342   3345     1  0.0000000  1.2552000  3
   3339   3351   3357   6756     1  0.0000000  0.6508444  3
   3342   3335   3336   3348     1  180.0000771  2.0083200  2
   3342   3335   3336   3348     1  0.0000000  1.2552000  3
   3342   3335   3339   3351     1  180.0000771  2.0083200  2
   3342   3335   3339   3351     1  0.0000000  1.2552000  3
   3342   3345   3354   3363     1  0.0000000  0.6508444  3
   3348   3360   6785   6776     1  180.0000771  0.4184000  2
   3348   3360   6785   6776     1  0.0000000  1.6024720  3
   3351   3357   6756   6747     1  180.0000771  0.4184000  2
   3351   3357   6756   6747     1  0.0000000  1.6024720  3
   3357   6756   6747   6738     1  180.0000771  0.4184000  2
   3357   6756   6747   6738     1  0.0000000  1.6024720  3
   3360   6785   6776   6767     1  180.0000771  0.4184000  2
   3360   6785   6776   6767     1  0.0000000  1.6024720  3
   3364   3365   3377   3389     1  0.0000000  0.6508444  3
   3364   3368   3380   3386     1  0.0000000  0.6508444  3
   3364   3371   3374   3383     1  0.0000000  0.6508444  3
   3365   3364   3368   3380     1  180.0000771  2.0083200  2
   3365   3364   3368   3380     1  0.0000000  1.2552000  3
   3365   3364   3371   3374     1  180.0000771  2.0083200  2
   3365   3364   3371   3374     1  0.0000000  1.2552000  3
   3365   3377   3389   6843     1  0.0000000  0.6508444  3
   3368   3364   3365   3377     1  180.0000771  2.0083200  2
   3368   3364   3365   3377     1  0.0000000  1.2552000  3
   3368   3364   3371   3374     1  180.0000771  2.0083200  2
   3368   3364   3371   3374     1  0.0000000  1.2552000  3
   3368   3380   3386   6814     1  0.0000000  0.6508444  3
   3371   3364   3365   3377     1  180.0000771  2.0083200  2
   3371   3364   3365   3377     1  0.0000000  1.2552000  3
   3371   3364   3368   3380     1  180.0000771  2.0083200  2
   3371   3364   3368   3380     1  0.0000000  1.2552000  3
   3371   3374   3383   3392     1  0.0000000  0.6508444  3
   3377   3389   6843   6834     1  180.0000771  0.4184000  2
   3377   3389   6843   6834     1  0.0000000  1.6024720  3
   3380   3386   6814   6805     1  180.0000771  0.4184000  2
   3380   3386   6814   6805     1  0.0000000  1.6024720  3
   3386   6814   6805   6796     1  180.0000771  0.4184000  2
   3386   6814   6805   6796     1  0.0000000  1.6024720  3
   3389   6843   6834   6825     1  180.0000771  0.4184000  2
   3389   6843   6834   6825     1  0.0000000  1.6024720  3
   3393   3394   3406   3418     1  0.0000000  0.6508444  3
   3393   3397   3409   3415     1  0.0000000  0.6508444  3
   3393   3400   3403   3412     1  0.0000000  0.6508444  3
   3394   3393   3397   3409     1  180.0000771  2.0083200  2
   3394   3393   3397   3409     1  0.0000000  1.2552000  3
   3394   3393   3400   3403     1  180.0000771  2.0083200  2
   3394   3393   3400   3403     1  0.0000000  1.2552000  3
   3394   3406   3418   6901     1  0.0000000  0.6508444  3
   3397   3393   3394   3406     1  180.0000771  2.0083200  2
   3397   3393   3394   3406     1  0.0000000  1.2552000  3
   3397   3393   3400   3403     1  180.0000771  2.0083200  2
   3397   3393   3400   3403     1  0.0000000  1.2552000  3
   3397   3409   3415   6872     1  0.0000000  0.6508444  3
   3400   3393   3394   3406     1  180.0000771  2.0083200  2
   3400   3393   3394   3406     1  0.0000000  1.2552000  3
   3400   3393   3397   3409     1  180.0000771  2.0083200  2
   3400   3393   3397   3409     1  0.0000000  1.2552000  3
   3400   3403   3412   3421     1  0.0000000  0.6508444  3
   3406   3418   6901   6892     1  180.0000771  0.4184000  2
   3406   3418   6901   6892     1  0.0000000  1.6024720  3
   3409   3415   6872   6863     1  180.0000771  0.4184000  2
   3409   3415   6872   6863     1  0.0000000  1.6024720  3
   3415   6872   6863   6854     1  180.0000771  0.4184000  2
   3415   6872   6863   6854     1  0.0000000  1.6024720  3
   3418   6901   6892   6883     1  180.0000771  0.4184000  2
   3418   6901   6892   6883     1  0.0000000  1.6024720  3
   3422   3423   3435   3447     1  0.0000000  0.6508444  3
   3422   3426   3438   3444     1  0.0000000  0.6508444  3
   3422   3429   3432   3441     1  0.0000000  0.6508444  3
   3423   3422   3426   3438     1  180.0000771  2.0083200  2
   3423   3422   3426   3438     1  0.0000000  1.2552000  3
   3423   3422   3429   3432     1  180.0000771  2.0083200  2
   3423   3422   3429   3432     1  0.0000000  1.2552000  3
   3423   3435   3447   6959     1  0.0000000  0.6508444  3
   3426   3422   3423   3435     1  180.0000771  2.0083200  2
   3426   3422   3423   3435     1  0.0000000  1.2552000  3
   3426   3422   3429   3432     1  180.0000771  2.0083200  2
   3426   3422   3429   3432     1  0.0000000  1.2552000  3
   3426   3438   3444   6930     1  0.0000000  0.6508444  3
   3429   3422   3423   3435     1  180.0000771  2.0083200  2
   3429   3422   3423   3435     1  0.0000000  1.2552000  3
   3429   3422   3426   3438     1  180.0000771  2.0083200  2
   3429   3422   3426   3438     1  0.0000000  1.2552000  3
   3429   3432   3441   3450     1  0.0000000  0.6508444  3
   3435   3447   6959   6950     1  180.0000771  0.4184000  2
   3435   3447   6959   6950     1  0.0000000  1.6024720  3
   3438   3444   6930   6921     1  180.0000771  0.4184000  2
   3438   3444   6930   6921     1  0.0000000  1.6024720  3
   3444   6930   6921   6912     1  180.0000771  0.4184000  2
   3444   6930   6921   6912     1  0.0000000  1.6024720  3
   3447   6959   6950   6941     1  180.0000771  0.4184000  2
   3447   6959   6950   6941     1  0.0000000  1.6024720  3
   3451   3452   3464   3476     1  0.0000000  0.6508444  3
   3451   3455   3467   3473     1  0.0000000  0.6508444  3
   3451   3458   3461   3470     1  0.0000000  0.6508444  3
   3452   3451   3455   3467     1  180.0000771  2.0083200  2
   3452   3451   3455   3467     1  0.0000000  1.2552000  3
   3452   3451   3458   3461     1  180.0000771  2.0083200  2
   3452   3451   3458   3461     1  0.0000000  1.2552000  3
   3452   3464   3476   7017     1  0.0000000  0.6508444  3
   3455   3451   3452   3464     1  180.0000771  2.0083200  2
   3455   3451   3452   3464     1  0.0000000  1.2552000  3
   3455   3451   3458   3461     1  180.0000771  2.0083200  2
   3455   3451   3458   3461     1  0.0000000  1.2552000  3
   3455   3467   3473   6988     1  0.0000000  0.6508444  3
   3458   3451   3452   3464     1  180.0000771  2.0083200  2
   3458   3451   3452   3464     1  0.0000000  1.2552000  3
   3458   3451   3455   3467     1  180.0000771  2.0083200  2
   3458   3451   3455   3467     1  0.0000000  1.2552000  3
   3458   3461   3470   3479     1  0.0000000  0.6508444  3
   3464   3476   7017   7008     1  180.0000771  0.4184000  2
   3464   3476   7017   7008     1  0.0000000  1.6024720  3
   3467   3473   6988   6979     1  180.0000771  0.4184000  2
   3467   3473   6988   6979     1  0.0000000  1.6024720  3
   3473   6988   6979   6970     1  180.0000771  0.4184000  2
   3473   6988   6979   6970     1  0.0000000  1.6024720  3
   3476   7017   7008   6999     1  180.0000771  0.4184000  2
   3476   7017   7008   6999     1  0.0000000  1.6024720  3
   3480   3481   3493   3505     1  0.0000000  0.6508444  3
   3480   3484   3496   3502     1  0.0000000  0.6508444  3
   3480   3487   3490   3499     1  0.0000000  0.6508444  3
   3481   3480   3484   3496     1  180.0000771  2.0083200  2
   3481   3480   3484   3496     1  0.0000000  1.2552000  3
   3481   3480   3487   3490     1  180.0000771  2.0083200  2
   3481   3480   3487   3490     1  0.0000000  1.2552000  3
   3481   3493   3505   7075     1  0.0000000  0.6508444  3
   3484   3480   3481   3493     1  180.0000771  2.0083200  2
   3484   3480   3481   3493     1  0.0000000  1.2552000  3
   3484   3480   3487   3490     1  180.0000771  2.0083200  2
   3484   3480   3487   3490     1  0.0000000  1.2552000  3
   3484   3496   3502   7046     1  0.0000000  0.6508444  3
   3487   3480   3481   3493     1  180.0000771  2.0083200  2
   3487   3480   3481   3493     1  0.0000000  1.2552000  3
   3487   3480   3484   3496     1  180.0000771  2.0083200  2
   3487   3480   3484   3496     1  0.0000000  1.2552000  3
   3487   3490   3499   3508     1  0.0000000  0.6508444  3
   3493   3505   7075   7066     1  180.0000771  0.4184000  2
   3493   3505   7075   7066     1  0.0000000  1.6024720  3
   3496   3502   7046   7037     1  180.0000771  0.4184000  2
   3496   3502   7046   7037     1  0.0000000  1.6024720  3
   3502   7046   7037   7028     1  180.0000771  0.4184000  2
   3502   7046   7037   7028     1  0.0000000  1.6024720  3
   3505   7075   7066   7057     1  180.0000771  0.4184000  2
   3505   7075   7066   7057     1  0.0000000  1.6024720  3
   3509   3510   3522   3534     1  0.0000000  0.6508444  3
   3509   3513   3525   3531     1  0.0000000  0.6508444  3
   3509   3516   3519   3528     1  0.0000000  0.6508444  3
   3510   3509   3513   3525     1  180.0000771  2.0083200  2
   3510   3509   3513   3525     1  0.0000000  1.2552000  3
   3510   3509   3516   3519     1  180.0000771  2.0083200  2
   3510   3509   3516   3519     1  0.0000000  1.2552000  3
   3510   3522   3534   7133     1  0.0000000  0.6508444  3
   3513   3509   3510   3522     1  180.0000771  2.0083200  2
   3513   3509   3510   3522     1  0.0000000  1.2552000  3
   3513   3509   3516   3519     1  180.0000771  2.0083200  2
   3513   3509   3516   3519     1  0.0000000  1.2552000  3
   3513   3525   3531   7104     1  0.0000000  0.6508444  3
   3516   3509   3510   3522     1  180.0000771  2.0083200  2
   3516   3509   3510   3522     1  0.0000000  1.2552000  3
   3516   3509   3513   3525     1  180.0000771  2.0083200  2
   3516   3509   3513   3525     1  0.0000000  1.2552000  3
   3516   3519   3528   3537     1  0.0000000  0.6508444  3
   3522   3534   7133   7124     1  180.0000771  0.4184000  2
   3522   3534   7133   7124     1  0.0000000  1.6024720  3
   3525   3531   7104   7095     1  180.0000771  0.4184000  2
   3525   3531   7104   7095     1  0.0000000  1.6024720  3
   3531   7104   7095   7086     1  180.0000771  0.4184000  2
   3531   7104   7095   7086     1  0.0000000  1.6024720  3
   3534   7133   7124   7115     1  180.0000771  0.4184000  2
   3534   7133   7124   7115     1  0.0000000  1.6024720  3
   3538   3539   3551   3563     1  0.0000000  0.6508444  3
   3538   3542   3554   3560     1  0.0000000  0.6508444  3
   3538   3545   3548   3557     1  0.0000000  0.6508444  3
   3539   3538   3542   3554     1  180.0000771  2.0083200  2
   3539   3538   3542   3554     1  0.0000000  1.2552000  3
   3539   3538   3545   3548     1  180.0000771  2.0083200  2
   3539   3538   3545   3548     1  0.0000000  1.2552000  3
   3539   3551   3563   7191     1  0.0000000  0.6508444  3
   3542   3538   3539   3551     1  180.0000771  2.0083200  2
   3542   3538   3539   3551     1  0.0000000  1.2552000  3
   3542   3538   3545   3548     1  180.0000771  2.0083200  2
   3542   3538   3545   3548     1  0.0000000  1.2552000  3
   3542   3554   3560   7162     1  0.0000000  0.6508444  3
   3545   3538   3539   3551     1  180.0000771  2.0083200  2
   3545   3538   3539   3551     1  0.0000000  1.2552000  3
   3545   3538   3542   3554     1  180.0000771  2.0083200  2
   3545   3538   3542   3554     1  0.0000000  1.2552000  3
   3545   3548   3557   3566     1  0.0000000  0.6508444  3
   3551   3563   7191   7182     1  180.0000771  0.4184000  2
   3551   3563   7191   7182     1  0.0000000  1.6024720  3
   3554   3560   7162   7153     1  180.0000771  0.4184000  2
   3554   3560   7162   7153     1  0.0000000  1.6024720  3
   3560   7162   7153   7144     1  180.0000771  0.4184000  2
   3560   7162   7153   7144     1  0.0000000  1.6024720  3
   3563   7191   7182   7173     1  180.0000771  0.4184000  2
   3563   7191   7182   7173     1  0.0000000  1.6024720  3
   3567   3568   3580   3592     1  0.0000000  0.6508444  3
   3567   3571   3583   3589     1  0.0000000  0.6508444  3
   3567   3574   3577   3586     1  0.0000000  0.6508444  3
   3568   3567   3571   3583     1  180.0000771  2.0083200  2
   3568   3567   3571   3583     1  0.0000000  1.2552000  3
   3568   3567   3574   3577     1  180.0000771  2.0083200  2
   3568   3567   3574   3577     1  0.0000000  1.2552000  3
   3568   3580   3592   7249     1  0.0000000  0.6508444  3
   3571   3567   3568   3580     1  180.0000771  2.0083200  2
   3571   3567   3568   3580     1  0.0000000  1.2552000  3
   3571   3567   3574   3577     1  180.0000771  2.0083200  2
   3571   3567   3574   3577     1  0.0000000  1.2552000  3
   3571   3583   3589   7220     1  0.0000000  0.6508444  3
   3574   3567   3568   3580     1  180.0000771  2.0083200  2
   3574   3567   3568   3580     1  0.0000000  1.2552000  3
   3574   3567   3571   3583     1  180.0000771  2.0083200  2
   3574   3567   3571   3583     1  0.0000000  1.2552000  3
   3574   3577   3586   3595     1  0.0000000  0.6508444  3
   3580   3592   7249   7240     1  180.0000771  0.4184000  2
   3580   3592   7249   7240     1  0.0000000  1.6024720  3
   3583   3589   7220   7211     1  180.0000771  0.4184000  2
   3583   3589   7220   7211     1  0.0000000  1.6024720  3
   3589   7220   7211   7202     1  180.0000771  0.4184000  2
   3589   7220   7211   7202     1  0.0000000  1.6024720  3
   3592   7249   7240   7231     1  180.0000771  0.4184000  2
   3592   7249   7240   7231     1  0.0000000  1.6024720  3
   3596   3597   3609   3621     1  0.0000000  0.6508444  3
   3596   3600   3612   3618     1  0.0000000  0.6508444  3
   3596   3603   3606   3615     1  0.0000000  0.6508444  3
   3597   3596   3600   3612     1  180.0000771  2.0083200  2
   3597   3596   3600   3612     1  0.0000000  1.2552000  3
   3597   3596   3603   3606     1  180.0000771  2.0083200  2
   3597   3596   3603   3606     1  0.0000000  1.2552000  3
   3597   3609   3621   7307     1  0.0000000  0.6508444  3
   3600   3596   3597   3609     1  180.0000771  2.0083200  2
   3600   3596   3597   3609     1  0.0000000  1.2552000  3
   3600   3596   3603   3606     1  180.0000771  2.0083200  2
   3600   3596   3603   3606     1  0.0000000  1.2552000  3
   3600   3612   3618   7278     1  0.0000000  0.6508444  3
   3603   3596   3597   3609     1  180.0000771  2.0083200  2
   3603   3596   3597   3609     1  0.0000000  1.2552000  3
   3603   3596   3600   3612     1  180.0000771  2.0083200  2
   3603   3596   3600   3612     1  0.0000000  1.2552000  3
   3603   3606   3615   3624     1  0.0000000  0.6508444  3
   3609   3621   7307   7298     1  180.0000771  0.4184000  2
   3609   3621   7307   7298     1  0.0000000  1.6024720  3
   3612   3618   7278   7269     1  180.0000771  0.4184000  2
   3612   3618   7278   7269     1  0.0000000  1.6024720  3
   3618   7278   7269   7260     1  180.0000771  0.4184000  2
   3618   7278   7269   7260     1  0.0000000  1.6024720  3
   3621   7307   7298   7289     1  180.0000771  0.4184000  2
   3621   7307   7298   7289     1  0.0000000  1.6024720  3
   3625   3626   3638   3650     1  0.0000000  0.6508444  3
   3625   3629   3641   3647     1  0.0000000  0.6508444  3
   3625   3632   3635   3644     1  0.0000000  0.6508444  3
   3626   3625   3629   3641     1  180.0000771  2.0083200  2
   3626   3625   3629   3641     1  0.0000000  1.2552000  3
   3626   3625   3632   3635     1  180.0000771  2.0083200  2
   3626   3625   3632   3635     1  0.0000000  1.2552000  3
   3626   3638   3650   7365     1  0.0000000  0.6508444  3
   3629   3625   3626   3638     1  180.0000771  2.0083200  2
   3629   3625   3626   3638     1  0.0000000  1.2552000  3
   3629   3625   3632   3635     1  180.0000771  2.0083200  2
   3629   3625   3632   3635     1  0.0000000  1.2552000  3
   3629   3641   3647   7336     1  0.0000000  0.6508444  3
   3632   3625   3626   3638     1  180.0000771  2.0083200  2
   3632   3625   3626   3638     1  0.0000000  1.2552000  3
   3632   3625   3629   3641     1  180.0000771  2.0083200  2
   3632   3625   3629   3641     1  0.0000000  1.2552000  3
   3632   3635   3644   3653     1  0.0000000  0.6508444  3
   3638   3650   7365   7356     1  180.0000771  0.4184000  2
   3638   3650   7365   7356     1  0.0000000  1.6024720  3
   3641   3647   7336   7327     1  180.0000771  0.4184000  2
   3641   3647   7336   7327     1  0.0000000  1.6024720  3
   3647   7336   7327   7318     1  180.0000771  0.4184000  2
   3647   7336   7327   7318     1  0.0000000  1.6024720  3
   3650   7365   7356   7347     1  180.0000771  0.4184000  2
   3650   7365   7356   7347     1  0.0000000  1.6024720  3
   3654   3655   3667   3679     1  0.0000000  0.6508444  3
   3654   3658   3670   3676     1  0.0000000  0.6508444  3
   3654   3661   3664   3673     1  0.0000000  0.6508444  3
   3655   3654   3658   3670     1  180.0000771  2.0083200  2
   3655   3654   3658   3670     1  0.0000000  1.2552000  3
   3655   3654   3661   3664     1  180.0000771  2.0083200  2
   3655   3654   3661   3664     1  0.0000000  1.2552000  3
   3655   3667   3679   7423     1  0.0000000  0.6508444  3
   3658   3654   3655   3667     1  180.0000771  2.0083200  2
   3658   3654   3655   3667     1  0.0000000  1.2552000  3
   3658   3654   3661   3664     1  180.0000771  2.0083200  2
   3658   3654   3661   3664     1  0.0000000  1.2552000  3
   3658   3670   3676   7394     1  0.0000000  0.6508444  3
   3661   3654   3655   3667     1  180.0000771  2.0083200  2
   3661   3654   3655   3667     1  0.0000000  1.2552000  3
   3661   3654   3658   3670     1  180.0000771  2.0083200  2
   3661   3654   3658   3670     1  0.0000000  1.2552000  3
   3661   3664   3673   3682     1  0.0000000  0.6508444  3
   3667   3679   7423   7414     1  180.0000771  0.4184000  2
   3667   3679   7423   7414     1  0.0000000  1.6024720  3
   3670   3676   7394   7385     1  180.0000771  0.4184000  2
   3670   3676   7394   7385     1  0.0000000  1.6024720  3
   3676   7394   7385   7376     1  180.0000771  0.4184000  2
   3676   7394   7385   7376     1  0.0000000  1.6024720  3
   3679   7423   7414   7405     1  180.0000771  0.4184000  2
   3679   7423   7414   7405     1  0.0000000  1.6024720  3
   3683   3684   3696   3708     1  0.0000000  0.6508444  3
   3683   3687   3699   3705     1  0.0000000  0.6508444  3
   3683   3690   3693   3702     1  0.0000000  0.6508444  3
   3684   3683   3687   3699     1  180.0000771  2.0083200  2
   3684   3683   3687   3699     1  0.0000000  1.2552000  3
   3684   3683   3690   3693     1  180.0000771  2.0083200  2
   3684   3683   3690   3693     1  0.0000000  1.2552000  3
   3684   3696   3708   7481     1  0.0000000  0.6508444  3
   3687   3683   3684   3696     1  180.0000771  2.0083200  2
   3687   3683   3684   3696     1  0.0000000  1.2552000  3
   3687   3683   3690   3693     1  180.0000771  2.0083200  2
   3687   3683   3690   3693     1  0.0000000  1.2552000  3
   3687   3699   3705   7452     1  0.0000000  0.6508444  3
   3690   3683   3684   3696     1  180.0000771  2.0083200  2
   3690   3683   3684   3696     1  0.0000000  1.2552000  3
   3690   3683   3687   3699     1  180.0000771  2.0083200  2
   3690   3683   3687   3699     1  0.0000000  1.2552000  3
   3690   3693   3702   3711     1  0.0000000  0.6508444  3
   3696   3708   7481   7472     1  180.0000771  0.4184000  2
   3696   3708   7481   7472     1  0.0000000  1.6024720  3
   3699   3705   7452   7443     1  180.0000771  0.4184000  2
   3699   3705   7452   7443     1  0.0000000  1.6024720  3
   3705   7452   7443   7434     1  180.0000771  0.4184000  2
   3705   7452   7443   7434     1  0.0000000  1.6024720  3
   3708   7481   7472   7463     1  180.0000771  0.4184000  2
   3708   7481   7472   7463     1  0.0000000  1.6024720  3
   3712   3713   3725   3737     1  0.0000000  0.6508444  3
   3712   3716   3728   3734     1  0.0000000  0.6508444  3
   3712   3719   3722   3731     1  0.0000000  0.6508444  3
   3713   3712   3716   3728     1  180.0000771  2.0083200  2
   3713   3712   3716   3728     1  0.0000000  1.2552000  3
   3713   3712   3719   3722     1  180.0000771  2.0083200  2
   3713   3712   3719   3722     1  0.0000000  1.2552000  3
   3713   3725   3737   7539     1  0.0000000  0.6508444  3
   3716   3712   3713   3725     1  180.0000771  2.0083200  2
   3716   3712   3713   3725     1  0.0000000  1.2552000  3
   3716   3712   3719   3722     1  180.0000771  2.0083200  2
   3716   3712   3719   3722     1  0.0000000  1.2552000  3
   3716   3728   3734   7510     1  0.0000000  0.6508444  3
   3719   3712   3713   3725     1  180.0000771  2.0083200  2
   3719   3712   3713   3725     1  0.0000000  1.2552000  3
   3719   3712   3716   3728     1  180.0000771  2.0083200  2
   3719   3712   3716   3728     1  0.0000000  1.2552000  3
   3719   3722   3731   3740     1  0.0000000  0.6508444  3
   3725   3737   7539   7530     1  180.0000771  0.4184000  2
   3725   3737   7539   7530     1  0.0000000  1.6024720  3
   3728   3734   7510   7501     1  180.0000771  0.4184000  2
   3728   3734   7510   7501     1  0.0000000  1.6024720  3
   3734   7510   7501   7492     1  180.0000771  0.4184000  2
   3734   7510   7501   7492     1  0.0000000  1.6024720  3
   3737   7539   7530   7521     1  180.0000771  0.4184000  2
   3737   7539   7530   7521     1  0.0000000  1.6024720  3
   3741   3742   3754   3766     1  0.0000000  0.6508444  3
   3741   3745   3757   3763     1  0.0000000  0.6508444  3
   3741   3748   3751   3760     1  0.0000000  0.6508444  3
   3742   3741   3745   3757     1  180.0000771  2.0083200  2
   3742   3741   3745   3757     1  0.0000000  1.2552000  3
   3742   3741   3748   3751     1  180.0000771  2.0083200  2
   3742   3741   3748   3751     1  0.0000000  1.2552000  3
   3742   3754   3766   7597     1  0.0000000  0.6508444  3
   3745   3741   3742   3754     1  180.0000771  2.0083200  2
   3745   3741   3742   3754     1  0.0000000  1.2552000  3
   3745   3741   3748   3751     1  180.0000771  2.0083200  2
   3745   3741   3748   3751     1  0.0000000  1.2552000  3
   3745   3757   3763   7568     1  0.0000000  0.6508444  3
   3748   3741   3742   3754     1  180.0000771  2.0083200  2
   3748   3741   3742   3754     1  0.0000000  1.2552000  3
   3748   3741   3745   3757     1  180.0000771  2.0083200  2
   3748   3741   3745   3757     1  0.0000000  1.2552000  3
   3748   3751   3760   3769     1  0.0000000  0.6508444  3
   3754   3766   7597   7588     1  180.0000771  0.4184000  2
   3754   3766   7597   7588     1  0.0000000  1.6024720  3
   3757   3763   7568   7559     1  180.0000771  0.4184000  2
   3757   3763   7568   7559     1  0.0000000  1.6024720  3
   3763   7568   7559   7550     1  180.0000771  0.4184000  2
   3763   7568   7559   7550     1  0.0000000  1.6024720  3
   3766   7597   7588   7579     1  180.0000771  0.4184000  2
   3766   7597   7588   7579     1  0.0000000  1.6024720  3
   3770   3771   3783   3795     1  0.0000000  0.6508444  3
   3770   3774   3786   3792     1  0.0000000  0.6508444  3
   3770   3777   3780   3789     1  0.0000000  0.6508444  3
   3771   3770   3774   3786     1  180.0000771  2.0083200  2
   3771   3770   3774   3786     1  0.0000000  1.2552000  3
   3771   3770   3777   3780     1  180.0000771  2.0083200  2
   3771   3770   3777   3780     1  0.0000000  1.2552000  3
   3771   3783   3795   7655     1  0.0000000  0.6508444  3
   3774   3770   3771   3783     1  180.0000771  2.0083200  2
   3774   3770   3771   3783     1  0.0000000  1.2552000  3
   3774   3770   3777   3780     1  180.0000771  2.0083200  2
   3774   3770   3777   3780     1  0.0000000  1.2552000  3
   3774   3786   3792   7626     1  0.0000000  0.6508444  3
   3777   3770   3771   3783     1  180.0000771  2.0083200  2
   3777   3770   3771   3783     1  0.0000000  1.2552000  3
   3777   3770   3774   3786     1  180.0000771  2.0083200  2
   3777   3770   3774   3786     1  0.0000000  1.2552000  3
   3777   3780   3789   3798     1  0.0000000  0.6508444  3
   3783   3795   7655   7646     1  180.0000771  0.4184000  2
   3783   3795   7655   7646     1  0.0000000  1.6024720  3
   3786   3792   7626   7617     1  180.0000771  0.4184000  2
   3786   3792   7626   7617     1  0.0000000  1.6024720  3
   3792   7626   7617   7608     1  180.0000771  0.4184000  2
   3792   7626   7617   7608     1  0.0000000  1.6024720  3
   3795   7655   7646   7637     1  180.0000771  0.4184000  2
   3795   7655   7646   7637     1  0.0000000  1.6024720  3
   3799   3800   3812   3824     1  0.0000000  0.6508444  3
   3799   3803   3815   3821     1  0.0000000  0.6508444  3
   3799   3806   3809   3818     1  0.0000000  0.6508444  3
   3800   3799   3803   3815     1  180.0000771  2.0083200  2
   3800   3799   3803   3815     1  0.0000000  1.2552000  3
   3800   3799   3806   3809     1  180.0000771  2.0083200  2
   3800   3799   3806   3809     1  0.0000000  1.2552000  3
   3800   3812   3824   7713     1  0.0000000  0.6508444  3
   3803   3799   3800   3812     1  180.0000771  2.0083200  2
   3803   3799   3800   3812     1  0.0000000  1.2552000  3
   3803   3799   3806   3809     1  180.0000771  2.0083200  2
   3803   3799   3806   3809     1  0.0000000  1.2552000  3
   3803   3815   3821   7684     1  0.0000000  0.6508444  3
   3806   3799   3800   3812     1  180.0000771  2.0083200  2
   3806   3799   3800   3812     1  0.0000000  1.2552000  3
   3806   3799   3803   3815     1  180.0000771  2.0083200  2
   3806   3799   3803   3815     1  0.0000000  1.2552000  3
   3806   3809   3818   3827     1  0.0000000  0.6508444  3
   3812   3824   7713   7704     1  180.0000771  0.4184000  2
   3812   3824   7713   7704     1  0.0000000  1.6024720  3
   3815   3821   7684   7675     1  180.0000771  0.4184000  2
   3815   3821   7684   7675     1  0.0000000  1.6024720  3
   3821   7684   7675   7666     1  180.0000771  0.4184000  2
   3821   7684   7675   7666     1  0.0000000  1.6024720  3
   3824   7713   7704   7695     1  180.0000771  0.4184000  2
   3824   7713   7704   7695     1  0.0000000  1.6024720  3
   3828   3829   3841   3853     1  0.0000000  0.6508444  3
   3828   3832   3844   3850     1  0.0000000  0.6508444  3
   3828   3835   3838   3847     1  0.0000000  0.6508444  3
   3829   3828   3832   3844     1  180.0000771  2.0083200  2
   3829   3828   3832   3844     1  0.0000000  1.2552000  3
   3829   3828   3835   3838     1  180.0000771  2.0083200  2
   3829   3828   3835   3838     1  0.0000000  1.2552000  3
   3829   3841   3853   7771     1  0.0000000  0.6508444  3
   3832   3828   3829   3841     1  180.0000771  2.0083200  2
   3832   3828   3829   3841     1  0.0000000  1.2552000  3
   3832   3828   3835   3838     1  180.0000771  2.0083200  2
   3832   3828   3835   3838     1  0.0000000  1.2552000  3
   3832   3844   3850   7742     1  0.0000000  0.6508444  3
   3835   3828   3829   3841     1  180.0000771  2.0083200  2
   3835   3828   3829   3841     1  0.0000000  1.2552000  3
   3835   3828   3832   3844     1  180.0000771  2.0083200  2
   3835   3828   3832   3844     1  0.0000000  1.2552000  3
   3835   3838   3847   3856     1  0.0000000  0.6508444  3
   3841   3853   7771   7762     1  180.0000771  0.4184000  2
   3841   3853   7771   7762     1  0.0000000  1.6024720  3
   3844   3850   7742   7733     1  180.0000771  0.4184000  2
   3844   3850   7742   7733     1  0.0000000  1.6024720  3
   3850   7742   7733   7724     1  180.0000771  0.4184000  2
   3850   7742   7733   7724     1  0.0000000  1.6024720  3
   3853   7771   7762   7753     1  180.0000771  0.4184000  2
   3853   7771   7762   7753     1  0.0000000  1.6024720  3
   3857   3858   3870   3882     1  0.0000000  0.6508444  3
   3857   3861   3873   3879     1  0.0000000  0.6508444  3
   3857   3864   3867   3876     1  0.0000000  0.6508444  3
   3858   3857   3861   3873     1  180.0000771  2.0083200  2
   3858   3857   3861   3873     1  0.0000000  1.2552000  3
   3858   3857   3864   3867     1  180.0000771  2.0083200  2
   3858   3857   3864   3867     1  0.0000000  1.2552000  3
   3858   3870   3882   7829     1  0.0000000  0.6508444  3
   3861   3857   3858   3870     1  180.0000771  2.0083200  2
   3861   3857   3858   3870     1  0.0000000  1.2552000  3
   3861   3857   3864   3867     1  180.0000771  2.0083200  2
   3861   3857   3864   3867     1  0.0000000  1.2552000  3
   3861   3873   3879   7800     1  0.0000000  0.6508444  3
   3864   3857   3858   3870     1  180.0000771  2.0083200  2
   3864   3857   3858   3870     1  0.0000000  1.2552000  3
   3864   3857   3861   3873     1  180.0000771  2.0083200  2
   3864   3857   3861   3873     1  0.0000000  1.2552000  3
   3864   3867   3876   3885     1  0.0000000  0.6508444  3
   3870   3882   7829   7820     1  180.0000771  0.4184000  2
   3870   3882   7829   7820     1  0.0000000  1.6024720  3
   3873   3879   7800   7791     1  180.0000771  0.4184000  2
   3873   3879   7800   7791     1  0.0000000  1.6024720  3
   3879   7800   7791   7782     1  180.0000771  0.4184000  2
   3879   7800   7791   7782     1  0.0000000  1.6024720  3
   3882   7829   7820   7811     1  180.0000771  0.4184000  2
   3882   7829   7820   7811     1  0.0000000  1.6024720  3
   3886   3887   3899   3911     1  0.0000000  0.6508444  3
   3886   3890   3902   3908     1  0.0000000  0.6508444  3
   3886   3893   3896   3905     1  0.0000000  0.6508444  3
   3887   3886   3890   3902     1  180.0000771  2.0083200  2
   3887   3886   3890   3902     1  0.0000000  1.2552000  3
   3887   3886   3893   3896     1  180.0000771  2.0083200  2
   3887   3886   3893   3896     1  0.0000000  1.2552000  3
   3887   3899   3911   7887     1  0.0000000  0.6508444  3
   3890   3886   3887   3899     1  180.0000771  2.0083200  2
   3890   3886   3887   3899     1  0.0000000  1.2552000  3
   3890   3886   3893   3896     1  180.0000771  2.0083200  2
   3890   3886   3893   3896     1  0.0000000  1.2552000  3
   3890   3902   3908   7858     1  0.0000000  0.6508444  3
   3893   3886   3887   3899     1  180.0000771  2.0083200  2
   3893   3886   3887   3899     1  0.0000000  1.2552000  3
   3893   3886   3890   3902     1  180.0000771  2.0083200  2
   3893   3886   3890   3902     1  0.0000000  1.2552000  3
   3893   3896   3905   3914     1  0.0000000  0.6508444  3
   3899   3911   7887   7878     1  180.0000771  0.4184000  2
   3899   3911   7887   7878     1  0.0000000  1.6024720  3
   3902   3908   7858   7849     1  180.0000771  0.4184000  2
   3902   3908   7858   7849     1  0.0000000  1.6024720  3
   3908   7858   7849   7840     1  180.0000771  0.4184000  2
   3908   7858   7849   7840     1  0.0000000  1.6024720  3
   3911   7887   7878   7869     1  180.0000771  0.4184000  2
   3911   7887   7878   7869     1  0.0000000  1.6024720  3
   3915   3916   3928   3940     1  0.0000000  0.6508444  3
   3915   3919   3931   3937     1  0.0000000  0.6508444  3
   3915   3922   3925   3934     1  0.0000000  0.6508444  3
   3916   3915   3919   3931     1  180.0000771  2.0083200  2
   3916   3915   3919   3931     1  0.0000000  1.2552000  3
   3916   3915   3922   3925     1  180.0000771  2.0083200  2
   3916   3915   3922   3925     1  0.0000000  1.2552000  3
   3916   3928   3940   7945     1  0.0000000  0.6508444  3
   3919   3915   3916   3928     1  180.0000771  2.0083200  2
   3919   3915   3916   3928     1  0.0000000  1.2552000  3
   3919   3915   3922   3925     1  180.0000771  2.0083200  2
   3919   3915   3922   3925     1  0.0000000  1.2552000  3
   3919   3931   3937   7916     1  0.0000000  0.6508444  3
   3922   3915   3916   3928     1  180.0000771  2.0083200  2
   3922   3915   3916   3928     1  0.0000000  1.2552000  3
   3922   3915   3919   3931     1  180.0000771  2.0083200  2
   3922   3915   3919   3931     1  0.0000000  1.2552000  3
   3922   3925   3934   3943     1  0.0000000  0.6508444  3
   3928   3940   7945   7936     1  180.0000771  0.4184000  2
   3928   3940   7945   7936     1  0.0000000  1.6024720  3
   3931   3937   7916   7907     1  180.0000771  0.4184000  2
   3931   3937   7916   7907     1  0.0000000  1.6024720  3
   3937   7916   7907   7898     1  180.0000771  0.4184000  2
   3937   7916   7907   7898     1  0.0000000  1.6024720  3
   3940   7945   7936   7927     1  180.0000771  0.4184000  2
   3940   7945   7936   7927     1  0.0000000  1.6024720  3
   3944   3945   3957   3969     1  0.0000000  0.6508444  3
   3944   3948   3960   3966     1  0.0000000  0.6508444  3
   3944   3951   3954   3963     1  0.0000000  0.6508444  3
   3945   3944   3948   3960     1  180.0000771  2.0083200  2
   3945   3944   3948   3960     1  0.0000000  1.2552000  3
   3945   3944   3951   3954     1  180.0000771  2.0083200  2
   3945   3944   3951   3954     1  0.0000000  1.2552000  3
   3945   3957   3969   8003     1  0.0000000  0.6508444  3
   3948   3944   3945   3957     1  180.0000771  2.0083200  2
   3948   3944   3945   3957     1  0.0000000  1.2552000  3
   3948   3944   3951   3954     1  180.0000771  2.0083200  2
   3948   3944   3951   3954     1  0.0000000  1.2552000  3
   3948   3960   3966   7974     1  0.0000000  0.6508444  3
   3951   3944   3945   3957     1  180.0000771  2.0083200  2
   3951   3944   3945   3957     1  0.0000000  1.2552000  3
   3951   3944   3948   3960     1  180.0000771  2.0083200  2
   3951   3944   3948   3960     1  0.0000000  1.2552000  3
   3951   3954   3963   3972     1  0.0000000  0.6508444  3
   3957   3969   8003   7994     1  180.0000771  0.4184000  2
   3957   3969   8003   7994     1  0.0000000  1.6024720  3
   3960   3966   7974   7965     1  180.0000771  0.4184000  2
   3960   3966   7974   7965     1  0.0000000  1.6024720  3
   3966   7974   7965   7956     1  180.0000771  0.4184000  2
   3966   7974   7965   7956     1  0.0000000  1.6024720  3
   3969   8003   7994   7985     1  180.0000771  0.4184000  2
   3969   8003   7994   7985     1  0.0000000  1.6024720  3
   3973   3974   3986   3998     1  0.0000000  0.6508444  3
   3973   3977   3989   3995     1  0.0000000  0.6508444  3
   3973   3980   3983   3992     1  0.0000000  0.6508444  3
   3974   3973   3977   3989     1  180.0000771  2.0083200  2
   3974   3973   3977   3989     1  0.0000000  1.2552000  3
   3974   3973   3980   3983     1  180.0000771  2.0083200  2
   3974   3973   3980   3983     1  0.0000000  1.2552000  3
   3974   3986   3998   8061     1  0.0000000  0.6508444  3
   3977   3973   3974   3986     1  180.0000771  2.0083200  2
   3977   3973   3974   3986     1  0.0000000  1.2552000  3
   3977   3973   3980   3983     1  180.0000771  2.0083200  2
   3977   3973   3980   3983     1  0.0000000  1.2552000  3
   3977   3989   3995   8032     1  0.0000000  0.6508444  3
   3980   3973   3974   3986     1  180.0000771  2.0083200  2
   3980   3973   3974   3986     1  0.0000000  1.2552000  3
   3980   3973   3977   3989     1  180.0000771  2.0083200  2
   3980   3973   3977   3989     1  0.0000000  1.2552000  3
   3980   3983   3992   4001     1  0.0000000  0.6508444  3
   3986   3998   8061   8052     1  180.0000771  0.4184000  2
   3986   3998   8061   8052     1  0.0000000  1.6024720  3
   3989   3995   8032   8023     1  180.0000771  0.4184000  2
   3989   3995   8032   8023     1  0.0000000  1.6024720  3
   3995   8032   8023   8014     1  180.0000771  0.4184000  2
   3995   8032   8023   8014     1  0.0000000  1.6024720  3
   3998   8061   8052   8043     1  180.0000771  0.4184000  2
   3998   8061   8052   8043     1  0.0000000  1.6024720  3
   4002   4003   4015   4027     1  0.0000000  0.6508444  3
   4002   4006   4018   4024     1  0.0000000  0.6508444  3
   4002   4009   4012   4021     1  0.0000000  0.6508444  3
   4003   4002   4006   4018     1  180.0000771  2.0083200  2
   4003   4002   4006   4018     1  0.0000000  1.2552000  3
   4003   4002   4009   4012     1  180.0000771  2.0083200  2
   4003   4002   4009   4012     1  0.0000000  1.2552000  3
   4003   4015   4027   8119     1  0.0000000  0.6508444  3
   4006   4002   4003   4015     1  180.0000771  2.0083200  2
   4006   4002   4003   4015     1  0.0000000  1.2552000  3
   4006   4002   4009   4012     1  180.0000771  2.0083200  2
   4006   4002   4009   4012     1  0.0000000  1.2552000  3
   4006   4018   4024   8090     1  0.0000000  0.6508444  3
   4009   4002   4003   4015     1  180.0000771  2.0083200  2
   4009   4002   4003   4015     1  0.0000000  1.2552000  3
   4009   4002   4006   4018     1  180.0000771  2.0083200  2
   4009   4002   4006   4018     1  0.0000000  1.2552000  3
   4009   4012   4021   4030     1  0.0000000  0.6508444  3
   4015   4027   8119   8110     1  180.0000771  0.4184000  2
   4015   4027   8119   8110     1  0.0000000  1.6024720  3
   4018   4024   8090   8081     1  180.0000771  0.4184000  2
   4018   4024   8090   8081     1  0.0000000  1.6024720  3
   4024   8090   8081   8072     1  180.0000771  0.4184000  2
   4024   8090   8081   8072     1  0.0000000  1.6024720  3
   4027   8119   8110   8101     1  180.0000771  0.4184000  2
   4027   8119   8110   8101     1  0.0000000  1.6024720  3
   4031   4032   4044   4056     1  0.0000000  0.6508444  3
   4031   4035   4047   4053     1  0.0000000  0.6508444  3
   4031   4038   4041   4050     1  0.0000000  0.6508444  3
   4032   4031   4035   4047     1  180.0000771  2.0083200  2
   4032   4031   4035   4047     1  0.0000000  1.2552000  3
   4032   4031   4038   4041     1  180.0000771  2.0083200  2
   4032   4031   4038   4041     1  0.0000000  1.2552000  3
   4032   4044   4056   8177     1  0.0000000  0.6508444  3
   4035   4031   4032   4044     1  180.0000771  2.0083200  2
   4035   4031   4032   4044     1  0.0000000  1.2552000  3
   4035   4031   4038   4041     1  180.0000771  2.0083200  2
   4035   4031   4038   4041     1  0.0000000  1.2552000  3
   4035   4047   4053   8148     1  0.0000000  0.6508444  3
   4038   4031   4032   4044     1  180.0000771  2.0083200  2
   4038   4031   4032   4044     1  0.0000000  1.2552000  3
   4038   4031   4035   4047     1  180.0000771  2.0083200  2
   4038   4031   4035   4047     1  0.0000000  1.2552000  3
   4038   4041   4050   4059     1  0.0000000  0.6508444  3
   4044   4056   8177   8168     1  180.0000771  0.4184000  2
   4044   4056   8177   8168     1  0.0000000  1.6024720  3
   4047   4053   8148   8139     1  180.0000771  0.4184000  2
   4047   4053   8148   8139     1  0.0000000  1.6024720  3
   4053   8148   8139   8130     1  180.0000771  0.4184000  2
   4053   8148   8139   8130     1  0.0000000  1.6024720  3
   4056   8177   8168   8159     1  180.0000771  0.4184000  2
   4056   8177   8168   8159     1  0.0000000  1.6024720  3
   4060   4061   4073   4085     1  0.0000000  0.6508444  3
   4060   4064   4076   4082     1  0.0000000  0.6508444  3
   4060   4067   4070   4079     1  0.0000000  0.6508444  3
   4061   4060   4064   4076     1  180.0000771  2.0083200  2
   4061   4060   4064   4076     1  0.0000000  1.2552000  3
   4061   4060   4067   4070     1  180.0000771  2.0083200  2
   4061   4060   4067   4070     1  0.0000000  1.2552000  3
   4061   4073   4085   8235     1  0.0000000  0.6508444  3
   4064   4060   4061   4073     1  180.0000771  2.0083200  2
   4064   4060   4061   4073     1  0.0000000  1.2552000  3
   4064   4060   4067   4070     1  180.0000771  2.0083200  2
   4064   4060   4067   4070     1  0.0000000  1.2552000  3
   4064   4076   4082   8206     1  0.0000000  0.6508444  3
   4067   4060   4061   4073     1  180.0000771  2.0083200  2
   4067   4060   4061   4073     1  0.0000000  1.2552000  3
   4067   4060   4064   4076     1  180.0000771  2.0083200  2
   4067   4060   4064   4076     1  0.0000000  1.2552000  3
   4067   4070   4079   4088     1  0.0000000  0.6508444  3
   4073   4085   8235   8226     1  180.0000771  0.4184000  2
   4073   4085   8235   8226     1  0.0000000  1.6024720  3
   4076   4082   8206   8197     1  180.0000771  0.4184000  2
   4076   4082   8206   8197     1  0.0000000  1.6024720  3
   4082   8206   8197   8188     1  180.0000771  0.4184000  2
   4082   8206   8197   8188     1  0.0000000  1.6024720  3
   4085   8235   8226   8217     1  180.0000771  0.4184000  2
   4085   8235   8226   8217     1  0.0000000  1.6024720  3
   4089   4090   4102   4114     1  0.0000000  0.6508444  3
   4089   4093   4105   4111     1  0.0000000  0.6508444  3
   4089   4096   4099   4108     1  0.0000000  0.6508444  3
   4090   4089   4093   4105     1  180.0000771  2.0083200  2
   4090   4089   4093   4105     1  0.0000000  1.2552000  3
   4090   4089   4096   4099     1  180.0000771  2.0083200  2
   4090   4089   4096   4099     1  0.0000000  1.2552000  3
   4090   4102   4114   8293     1  0.0000000  0.6508444  3
   4093   4089   4090   4102     1  180.0000771  2.0083200  2
   4093   4089   4090   4102     1  0.0000000  1.2552000  3
   4093   4089   4096   4099     1  180.0000771  2.0083200  2
   4093   4089   4096   4099     1  0.0000000  1.2552000  3
   4093   4105   4111   8264     1  0.0000000  0.6508444  3
   4096   4089   4090   4102     1  180.0000771  2.0083200  2
   4096   4089   4090   4102     1  0.0000000  1.2552000  3
   4096   4089   4093   4105     1  180.0000771  2.0083200  2
   4096   4089   4093   4105     1  0.0000000  1.2552000  3
   4096   4099   4108   4117     1  0.0000000  0.6508444  3
   4102   4114   8293   8284     1  180.0000771  0.4184000  2
   4102   4114   8293   8284     1  0.0000000  1.6024720  3
   4105   4111   8264   8255     1  180.0000771  0.4184000  2
   4105   4111   8264   8255     1  0.0000000  1.6024720  3
   4111   8264   8255   8246     1  180.0000771  0.4184000  2
   4111   8264   8255   8246     1  0.0000000  1.6024720  3
   4114   8293   8284   8275     1  180.0000771  0.4184000  2
   4114   8293   8284   8275     1  0.0000000  1.6024720  3
   4118   4119   4131   4143     1  0.0000000  0.6508444  3
   4118   4122   4134   4140     1  0.0000000  0.6508444  3
   4118   4125   4128   4137     1  0.0000000  0.6508444  3
   4119   4118   4122   4134     1  180.0000771  2.0083200  2
   4119   4118   4122   4134     1  0.0000000  1.2552000  3
   4119   4118   4125   4128     1  180.0000771  2.0083200  2
   4119   4118   4125   4128     1  0.0000000  1.2552000  3
   4119   4131   4143   8351     1  0.0000000  0.6508444  3
   4122   4118   4119   4131     1  180.0000771  2.0083200  2
   4122   4118   4119   4131     1  0.0000000  1.2552000  3
   4122   4118   4125   4128     1  180.0000771  2.0083200  2
   4122   4118   4125   4128     1  0.0000000  1.2552000  3
   4122   4134   4140   8322     1  0.0000000  0.6508444  3
   4125   4118   4119   4131     1  180.0000771  2.0083200  2
   4125   4118   4119   4131     1  0.0000000  1.2552000  3
   4125   4118   4122   4134     1  180.0000771  2.0083200  2
   4125   4118   4122   4134     1  0.0000000  1.2552000  3
   4125   4128   4137   4146     1  0.0000000  0.6508444  3
   4131   4143   8351   8342     1  180.0000771  0.4184000  2
   4131   4143   8351   8342     1  0.0000000  1.6024720  3
   4134   4140   8322   8313     1  180.0000771  0.4184000  2
   4134   4140   8322   8313     1  0.0000000  1.6024720  3
   4140   8322   8313   8304     1  180.0000771  0.4184000  2
   4140   8322   8313   8304     1  0.0000000  1.6024720  3
   4143   8351   8342   8333     1  180.0000771  0.4184000  2
   4143   8351   8342   8333     1  0.0000000  1.6024720  3
   4147   4148   4160   4172     1  0.0000000  0.6508444  3
   4147   4151   4163   4169     1  0.0000000  0.6508444  3
   4147   4154   4157   4166     1  0.0000000  0.6508444  3
   4148   4147   4151   4163     1  180.0000771  2.0083200  2
   4148   4147   4151   4163     1  0.0000000  1.2552000  3
   4148   4147   4154   4157     1  180.0000771  2.0083200  2
   4148   4147   4154   4157     1  0.0000000  1.2552000  3
   4148   4160   4172   8409     1  0.0000000  0.6508444  3
   4151   4147   4148   4160     1  180.0000771  2.0083200  2
   4151   4147   4148   4160     1  0.0000000  1.2552000  3
   4151   4147   4154   4157     1  180.0000771  2.0083200  2
   4151   4147   4154   4157     1  0.0000000  1.2552000  3
   4151   4163   4169   8380     1  0.0000000  0.6508444  3
   4154   4147   4148   4160     1  180.0000771  2.0083200  2
   4154   4147   4148   4160     1  0.0000000  1.2552000  3
   4154   4147   4151   4163     1  180.0000771  2.0083200  2
   4154   4147   4151   4163     1  0.0000000  1.2552000  3
   4154   4157   4166   4175     1  0.0000000  0.6508444  3
   4160   4172   8409   8400     1  180.0000771  0.4184000  2
   4160   4172   8409   8400     1  0.0000000  1.6024720  3
   4163   4169   8380   8371     1  180.0000771  0.4184000  2
   4163   4169   8380   8371     1  0.0000000  1.6024720  3
   4169   8380   8371   8362     1  180.0000771  0.4184000  2
   4169   8380   8371   8362     1  0.0000000  1.6024720  3
   4172   8409   8400   8391     1  180.0000771  0.4184000  2
   4172   8409   8400   8391     1  0.0000000  1.6024720  3
   4176   4177   4189   4201     1  0.0000000  0.6508444  3
   4176   4180   4192   4198     1  0.0000000  0.6508444  3
   4176   4183   4186   4195     1  0.0000000  0.6508444  3
   4177   4176   4180   4192     1  180.0000771  2.0083200  2
   4177   4176   4180   4192     1  0.0000000  1.2552000  3
   4177   4176   4183   4186     1  180.0000771  2.0083200  2
   4177   4176   4183   4186     1  0.0000000  1.2552000  3
   4177   4189   4201   8467     1  0.0000000  0.6508444  3
   4180   4176   4177   4189     1  180.0000771  2.0083200  2
   4180   4176   4177   4189     1  0.0000000  1.2552000  3
   4180   4176   4183   4186     1  180.0000771  2.0083200  2
   4180   4176   4183   4186     1  0.0000000  1.2552000  3
   4180   4192   4198   8438     1  0.0000000  0.6508444  3
   4183   4176   4177   4189     1  180.0000771  2.0083200  2
   4183   4176   4177   4189     1  0.0000000  1.2552000  3
   4183   4176   4180   4192     1  180.0000771  2.0083200  2
   4183   4176   4180   4192     1  0.0000000  1.2552000  3
   4183   4186   4195   4204     1  0.0000000  0.6508444  3
   4189   4201   8467   8458     1  180.0000771  0.4184000  2
   4189   4201   8467   8458     1  0.0000000  1.6024720  3
   4192   4198   8438   8429     1  180.0000771  0.4184000  2
   4192   4198   8438   8429     1  0.0000000  1.6024720  3
   4198   8438   8429   8420     1  180.0000771  0.4184000  2
   4198   8438   8429   8420     1  0.0000000  1.6024720  3
   4201   8467   8458   8449     1  180.0000771  0.4184000  2
   4201   8467   8458   8449     1  0.0000000  1.6024720  3
   4205   4206   4218   4230     1  0.0000000  0.6508444  3
   4205   4209   4221   4227     1  0.0000000  0.6508444  3
   4205   4212   4215   4224     1  0.0000000  0.6508444  3
   4206   4205   4209   4221     1  180.0000771  2.0083200  2
   4206   4205   4209   4221     1  0.0000000  1.2552000  3
   4206   4205   4212   4215     1  180.0000771  2.0083200  2
   4206   4205   4212   4215     1  0.0000000  1.2552000  3
   4206   4218   4230   8525     1  0.0000000  0.6508444  3
   4209   4205   4206   4218     1  180.0000771  2.0083200  2
   4209   4205   4206   4218     1  0.0000000  1.2552000  3
   4209   4205   4212   4215     1  180.0000771  2.0083200  2
   4209   4205   4212   4215     1  0.0000000  1.2552000  3
   4209   4221   4227   8496     1  0.0000000  0.6508444  3
   4212   4205   4206   4218     1  180.0000771  2.0083200  2
   4212   4205   4206   4218     1  0.0000000  1.2552000  3
   4212   4205   4209   4221     1  180.0000771  2.0083200  2
   4212   4205   4209   4221     1  0.0000000  1.2552000  3
   4212   4215   4224   4233     1  0.0000000  0.6508444  3
   4218   4230   8525   8516     1  180.0000771  0.4184000  2
   4218   4230   8525   8516     1  0.0000000  1.6024720  3
   4221   4227   8496   8487     1  180.0000771  0.4184000  2
   4221   4227   8496   8487     1  0.0000000  1.6024720  3
   4227   8496   8487   8478     1  180.0000771  0.4184000  2
   4227   8496   8487   8478     1  0.0000000  1.6024720  3
   4230   8525   8516   8507     1  180.0000771  0.4184000  2
   4230   8525   8516   8507     1  0.0000000  1.6024720  3
   4234   4235   4247   4259     1  0.0000000  0.6508444  3
   4234   4238   4250   4256     1  0.0000000  0.6508444  3
   4234   4241   4244   4253     1  0.0000000  0.6508444  3
   4235   4234   4238   4250     1  180.0000771  2.0083200  2
   4235   4234   4238   4250     1  0.0000000  1.2552000  3
   4235   4234   4241   4244     1  180.0000771  2.0083200  2
   4235   4234   4241   4244     1  0.0000000  1.2552000  3
   4235   4247   4259   8583     1  0.0000000  0.6508444  3
   4238   4234   4235   4247     1  180.0000771  2.0083200  2
   4238   4234   4235   4247     1  0.0000000  1.2552000  3
   4238   4234   4241   4244     1  180.0000771  2.0083200  2
   4238   4234   4241   4244     1  0.0000000  1.2552000  3
   4238   4250   4256   8554     1  0.0000000  0.6508444  3
   4241   4234   4235   4247     1  180.0000771  2.0083200  2
   4241   4234   4235   4247     1  0.0000000  1.2552000  3
   4241   4234   4238   4250     1  180.0000771  2.0083200  2
   4241   4234   4238   4250     1  0.0000000  1.2552000  3
   4241   4244   4253   4262     1  0.0000000  0.6508444  3
   4247   4259   8583   8574     1  180.0000771  0.4184000  2
   4247   4259   8583   8574     1  0.0000000  1.6024720  3
   4250   4256   8554   8545     1  180.0000771  0.4184000  2
   4250   4256   8554   8545     1  0.0000000  1.6024720  3
   4256   8554   8545   8536     1  180.0000771  0.4184000  2
   4256   8554   8545   8536     1  0.0000000  1.6024720  3
   4259   8583   8574   8565     1  180.0000771  0.4184000  2
   4259   8583   8574   8565     1  0.0000000  1.6024720  3
   4263   4264   4276   4288     1  0.0000000  0.6508444  3
   4263   4267   4279   4285     1  0.0000000  0.6508444  3
   4263   4270   4273   4282     1  0.0000000  0.6508444  3
   4264   4263   4267   4279     1  180.0000771  2.0083200  2
   4264   4263   4267   4279     1  0.0000000  1.2552000  3
   4264   4263   4270   4273     1  180.0000771  2.0083200  2
   4264   4263   4270   4273     1  0.0000000  1.2552000  3
   4264   4276   4288   8641     1  0.0000000  0.6508444  3
   4267   4263   4264   4276     1  180.0000771  2.0083200  2
   4267   4263   4264   4276     1  0.0000000  1.2552000  3
   4267   4263   4270   4273     1  180.0000771  2.0083200  2
   4267   4263   4270   4273     1  0.0000000  1.2552000  3
   4267   4279   4285   8612     1  0.0000000  0.6508444  3
   4270   4263   4264   4276     1  180.0000771  2.0083200  2
   4270   4263   4264   4276     1  0.0000000  1.2552000  3
   4270   4263   4267   4279     1  180.0000771  2.0083200  2
   4270   4263   4267   4279     1  0.0000000  1.2552000  3
   4270   4273   4282   4291     1  0.0000000  0.6508444  3
   4276   4288   8641   8632     1  180.0000771  0.4184000  2
   4276   4288   8641   8632     1  0.0000000  1.6024720  3
   4279   4285   8612   8603     1  180.0000771  0.4184000  2
   4279   4285   8612   8603     1  0.0000000  1.6024720  3
   4285   8612   8603   8594     1  180.0000771  0.4184000  2
   4285   8612   8603   8594     1  0.0000000  1.6024720  3
   4288   8641   8632   8623     1  180.0000771  0.4184000  2
   4288   8641   8632   8623     1  0.0000000  1.6024720  3
   4292   4293   4305   4317     1  0.0000000  0.6508444  3
   4292   4296   4308   4314     1  0.0000000  0.6508444  3
   4292   4299   4302   4311     1  0.0000000  0.6508444  3
   4293   4292   4296   4308     1  180.0000771  2.0083200  2
   4293   4292   4296   4308     1  0.0000000  1.2552000  3
   4293   4292   4299   4302     1  180.0000771  2.0083200  2
   4293   4292   4299   4302     1  0.0000000  1.2552000  3
   4293   4305   4317   8699     1  0.0000000  0.6508444  3
   4296   4292   4293   4305     1  180.0000771  2.0083200  2
   4296   4292   4293   4305     1  0.0000000  1.2552000  3
   4296   4292   4299   4302     1  180.0000771  2.0083200  2
   4296   4292   4299   4302     1  0.0000000  1.2552000  3
   4296   4308   4314   8670     1  0.0000000  0.6508444  3
   4299   4292   4293   4305     1  180.0000771  2.0083200  2
   4299   4292   4293   4305     1  0.0000000  1.2552000  3
   4299   4292   4296   4308     1  180.0000771  2.0083200  2
   4299   4292   4296   4308     1  0.0000000  1.2552000  3
   4299   4302   4311   4320     1  0.0000000  0.6508444  3
   4305   4317   8699   8690     1  180.0000771  0.4184000  2
   4305   4317   8699   8690     1  0.0000000  1.6024720  3
   4308   4314   8670   8661     1  180.0000771  0.4184000  2
   4308   4314   8670   8661     1  0.0000000  1.6024720  3
   4314   8670   8661   8652     1  180.0000771  0.4184000  2
   4314   8670   8661   8652     1  0.0000000  1.6024720  3
   4317   8699   8690   8681     1  180.0000771  0.4184000  2
   4317   8699   8690   8681     1  0.0000000  1.6024720  3
   4321   4322   4334   4346     1  0.0000000  0.6508444  3
   4321   4325   4337   4343     1  0.0000000  0.6508444  3
   4321   4328   4331   4340     1  0.0000000  0.6508444  3
   4322   4321   4325   4337     1  180.0000771  2.0083200  2
   4322   4321   4325   4337     1  0.0000000  1.2552000  3
   4322   4321   4328   4331     1  180.0000771  2.0083200  2
   4322   4321   4328   4331     1  0.0000000  1.2552000  3
   4322   4334   4346   8757     1  0.0000000  0.6508444  3
   4325   4321   4322   4334     1  180.0000771  2.0083200  2
   4325   4321   4322   4334     1  0.0000000  1.2552000  3
   4325   4321   4328   4331     1  180.0000771  2.0083200  2
   4325   4321   4328   4331     1  0.0000000  1.2552000  3
   4325   4337   4343   8728     1  0.0000000  0.6508444  3
   4328   4321   4322   4334     1  180.0000771  2.0083200  2
   4328   4321   4322   4334     1  0.0000000  1.2552000  3
   4328   4321   4325   4337     1  180.0000771  2.0083200  2
   4328   4321   4325   4337     1  0.0000000  1.2552000  3
   4328   4331   4340   4349     1  0.0000000  0.6508444  3
   4334   4346   8757   8748     1  180.0000771  0.4184000  2
   4334   4346   8757   8748     1  0.0000000  1.6024720  3
   4337   4343   8728   8719     1  180.0000771  0.4184000  2
   4337   4343   8728   8719     1  0.0000000  1.6024720  3
   4343   8728   8719   8710     1  180.0000771  0.4184000  2
   4343   8728   8719   8710     1  0.0000000  1.6024720  3
   4346   8757   8748   8739     1  180.0000771  0.4184000  2
   4346   8757   8748   8739     1  0.0000000  1.6024720  3
   4350   4351   4363   4375     1  0.0000000  0.6508444  3
   4350   4354   4366   4372     1  0.0000000  0.6508444  3
   4350   4357   4360   4369     1  0.0000000  0.6508444  3
   4351   4350   4354   4366     1  180.0000771  2.0083200  2
   4351   4350   4354   4366     1  0.0000000  1.2552000  3
   4351   4350   4357   4360     1  180.0000771  2.0083200  2
   4351   4350   4357   4360     1  0.0000000  1.2552000  3
   4351   4363   4375   8815     1  0.0000000  0.6508444  3
   4354   4350   4351   4363     1  180.0000771  2.0083200  2
   4354   4350   4351   4363     1  0.0000000  1.2552000  3
   4354   4350   4357   4360     1  180.0000771  2.0083200  2
   4354   4350   4357   4360     1  0.0000000  1.2552000  3
   4354   4366   4372   8786     1  0.0000000  0.6508444  3
   4357   4350   4351   4363     1  180.0000771  2.0083200  2
   4357   4350   4351   4363     1  0.0000000  1.2552000  3
   4357   4350   4354   4366     1  180.0000771  2.0083200  2
   4357   4350   4354   4366     1  0.0000000  1.2552000  3
   4357   4360   4369   4378     1  0.0000000  0.6508444  3
   4363   4375   8815   8806     1  180.0000771  0.4184000  2
   4363   4375   8815   8806     1  0.0000000  1.6024720  3
   4366   4372   8786   8777     1  180.0000771  0.4184000  2
   4366   4372   8786   8777     1  0.0000000  1.6024720  3
   4372   8786   8777   8768     1  180.0000771  0.4184000  2
   4372   8786   8777   8768     1  0.0000000  1.6024720  3
   4375   8815   8806   8797     1  180.0000771  0.4184000  2
   4375   8815   8806   8797     1  0.0000000  1.6024720  3
   4379   4380   4392   4404     1  0.0000000  0.6508444  3
   4379   4383   4395   4401     1  0.0000000  0.6508444  3
   4379   4386   4389   4398     1  0.0000000  0.6508444  3
   4380   4379   4383   4395     1  180.0000771  2.0083200  2
   4380   4379   4383   4395     1  0.0000000  1.2552000  3
   4380   4379   4386   4389     1  180.0000771  2.0083200  2
   4380   4379   4386   4389     1  0.0000000  1.2552000  3
   4380   4392   4404   8873     1  0.0000000  0.6508444  3
   4383   4379   4380   4392     1  180.0000771  2.0083200  2
   4383   4379   4380   4392     1  0.0000000  1.2552000  3
   4383   4379   4386   4389     1  180.0000771  2.0083200  2
   4383   4379   4386   4389     1  0.0000000  1.2552000  3
   4383   4395   4401   8844     1  0.0000000  0.6508444  3
   4386   4379   4380   4392     1  180.0000771  2.0083200  2
   4386   4379   4380   4392     1  0.0000000  1.2552000  3
   4386   4379   4383   4395     1  180.0000771  2.0083200  2
   4386   4379   4383   4395     1  0.0000000  1.2552000  3
   4386   4389   4398   4407     1  0.0000000  0.6508444  3
   4392   4404   8873   8864     1  180.0000771  0.4184000  2
   4392   4404   8873   8864     1  0.0000000  1.6024720  3
   4395   4401   8844   8835     1  180.0000771  0.4184000  2
   4395   4401   8844   8835     1  0.0000000  1.6024720  3
   4401   8844   8835   8826     1  180.0000771  0.4184000  2
   4401   8844   8835   8826     1  0.0000000  1.6024720  3
   4404   8873   8864   8855     1  180.0000771  0.4184000  2
   4404   8873   8864   8855     1  0.0000000  1.6024720  3
   4408   4409   4421   4433     1  0.0000000  0.6508444  3
   4408   4412   4424   4430     1  0.0000000  0.6508444  3
   4408   4415   4418   4427     1  0.0000000  0.6508444  3
   4409   4408   4412   4424     1  180.0000771  2.0083200  2
   4409   4408   4412   4424     1  0.0000000  1.2552000  3
   4409   4408   4415   4418     1  180.0000771  2.0083200  2
   4409   4408   4415   4418     1  0.0000000  1.2552000  3
   4409   4421   4433   8931     1  0.0000000  0.6508444  3
   4412   4408   4409   4421     1  180.0000771  2.0083200  2
   4412   4408   4409   4421     1  0.0000000  1.2552000  3
   4412   4408   4415   4418     1  180.0000771  2.0083200  2
   4412   4408   4415   4418     1  0.0000000  1.2552000  3
   4412   4424   4430   8902     1  0.0000000  0.6508444  3
   4415   4408   4409   4421     1  180.0000771  2.0083200  2
   4415   4408   4409   4421     1  0.0000000  1.2552000  3
   4415   4408   4412   4424     1  180.0000771  2.0083200  2
   4415   4408   4412   4424     1  0.0000000  1.2552000  3
   4415   4418   4427   4436     1  0.0000000  0.6508444  3
   4421   4433   8931   8922     1  180.0000771  0.4184000  2
   4421   4433   8931   8922     1  0.0000000  1.6024720  3
   4424   4430   8902   8893     1  180.0000771  0.4184000  2
   4424   4430   8902   8893     1  0.0000000  1.6024720  3
   4430   8902   8893   8884     1  180.0000771  0.4184000  2
   4430   8902   8893   8884     1  0.0000000  1.6024720  3
   4433   8931   8922   8913     1  180.0000771  0.4184000  2
   4433   8931   8922   8913     1  0.0000000  1.6024720  3
   4437   4438   4450   4462     1  0.0000000  0.6508444  3
   4437   4441   4453   4459     1  0.0000000  0.6508444  3
   4437   4444   4447   4456     1  0.0000000  0.6508444  3
   4438   4437   4441   4453     1  180.0000771  2.0083200  2
   4438   4437   4441   4453     1  0.0000000  1.2552000  3
   4438   4437   4444   4447     1  180.0000771  2.0083200  2
   4438   4437   4444   4447     1  0.0000000  1.2552000  3
   4438   4450   4462   8989     1  0.0000000  0.6508444  3
   4441   4437   4438   4450     1  180.0000771  2.0083200  2
   4441   4437   4438   4450     1  0.0000000  1.2552000  3
   4441   4437   4444   4447     1  180.0000771  2.0083200  2
   4441   4437   4444   4447     1  0.0000000  1.2552000  3
   4441   4453   4459   8960     1  0.0000000  0.6508444  3
   4444   4437   4438   4450     1  180.0000771  2.0083200  2
   4444   4437   4438   4450     1  0.0000000  1.2552000  3
   4444   4437   4441   4453     1  180.0000771  2.0083200  2
   4444   4437   4441   4453     1  0.0000000  1.2552000  3
   4444   4447   4456   4465     1  0.0000000  0.6508444  3
   4450   4462   8989   8980     1  180.0000771  0.4184000  2
   4450   4462   8989   8980     1  0.0000000  1.6024720  3
   4453   4459   8960   8951     1  180.0000771  0.4184000  2
   4453   4459   8960   8951     1  0.0000000  1.6024720  3
   4459   8960   8951   8942     1  180.0000771  0.4184000  2
   4459   8960   8951   8942     1  0.0000000  1.6024720  3
   4462   8989   8980   8971     1  180.0000771  0.4184000  2
   4462   8989   8980   8971     1  0.0000000  1.6024720  3
   4466   4467   4479   4491     1  0.0000000  0.6508444  3
   4466   4470   4482   4488     1  0.0000000  0.6508444  3
   4466   4473   4476   4485     1  0.0000000  0.6508444  3
   4467   4466   4470   4482     1  180.0000771  2.0083200  2
   4467   4466   4470   4482     1  0.0000000  1.2552000  3
   4467   4466   4473   4476     1  180.0000771  2.0083200  2
   4467   4466   4473   4476     1  0.0000000  1.2552000  3
   4467   4479   4491   9047     1  0.0000000  0.6508444  3
   4470   4466   4467   4479     1  180.0000771  2.0083200  2
   4470   4466   4467   4479     1  0.0000000  1.2552000  3
   4470   4466   4473   4476     1  180.0000771  2.0083200  2
   4470   4466   4473   4476     1  0.0000000  1.2552000  3
   4470   4482   4488   9018     1  0.0000000  0.6508444  3
   4473   4466   4467   4479     1  180.0000771  2.0083200  2
   4473   4466   4467   4479     1  0.0000000  1.2552000  3
   4473   4466   4470   4482     1  180.0000771  2.0083200  2
   4473   4466   4470   4482     1  0.0000000  1.2552000  3
   4473   4476   4485   4494     1  0.0000000  0.6508444  3
   4479   4491   9047   9038     1  180.0000771  0.4184000  2
   4479   4491   9047   9038     1  0.0000000  1.6024720  3
   4482   4488   9018   9009     1  180.0000771  0.4184000  2
   4482   4488   9018   9009     1  0.0000000  1.6024720  3
   4488   9018   9009   9000     1  180.0000771  0.4184000  2
   4488   9018   9009   9000     1  0.0000000  1.6024720  3
   4491   9047   9038   9029     1  180.0000771  0.4184000  2
   4491   9047   9038   9029     1  0.0000000  1.6024720  3
   4495   4496   4508   4520     1  0.0000000  0.6508444  3
   4495   4499   4511   4517     1  0.0000000  0.6508444  3
   4495   4502   4505   4514     1  0.0000000  0.6508444  3
   4496   4495   4499   4511     1  180.0000771  2.0083200  2
   4496   4495   4499   4511     1  0.0000000  1.2552000  3
   4496   4495   4502   4505     1  180.0000771  2.0083200  2
   4496   4495   4502   4505     1  0.0000000  1.2552000  3
   4496   4508   4520   9105     1  0.0000000  0.6508444  3
   4499   4495   4496   4508     1  180.0000771  2.0083200  2
   4499   4495   4496   4508     1  0.0000000  1.2552000  3
   4499   4495   4502   4505     1  180.0000771  2.0083200  2
   4499   4495   4502   4505     1  0.0000000  1.2552000  3
   4499   4511   4517   9076     1  0.0000000  0.6508444  3
   4502   4495   4496   4508     1  180.0000771  2.0083200  2
   4502   4495   4496   4508     1  0.0000000  1.2552000  3
   4502   4495   4499   4511     1  180.0000771  2.0083200  2
   4502   4495   4499   4511     1  0.0000000  1.2552000  3
   4502   4505   4514   4523     1  0.0000000  0.6508444  3
   4508   4520   9105   9096     1  180.0000771  0.4184000  2
   4508   4520   9105   9096     1  0.0000000  1.6024720  3
   4511   4517   9076   9067     1  180.0000771  0.4184000  2
   4511   4517   9076   9067     1  0.0000000  1.6024720  3
   4517   9076   9067   9058     1  180.0000771  0.4184000  2
   4517   9076   9067   9058     1  0.0000000  1.6024720  3
   4520   9105   9096   9087     1  180.0000771  0.4184000  2
   4520   9105   9096   9087     1  0.0000000  1.6024720  3
   4524   4525   4537   4549     1  0.0000000  0.6508444  3
   4524   4528   4540   4546     1  0.0000000  0.6508444  3
   4524   4531   4534   4543     1  0.0000000  0.6508444  3
   4525   4524   4528   4540     1  180.0000771  2.0083200  2
   4525   4524   4528   4540     1  0.0000000  1.2552000  3
   4525   4524   4531   4534     1  180.0000771  2.0083200  2
   4525   4524   4531   4534     1  0.0000000  1.2552000  3
   4525   4537   4549   9163     1  0.0000000  0.6508444  3
   4528   4524   4525   4537     1  180.0000771  2.0083200  2
   4528   4524   4525   4537     1  0.0000000  1.2552000  3
   4528   4524   4531   4534     1  180.0000771  2.0083200  2
   4528   4524   4531   4534     1  0.0000000  1.2552000  3
   4528   4540   4546   9134     1  0.0000000  0.6508444  3
   4531   4524   4525   4537     1  180.0000771  2.0083200  2
   4531   4524   4525   4537     1  0.0000000  1.2552000  3
   4531   4524   4528   4540     1  180.0000771  2.0083200  2
   4531   4524   4528   4540     1  0.0000000  1.2552000  3
   4531   4534   4543   4552     1  0.0000000  0.6508444  3
   4537   4549   9163   9154     1  180.0000771  0.4184000  2
   4537   4549   9163   9154     1  0.0000000  1.6024720  3
   4540   4546   9134   9125     1  180.0000771  0.4184000  2
   4540   4546   9134   9125     1  0.0000000  1.6024720  3
   4546   9134   9125   9116     1  180.0000771  0.4184000  2
   4546   9134   9125   9116     1  0.0000000  1.6024720  3
   4549   9163   9154   9145     1  180.0000771  0.4184000  2
   4549   9163   9154   9145     1  0.0000000  1.6024720  3
   4553   4554   4566   4578     1  0.0000000  0.6508444  3
   4553   4557   4569   4575     1  0.0000000  0.6508444  3
   4553   4560   4563   4572     1  0.0000000  0.6508444  3
   4554   4553   4557   4569     1  180.0000771  2.0083200  2
   4554   4553   4557   4569     1  0.0000000  1.2552000  3
   4554   4553   4560   4563     1  180.0000771  2.0083200  2
   4554   4553   4560   4563     1  0.0000000  1.2552000  3
   4554   4566   4578   9221     1  0.0000000  0.6508444  3
   4557   4553   4554   4566     1  180.0000771  2.0083200  2
   4557   4553   4554   4566     1  0.0000000  1.2552000  3
   4557   4553   4560   4563     1  180.0000771  2.0083200  2
   4557   4553   4560   4563     1  0.0000000  1.2552000  3
   4557   4569   4575   9192     1  0.0000000  0.6508444  3
   4560   4553   4554   4566     1  180.0000771  2.0083200  2
   4560   4553   4554   4566     1  0.0000000  1.2552000  3
   4560   4553   4557   4569     1  180.0000771  2.0083200  2
   4560   4553   4557   4569     1  0.0000000  1.2552000  3
   4560   4563   4572   4581     1  0.0000000  0.6508444  3
   4566   4578   9221   9212     1  180.0000771  0.4184000  2
   4566   4578   9221   9212     1  0.0000000  1.6024720  3
   4569   4575   9192   9183     1  180.0000771  0.4184000  2
   4569   4575   9192   9183     1  0.0000000  1.6024720  3
   4575   9192   9183   9174     1  180.0000771  0.4184000  2
   4575   9192   9183   9174     1  0.0000000  1.6024720  3
   4578   9221   9212   9203     1  180.0000771  0.4184000  2
   4578   9221   9212   9203     1  0.0000000  1.6024720  3
   4582   4583   4595   4607     1  0.0000000  0.6508444  3
   4582   4586   4598   4604     1  0.0000000  0.6508444  3
   4582   4589   4592   4601     1  0.0000000  0.6508444  3
   4583   4582   4586   4598     1  180.0000771  2.0083200  2
   4583   4582   4586   4598     1  0.0000000  1.2552000  3
   4583   4582   4589   4592     1  180.0000771  2.0083200  2
   4583   4582   4589   4592     1  0.0000000  1.2552000  3
   4583   4595   4607   9279     1  0.0000000  0.6508444  3
   4586   4582   4583   4595     1  180.0000771  2.0083200  2
   4586   4582   4583   4595     1  0.0000000  1.2552000  3
   4586   4582   4589   4592     1  180.0000771  2.0083200  2
   4586   4582   4589   4592     1  0.0000000  1.2552000  3
   4586   4598   4604   9250     1  0.0000000  0.6508444  3
   4589   4582   4583   4595     1  180.0000771  2.0083200  2
   4589   4582   4583   4595     1  0.0000000  1.2552000  3
   4589   4582   4586   4598     1  180.0000771  2.0083200  2
   4589   4582   4586   4598     1  0.0000000  1.2552000  3
   4589   4592   4601   4610     1  0.0000000  0.6508444  3
   4595   4607   9279   9270     1  180.0000771  0.4184000  2
   4595   4607   9279   9270     1  0.0000000  1.6024720  3
   4598   4604   9250   9241     1  180.0000771  0.4184000  2
   4598   4604   9250   9241     1  0.0000000  1.6024720  3
   4604   9250   9241   9232     1  180.0000771  0.4184000  2
   4604   9250   9241   9232     1  0.0000000  1.6024720  3
   4607   9279   9270   9261     1  180.0000771  0.4184000  2
   4607   9279   9270   9261     1  0.0000000  1.6024720  3
   4611   4612   4624   4636     1  0.0000000  0.6508444  3
   4611   4615   4627   4633     1  0.0000000  0.6508444  3
   4611   4618   4621   4630     1  0.0000000  0.6508444  3
   4612   4611   4615   4627     1  180.0000771  2.0083200  2
   4612   4611   4615   4627     1  0.0000000  1.2552000  3
   4612   4611   4618   4621     1  180.0000771  2.0083200  2
   4612   4611   4618   4621     1  0.0000000  1.2552000  3
   4612   4624   4636   9337     1  0.0000000  0.6508444  3
   4615   4611   4612   4624     1  180.0000771  2.0083200  2
   4615   4611   4612   4624     1  0.0000000  1.2552000  3
   4615   4611   4618   4621     1  180.0000771  2.0083200  2
   4615   4611   4618   4621     1  0.0000000  1.2552000  3
   4615   4627   4633   9308     1  0.0000000  0.6508444  3
   4618   4611   4612   4624     1  180.0000771  2.0083200  2
   4618   4611   4612   4624     1  0.0000000  1.2552000  3
   4618   4611   4615   4627     1  180.0000771  2.0083200  2
   4618   4611   4615   4627     1  0.0000000  1.2552000  3
   4618   4621   4630   4639     1  0.0000000  0.6508444  3
   4624   4636   9337   9328     1  180.0000771  0.4184000  2
   4624   4636   9337   9328     1  0.0000000  1.6024720  3
   4627   4633   9308   9299     1  180.0000771  0.4184000  2
   4627   4633   9308   9299     1  0.0000000  1.6024720  3
   4633   9308   9299   9290     1  180.0000771  0.4184000  2
   4633   9308   9299   9290     1  0.0000000  1.6024720  3
   4636   9337   9328   9319     1  180.0000771  0.4184000  2
   4636   9337   9328   9319     1  0.0000000  1.6024720  3
   4640   4641   4653   4665     1  0.0000000  0.6508444  3
   4640   4644   4656   4662     1  0.0000000  0.6508444  3
   4640   4647   4650   4659     1  0.0000000  0.6508444  3
   4641   4640   4644   4656     1  180.0000771  2.0083200  2
   4641   4640   4644   4656     1  0.0000000  1.2552000  3
   4641   4640   4647   4650     1  180.0000771  2.0083200  2
   4641   4640   4647   4650     1  0.0000000  1.2552000  3
   4641   4653   4665   9395     1  0.0000000  0.6508444  3
   4644   4640   4641   4653     1  180.0000771  2.0083200  2
   4644   4640   4641   4653     1  0.0000000  1.2552000  3
   4644   4640   4647   4650     1  180.0000771  2.0083200  2
   4644   4640   4647   4650     1  0.0000000  1.2552000  3
   4644   4656   4662   9366     1  0.0000000  0.6508444  3
   4647   4640   4641   4653     1  180.0000771  2.0083200  2
   4647   4640   4641   4653     1  0.0000000  1.2552000  3
   4647   4640   4644   4656     1  180.0000771  2.0083200  2
   4647   4640   4644   4656     1  0.0000000  1.2552000  3
   4647   4650   4659   4668     1  0.0000000  0.6508444  3
   4653   4665   9395   9386     1  180.0000771  0.4184000  2
   4653   4665   9395   9386     1  0.0000000  1.6024720  3
   4656   4662   9366   9357     1  180.0000771  0.4184000  2
   4656   4662   9366   9357     1  0.0000000  1.6024720  3
   4662   9366   9357   9348     1  180.0000771  0.4184000  2
   4662   9366   9357   9348     1  0.0000000  1.6024720  3
   4665   9395   9386   9377     1  180.0000771  0.4184000  2
   4665   9395   9386   9377     1  0.0000000  1.6024720  3
   4669   4670   4682   4694     1  0.0000000  0.6508444  3
   4669   4673   4685   4691     1  0.0000000  0.6508444  3
   4669   4676   4679   4688     1  0.0000000  0.6508444  3
   4670   4669   4673   4685     1  180.0000771  2.0083200  2
   4670   4669   4673   4685     1  0.0000000  1.2552000  3
   4670   4669   4676   4679     1  180.0000771  2.0083200  2
   4670   4669   4676   4679     1  0.0000000  1.2552000  3
   4670   4682   4694   9453     1  0.0000000  0.6508444  3
   4673   4669   4670   4682     1  180.0000771  2.0083200  2
   4673   4669   4670   4682     1  0.0000000  1.2552000  3
   4673   4669   4676   4679     1  180.0000771  2.0083200  2
   4673   4669   4676   4679     1  0.0000000  1.2552000  3
   4673   4685   4691   9424     1  0.0000000  0.6508444  3
   4676   4669   4670   4682     1  180.0000771  2.0083200  2
   4676   4669   4670   4682     1  0.0000000  1.2552000  3
   4676   4669   4673   4685     1  180.0000771  2.0083200  2
   4676   4669   4673   4685     1  0.0000000  1.2552000  3
   4676   4679   4688   4697     1  0.0000000  0.6508444  3
   4682   4694   9453   9444     1  180.0000771  0.4184000  2
   4682   4694   9453   9444     1  0.0000000  1.6024720  3
   4685   4691   9424   9415     1  180.0000771  0.4184000  2
   4685   4691   9424   9415     1  0.0000000  1.6024720  3
   4691   9424   9415   9406     1  180.0000771  0.4184000  2
   4691   9424   9415   9406     1  0.0000000  1.6024720  3
   4694   9453   9444   9435     1  180.0000771  0.4184000  2
   4694   9453   9444   9435     1  0.0000000  1.6024720  3
   4698   4699   4711   4723     1  0.0000000  0.6508444  3
   4698   4702   4714   4720     1  0.0000000  0.6508444  3
   4698   4705   4708   4717     1  0.0000000  0.6508444  3
   4699   4698   4702   4714     1  180.0000771  2.0083200  2
   4699   4698   4702   4714     1  0.0000000  1.2552000  3
   4699   4698   4705   4708     1  180.0000771  2.0083200  2
   4699   4698   4705   4708     1  0.0000000  1.2552000  3
   4699   4711   4723   9511     1  0.0000000  0.6508444  3
   4702   4698   4699   4711     1  180.0000771  2.0083200  2
   4702   4698   4699   4711     1  0.0000000  1.2552000  3
   4702   4698   4705   4708     1  180.0000771  2.0083200  2
   4702   4698   4705   4708     1  0.0000000  1.2552000  3
   4702   4714   4720   9482     1  0.0000000  0.6508444  3
   4705   4698   4699   4711     1  180.0000771  2.0083200  2
   4705   4698   4699   4711     1  0.0000000  1.2552000  3
   4705   4698   4702   4714     1  180.0000771  2.0083200  2
   4705   4698   4702   4714     1  0.0000000  1.2552000  3
   4705   4708   4717   4726     1  0.0000000  0.6508444  3
   4711   4723   9511   9502     1  180.0000771  0.4184000  2
   4711   4723   9511   9502     1  0.0000000  1.6024720  3
   4714   4720   9482   9473     1  180.0000771  0.4184000  2
   4714   4720   9482   9473     1  0.0000000  1.6024720  3
   4720   9482   9473   9464     1  180.0000771  0.4184000  2
   4720   9482   9473   9464     1  0.0000000  1.6024720  3
   4723   9511   9502   9493     1  180.0000771  0.4184000  2
   4723   9511   9502   9493     1  0.0000000  1.6024720  3
   4727   4728   4740   4752     1  0.0000000  0.6508444  3
   4727   4731   4743   4749     1  0.0000000  0.6508444  3
   4727   4734   4737   4746     1  0.0000000  0.6508444  3
   4728   4727   4731   4743     1  180.0000771  2.0083200  2
   4728   4727   4731   4743     1  0.0000000  1.2552000  3
   4728   4727   4734   4737     1  180.0000771  2.0083200  2
   4728   4727   4734   4737     1  0.0000000  1.2552000  3
   4728   4740   4752   9569     1  0.0000000  0.6508444  3
   4731   4727   4728   4740     1  180.0000771  2.0083200  2
   4731   4727   4728   4740     1  0.0000000  1.2552000  3
   4731   4727   4734   4737     1  180.0000771  2.0083200  2
   4731   4727   4734   4737     1  0.0000000  1.2552000  3
   4731   4743   4749   9540     1  0.0000000  0.6508444  3
   4734   4727   4728   4740     1  180.0000771  2.0083200  2
   4734   4727   4728   4740     1  0.0000000  1.2552000  3
   4734   4727   4731   4743     1  180.0000771  2.0083200  2
   4734   4727   4731   4743     1  0.0000000  1.2552000  3
   4734   4737   4746   4755     1  0.0000000  0.6508444  3
   4740   4752   9569   9560     1  180.0000771  0.4184000  2
   4740   4752   9569   9560     1  0.0000000  1.6024720  3
   4743   4749   9540   9531     1  180.0000771  0.4184000  2
   4743   4749   9540   9531     1  0.0000000  1.6024720  3
   4749   9540   9531   9522     1  180.0000771  0.4184000  2
   4749   9540   9531   9522     1  0.0000000  1.6024720  3
   4752   9569   9560   9551     1  180.0000771  0.4184000  2
   4752   9569   9560   9551     1  0.0000000  1.6024720  3
   4756   4757   4769   4781     1  0.0000000  0.6508444  3
   4756   4760   4772   4778     1  0.0000000  0.6508444  3
   4756   4763   4766   4775     1  0.0000000  0.6508444  3
   4757   4756   4760   4772     1  180.0000771  2.0083200  2
   4757   4756   4760   4772     1  0.0000000  1.2552000  3
   4757   4756   4763   4766     1  180.0000771  2.0083200  2
   4757   4756   4763   4766     1  0.0000000  1.2552000  3
   4757   4769   4781   9627     1  0.0000000  0.6508444  3
   4760   4756   4757   4769     1  180.0000771  2.0083200  2
   4760   4756   4757   4769     1  0.0000000  1.2552000  3
   4760   4756   4763   4766     1  180.0000771  2.0083200  2
   4760   4756   4763   4766     1  0.0000000  1.2552000  3
   4760   4772   4778   9598     1  0.0000000  0.6508444  3
   4763   4756   4757   4769     1  180.0000771  2.0083200  2
   4763   4756   4757   4769     1  0.0000000  1.2552000  3
   4763   4756   4760   4772     1  180.0000771  2.0083200  2
   4763   4756   4760   4772     1  0.0000000  1.2552000  3
   4763   4766   4775   4784     1  0.0000000  0.6508444  3
   4769   4781   9627   9618     1  180.0000771  0.4184000  2
   4769   4781   9627   9618     1  0.0000000  1.6024720  3
   4772   4778   9598   9589     1  180.0000771  0.4184000  2
   4772   4778   9598   9589     1  0.0000000  1.6024720  3
   4778   9598   9589   9580     1  180.0000771  0.4184000  2
   4778   9598   9589   9580     1  0.0000000  1.6024720  3
   4781   9627   9618   9609     1  180.0000771  0.4184000  2
   4781   9627   9618   9609     1  0.0000000  1.6024720  3
   4785   4786   4798   4810     1  0.0000000  0.6508444  3
   4785   4789   4801   4807     1  0.0000000  0.6508444  3
   4785   4792   4795   4804     1  0.0000000  0.6508444  3
   4786   4785   4789   4801     1  180.0000771  2.0083200  2
   4786   4785   4789   4801     1  0.0000000  1.2552000  3
   4786   4785   4792   4795     1  180.0000771  2.0083200  2
   4786   4785   4792   4795     1  0.0000000  1.2552000  3
   4786   4798   4810   9685     1  0.0000000  0.6508444  3
   4789   4785   4786   4798     1  180.0000771  2.0083200  2
   4789   4785   4786   4798     1  0.0000000  1.2552000  3
   4789   4785   4792   4795     1  180.0000771  2.0083200  2
   4789   4785   4792   4795     1  0.0000000  1.2552000  3
   4789   4801   4807   9656     1  0.0000000  0.6508444  3
   4792   4785   4786   4798     1  180.0000771  2.0083200  2
   4792   4785   4786   4798     1  0.0000000  1.2552000  3
   4792   4785   4789   4801     1  180.0000771  2.0083200  2
   4792   4785   4789   4801     1  0.0000000  1.2552000  3
   4792   4795   4804   4813     1  0.0000000  0.6508444  3
   4798   4810   9685   9676     1  180.0000771  0.4184000  2
   4798   4810   9685   9676     1  0.0000000  1.6024720  3
   4801   4807   9656   9647     1  180.0000771  0.4184000  2
   4801   4807   9656   9647     1  0.0000000  1.6024720  3
   4807   9656   9647   9638     1  180.0000771  0.4184000  2
   4807   9656   9647   9638     1  0.0000000  1.6024720  3
   4810   9685   9676   9667     1  180.0000771  0.4184000  2
   4810   9685   9676   9667     1  0.0000000  1.6024720  3
   4814   4815   4827   4839     1  0.0000000  0.6508444  3
   4814   4818   4830   4836     1  0.0000000  0.6508444  3
   4814   4821   4824   4833     1  0.0000000  0.6508444  3
   4815   4814   4818   4830     1  180.0000771  2.0083200  2
   4815   4814   4818   4830     1  0.0000000  1.2552000  3
   4815   4814   4821   4824     1  180.0000771  2.0083200  2
   4815   4814   4821   4824     1  0.0000000  1.2552000  3
   4815   4827   4839   9743     1  0.0000000  0.6508444  3
   4818   4814   4815   4827     1  180.0000771  2.0083200  2
   4818   4814   4815   4827     1  0.0000000  1.2552000  3
   4818   4814   4821   4824     1  180.0000771  2.0083200  2
   4818   4814   4821   4824     1  0.0000000  1.2552000  3
   4818   4830   4836   9714     1  0.0000000  0.6508444  3
   4821   4814   4815   4827     1  180.0000771  2.0083200  2
   4821   4814   4815   4827     1  0.0000000  1.2552000  3
   4821   4814   4818   4830     1  180.0000771  2.0083200  2
   4821   4814   4818   4830     1  0.0000000  1.2552000  3
   4821   4824   4833   4842     1  0.0000000  0.6508444  3
   4827   4839   9743   9734     1  180.0000771  0.4184000  2
   4827   4839   9743   9734     1  0.0000000  1.6024720  3
   4830   4836   9714   9705     1  180.0000771  0.4184000  2
   4830   4836   9714   9705     1  0.0000000  1.6024720  3
   4836   9714   9705   9696     1  180.0000771  0.4184000  2
   4836   9714   9705   9696     1  0.0000000  1.6024720  3
   4839   9743   9734   9725     1  180.0000771  0.4184000  2
   4839   9743   9734   9725     1  0.0000000  1.6024720  3
   4843   4844   4856   4868     1  0.0000000  0.6508444  3
   4843   4847   4859   4865     1  0.0000000  0.6508444  3
   4843   4850   4853   4862     1  0.0000000  0.6508444  3
   4844   4843   4847   4859     1  180.0000771  2.0083200  2
   4844   4843   4847   4859     1  0.0000000  1.2552000  3
   4844   4843   4850   4853     1  180.0000771  2.0083200  2
   4844   4843   4850   4853     1  0.0000000  1.2552000  3
   4844   4856   4868   9801     1  0.0000000  0.6508444  3
   4847   4843   4844   4856     1  180.0000771  2.0083200  2
   4847   4843   4844   4856     1  0.0000000  1.2552000  3
   4847   4843   4850   4853     1  180.0000771  2.0083200  2
   4847   4843   4850   4853     1  0.0000000  1.2552000  3
   4847   4859   4865   9772     1  0.0000000  0.6508444  3
   4850   4843   4844   4856     1  180.0000771  2.0083200  2
   4850   4843   4844   4856     1  0.0000000  1.2552000  3
   4850   4843   4847   4859     1  180.0000771  2.0083200  2
   4850   4843   4847   4859     1  0.0000000  1.2552000  3
   4850   4853   4862   4871     1  0.0000000  0.6508444  3
   4856   4868   9801   9792     1  180.0000771  0.4184000  2
   4856   4868   9801   9792     1  0.0000000  1.6024720  3
   4859   4865   9772   9763     1  180.0000771  0.4184000  2
   4859   4865   9772   9763     1  0.0000000  1.6024720  3
   4865   9772   9763   9754     1  180.0000771  0.4184000  2
   4865   9772   9763   9754     1  0.0000000  1.6024720  3
   4868   9801   9792   9783     1  180.0000771  0.4184000  2
   4868   9801   9792   9783     1  0.0000000  1.6024720  3
   4872   4873   4885   4897     1  0.0000000  0.6508444  3
   4872   4876   4888   4894     1  0.0000000  0.6508444  3
   4872   4879   4882   4891     1  0.0000000  0.6508444  3
   4873   4872   4876   4888     1  180.0000771  2.0083200  2
   4873   4872   4876   4888     1  0.0000000  1.2552000  3
   4873   4872   4879   4882     1  180.0000771  2.0083200  2
   4873   4872   4879   4882     1  0.0000000  1.2552000  3
   4873   4885   4897   9859     1  0.0000000  0.6508444  3
   4876   4872   4873   4885     1  180.0000771  2.0083200  2
   4876   4872   4873   4885     1  0.0000000  1.2552000  3
   4876   4872   4879   4882     1  180.0000771  2.0083200  2
   4876   4872   4879   4882     1  0.0000000  1.2552000  3
   4876   4888   4894   9830     1  0.0000000  0.6508444  3
   4879   4872   4873   4885     1  180.0000771  2.0083200  2
   4879   4872   4873   4885     1  0.0000000  1.2552000  3
   4879   4872   4876   4888     1  180.0000771  2.0083200  2
   4879   4872   4876   4888     1  0.0000000  1.2552000  3
   4879   4882   4891   4900     1  0.0000000  0.6508444  3
   4885   4897   9859   9850     1  180.0000771  0.4184000  2
   4885   4897   9859   9850     1  0.0000000  1.6024720  3
   4888   4894   9830   9821     1  180.0000771  0.4184000  2
   4888   4894   9830   9821     1  0.0000000  1.6024720  3
   4894   9830   9821   9812     1  180.0000771  0.4184000  2
   4894   9830   9821   9812     1  0.0000000  1.6024720  3
   4897   9859   9850   9841     1  180.0000771  0.4184000  2
   4897   9859   9850   9841     1  0.0000000  1.6024720  3
   4901   4902   4914   4926     1  0.0000000  0.6508444  3
   4901   4905   4917   4923     1  0.0000000  0.6508444  3
   4901   4908   4911   4920     1  0.0000000  0.6508444  3
   4902   4901   4905   4917     1  180.0000771  2.0083200  2
   4902   4901   4905   4917     1  0.0000000  1.2552000  3
   4902   4901   4908   4911     1  180.0000771  2.0083200  2
   4902   4901   4908   4911     1  0.0000000  1.2552000  3
   4902   4914   4926   9917     1  0.0000000  0.6508444  3
   4905   4901   4902   4914     1  180.0000771  2.0083200  2
   4905   4901   4902   4914     1  0.0000000  1.2552000  3
   4905   4901   4908   4911     1  180.0000771  2.0083200  2
   4905   4901   4908   4911     1  0.0000000  1.2552000  3
   4905   4917   4923   9888     1  0.0000000  0.6508444  3
   4908   4901   4902   4914     1  180.0000771  2.0083200  2
   4908   4901   4902   4914     1  0.0000000  1.2552000  3
   4908   4901   4905   4917     1  180.0000771  2.0083200  2
   4908   4901   4905   4917     1  0.0000000  1.2552000  3
   4908   4911   4920   4929     1  0.0000000  0.6508444  3
   4914   4926   9917   9908     1  180.0000771  0.4184000  2
   4914   4926   9917   9908     1  0.0000000  1.6024720  3
   4917   4923   9888   9879     1  180.0000771  0.4184000  2
   4917   4923   9888   9879     1  0.0000000  1.6024720  3
   4923   9888   9879   9870     1  180.0000771  0.4184000  2
   4923   9888   9879   9870     1  0.0000000  1.6024720  3
   4926   9917   9908   9899     1  180.0000771  0.4184000  2
   4926   9917   9908   9899     1  0.0000000  1.6024720  3
   4930   4931   4943   4955     1  0.0000000  0.6508444  3
   4930   4934   4946   4952     1  0.0000000  0.6508444  3
   4930   4937   4940   4949     1  0.0000000  0.6508444  3
   4931   4930   4934   4946     1  180.0000771  2.0083200  2
   4931   4930   4934   4946     1  0.0000000  1.2552000  3
   4931   4930   4937   4940     1  180.0000771  2.0083200  2
   4931   4930   4937   4940     1  0.0000000  1.2552000  3
   4931   4943   4955   9975     1  0.0000000  0.6508444  3
   4934   4930   4931   4943     1  180.0000771  2.0083200  2
   4934   4930   4931   4943     1  0.0000000  1.2552000  3
   4934   4930   4937   4940     1  180.0000771  2.0083200  2
   4934   4930   4937   4940     1  0.0000000  1.2552000  3
   4934   4946   4952   9946     1  0.0000000  0.6508444  3
   4937   4930   4931   4943     1  180.0000771  2.0083200  2
   4937   4930   4931   4943     1  0.0000000  1.2552000  3
   4937   4930   4934   4946     1  180.0000771  2.0083200  2
   4937   4930   4934   4946     1  0.0000000  1.2552000  3
   4937   4940   4949   4958     1  0.0000000  0.6508444  3
   4943   4955   9975   9966     1  180.0000771  0.4184000  2
   4943   4955   9975   9966     1  0.0000000  1.6024720  3
   4946   4952   9946   9937     1  180.0000771  0.4184000  2
   4946   4952   9946   9937     1  0.0000000  1.6024720  3
   4952   9946   9937   9928     1  180.0000771  0.4184000  2
   4952   9946   9937   9928     1  0.0000000  1.6024720  3
   4955   9975   9966   9957     1  180.0000771  0.4184000  2
   4955   9975   9966   9957     1  0.0000000  1.6024720  3
   4959   4960   4972   4984     1  0.0000000  0.6508444  3
   4959   4963   4975   4981     1  0.0000000  0.6508444  3
   4959   4966   4969   4978     1  0.0000000  0.6508444  3
   4960   4959   4963   4975     1  180.0000771  2.0083200  2
   4960   4959   4963   4975     1  0.0000000  1.2552000  3
   4960   4959   4966   4969     1  180.0000771  2.0083200  2
   4960   4959   4966   4969     1  0.0000000  1.2552000  3
   4960   4972   4984  10033     1  0.0000000  0.6508444  3
   4963   4959   4960   4972     1  180.0000771  2.0083200  2
   4963   4959   4960   4972     1  0.0000000  1.2552000  3
   4963   4959   4966   4969     1  180.0000771  2.0083200  2
   4963   4959   4966   4969     1  0.0000000  1.2552000  3
   4963   4975   4981  10004     1  0.0000000  0.6508444  3
   4966   4959   4960   4972     1  180.0000771  2.0083200  2
   4966   4959   4960   4972     1  0.0000000  1.2552000  3
   4966   4959   4963   4975     1  180.0000771  2.0083200  2
   4966   4959   4963   4975     1  0.0000000  1.2552000  3
   4966   4969   4978   4987     1  0.0000000  0.6508444  3
   4972   4984  10033  10024     1  180.0000771  0.4184000  2
   4972   4984  10033  10024     1  0.0000000  1.6024720  3
   4975   4981  10004   9995     1  180.0000771  0.4184000  2
   4975   4981  10004   9995     1  0.0000000  1.6024720  3
   4981  10004   9995   9986     1  180.0000771  0.4184000  2
   4981  10004   9995   9986     1  0.0000000  1.6024720  3
   4984  10033  10024  10015     1  180.0000771  0.4184000  2
   4984  10033  10024  10015     1  0.0000000  1.6024720  3
   4988   4989   5001   5013     1  0.0000000  0.6508444  3
   4988   4992   5004   5010     1  0.0000000  0.6508444  3
   4988   4995   4998   5007     1  0.0000000  0.6508444  3
   4989   4988   4992   5004     1  180.0000771  2.0083200  2
   4989   4988   4992   5004     1  0.0000000  1.2552000  3
   4989   4988   4995   4998     1  180.0000771  2.0083200  2
   4989   4988   4995   4998     1  0.0000000  1.2552000  3
   4989   5001   5013  10091     1  0.0000000  0.6508444  3
   4992   4988   4989   5001     1  180.0000771  2.0083200  2
   4992   4988   4989   5001     1  0.0000000  1.2552000  3
   4992   4988   4995   4998     1  180.0000771  2.0083200  2
   4992   4988   4995   4998     1  0.0000000  1.2552000  3
   4992   5004   5010  10062     1  0.0000000  0.6508444  3
   4995   4988   4989   5001     1  180.0000771  2.0083200  2
   4995   4988   4989   5001     1  0.0000000  1.2552000  3
   4995   4988   4992   5004     1  180.0000771  2.0083200  2
   4995   4988   4992   5004     1  0.0000000  1.2552000  3
   4995   4998   5007   5016     1  0.0000000  0.6508444  3
   5001   5013  10091  10082     1  180.0000771  0.4184000  2
   5001   5013  10091  10082     1  0.0000000  1.6024720  3
   5004   5010  10062  10053     1  180.0000771  0.4184000  2
   5004   5010  10062  10053     1  0.0000000  1.6024720  3
   5010  10062  10053  10044     1  180.0000771  0.4184000  2
   5010  10062  10053  10044     1  0.0000000  1.6024720  3
   5013  10091  10082  10073     1  180.0000771  0.4184000  2
   5013  10091  10082  10073     1  0.0000000  1.6024720  3
   5017   5018   5030   5042     1  0.0000000  0.6508444  3
   5017   5021   5033   5039     1  0.0000000  0.6508444  3
   5017   5024   5027   5036     1  0.0000000  0.6508444  3
   5018   5017   5021   5033     1  180.0000771  2.0083200  2
   5018   5017   5021   5033     1  0.0000000  1.2552000  3
   5018   5017   5024   5027     1  180.0000771  2.0083200  2
   5018   5017   5024   5027     1  0.0000000  1.2552000  3
   5018   5030   5042  10149     1  0.0000000  0.6508444  3
   5021   5017   5018   5030     1  180.0000771  2.0083200  2
   5021   5017   5018   5030     1  0.0000000  1.2552000  3
   5021   5017   5024   5027     1  180.0000771  2.0083200  2
   5021   5017   5024   5027     1  0.0000000  1.2552000  3
   5021   5033   5039  10120     1  0.0000000  0.6508444  3
   5024   5017   5018   5030     1  180.0000771  2.0083200  2
   5024   5017   5018   5030     1  0.0000000  1.2552000  3
   5024   5017   5021   5033     1  180.0000771  2.0083200  2
   5024   5017   5021   5033     1  0.0000000  1.2552000  3
   5024   5027   5036   5045     1  0.0000000  0.6508444  3
   5030   5042  10149  10140     1  180.0000771  0.4184000  2
   5030   5042  10149  10140     1  0.0000000  1.6024720  3
   5033   5039  10120  10111     1  180.0000771  0.4184000  2
   5033   5039  10120  10111     1  0.0000000  1.6024720  3
   5039  10120  10111  10102     1  180.0000771  0.4184000  2
   5039  10120  10111  10102     1  0.0000000  1.6024720  3
   5042  10149  10140  10131     1  180.0000771  0.4184000  2
   5042  10149  10140  10131     1  0.0000000  1.6024720  3
   5046   5047   5059   5071     1  0.0000000  0.6508444  3
   5046   5050   5062   5068     1  0.0000000  0.6508444  3
   5046   5053   5056   5065     1  0.0000000  0.6508444  3
   5047   5046   5050   5062     1  180.0000771  2.0083200  2
   5047   5046   5050   5062     1  0.0000000  1.2552000  3
   5047   5046   5053   5056     1  180.0000771  2.0083200  2
   5047   5046   5053   5056     1  0.0000000  1.2552000  3
   5047   5059   5071  10207     1  0.0000000  0.6508444  3
   5050   5046   5047   5059     1  180.0000771  2.0083200  2
   5050   5046   5047   5059     1  0.0000000  1.2552000  3
   5050   5046   5053   5056     1  180.0000771  2.0083200  2
   5050   5046   5053   5056     1  0.0000000  1.2552000  3
   5050   5062   5068  10178     1  0.0000000  0.6508444  3
   5053   5046   5047   5059     1  180.0000771  2.0083200  2
   5053   5046   5047   5059     1  0.0000000  1.2552000  3
   5053   5046   5050   5062     1  180.0000771  2.0083200  2
   5053   5046   5050   5062     1  0.0000000  1.2552000  3
   5053   5056   5065   5074     1  0.0000000  0.6508444  3
   5059   5071  10207  10198     1  180.0000771  0.4184000  2
   5059   5071  10207  10198     1  0.0000000  1.6024720  3
   5062   5068  10178  10169     1  180.0000771  0.4184000  2
   5062   5068  10178  10169     1  0.0000000  1.6024720  3
   5068  10178  10169  10160     1  180.0000771  0.4184000  2
   5068  10178  10169  10160     1  0.0000000  1.6024720  3
   5071  10207  10198  10189     1  180.0000771  0.4184000  2
   5071  10207  10198  10189     1  0.0000000  1.6024720  3
   5075   5076   5088   5100     1  0.0000000  0.6508444  3
   5075   5079   5091   5097     1  0.0000000  0.6508444  3
   5075   5082   5085   5094     1  0.0000000  0.6508444  3
   5076   5075   5079   5091     1  180.0000771  2.0083200  2
   5076   5075   5079   5091     1  0.0000000  1.2552000  3
   5076   5075   5082   5085     1  180.0000771  2.0083200  2
   5076   5075   5082   5085     1  0.0000000  1.2552000  3
   5076   5088   5100  10265     1  0.0000000  0.6508444  3
   5079   5075   5076   5088     1  180.0000771  2.0083200  2
   5079   5075   5076   5088     1  0.0000000  1.2552000  3
   5079   5075   5082   5085     1  180.0000771  2.0083200  2
   5079   5075   5082   5085     1  0.0000000  1.2552000  3
   5079   5091   5097  10236     1  0.0000000  0.6508444  3
   5082   5075   5076   5088     1  180.0000771  2.0083200  2
   5082   5075   5076   5088     1  0.0000000  1.2552000  3
   5082   5075   5079   5091     1  180.0000771  2.0083200  2
   5082   5075   5079   5091     1  0.0000000  1.2552000  3
   5082   5085   5094   5103     1  0.0000000  0.6508444  3
   5088   5100  10265  10256     1  180.0000771  0.4184000  2
   5088   5100  10265  10256     1  0.0000000  1.6024720  3
   5091   5097  10236  10227     1  180.0000771  0.4184000  2
   5091   5097  10236  10227     1  0.0000000  1.6024720  3
   5097  10236  10227  10218     1  180.0000771  0.4184000  2
   5097  10236  10227  10218     1  0.0000000  1.6024720  3
   5100  10265  10256  10247     1  180.0000771  0.4184000  2
   5100  10265  10256  10247     1  0.0000000  1.6024720  3
   5104   5105   5117   5129     1  0.0000000  0.6508444  3
   5104   5108   5120   5126     1  0.0000000  0.6508444  3
   5104   5111   5114   5123     1  0.0000000  0.6508444  3
   5105   5104   5108   5120     1  180.0000771  2.0083200  2
   5105   5104   5108   5120     1  0.0000000  1.2552000  3
   5105   5104   5111   5114     1  180.0000771  2.0083200  2
   5105   5104   5111   5114     1  0.0000000  1.2552000  3
   5105   5117   5129  10323     1  0.0000000  0.6508444  3
   5108   5104   5105   5117     1  180.0000771  2.0083200  2
   5108   5104   5105   5117     1  0.0000000  1.2552000  3
   5108   5104   5111   5114     1  180.0000771  2.0083200  2
   5108   5104   5111   5114     1  0.0000000  1.2552000  3
   5108   5120   5126  10294     1  0.0000000  0.6508444  3
   5111   5104   5105   5117     1  180.0000771  2.0083200  2
   5111   5104   5105   5117     1  0.0000000  1.2552000  3
   5111   5104   5108   5120     1  180.0000771  2.0083200  2
   5111   5104   5108   5120     1  0.0000000  1.2552000  3
   5111   5114   5123   5132     1  0.0000000  0.6508444  3
   5117   5129  10323  10314     1  180.0000771  0.4184000  2
   5117   5129  10323  10314     1  0.0000000  1.6024720  3
   5120   5126  10294  10285     1  180.0000771  0.4184000  2
   5120   5126  10294  10285     1  0.0000000  1.6024720  3
   5126  10294  10285  10276     1  180.0000771  0.4184000  2
   5126  10294  10285  10276     1  0.0000000  1.6024720  3
   5129  10323  10314  10305     1  180.0000771  0.4184000  2
   5129  10323  10314  10305     1  0.0000000  1.6024720  3
   5133   5134   5146   5158     1  0.0000000  0.6508444  3
   5133   5137   5149   5155     1  0.0000000  0.6508444  3
   5133   5140   5143   5152     1  0.0000000  0.6508444  3
   5134   5133   5137   5149     1  180.0000771  2.0083200  2
   5134   5133   5137   5149     1  0.0000000  1.2552000  3
   5134   5133   5140   5143     1  180.0000771  2.0083200  2
   5134   5133   5140   5143     1  0.0000000  1.2552000  3
   5134   5146   5158  10381     1  0.0000000  0.6508444  3
   5137   5133   5134   5146     1  180.0000771  2.0083200  2
   5137   5133   5134   5146     1  0.0000000  1.2552000  3
   5137   5133   5140   5143     1  180.0000771  2.0083200  2
   5137   5133   5140   5143     1  0.0000000  1.2552000  3
   5137   5149   5155  10352     1  0.0000000  0.6508444  3
   5140   5133   5134   5146     1  180.0000771  2.0083200  2
   5140   5133   5134   5146     1  0.0000000  1.2552000  3
   5140   5133   5137   5149     1  180.0000771  2.0083200  2
   5140   5133   5137   5149     1  0.0000000  1.2552000  3
   5140   5143   5152   5161     1  0.0000000  0.6508444  3
   5146   5158  10381  10372     1  180.0000771  0.4184000  2
   5146   5158  10381  10372     1  0.0000000  1.6024720  3
   5149   5155  10352  10343     1  180.0000771  0.4184000  2
   5149   5155  10352  10343     1  0.0000000  1.6024720  3
   5155  10352  10343  10334     1  180.0000771  0.4184000  2
   5155  10352  10343  10334     1  0.0000000  1.6024720  3
   5158  10381  10372  10363     1  180.0000771  0.4184000  2
   5158  10381  10372  10363     1  0.0000000  1.6024720  3
   5162   5163   5175   5187     1  0.0000000  0.6508444  3
   5162   5166   5178   5184     1  0.0000000  0.6508444  3
   5162   5169   5172   5181     1  0.0000000  0.6508444  3
   5163   5162   5166   5178     1  180.0000771  2.0083200  2
   5163   5162   5166   5178     1  0.0000000  1.2552000  3
   5163   5162   5169   5172     1  180.0000771  2.0083200  2
   5163   5162   5169   5172     1  0.0000000  1.2552000  3
   5163   5175   5187  10439     1  0.0000000  0.6508444  3
   5166   5162   5163   5175     1  180.0000771  2.0083200  2
   5166   5162   5163   5175     1  0.0000000  1.2552000  3
   5166   5162   5169   5172     1  180.0000771  2.0083200  2
   5166   5162   5169   5172     1  0.0000000  1.2552000  3
   5166   5178   5184  10410     1  0.0000000  0.6508444  3
   5169   5162   5163   5175     1  180.0000771  2.0083200  2
   5169   5162   5163   5175     1  0.0000000  1.2552000  3
   5169   5162   5166   5178     1  180.0000771  2.0083200  2
   5169   5162   5166   5178     1  0.0000000  1.2552000  3
   5169   5172   5181   5190     1  0.0000000  0.6508444  3
   5175   5187  10439  10430     1  180.0000771  0.4184000  2
   5175   5187  10439  10430     1  0.0000000  1.6024720  3
   5178   5184  10410  10401     1  180.0000771  0.4184000  2
   5178   5184  10410  10401     1  0.0000000  1.6024720  3
   5184  10410  10401  10392     1  180.0000771  0.4184000  2
   5184  10410  10401  10392     1  0.0000000  1.6024720  3
   5187  10439  10430  10421     1  180.0000771  0.4184000  2
   5187  10439  10430  10421     1  0.0000000  1.6024720  3
   5191   5192   5204   5216     1  0.0000000  0.6508444  3
   5191   5195   5207   5213     1  0.0000000  0.6508444  3
   5191   5198   5201   5210     1  0.0000000  0.6508444  3
   5192   5191   5195   5207     1  180.0000771  2.0083200  2
   5192   5191   5195   5207     1  0.0000000  1.2552000  3
   5192   5191   5198   5201     1  180.0000771  2.0083200  2
   5192   5191   5198   5201     1  0.0000000  1.2552000  3
   5192   5204   5216  10497     1  0.0000000  0.6508444  3
   5195   5191   5192   5204     1  180.0000771  2.0083200  2
   5195   5191   5192   5204     1  0.0000000  1.2552000  3
   5195   5191   5198   5201     1  180.0000771  2.0083200  2
   5195   5191   5198   5201     1  0.0000000  1.2552000  3
   5195   5207   5213  10468     1  0.0000000  0.6508444  3
   5198   5191   5192   5204     1  180.0000771  2.0083200  2
   5198   5191   5192   5204     1  0.0000000  1.2552000  3
   5198   5191   5195   5207     1  180.0000771  2.0083200  2
   5198   5191   5195   5207     1  0.0000000  1.2552000  3
   5198   5201   5210   5219     1  0.0000000  0.6508444  3
   5204   5216  10497  10488     1  180.0000771  0.4184000  2
   5204   5216  10497  10488     1  0.0000000  1.6024720  3
   5207   5213  10468  10459     1  180.0000771  0.4184000  2
   5207   5213  10468  10459     1  0.0000000  1.6024720  3
   5213  10468  10459  10450     1  180.0000771  0.4184000  2
   5213  10468  10459  10450     1  0.0000000  1.6024720  3
   5216  10497  10488  10479     1  180.0000771  0.4184000  2
   5216  10497  10488  10479     1  0.0000000  1.6024720  3
   5220   5221   5233   5245     1  0.0000000  0.6508444  3
   5220   5224   5236   5242     1  0.0000000  0.6508444  3
   5220   5227   5230   5239     1  0.0000000  0.6508444  3
   5221   5220   5224   5236     1  180.0000771  2.0083200  2
   5221   5220   5224   5236     1  0.0000000  1.2552000  3
   5221   5220   5227   5230     1  180.0000771  2.0083200  2
   5221   5220   5227   5230     1  0.0000000  1.2552000  3
   5221   5233   5245  10555     1  0.0000000  0.6508444  3
   5224   5220   5221   5233     1  180.0000771  2.0083200  2
   5224   5220   5221   5233     1  0.0000000  1.2552000  3
   5224   5220   5227   5230     1  180.0000771  2.0083200  2
   5224   5220   5227   5230     1  0.0000000  1.2552000  3
   5224   5236   5242  10526     1  0.0000000  0.6508444  3
   5227   5220   5221   5233     1  180.0000771  2.0083200  2
   5227   5220   5221   5233     1  0.0000000  1.2552000  3
   5227   5220   5224   5236     1  180.0000771  2.0083200  2
   5227   5220   5224   5236     1  0.0000000  1.2552000  3
   5227   5230   5239   5248     1  0.0000000  0.6508444  3
   5233   5245  10555  10546     1  180.0000771  0.4184000  2
   5233   5245  10555  10546     1  0.0000000  1.6024720  3
   5236   5242  10526  10517     1  180.0000771  0.4184000  2
   5236   5242  10526  10517     1  0.0000000  1.6024720  3
   5242  10526  10517  10508     1  180.0000771  0.4184000  2
   5242  10526  10517  10508     1  0.0000000  1.6024720  3
   5245  10555  10546  10537     1  180.0000771  0.4184000  2
   5245  10555  10546  10537     1  0.0000000  1.6024720  3
   5249   5250   5262   5274     1  0.0000000  0.6508444  3
   5249   5253   5265   5271     1  0.0000000  0.6508444  3
   5249   5256   5259   5268     1  0.0000000  0.6508444  3
   5250   5249   5253   5265     1  180.0000771  2.0083200  2
   5250   5249   5253   5265     1  0.0000000  1.2552000  3
   5250   5249   5256   5259     1  180.0000771  2.0083200  2
   5250   5249   5256   5259     1  0.0000000  1.2552000  3
   5250   5262   5274  10613     1  0.0000000  0.6508444  3
   5253   5249   5250   5262     1  180.0000771  2.0083200  2
   5253   5249   5250   5262     1  0.0000000  1.2552000  3
   5253   5249   5256   5259     1  180.0000771  2.0083200  2
   5253   5249   5256   5259     1  0.0000000  1.2552000  3
   5253   5265   5271  10584     1  0.0000000  0.6508444  3
   5256   5249   5250   5262     1  180.0000771  2.0083200  2
   5256   5249   5250   5262     1  0.0000000  1.2552000  3
   5256   5249   5253   5265     1  180.0000771  2.0083200  2
   5256   5249   5253   5265     1  0.0000000  1.2552000  3
   5256   5259   5268   5277     1  0.0000000  0.6508444  3
   5262   5274  10613  10604     1  180.0000771  0.4184000  2
   5262   5274  10613  10604     1  0.0000000  1.6024720  3
   5265   5271  10584  10575     1  180.0000771  0.4184000  2
   5265   5271  10584  10575     1  0.0000000  1.6024720  3
   5271  10584  10575  10566     1  180.0000771  0.4184000  2
   5271  10584  10575  10566     1  0.0000000  1.6024720  3
   5274  10613  10604  10595     1  180.0000771  0.4184000  2
   5274  10613  10604  10595     1  0.0000000  1.6024720  3
   5278   5279   5291   5303     1  0.0000000  0.6508444  3
   5278   5282   5294   5300     1  0.0000000  0.6508444  3
   5278   5285   5288   5297     1  0.0000000  0.6508444  3
   5279   5278   5282   5294     1  180.0000771  2.0083200  2
   5279   5278   5282   5294     1  0.0000000  1.2552000  3
   5279   5278   5285   5288     1  180.0000771  2.0083200  2
   5279   5278   5285   5288     1  0.0000000  1.2552000  3
   5279   5291   5303  10671     1  0.0000000  0.6508444  3
   5282   5278   5279   5291     1  180.0000771  2.0083200  2
   5282   5278   5279   5291     1  0.0000000  1.2552000  3
   5282   5278   5285   5288     1  180.0000771  2.0083200  2
   5282   5278   5285   5288     1  0.0000000  1.2552000  3
   5282   5294   5300  10642     1  0.0000000  0.6508444  3
   5285   5278   5279   5291     1  180.0000771  2.0083200  2
   5285   5278   5279   5291     1  0.0000000  1.2552000  3
   5285   5278   5282   5294     1  180.0000771  2.0083200  2
   5285   5278   5282   5294     1  0.0000000  1.2552000  3
   5285   5288   5297   5306     1  0.0000000  0.6508444  3
   5291   5303  10671  10662     1  180.0000771  0.4184000  2
   5291   5303  10671  10662     1  0.0000000  1.6024720  3
   5294   5300  10642  10633     1  180.0000771  0.4184000  2
   5294   5300  10642  10633     1  0.0000000  1.6024720  3
   5300  10642  10633  10624     1  180.0000771  0.4184000  2
   5300  10642  10633  10624     1  0.0000000  1.6024720  3
   5303  10671  10662  10653     1  180.0000771  0.4184000  2
   5303  10671  10662  10653     1  0.0000000  1.6024720  3
   5307   5308   5320   5332     1  0.0000000  0.6508444  3
   5307   5311   5323   5329     1  0.0000000  0.6508444  3
   5307   5314   5317   5326     1  0.0000000  0.6508444  3
   5308   5307   5311   5323     1  180.0000771  2.0083200  2
   5308   5307   5311   5323     1  0.0000000  1.2552000  3
   5308   5307   5314   5317     1  180.0000771  2.0083200  2
   5308   5307   5314   5317     1  0.0000000  1.2552000  3
   5308   5320   5332  10729     1  0.0000000  0.6508444  3
   5311   5307   5308   5320     1  180.0000771  2.0083200  2
   5311   5307   5308   5320     1  0.0000000  1.2552000  3
   5311   5307   5314   5317     1  180.0000771  2.0083200  2
   5311   5307   5314   5317     1  0.0000000  1.2552000  3
   5311   5323   5329  10700     1  0.0000000  0.6508444  3
   5314   5307   5308   5320     1  180.0000771  2.0083200  2
   5314   5307   5308   5320     1  0.0000000  1.2552000  3
   5314   5307   5311   5323     1  180.0000771  2.0083200  2
   5314   5307   5311   5323     1  0.0000000  1.2552000  3
   5314   5317   5326   5335     1  0.0000000  0.6508444  3
   5320   5332  10729  10720     1  180.0000771  0.4184000  2
   5320   5332  10729  10720     1  0.0000000  1.6024720  3
   5323   5329  10700  10691     1  180.0000771  0.4184000  2
   5323   5329  10700  10691     1  0.0000000  1.6024720  3
   5329  10700  10691  10682     1  180.0000771  0.4184000  2
   5329  10700  10691  10682     1  0.0000000  1.6024720  3
   5332  10729  10720  10711     1  180.0000771  0.4184000  2
   5332  10729  10720  10711     1  0.0000000  1.6024720  3
   5336   5337   5349   5361     1  0.0000000  0.6508444  3
   5336   5340   5352   5358     1  0.0000000  0.6508444  3
   5336   5343   5346   5355     1  0.0000000  0.6508444  3
   5337   5336   5340   5352     1  180.0000771  2.0083200  2
   5337   5336   5340   5352     1  0.0000000  1.2552000  3
   5337   5336   5343   5346     1  180.0000771  2.0083200  2
   5337   5336   5343   5346     1  0.0000000  1.2552000  3
   5337   5349   5361  10787     1  0.0000000  0.6508444  3
   5340   5336   5337   5349     1  180.0000771  2.0083200  2
   5340   5336   5337   5349     1  0.0000000  1.2552000  3
   5340   5336   5343   5346     1  180.0000771  2.0083200  2
   5340   5336   5343   5346     1  0.0000000  1.2552000  3
   5340   5352   5358  10758     1  0.0000000  0.6508444  3
   5343   5336   5337   5349     1  180.0000771  2.0083200  2
   5343   5336   5337   5349     1  0.0000000  1.2552000  3
   5343   5336   5340   5352     1  180.0000771  2.0083200  2
   5343   5336   5340   5352     1  0.0000000  1.2552000  3
   5343   5346   5355   5364     1  0.0000000  0.6508444  3
   5349   5361  10787  10778     1  180.0000771  0.4184000  2
   5349   5361  10787  10778     1  0.0000000  1.6024720  3
   5352   5358  10758  10749     1  180.0000771  0.4184000  2
   5352   5358  10758  10749     1  0.0000000  1.6024720  3
   5358  10758  10749  10740     1  180.0000771  0.4184000  2
   5358  10758  10749  10740     1  0.0000000  1.6024720  3
   5361  10787  10778  10769     1  180.0000771  0.4184000  2
   5361  10787  10778  10769     1  0.0000000  1.6024720  3
   5365   5366   5378   5390     1  0.0000000  0.6508444  3
   5365   5369   5381   5387     1  0.0000000  0.6508444  3
   5365   5372   5375   5384     1  0.0000000  0.6508444  3
   5366   5365   5369   5381     1  180.0000771  2.0083200  2
   5366   5365   5369   5381     1  0.0000000  1.2552000  3
   5366   5365   5372   5375     1  180.0000771  2.0083200  2
   5366   5365   5372   5375     1  0.0000000  1.2552000  3
   5366   5378   5390  10845     1  0.0000000  0.6508444  3
   5369   5365   5366   5378     1  180.0000771  2.0083200  2
   5369   5365   5366   5378     1  0.0000000  1.2552000  3
   5369   5365   5372   5375     1  180.0000771  2.0083200  2
   5369   5365   5372   5375     1  0.0000000  1.2552000  3
   5369   5381   5387  10816     1  0.0000000  0.6508444  3
   5372   5365   5366   5378     1  180.0000771  2.0083200  2
   5372   5365   5366   5378     1  0.0000000  1.2552000  3
   5372   5365   5369   5381     1  180.0000771  2.0083200  2
   5372   5365   5369   5381     1  0.0000000  1.2552000  3
   5372   5375   5384   5393     1  0.0000000  0.6508444  3
   5378   5390  10845  10836     1  180.0000771  0.4184000  2
   5378   5390  10845  10836     1  0.0000000  1.6024720  3
   5381   5387  10816  10807     1  180.0000771  0.4184000  2
   5381   5387  10816  10807     1  0.0000000  1.6024720  3
   5387  10816  10807  10798     1  180.0000771  0.4184000  2
   5387  10816  10807  10798     1  0.0000000  1.6024720  3
   5390  10845  10836  10827     1  180.0000771  0.4184000  2
   5390  10845  10836  10827     1  0.0000000  1.6024720  3
   5394   5395   5407   5419     1  0.0000000  0.6508444  3
   5394   5398   5410   5416     1  0.0000000  0.6508444  3
   5394   5401   5404   5413     1  0.0000000  0.6508444  3
   5395   5394   5398   5410     1  180.0000771  2.0083200  2
   5395   5394   5398   5410     1  0.0000000  1.2552000  3
   5395   5394   5401   5404     1  180.0000771  2.0083200  2
   5395   5394   5401   5404     1  0.0000000  1.2552000  3
   5395   5407   5419  10903     1  0.0000000  0.6508444  3
   5398   5394   5395   5407     1  180.0000771  2.0083200  2
   5398   5394   5395   5407     1  0.0000000  1.2552000  3
   5398   5394   5401   5404     1  180.0000771  2.0083200  2
   5398   5394   5401   5404     1  0.0000000  1.2552000  3
   5398   5410   5416  10874     1  0.0000000  0.6508444  3
   5401   5394   5395   5407     1  180.0000771  2.0083200  2
   5401   5394   5395   5407     1  0.0000000  1.2552000  3
   5401   5394   5398   5410     1  180.0000771  2.0083200  2
   5401   5394   5398   5410     1  0.0000000  1.2552000  3
   5401   5404   5413   5422     1  0.0000000  0.6508444  3
   5407   5419  10903  10894     1  180.0000771  0.4184000  2
   5407   5419  10903  10894     1  0.0000000  1.6024720  3
   5410   5416  10874  10865     1  180.0000771  0.4184000  2
   5410   5416  10874  10865     1  0.0000000  1.6024720  3
   5416  10874  10865  10856     1  180.0000771  0.4184000  2
   5416  10874  10865  10856     1  0.0000000  1.6024720  3
   5419  10903  10894  10885     1  180.0000771  0.4184000  2
   5419  10903  10894  10885     1  0.0000000  1.6024720  3
   5423   5424   5436   5448     1  0.0000000  0.6508444  3
   5423   5427   5439   5445     1  0.0000000  0.6508444  3
   5423   5430   5433   5442     1  0.0000000  0.6508444  3
   5424   5423   5427   5439     1  180.0000771  2.0083200  2
   5424   5423   5427   5439     1  0.0000000  1.2552000  3
   5424   5423   5430   5433     1  180.0000771  2.0083200  2
   5424   5423   5430   5433     1  0.0000000  1.2552000  3
   5424   5436   5448  10961     1  0.0000000  0.6508444  3
   5427   5423   5424   5436     1  180.0000771  2.0083200  2
   5427   5423   5424   5436     1  0.0000000  1.2552000  3
   5427   5423   5430   5433     1  180.0000771  2.0083200  2
   5427   5423   5430   5433     1  0.0000000  1.2552000  3
   5427   5439   5445  10932     1  0.0000000  0.6508444  3
   5430   5423   5424   5436     1  180.0000771  2.0083200  2
   5430   5423   5424   5436     1  0.0000000  1.2552000  3
   5430   5423   5427   5439     1  180.0000771  2.0083200  2
   5430   5423   5427   5439     1  0.0000000  1.2552000  3
   5430   5433   5442   5451     1  0.0000000  0.6508444  3
   5436   5448  10961  10952     1  180.0000771  0.4184000  2
   5436   5448  10961  10952     1  0.0000000  1.6024720  3
   5439   5445  10932  10923     1  180.0000771  0.4184000  2
   5439   5445  10932  10923     1  0.0000000  1.6024720  3
   5445  10932  10923  10914     1  180.0000771  0.4184000  2
   5445  10932  10923  10914     1  0.0000000  1.6024720  3
   5448  10961  10952  10943     1  180.0000771  0.4184000  2
   5448  10961  10952  10943     1  0.0000000  1.6024720  3
   5452   5453   5465   5477     1  0.0000000  0.6508444  3
   5452   5456   5468   5474     1  0.0000000  0.6508444  3
   5452   5459   5462   5471     1  0.0000000  0.6508444  3
   5453   5452   5456   5468     1  180.0000771  2.0083200  2
   5453   5452   5456   5468     1  0.0000000  1.2552000  3
   5453   5452   5459   5462     1  180.0000771  2.0083200  2
   5453   5452   5459   5462     1  0.0000000  1.2552000  3
   5453   5465   5477  11019     1  0.0000000  0.6508444  3
   5456   5452   5453   5465     1  180.0000771  2.0083200  2
   5456   5452   5453   5465     1  0.0000000  1.2552000  3
   5456   5452   5459   5462     1  180.0000771  2.0083200  2
   5456   5452   5459   5462     1  0.0000000  1.2552000  3
   5456   5468   5474  10990     1  0.0000000  0.6508444  3
   5459   5452   5453   5465     1  180.0000771  2.0083200  2
   5459   5452   5453   5465     1  0.0000000  1.2552000  3
   5459   5452   5456   5468     1  180.0000771  2.0083200  2
   5459   5452   5456   5468     1  0.0000000  1.2552000  3
   5459   5462   5471   5480     1  0.0000000  0.6508444  3
   5465   5477  11019  11010     1  180.0000771  0.4184000  2
   5465   5477  11019  11010     1  0.0000000  1.6024720  3
   5468   5474  10990  10981     1  180.0000771  0.4184000  2
   5468   5474  10990  10981     1  0.0000000  1.6024720  3
   5474  10990  10981  10972     1  180.0000771  0.4184000  2
   5474  10990  10981  10972     1  0.0000000  1.6024720  3
   5477  11019  11010  11001     1  180.0000771  0.4184000  2
   5477  11019  11010  11001     1  0.0000000  1.6024720  3
   5481   5482   5494   5506     1  0.0000000  0.6508444  3
   5481   5485   5497   5503     1  0.0000000  0.6508444  3
   5481   5488   5491   5500     1  0.0000000  0.6508444  3
   5482   5481   5485   5497     1  180.0000771  2.0083200  2
   5482   5481   5485   5497     1  0.0000000  1.2552000  3
   5482   5481   5488   5491     1  180.0000771  2.0083200  2
   5482   5481   5488   5491     1  0.0000000  1.2552000  3
   5482   5494   5506  11077     1  0.0000000  0.6508444  3
   5485   5481   5482   5494     1  180.0000771  2.0083200  2
   5485   5481   5482   5494     1  0.0000000  1.2552000  3
   5485   5481   5488   5491     1  180.0000771  2.0083200  2
   5485   5481   5488   5491     1  0.0000000  1.2552000  3
   5485   5497   5503  11048     1  0.0000000  0.6508444  3
   5488   5481   5482   5494     1  180.0000771  2.0083200  2
   5488   5481   5482   5494     1  0.0000000  1.2552000  3
   5488   5481   5485   5497     1  180.0000771  2.0083200  2
   5488   5481   5485   5497     1  0.0000000  1.2552000  3
   5488   5491   5500   5509     1  0.0000000  0.6508444  3
   5494   5506  11077  11068     1  180.0000771  0.4184000  2
   5494   5506  11077  11068     1  0.0000000  1.6024720  3
   5497   5503  11048  11039     1  180.0000771  0.4184000  2
   5497   5503  11048  11039     1  0.0000000  1.6024720  3
   5503  11048  11039  11030     1  180.0000771  0.4184000  2
   5503  11048  11039  11030     1  0.0000000  1.6024720  3
   5506  11077  11068  11059     1  180.0000771  0.4184000  2
   5506  11077  11068  11059     1  0.0000000  1.6024720  3
   5510   5511   5523   5535     1  0.0000000  0.6508444  3
   5510   5514   5526   5532     1  0.0000000  0.6508444  3
   5510   5517   5520   5529     1  0.0000000  0.6508444  3
   5511   5510   5514   5526     1  180.0000771  2.0083200  2
   5511   5510   5514   5526     1  0.0000000  1.2552000  3
   5511   5510   5517   5520     1  180.0000771  2.0083200  2
   5511   5510   5517   5520     1  0.0000000  1.2552000  3
   5511   5523   5535  11111     1  0.0000000  0.6508444  3
   5514   5510   5511   5523     1  180.0000771  2.0083200  2
   5514   5510   5511   5523     1  0.0000000  1.2552000  3
   5514   5510   5517   5520     1  180.0000771  2.0083200  2
   5514   5510   5517   5520     1  0.0000000  1.2552000  3
   5514   5526   5532  11088     1  0.0000000  0.6508444  3
   5517   5510   5511   5523     1  180.0000771  2.0083200  2
   5517   5510   5511   5523     1  0.0000000  1.2552000  3
   5517   5510   5514   5526     1  180.0000771  2.0083200  2
   5517   5510   5514   5526     1  0.0000000  1.2552000  3
   5517   5520   5529   5538     1  0.0000000  0.6508444  3
   5523   5535  11111  11107     1  180.0000771  0.4184000  2
   5523   5535  11111  11107     1  0.0000000  1.6024720  3
   5526   5532  11088  11084     1  180.0000771  0.4184000  2
   5526   5532  11088  11084     1  0.0000000  1.6024720  3
   5532  11088  11084  11083     1  180.0000771  0.4184000  2
   5532  11088  11084  11083     1  0.0000000  1.6024720  3
   5532  11088  11084  11100     1  180.0000771  5.6484000  1
   5532  11088  11084  11100     1  180.0000771  3.5564000  2
   5532  11088  11084  11100     1  0.0000000  0.4184000  3
   5535  11111  11107  11123     1  180.0000771  5.6484000  1
   5535  11111  11107  11123     1  180.0000771  3.5564000  2
   5535  11111  11107  11123     1  0.0000000  0.4184000  3
   5535  11111  11107  11106     1  180.0000771  0.4184000  2
   5535  11111  11107  11106     1  0.0000000  1.6024720  3
   5539   5540   5552   5564     1  0.0000000  0.6508444  3
   5539   5543   5555   5561     1  0.0000000  0.6508444  3
   5539   5546   5549   5558     1  0.0000000  0.6508444  3
   5540   5539   5543   5555     1  180.0000771  2.0083200  2
   5540   5539   5543   5555     1  0.0000000  1.2552000  3
   5540   5539   5546   5549     1  180.0000771  2.0083200  2
   5540   5539   5546   5549     1  0.0000000  1.2552000  3
   5540   5552   5564  11157     1  0.0000000  0.6508444  3
   5543   5539   5540   5552     1  180.0000771  2.0083200  2
   5543   5539   5540   5552     1  0.0000000  1.2552000  3
   5543   5539   5546   5549     1  180.0000771  2.0083200  2
   5543   5539   5546   5549     1  0.0000000  1.2552000  3
   5543   5555   5561  11134     1  0.0000000  0.6508444  3
   5546   5539   5540   5552     1  180.0000771  2.0083200  2
   5546   5539   5540   5552     1  0.0000000  1.2552000  3
   5546   5539   5543   5555     1  180.0000771  2.0083200  2
   5546   5539   5543   5555     1  0.0000000  1.2552000  3
   5546   5549   5558   5567     1  0.0000000  0.6508444  3
   5552   5564  11157  11153     1  180.0000771  0.4184000  2
   5552   5564  11157  11153     1  0.0000000  1.6024720  3
   5555   5561  11134  11130     1  180.0000771  0.4184000  2
   5555   5561  11134  11130     1  0.0000000  1.6024720  3
   5561  11134  11130  11129     1  180.0000771  0.4184000  2
   5561  11134  11130  11129     1  0.0000000  1.6024720  3
   5561  11134  11130  11146     1  180.0000771  5.6484000  1
   5561  11134  11130  11146     1  180.0000771  3.5564000  2
   5561  11134  11130  11146     1  0.0000000  0.4184000  3
   5564  11157  11153  11169     1  180.0000771  5.6484000  1
   5564  11157  11153  11169     1  180.0000771  3.5564000  2
   5564  11157  11153  11169     1  0.0000000  0.4184000  3
   5564  11157  11153  11152     1  180.0000771  0.4184000  2
   5564  11157  11153  11152     1  0.0000000  1.6024720  3
   5568   5569   5581   5593     1  0.0000000  0.6508444  3
   5568   5572   5584   5590     1  0.0000000  0.6508444  3
   5568   5575   5578   5587     1  0.0000000  0.6508444  3
   5569   5568   5572   5584     1  180.0000771  2.0083200  2
   5569   5568   5572   5584     1  0.0000000  1.2552000  3
   5569   5568   5575   5578     1  180.0000771  2.0083200  2
   5569   5568   5575   5578     1  0.0000000  1.2552000  3
   5569   5581   5593  11203     1  0.0000000  0.6508444  3
   5572   5568   5569   5581     1  180.0000771  2.0083200  2
   5572   5568   5569   5581     1  0.0000000  1.2552000  3
   5572   5568   5575   5578     1  180.0000771  2.0083200  2
   5572   5568   5575   5578     1  0.0000000  1.2552000  3
   5572   5584   5590  11180     1  0.0000000  0.6508444  3
   5575   5568   5569   5581     1  180.0000771  2.0083200  2
   5575   5568   5569   5581     1  0.0000000  1.2552000  3
   5575   5568   5572   5584     1  180.0000771  2.0083200  2
   5575   5568   5572   5584     1  0.0000000  1.2552000  3
   5575   5578   5587   5596     1  0.0000000  0.6508444  3
   5581   5593  11203  11199     1  180.0000771  0.4184000  2
   5581   5593  11203  11199     1  0.0000000  1.6024720  3
   5584   5590  11180  11176     1  180.0000771  0.4184000  2
   5584   5590  11180  11176     1  0.0000000  1.6024720  3
   5590  11180  11176  11175     1  180.0000771  0.4184000  2
   5590  11180  11176  11175     1  0.0000000  1.6024720  3
   5590  11180  11176  11192     1  180.0000771  5.6484000  1
   5590  11180  11176  11192     1  180.0000771  3.5564000  2
   5590  11180  11176  11192     1  0.0000000  0.4184000  3
   5593  11203  11199  11215     1  180.0000771  5.6484000  1
   5593  11203  11199  11215     1  180.0000771  3.5564000  2
   5593  11203  11199  11215     1  0.0000000  0.4184000  3
   5593  11203  11199  11198     1  180.0000771  0.4184000  2
   5593  11203  11199  11198     1  0.0000000  1.6024720  3
   5597   5598   5610   5622     1  0.0000000  0.6508444  3
   5597   5601   5613   5619     1  0.0000000  0.6508444  3
   5597   5604   5607   5616     1  0.0000000  0.6508444  3
   5598   5597   5601   5613     1  180.0000771  2.0083200  2
   5598   5597   5601   5613     1  0.0000000  1.2552000  3
   5598   5597   5604   5607     1  180.0000771  2.0083200  2
   5598   5597   5604   5607     1  0.0000000  1.2552000  3
   5598   5610   5622  11249     1  0.0000000  0.6508444  3
   5601   5597   5598   5610     1  180.0000771  2.0083200  2
   5601   5597   5598   5610     1  0.0000000  1.2552000  3
   5601   5597   5604   5607     1  180.0000771  2.0083200  2
   5601   5597   5604   5607     1  0.0000000  1.2552000  3
   5601   5613   5619  11226     1  0.0000000  0.6508444  3
   5604   5597   5598   5610     1  180.0000771  2.0083200  2
   5604   5597   5598   5610     1  0.0000000  1.2552000  3
   5604   5597   5601   5613     1  180.0000771  2.0083200  2
   5604   5597   5601   5613     1  0.0000000  1.2552000  3
   5604   5607   5616   5625     1  0.0000000  0.6508444  3
   5610   5622  11249  11245     1  180.0000771  0.4184000  2
   5610   5622  11249  11245     1  0.0000000  1.6024720  3
   5613   5619  11226  11222     1  180.0000771  0.4184000  2
   5613   5619  11226  11222     1  0.0000000  1.6024720  3
   5619  11226  11222  11221     1  180.0000771  0.4184000  2
   5619  11226  11222  11221     1  0.0000000  1.6024720  3
   5619  11226  11222  11238     1  180.0000771  5.6484000  1
   5619  11226  11222  11238     1  180.0000771  3.5564000  2
   5619  11226  11222  11238     1  0.0000000  0.4184000  3
   5622  11249  11245  11261     1  180.0000771  5.6484000  1
   5622  11249  11245  11261     1  180.0000771  3.5564000  2
   5622  11249  11245  11261     1  0.0000000  0.4184000  3
   5622  11249  11245  11244     1  180.0000771  0.4184000  2
   5622  11249  11245  11244     1  0.0000000  1.6024720  3
   5626   5627   5639   5651     1  0.0000000  0.6508444  3
   5626   5630   5642   5648     1  0.0000000  0.6508444  3
   5626   5633   5636   5645     1  0.0000000  0.6508444  3
   5627   5626   5630   5642     1  180.0000771  2.0083200  2
   5627   5626   5630   5642     1  0.0000000  1.2552000  3
   5627   5626   5633   5636     1  180.0000771  2.0083200  2
   5627   5626   5633   5636     1  0.0000000  1.2552000  3
   5627   5639   5651  11295     1  0.0000000  0.6508444  3
   5630   5626   5627   5639     1  180.0000771  2.0083200  2
   5630   5626   5627   5639     1  0.0000000  1.2552000  3
   5630   5626   5633   5636     1  180.0000771  2.0083200  2
   5630   5626   5633   5636     1  0.0000000  1.2552000  3
   5630   5642   5648  11272     1  0.0000000  0.6508444  3
   5633   5626   5627   5639     1  180.0000771  2.0083200  2
   5633   5626   5627   5639     1  0.0000000  1.2552000  3
   5633   5626   5630   5642     1  180.0000771  2.0083200  2
   5633   5626   5630   5642     1  0.0000000  1.2552000  3
   5633   5636   5645   5654     1  0.0000000  0.6508444  3
   5639   5651  11295  11291     1  180.0000771  0.4184000  2
   5639   5651  11295  11291     1  0.0000000  1.6024720  3
   5642   5648  11272  11268     1  180.0000771  0.4184000  2
   5642   5648  11272  11268     1  0.0000000  1.6024720  3
   5648  11272  11268  11267     1  180.0000771  0.4184000  2
   5648  11272  11268  11267     1  0.0000000  1.6024720  3
   5648  11272  11268  11284     1  180.0000771  5.6484000  1
   5648  11272  11268  11284     1  180.0000771  3.5564000  2
   5648  11272  11268  11284     1  0.0000000  0.4184000  3
   5651  11295  11291  11307     1  180.0000771  5.6484000  1
   5651  11295  11291  11307     1  180.0000771  3.5564000  2
   5651  11295  11291  11307     1  0.0000000  0.4184000  3
   5651  11295  11291  11290     1  180.0000771  0.4184000  2
   5651  11295  11291  11290     1  0.0000000  1.6024720  3
   5655   5656   5668   5680     1  0.0000000  0.6508444  3
   5655   5659   5671   5677     1  0.0000000  0.6508444  3
   5655   5662   5665   5674     1  0.0000000  0.6508444  3
   5656   5655   5659   5671     1  180.0000771  2.0083200  2
   5656   5655   5659   5671     1  0.0000000  1.2552000  3
   5656   5655   5662   5665     1  180.0000771  2.0083200  2
   5656   5655   5662   5665     1  0.0000000  1.2552000  3
   5656   5668   5680  11341     1  0.0000000  0.6508444  3
   5659   5655   5656   5668     1  180.0000771  2.0083200  2
   5659   5655   5656   5668     1  0.0000000  1.2552000  3
   5659   5655   5662   5665     1  180.0000771  2.0083200  2
   5659   5655   5662   5665     1  0.0000000  1.2552000  3
   5659   5671   5677  11318     1  0.0000000  0.6508444  3
   5662   5655   5656   5668     1  180.0000771  2.0083200  2
   5662   5655   5656   5668     1  0.0000000  1.2552000  3
   5662   5655   5659   5671     1  180.0000771  2.0083200  2
   5662   5655   5659   5671     1  0.0000000  1.2552000  3
   5662   5665   5674   5683     1  0.0000000  0.6508444  3
   5668   5680  11341  11337     1  180.0000771  0.4184000  2
   5668   5680  11341  11337     1  0.0000000  1.6024720  3
   5671   5677  11318  11314     1  180.0000771  0.4184000  2
   5671   5677  11318  11314     1  0.0000000  1.6024720  3
   5677  11318  11314  11313     1  180.0000771  0.4184000  2
   5677  11318  11314  11313     1  0.0000000  1.6024720  3
   5677  11318  11314  11330     1  180.0000771  5.6484000  1
   5677  11318  11314  11330     1  180.0000771  3.5564000  2
   5677  11318  11314  11330     1  0.0000000  0.4184000  3
   5680  11341  11337  11353     1  180.0000771  5.6484000  1
   5680  11341  11337  11353     1  180.0000771  3.5564000  2
   5680  11341  11337  11353     1  0.0000000  0.4184000  3
   5680  11341  11337  11336     1  180.0000771  0.4184000  2
   5680  11341  11337  11336     1  0.0000000  1.6024720  3
   5684   5685   5697   5709     1  0.0000000  0.6508444  3
   5684   5688   5700   5706     1  0.0000000  0.6508444  3
   5684   5691   5694   5703     1  0.0000000  0.6508444  3
   5685   5684   5688   5700     1  180.0000771  2.0083200  2
   5685   5684   5688   5700     1  0.0000000  1.2552000  3
   5685   5684   5691   5694     1  180.0000771  2.0083200  2
   5685   5684   5691   5694     1  0.0000000  1.2552000  3
   5685   5697   5709  11387     1  0.0000000  0.6508444  3
   5688   5684   5685   5697     1  180.0000771  2.0083200  2
   5688   5684   5685   5697     1  0.0000000  1.2552000  3
   5688   5684   5691   5694     1  180.0000771  2.0083200  2
   5688   5684   5691   5694     1  0.0000000  1.2552000  3
   5688   5700   5706  11364     1  0.0000000  0.6508444  3
   5691   5684   5685   5697     1  180.0000771  2.0083200  2
   5691   5684   5685   5697     1  0.0000000  1.2552000  3
   5691   5684   5688   5700     1  180.0000771  2.0083200  2
   5691   5684   5688   5700     1  0.0000000  1.2552000  3
   5691   5694   5703   5712     1  0.0000000  0.6508444  3
   5697   5709  11387  11383     1  180.0000771  0.4184000  2
   5697   5709  11387  11383     1  0.0000000  1.6024720  3
   5700   5706  11364  11360     1  180.0000771  0.4184000  2
   5700   5706  11364  11360     1  0.0000000  1.6024720  3
   5706  11364  11360  11359     1  180.0000771  0.4184000  2
   5706  11364  11360  11359     1  0.0000000  1.6024720  3
   5706  11364  11360  11376     1  180.0000771  5.6484000  1
   5706  11364  11360  11376     1  180.0000771  3.5564000  2
   5706  11364  11360  11376     1  0.0000000  0.4184000  3
   5709  11387  11383  11399     1  180.0000771  5.6484000  1
   5709  11387  11383  11399     1  180.0000771  3.5564000  2
   5709  11387  11383  11399     1  0.0000000  0.4184000  3
   5709  11387  11383  11382     1  180.0000771  0.4184000  2
   5709  11387  11383  11382     1  0.0000000  1.6024720  3
   5713   5714   5726   5738     1  0.0000000  0.6508444  3
   5713   5717   5729   5735     1  0.0000000  0.6508444  3
   5713   5720   5723   5732     1  0.0000000  0.6508444  3
   5714   5713   5717   5729     1  180.0000771  2.0083200  2
   5714   5713   5717   5729     1  0.0000000  1.2552000  3
   5714   5713   5720   5723     1  180.0000771  2.0083200  2
   5714   5713   5720   5723     1  0.0000000  1.2552000  3
   5714   5726   5738  11433     1  0.0000000  0.6508444  3
   5717   5713   5714   5726     1  180.0000771  2.0083200  2
   5717   5713   5714   5726     1  0.0000000  1.2552000  3
   5717   5713   5720   5723     1  180.0000771  2.0083200  2
   5717   5713   5720   5723     1  0.0000000  1.2552000  3
   5717   5729   5735  11410     1  0.0000000  0.6508444  3
   5720   5713   5714   5726     1  180.0000771  2.0083200  2
   5720   5713   5714   5726     1  0.0000000  1.2552000  3
   5720   5713   5717   5729     1  180.0000771  2.0083200  2
   5720   5713   5717   5729     1  0.0000000  1.2552000  3
   5720   5723   5732   5741     1  0.0000000  0.6508444  3
   5726   5738  11433  11429     1  180.0000771  0.4184000  2
   5726   5738  11433  11429     1  0.0000000  1.6024720  3
   5729   5735  11410  11406     1  180.0000771  0.4184000  2
   5729   5735  11410  11406     1  0.0000000  1.6024720  3
   5735  11410  11406  11405     1  180.0000771  0.4184000  2
   5735  11410  11406  11405     1  0.0000000  1.6024720  3
   5735  11410  11406  11422     1  180.0000771  5.6484000  1
   5735  11410  11406  11422     1  180.0000771  3.5564000  2
   5735  11410  11406  11422     1  0.0000000  0.4184000  3
   5738  11433  11429  11445     1  180.0000771  5.6484000  1
   5738  11433  11429  11445     1  180.0000771  3.5564000  2
   5738  11433  11429  11445     1  0.0000000  0.4184000  3
   5738  11433  11429  11428     1  180.0000771  0.4184000  2
   5738  11433  11429  11428     1  0.0000000  1.6024720  3
   5742   5743   5755   5767     1  0.0000000  0.6508444  3
   5742   5746   5758   5764     1  0.0000000  0.6508444  3
   5742   5749   5752   5761     1  0.0000000  0.6508444  3
   5743   5742   5746   5758     1  180.0000771  2.0083200  2
   5743   5742   5746   5758     1  0.0000000  1.2552000  3
   5743   5742   5749   5752     1  180.0000771  2.0083200  2
   5743   5742   5749   5752     1  0.0000000  1.2552000  3
   5743   5755   5767  11479     1  0.0000000  0.6508444  3
   5746   5742   5743   5755     1  180.0000771  2.0083200  2
   5746   5742   5743   5755     1  0.0000000  1.2552000  3
   5746   5742   5749   5752     1  180.0000771  2.0083200  2
   5746   5742   5749   5752     1  0.0000000  1.2552000  3
   5746   5758   5764  11456     1  0.0000000  0.6508444  3
   5749   5742   5743   5755     1  180.0000771  2.0083200  2
   5749   5742   5743   5755     1  0.0000000  1.2552000  3
   5749   5742   5746   5758     1  180.0000771  2.0083200  2
   5749   5742   5746   5758     1  0.0000000  1.2552000  3
   5749   5752   5761   5770     1  0.0000000  0.6508444  3
   5755   5767  11479  11475     1  180.0000771  0.4184000  2
   5755   5767  11479  11475     1  0.0000000  1.6024720  3
   5758   5764  11456  11452     1  180.0000771  0.4184000  2
   5758   5764  11456  11452     1  0.0000000  1.6024720  3
   5764  11456  11452  11451     1  180.0000771  0.4184000  2
   5764  11456  11452  11451     1  0.0000000  1.6024720  3
   5764  11456  11452  11468     1  180.0000771  5.6484000  1
   5764  11456  11452  11468     1  180.0000771  3.5564000  2
   5764  11456  11452  11468     1  0.0000000  0.4184000  3
   5767  11479  11475  11491     1  180.0000771  5.6484000  1
   5767  11479  11475  11491     1  180.0000771  3.5564000  2
   5767  11479  11475  11491     1  0.0000000  0.4184000  3
   5767  11479  11475  11474     1  180.0000771  0.4184000  2
   5767  11479  11475  11474     1  0.0000000  1.6024720  3
   5771   5772   5784   5796     1  0.0000000  0.6508444  3
   5771   5775   5787   5793     1  0.0000000  0.6508444  3
   5771   5778   5781   5790     1  0.0000000  0.6508444  3
   5772   5771   5775   5787     1  180.0000771  2.0083200  2
   5772   5771   5775   5787     1  0.0000000  1.2552000  3
   5772   5771   5778   5781     1  180.0000771  2.0083200  2
   5772   5771   5778   5781     1  0.0000000  1.2552000  3
   5772   5784   5796  11525     1  0.0000000  0.6508444  3
   5775   5771   5772   5784     1  180.0000771  2.0083200  2
   5775   5771   5772   5784     1  0.0000000  1.2552000  3
   5775   5771   5778   5781     1  180.0000771  2.0083200  2
   5775   5771   5778   5781     1  0.0000000  1.2552000  3
   5775   5787   5793  11502     1  0.0000000  0.6508444  3
   5778   5771   5772   5784     1  180.0000771  2.0083200  2
   5778   5771   5772   5784     1  0.0000000  1.2552000  3
   5778   5771   5775   5787     1  180.0000771  2.0083200  2
   5778   5771   5775   5787     1  0.0000000  1.2552000  3
   5778   5781   5790   5799     1  0.0000000  0.6508444  3
   5784   5796  11525  11521     1  180.0000771  0.4184000  2
   5784   5796  11525  11521     1  0.0000000  1.6024720  3
   5787   5793  11502  11498     1  180.0000771  0.4184000  2
   5787   5793  11502  11498     1  0.0000000  1.6024720  3
   5793  11502  11498  11497     1  180.0000771  0.4184000  2
   5793  11502  11498  11497     1  0.0000000  1.6024720  3
   5793  11502  11498  11514     1  180.0000771  5.6484000  1
   5793  11502  11498  11514     1  180.0000771  3.5564000  2
   5793  11502  11498  11514     1  0.0000000  0.4184000  3
   5796  11525  11521  11537     1  180.0000771  5.6484000  1
   5796  11525  11521  11537     1  180.0000771  3.5564000  2
   5796  11525  11521  11537     1  0.0000000  0.4184000  3
   5796  11525  11521  11520     1  180.0000771  0.4184000  2
   5796  11525  11521  11520     1  0.0000000  1.6024720  3
   5800   5801   5813   5825     1  0.0000000  0.6508444  3
   5800   5804   5816   5822     1  0.0000000  0.6508444  3
   5800   5807   5810   5819     1  0.0000000  0.6508444  3
   5801   5800   5804   5816     1  180.0000771  2.0083200  2
   5801   5800   5804   5816     1  0.0000000  1.2552000  3
   5801   5800   5807   5810     1  180.0000771  2.0083200  2
   5801   5800   5807   5810     1  0.0000000  1.2552000  3
   5801   5813   5825  11571     1  0.0000000  0.6508444  3
   5804   5800   5801   5813     1  180.0000771  2.0083200  2
   5804   5800   5801   5813     1  0.0000000  1.2552000  3
   5804   5800   5807   5810     1  180.0000771  2.0083200  2
   5804   5800   5807   5810     1  0.0000000  1.2552000  3
   5804   5816   5822  11548     1  0.0000000  0.6508444  3
   5807   5800   5801   5813     1  180.0000771  2.0083200  2
   5807   5800   5801   5813     1  0.0000000  1.2552000  3
   5807   5800   5804   5816     1  180.0000771  2.0083200  2
   5807   5800   5804   5816     1  0.0000000  1.2552000  3
   5807   5810   5819   5828     1  0.0000000  0.6508444  3
   5813   5825  11571  11567     1  180.0000771  0.4184000  2
   5813   5825  11571  11567     1  0.0000000  1.6024720  3
   5816   5822  11548  11544     1  180.0000771  0.4184000  2
   5816   5822  11548  11544     1  0.0000000  1.6024720  3
   5822  11548  11544  11543     1  180.0000771  0.4184000  2
   5822  11548  11544  11543     1  0.0000000  1.6024720  3
   5822  11548  11544  11560     1  180.0000771  5.6484000  1
   5822  11548  11544  11560     1  180.0000771  3.5564000  2
   5822  11548  11544  11560     1  0.0000000  0.4184000  3
   5825  11571  11567  11583     1  180.0000771  5.6484000  1
   5825  11571  11567  11583     1  180.0000771  3.5564000  2
   5825  11571  11567  11583     1  0.0000000  0.4184000  3
   5825  11571  11567  11566     1  180.0000771  0.4184000  2
   5825  11571  11567  11566     1  0.0000000  1.6024720  3
   5829   5830   5842   5854     1  0.0000000  0.6508444  3
   5829   5833   5845   5851     1  0.0000000  0.6508444  3
   5829   5836   5839   5848     1  0.0000000  0.6508444  3
   5830   5829   5833   5845     1  180.0000771  2.0083200  2
   5830   5829   5833   5845     1  0.0000000  1.2552000  3
   5830   5829   5836   5839     1  180.0000771  2.0083200  2
   5830   5829   5836   5839     1  0.0000000  1.2552000  3
   5830   5842   5854  11617     1  0.0000000  0.6508444  3
   5833   5829   5830   5842     1  180.0000771  2.0083200  2
   5833   5829   5830   5842     1  0.0000000  1.2552000  3
   5833   5829   5836   5839     1  180.0000771  2.0083200  2
   5833   5829   5836   5839     1  0.0000000  1.2552000  3
   5833   5845   5851  11594     1  0.0000000  0.6508444  3
   5836   5829   5830   5842     1  180.0000771  2.0083200  2
   5836   5829   5830   5842     1  0.0000000  1.2552000  3
   5836   5829   5833   5845     1  180.0000771  2.0083200  2
   5836   5829   5833   5845     1  0.0000000  1.2552000  3
   5836   5839   5848   5857     1  0.0000000  0.6508444  3
   5842   5854  11617  11613     1  180.0000771  0.4184000  2
   5842   5854  11617  11613     1  0.0000000  1.6024720  3
   5845   5851  11594  11590     1  180.0000771  0.4184000  2
   5845   5851  11594  11590     1  0.0000000  1.6024720  3
   5851  11594  11590  11589     1  180.0000771  0.4184000  2
   5851  11594  11590  11589     1  0.0000000  1.6024720  3
   5851  11594  11590  11606     1  180.0000771  5.6484000  1
   5851  11594  11590  11606     1  180.0000771  3.5564000  2
   5851  11594  11590  11606     1  0.0000000  0.4184000  3
   5854  11617  11613  11629     1  180.0000771  5.6484000  1
   5854  11617  11613  11629     1  180.0000771  3.5564000  2
   5854  11617  11613  11629     1  0.0000000  0.4184000  3
   5854  11617  11613  11612     1  180.0000771  0.4184000  2
   5854  11617  11613  11612     1  0.0000000  1.6024720  3
   5858   5859   5871   5883     1  0.0000000  0.6508444  3
   5858   5862   5874   5880     1  0.0000000  0.6508444  3
   5858   5865   5868   5877     1  0.0000000  0.6508444  3
   5859   5858   5862   5874     1  180.0000771  2.0083200  2
   5859   5858   5862   5874     1  0.0000000  1.2552000  3
   5859   5858   5865   5868     1  180.0000771  2.0083200  2
   5859   5858   5865   5868     1  0.0000000  1.2552000  3
   5859   5871   5883  11663     1  0.0000000  0.6508444  3
   5862   5858   5859   5871     1  180.0000771  2.0083200  2
   5862   5858   5859   5871     1  0.0000000  1.2552000  3
   5862   5858   5865   5868     1  180.0000771  2.0083200  2
   5862   5858   5865   5868     1  0.0000000  1.2552000  3
   5862   5874   5880  11640     1  0.0000000  0.6508444  3
   5865   5858   5859   5871     1  180.0000771  2.0083200  2
   5865   5858   5859   5871     1  0.0000000  1.2552000  3
   5865   5858   5862   5874     1  180.0000771  2.0083200  2
   5865   5858   5862   5874     1  0.0000000  1.2552000  3
   5865   5868   5877   5886     1  0.0000000  0.6508444  3
   5871   5883  11663  11659     1  180.0000771  0.4184000  2
   5871   5883  11663  11659     1  0.0000000  1.6024720  3
   5874   5880  11640  11636     1  180.0000771  0.4184000  2
   5874   5880  11640  11636     1  0.0000000  1.6024720  3
   5880  11640  11636  11635     1  180.0000771  0.4184000  2
   5880  11640  11636  11635     1  0.0000000  1.6024720  3
   5880  11640  11636  11652     1  180.0000771  5.6484000  1
   5880  11640  11636  11652     1  180.0000771  3.5564000  2
   5880  11640  11636  11652     1  0.0000000  0.4184000  3
   5883  11663  11659  11675     1  180.0000771  5.6484000  1
   5883  11663  11659  11675     1  180.0000771  3.5564000  2
   5883  11663  11659  11675     1  0.0000000  0.4184000  3
   5883  11663  11659  11658     1  180.0000771  0.4184000  2
   5883  11663  11659  11658     1  0.0000000  1.6024720  3
   5887   5888   5900   5912     1  0.0000000  0.6508444  3
   5887   5891   5903   5909     1  0.0000000  0.6508444  3
   5887   5894   5897   5906     1  0.0000000  0.6508444  3
   5888   5887   5891   5903     1  180.0000771  2.0083200  2
   5888   5887   5891   5903     1  0.0000000  1.2552000  3
   5888   5887   5894   5897     1  180.0000771  2.0083200  2
   5888   5887   5894   5897     1  0.0000000  1.2552000  3
   5888   5900   5912  11709     1  0.0000000  0.6508444  3
   5891   5887   5888   5900     1  180.0000771  2.0083200  2
   5891   5887   5888   5900     1  0.0000000  1.2552000  3
   5891   5887   5894   5897     1  180.0000771  2.0083200  2
   5891   5887   5894   5897     1  0.0000000  1.2552000  3
   5891   5903   5909  11686     1  0.0000000  0.6508444  3
   5894   5887   5888   5900     1  180.0000771  2.0083200  2
   5894   5887   5888   5900     1  0.0000000  1.2552000  3
   5894   5887   5891   5903     1  180.0000771  2.0083200  2
   5894   5887   5891   5903     1  0.0000000  1.2552000  3
   5894   5897   5906   5915     1  0.0000000  0.6508444  3
   5900   5912  11709  11705     1  180.0000771  0.4184000  2
   5900   5912  11709  11705     1  0.0000000  1.6024720  3
   5903   5909  11686  11682     1  180.0000771  0.4184000  2
   5903   5909  11686  11682     1  0.0000000  1.6024720  3
   5909  11686  11682  11681     1  180.0000771  0.4184000  2
   5909  11686  11682  11681     1  0.0000000  1.6024720  3
   5909  11686  11682  11698     1  180.0000771  5.6484000  1
   5909  11686  11682  11698     1  180.0000771  3.5564000  2
   5909  11686  11682  11698     1  0.0000000  0.4184000  3
   5912  11709  11705  11721     1  180.0000771  5.6484000  1
   5912  11709  11705  11721     1  180.0000771  3.5564000  2
   5912  11709  11705  11721     1  0.0000000  0.4184000  3
   5912  11709  11705  11704     1  180.0000771  0.4184000  2
   5912  11709  11705  11704     1  0.0000000  1.6024720  3
   5916   5917   5929   5941     1  0.0000000  0.6508444  3
   5916   5920   5932   5938     1  0.0000000  0.6508444  3
   5916   5923   5926   5935     1  0.0000000  0.6508444  3
   5917   5916   5920   5932     1  180.0000771  2.0083200  2
   5917   5916   5920   5932     1  0.0000000  1.2552000  3
   5917   5916   5923   5926     1  180.0000771  2.0083200  2
   5917   5916   5923   5926     1  0.0000000  1.2552000  3
   5917   5929   5941  11755     1  0.0000000  0.6508444  3
   5920   5916   5917   5929     1  180.0000771  2.0083200  2
   5920   5916   5917   5929     1  0.0000000  1.2552000  3
   5920   5916   5923   5926     1  180.0000771  2.0083200  2
   5920   5916   5923   5926     1  0.0000000  1.2552000  3
   5920   5932   5938  11732     1  0.0000000  0.6508444  3
   5923   5916   5917   5929     1  180.0000771  2.0083200  2
   5923   5916   5917   5929     1  0.0000000  1.2552000  3
   5923   5916   5920   5932     1  180.0000771  2.0083200  2
   5923   5916   5920   5932     1  0.0000000  1.2552000  3
   5923   5926   5935   5944     1  0.0000000  0.6508444  3
   5929   5941  11755  11751     1  180.0000771  0.4184000  2
   5929   5941  11755  11751     1  0.0000000  1.6024720  3
   5932   5938  11732  11728     1  180.0000771  0.4184000  2
   5932   5938  11732  11728     1  0.0000000  1.6024720  3
   5938  11732  11728  11727     1  180.0000771  0.4184000  2
   5938  11732  11728  11727     1  0.0000000  1.6024720  3
   5938  11732  11728  11744     1  180.0000771  5.6484000  1
   5938  11732  11728  11744     1  180.0000771  3.5564000  2
   5938  11732  11728  11744     1  0.0000000  0.4184000  3
   5941  11755  11751  11767     1  180.0000771  5.6484000  1
   5941  11755  11751  11767     1  180.0000771  3.5564000  2
   5941  11755  11751  11767     1  0.0000000  0.4184000  3
   5941  11755  11751  11750     1  180.0000771  0.4184000  2
   5941  11755  11751  11750     1  0.0000000  1.6024720  3
   5945   5946   5958   5970     1  0.0000000  0.6508444  3
   5945   5949   5961   5967     1  0.0000000  0.6508444  3
   5945   5952   5955   5964     1  0.0000000  0.6508444  3
   5946   5945   5949   5961     1  180.0000771  2.0083200  2
   5946   5945   5949   5961     1  0.0000000  1.2552000  3
   5946   5945   5952   5955     1  180.0000771  2.0083200  2
   5946   5945   5952   5955     1  0.0000000  1.2552000  3
   5946   5958   5970  11801     1  0.0000000  0.6508444  3
   5949   5945   5946   5958     1  180.0000771  2.0083200  2
   5949   5945   5946   5958     1  0.0000000  1.2552000  3
   5949   5945   5952   5955     1  180.0000771  2.0083200  2
   5949   5945   5952   5955     1  0.0000000  1.2552000  3
   5949   5961   5967  11778     1  0.0000000  0.6508444  3
   5952   5945   5946   5958     1  180.0000771  2.0083200  2
   5952   5945   5946   5958     1  0.0000000  1.2552000  3
   5952   5945   5949   5961     1  180.0000771  2.0083200  2
   5952   5945   5949   5961     1  0.0000000  1.2552000  3
   5952   5955   5964   5973     1  0.0000000  0.6508444  3
   5958   5970  11801  11797     1  180.0000771  0.4184000  2
   5958   5970  11801  11797     1  0.0000000  1.6024720  3
   5961   5967  11778  11774     1  180.0000771  0.4184000  2
   5961   5967  11778  11774     1  0.0000000  1.6024720  3
   5967  11778  11774  11773     1  180.0000771  0.4184000  2
   5967  11778  11774  11773     1  0.0000000  1.6024720  3
   5967  11778  11774  11790     1  180.0000771  5.6484000  1
   5967  11778  11774  11790     1  180.0000771  3.5564000  2
   5967  11778  11774  11790     1  0.0000000  0.4184000  3
   5970  11801  11797  11813     1  180.0000771  5.6484000  1
   5970  11801  11797  11813     1  180.0000771  3.5564000  2
   5970  11801  11797  11813     1  0.0000000  0.4184000  3
   5970  11801  11797  11796     1  180.0000771  0.4184000  2
   5970  11801  11797  11796     1  0.0000000  1.6024720  3
   5974   5975   5987   5999     1  0.0000000  0.6508444  3
   5974   5978   5990   5996     1  0.0000000  0.6508444  3
   5974   5981   5984   5993     1  0.0000000  0.6508444  3
   5975   5974   5978   5990     1  180.0000771  2.0083200  2
   5975   5974   5978   5990     1  0.0000000  1.2552000  3
   5975   5974   5981   5984     1  180.0000771  2.0083200  2
   5975   5974   5981   5984     1  0.0000000  1.2552000  3
   5975   5987   5999  11847     1  0.0000000  0.6508444  3
   5978   5974   5975   5987     1  180.0000771  2.0083200  2
   5978   5974   5975   5987     1  0.0000000  1.2552000  3
   5978   5974   5981   5984     1  180.0000771  2.0083200  2
   5978   5974   5981   5984     1  0.0000000  1.2552000  3
   5978   5990   5996  11824     1  0.0000000  0.6508444  3
   5981   5974   5975   5987     1  180.0000771  2.0083200  2
   5981   5974   5975   5987     1  0.0000000  1.2552000  3
   5981   5974   5978   5990     1  180.0000771  2.0083200  2
   5981   5974   5978   5990     1  0.0000000  1.2552000  3
   5981   5984   5993   6002     1  0.0000000  0.6508444  3
   5987   5999  11847  11843     1  180.0000771  0.4184000  2
   5987   5999  11847  11843     1  0.0000000  1.6024720  3
   5990   5996  11824  11820     1  180.0000771  0.4184000  2
   5990   5996  11824  11820     1  0.0000000  1.6024720  3
   5996  11824  11820  11819     1  180.0000771  0.4184000  2
   5996  11824  11820  11819     1  0.0000000  1.6024720  3
   5996  11824  11820  11836     1  180.0000771  5.6484000  1
   5996  11824  11820  11836     1  180.0000771  3.5564000  2
   5996  11824  11820  11836     1  0.0000000  0.4184000  3
   5999  11847  11843  11859     1  180.0000771  5.6484000  1
   5999  11847  11843  11859     1  180.0000771  3.5564000  2
   5999  11847  11843  11859     1  0.0000000  0.4184000  3
   5999  11847  11843  11842     1  180.0000771  0.4184000  2
   5999  11847  11843  11842     1  0.0000000  1.6024720  3
   6003   6004   6016   6028     1  0.0000000  0.6508444  3
   6003   6007   6019   6025     1  0.0000000  0.6508444  3
   6003   6010   6013   6022     1  0.0000000  0.6508444  3
   6004   6003   6007   6019     1  180.0000771  2.0083200  2
   6004   6003   6007   6019     1  0.0000000  1.2552000  3
   6004   6003   6010   6013     1  180.0000771  2.0083200  2
   6004   6003   6010   6013     1  0.0000000  1.2552000  3
   6004   6016   6028  11893     1  0.0000000  0.6508444  3
   6007   6003   6004   6016     1  180.0000771  2.0083200  2
   6007   6003   6004   6016     1  0.0000000  1.2552000  3
   6007   6003   6010   6013     1  180.0000771  2.0083200  2
   6007   6003   6010   6013     1  0.0000000  1.2552000  3
   6007   6019   6025  11870     1  0.0000000  0.6508444  3
   6010   6003   6004   6016     1  180.0000771  2.0083200  2
   6010   6003   6004   6016     1  0.0000000  1.2552000  3
   6010   6003   6007   6019     1  180.0000771  2.0083200  2
   6010   6003   6007   6019     1  0.0000000  1.2552000  3
   6010   6013   6022   6031     1  0.0000000  0.6508444  3
   6016   6028  11893  11889     1  180.0000771  0.4184000  2
   6016   6028  11893  11889     1  0.0000000  1.6024720  3
   6019   6025  11870  11866     1  180.0000771  0.4184000  2
   6019   6025  11870  11866     1  0.0000000  1.6024720  3
   6025  11870  11866  11865     1  180.0000771  0.4184000  2
   6025  11870  11866  11865     1  0.0000000  1.6024720  3
   6025  11870  11866  11882     1  180.0000771  5.6484000  1
   6025  11870  11866  11882     1  180.0000771  3.5564000  2
   6025  11870  11866  11882     1  0.0000000  0.4184000  3
   6028  11893  11889  11905     1  180.0000771  5.6484000  1
   6028  11893  11889  11905     1  180.0000771  3.5564000  2
   6028  11893  11889  11905     1  0.0000000  0.4184000  3
   6028  11893  11889  11888     1  180.0000771  0.4184000  2
   6028  11893  11889  11888     1  0.0000000  1.6024720  3
   6032   6033   6045   6057     1  0.0000000  0.6508444  3
   6032   6036   6048   6054     1  0.0000000  0.6508444  3
   6032   6039   6042   6051     1  0.0000000  0.6508444  3
   6033   6032   6036   6048     1  180.0000771  2.0083200  2
   6033   6032   6036   6048     1  0.0000000  1.2552000  3
   6033   6032   6039   6042     1  180.0000771  2.0083200  2
   6033   6032   6039   6042     1  0.0000000  1.2552000  3
   6033   6045   6057  11939     1  0.0000000  0.6508444  3
   6036   6032   6033   6045     1  180.0000771  2.0083200  2
   6036   6032   6033   6045     1  0.0000000  1.2552000  3
   6036   6032   6039   6042     1  180.0000771  2.0083200  2
   6036   6032   6039   6042     1  0.0000000  1.2552000  3
   6036   6048   6054  11916     1  0.0000000  0.6508444  3
   6039   6032   6033   6045     1  180.0000771  2.0083200  2
   6039   6032   6033   6045     1  0.0000000  1.2552000  3
   6039   6032   6036   6048     1  180.0000771  2.0083200  2
   6039   6032   6036   6048     1  0.0000000  1.2552000  3
   6039   6042   6051   6060     1  0.0000000  0.6508444  3
   6045   6057  11939  11935     1  180.0000771  0.4184000  2
   6045   6057  11939  11935     1  0.0000000  1.6024720  3
   6048   6054  11916  11912     1  180.0000771  0.4184000  2
   6048   6054  11916  11912     1  0.0000000  1.6024720  3
   6054  11916  11912  11911     1  180.0000771  0.4184000  2
   6054  11916  11912  11911     1  0.0000000  1.6024720  3
   6054  11916  11912  11928     1  180.0000771  5.6484000  1
   6054  11916  11912  11928     1  180.0000771  3.5564000  2
   6054  11916  11912  11928     1  0.0000000  0.4184000  3
   6057  11939  11935  11951     1  180.0000771  5.6484000  1
   6057  11939  11935  11951     1  180.0000771  3.5564000  2
   6057  11939  11935  11951     1  0.0000000  0.4184000  3
   6057  11939  11935  11934     1  180.0000771  0.4184000  2
   6057  11939  11935  11934     1  0.0000000  1.6024720  3
   6061   6062   6074   6086     1  0.0000000  0.6508444  3
   6061   6065   6077   6083     1  0.0000000  0.6508444  3
   6061   6068   6071   6080     1  0.0000000  0.6508444  3
   6062   6061   6065   6077     1  180.0000771  2.0083200  2
   6062   6061   6065   6077     1  0.0000000  1.2552000  3
   6062   6061   6068   6071     1  180.0000771  2.0083200  2
   6062   6061   6068   6071     1  0.0000000  1.2552000  3
   6062   6074   6086  11985     1  0.0000000  0.6508444  3
   6065   6061   6062   6074     1  180.0000771  2.0083200  2
   6065   6061   6062   6074     1  0.0000000  1.2552000  3
   6065   6061   6068   6071     1  180.0000771  2.0083200  2
   6065   6061   6068   6071     1  0.0000000  1.2552000  3
   6065   6077   6083  11962     1  0.0000000  0.6508444  3
   6068   6061   6062   6074     1  180.0000771  2.0083200  2
   6068   6061   6062   6074     1  0.0000000  1.2552000  3
   6068   6061   6065   6077     1  180.0000771  2.0083200  2
   6068   6061   6065   6077     1  0.0000000  1.2552000  3
   6068   6071   6080   6089     1  0.0000000  0.6508444  3
   6074   6086  11985  11981     1  180.0000771  0.4184000  2
   6074   6086  11985  11981     1  0.0000000  1.6024720  3
   6077   6083  11962  11958     1  180.0000771  0.4184000  2
   6077   6083  11962  11958     1  0.0000000  1.6024720  3
   6083  11962  11958  11957     1  180.0000771  0.4184000  2
   6083  11962  11958  11957     1  0.0000000  1.6024720  3
   6083  11962  11958  11974     1  180.0000771  5.6484000  1
   6083  11962  11958  11974     1  180.0000771  3.5564000  2
   6083  11962  11958  11974     1  0.0000000  0.4184000  3
   6086  11985  11981  11997     1  180.0000771  5.6484000  1
   6086  11985  11981  11997     1  180.0000771  3.5564000  2
   6086  11985  11981  11997     1  0.0000000  0.4184000  3
   6086  11985  11981  11980     1  180.0000771  0.4184000  2
   6086  11985  11981  11980     1  0.0000000  1.6024720  3
   6090   6091   6103   6115     1  0.0000000  0.6508444  3
   6090   6094   6106   6112     1  0.0000000  0.6508444  3
   6090   6097   6100   6109     1  0.0000000  0.6508444  3
   6091   6090   6094   6106     1  180.0000771  2.0083200  2
   6091   6090   6094   6106     1  0.0000000  1.2552000  3
   6091   6090   6097   6100     1  180.0000771  2.0083200  2
   6091   6090   6097   6100     1  0.0000000  1.2552000  3
   6091   6103   6115  12031     1  0.0000000  0.6508444  3
   6094   6090   6091   6103     1  180.0000771  2.0083200  2
   6094   6090   6091   6103     1  0.0000000  1.2552000  3
   6094   6090   6097   6100     1  180.0000771  2.0083200  2
   6094   6090   6097   6100     1  0.0000000  1.2552000  3
   6094   6106   6112  12008     1  0.0000000  0.6508444  3
   6097   6090   6091   6103     1  180.0000771  2.0083200  2
   6097   6090   6091   6103     1  0.0000000  1.2552000  3
   6097   6090   6094   6106     1  180.0000771  2.0083200  2
   6097   6090   6094   6106     1  0.0000000  1.2552000  3
   6097   6100   6109   6118     1  0.0000000  0.6508444  3
   6103   6115  12031  12027     1  180.0000771  0.4184000  2
   6103   6115  12031  12027     1  0.0000000  1.6024720  3
   6106   6112  12008  12004     1  180.0000771  0.4184000  2
   6106   6112  12008  12004     1  0.0000000  1.6024720  3
   6112  12008  12004  12003     1  180.0000771  0.4184000  2
   6112  12008  12004  12003     1  0.0000000  1.6024720  3
   6112  12008  12004  12020     1  180.0000771  5.6484000  1
   6112  12008  12004  12020     1  180.0000771  3.5564000  2
   6112  12008  12004  12020     1  0.0000000  0.4184000  3
   6115  12031  12027  12043     1  180.0000771  5.6484000  1
   6115  12031  12027  12043     1  180.0000771  3.5564000  2
   6115  12031  12027  12043     1  0.0000000  0.4184000  3
   6115  12031  12027  12026     1  180.0000771  0.4184000  2
   6115  12031  12027  12026     1  0.0000000  1.6024720  3
   6119   6120   6132   6144     1  0.0000000  0.6508444  3
   6119   6123   6135   6141     1  0.0000000  0.6508444  3
   6119   6126   6129   6138     1  0.0000000  0.6508444  3
   6120   6119   6123   6135     1  180.0000771  2.0083200  2
   6120   6119   6123   6135     1  0.0000000  1.2552000  3
   6120   6119   6126   6129     1  180.0000771  2.0083200  2
   6120   6119   6126   6129     1  0.0000000  1.2552000  3
   6120   6132   6144  12077     1  0.0000000  0.6508444  3
   6123   6119   6120   6132     1  180.0000771  2.0083200  2
   6123   6119   6120   6132     1  0.0000000  1.2552000  3
   6123   6119   6126   6129     1  180.0000771  2.0083200  2
   6123   6119   6126   6129     1  0.0000000  1.2552000  3
   6123   6135   6141  12054     1  0.0000000  0.6508444  3
   6126   6119   6120   6132     1  180.0000771  2.0083200  2
   6126   6119   6120   6132     1  0.0000000  1.2552000  3
   6126   6119   6123   6135     1  180.0000771  2.0083200  2
   6126   6119   6123   6135     1  0.0000000  1.2552000  3
   6126   6129   6138   6147     1  0.0000000  0.6508444  3
   6132   6144  12077  12073     1  180.0000771  0.4184000  2
   6132   6144  12077  12073     1  0.0000000  1.6024720  3
   6135   6141  12054  12050     1  180.0000771  0.4184000  2
   6135   6141  12054  12050     1  0.0000000  1.6024720  3
   6141  12054  12050  12049     1  180.0000771  0.4184000  2
   6141  12054  12050  12049     1  0.0000000  1.6024720  3
   6141  12054  12050  12066     1  180.0000771  5.6484000  1
   6141  12054  12050  12066     1  180.0000771  3.5564000  2
   6141  12054  12050  12066     1  0.0000000  0.4184000  3
   6144  12077  12073  12089     1  180.0000771  5.6484000  1
   6144  12077  12073  12089     1  180.0000771  3.5564000  2
   6144  12077  12073  12089     1  0.0000000  0.4184000  3
   6144  12077  12073  12072     1  180.0000771  0.4184000  2
   6144  12077  12073  12072     1  0.0000000  1.6024720  3
   6148   6149   6161   6173     1  0.0000000  0.6508444  3
   6148   6152   6164   6170     1  0.0000000  0.6508444  3
   6148   6155   6158   6167     1  0.0000000  0.6508444  3
   6149   6148   6152   6164     1  180.0000771  2.0083200  2
   6149   6148   6152   6164     1  0.0000000  1.2552000  3
   6149   6148   6155   6158     1  180.0000771  2.0083200  2
   6149   6148   6155   6158     1  0.0000000  1.2552000  3
   6149   6161   6173  12123     1  0.0000000  0.6508444  3
   6152   6148   6149   6161     1  180.0000771  2.0083200  2
   6152   6148   6149   6161     1  0.0000000  1.2552000  3
   6152   6148   6155   6158     1  180.0000771  2.0083200  2
   6152   6148   6155   6158     1  0.0000000  1.2552000  3
   6152   6164   6170  12100     1  0.0000000  0.6508444  3
   6155   6148   6149   6161     1  180.0000771  2.0083200  2
   6155   6148   6149   6161     1  0.0000000  1.2552000  3
   6155   6148   6152   6164     1  180.0000771  2.0083200  2
   6155   6148   6152   6164     1  0.0000000  1.2552000  3
   6155   6158   6167   6176     1  0.0000000  0.6508444  3
   6161   6173  12123  12119     1  180.0000771  0.4184000  2
   6161   6173  12123  12119     1  0.0000000  1.6024720  3
   6164   6170  12100  12096     1  180.0000771  0.4184000  2
   6164   6170  12100  12096     1  0.0000000  1.6024720  3
   6170  12100  12096  12095     1  180.0000771  0.4184000  2
   6170  12100  12096  12095     1  0.0000000  1.6024720  3
   6170  12100  12096  12112     1  180.0000771  5.6484000  1
   6170  12100  12096  12112     1  180.0000771  3.5564000  2
   6170  12100  12096  12112     1  0.0000000  0.4184000  3
   6173  12123  12119  12135     1  180.0000771  5.6484000  1
   6173  12123  12119  12135     1  180.0000771  3.5564000  2
   6173  12123  12119  12135     1  0.0000000  0.4184000  3
   6173  12123  12119  12118     1  180.0000771  0.4184000  2
   6173  12123  12119  12118     1  0.0000000  1.6024720  3
   6177   6178   6190   6202     1  0.0000000  0.6508444  3
   6177   6181   6193   6199     1  0.0000000  0.6508444  3
   6177   6184   6187   6196     1  0.0000000  0.6508444  3
   6178   6177   6181   6193     1  180.0000771  2.0083200  2
   6178   6177   6181   6193     1  0.0000000  1.2552000  3
   6178   6177   6184   6187     1  180.0000771  2.0083200  2
   6178   6177   6184   6187     1  0.0000000  1.2552000  3
   6178   6190   6202  12169     1  0.0000000  0.6508444  3
   6181   6177   6178   6190     1  180.0000771  2.0083200  2
   6181   6177   6178   6190     1  0.0000000  1.2552000  3
   6181   6177   6184   6187     1  180.0000771  2.0083200  2
   6181   6177   6184   6187     1  0.0000000  1.2552000  3
   6181   6193   6199  12146     1  0.0000000  0.6508444  3
   6184   6177   6178   6190     1  180.0000771  2.0083200  2
   6184   6177   6178   6190     1  0.0000000  1.2552000  3
   6184   6177   6181   6193     1  180.0000771  2.0083200  2
   6184   6177   6181   6193     1  0.0000000  1.2552000  3
   6184   6187   6196   6205     1  0.0000000  0.6508444  3
   6190   6202  12169  12165     1  180.0000771  0.4184000  2
   6190   6202  12169  12165     1  0.0000000  1.6024720  3
   6193   6199  12146  12142     1  180.0000771  0.4184000  2
   6193   6199  12146  12142     1  0.0000000  1.6024720  3
   6199  12146  12142  12141     1  180.0000771  0.4184000  2
   6199  12146  12142  12141     1  0.0000000  1.6024720  3
   6199  12146  12142  12158     1  180.0000771  5.6484000  1
   6199  12146  12142  12158     1  180.0000771  3.5564000  2
   6199  12146  12142  12158     1  0.0000000  0.4184000  3
   6202  12169  12165  12181     1  180.0000771  5.6484000  1
   6202  12169  12165  12181     1  180.0000771  3.5564000  2
   6202  12169  12165  12181     1  0.0000000  0.4184000  3
   6202  12169  12165  12164     1  180.0000771  0.4184000  2
   6202  12169  12165  12164     1  0.0000000  1.6024720  3
   6206   6207   6219   6231     1  0.0000000  0.6508444  3
   6206   6210   6222   6228     1  0.0000000  0.6508444  3
   6206   6213   6216   6225     1  0.0000000  0.6508444  3
   6207   6206   6210   6222     1  180.0000771  2.0083200  2
   6207   6206   6210   6222     1  0.0000000  1.2552000  3
   6207   6206   6213   6216     1  180.0000771  2.0083200  2
   6207   6206   6213   6216     1  0.0000000  1.2552000  3
   6207   6219   6231  12215     1  0.0000000  0.6508444  3
   6210   6206   6207   6219     1  180.0000771  2.0083200  2
   6210   6206   6207   6219     1  0.0000000  1.2552000  3
   6210   6206   6213   6216     1  180.0000771  2.0083200  2
   6210   6206   6213   6216     1  0.0000000  1.2552000  3
   6210   6222   6228  12192     1  0.0000000  0.6508444  3
   6213   6206   6207   6219     1  180.0000771  2.0083200  2
   6213   6206   6207   6219     1  0.0000000  1.2552000  3
   6213   6206   6210   6222     1  180.0000771  2.0083200  2
   6213   6206   6210   6222     1  0.0000000  1.2552000  3
   6213   6216   6225   6234     1  0.0000000  0.6508444  3
   6219   6231  12215  12211     1  180.0000771  0.4184000  2
   6219   6231  12215  12211     1  0.0000000  1.6024720  3
   6222   6228  12192  12188     1  180.0000771  0.4184000  2
   6222   6228  12192  12188     1  0.0000000  1.6024720  3
   6228  12192  12188  12187     1  180.0000771  0.4184000  2
   6228  12192  12188  12187     1  0.0000000  1.6024720  3
   6228  12192  12188  12204     1  180.0000771  5.6484000  1
   6228  12192  12188  12204     1  180.0000771  3.5564000  2
   6228  12192  12188  12204     1  0.0000000  0.4184000  3
   6231  12215  12211  12227     1  180.0000771  5.6484000  1
   6231  12215  12211  12227     1  180.0000771  3.5564000  2
   6231  12215  12211  12227     1  0.0000000  0.4184000  3
   6231  12215  12211  12210     1  180.0000771  0.4184000  2
   6231  12215  12211  12210     1  0.0000000  1.6024720  3
   6235   6236   6248   6260     1  0.0000000  0.6508444  3
   6235   6239   6251   6257     1  0.0000000  0.6508444  3
   6235   6242   6245   6254     1  0.0000000  0.6508444  3
   6236   6235   6239   6251     1  180.0000771  2.0083200  2
   6236   6235   6239   6251     1  0.0000000  1.2552000  3
   6236   6235   6242   6245     1  180.0000771  2.0083200  2
   6236   6235   6242   6245     1  0.0000000  1.2552000  3
   6236   6248   6260  12261     1  0.0000000  0.6508444  3
   6239   6235   6236   6248     1  180.0000771  2.0083200  2
   6239   6235   6236   6248     1  0.0000000  1.2552000  3
   6239   6235   6242   6245     1  180.0000771  2.0083200  2
   6239   6235   6242   6245     1  0.0000000  1.2552000  3
   6239   6251   6257  12238     1  0.0000000  0.6508444  3
   6242   6235   6236   6248     1  180.0000771  2.0083200  2
   6242   6235   6236   6248     1  0.0000000  1.2552000  3
   6242   6235   6239   6251     1  180.0000771  2.0083200  2
   6242   6235   6239   6251     1  0.0000000  1.2552000  3
   6242   6245   6254   6263     1  0.0000000  0.6508444  3
   6248   6260  12261  12257     1  180.0000771  0.4184000  2
   6248   6260  12261  12257     1  0.0000000  1.6024720  3
   6251   6257  12238  12234     1  180.0000771  0.4184000  2
   6251   6257  12238  12234     1  0.0000000  1.6024720  3
   6257  12238  12234  12233     1  180.0000771  0.4184000  2
   6257  12238  12234  12233     1  0.0000000  1.6024720  3
   6257  12238  12234  12250     1  180.0000771  5.6484000  1
   6257  12238  12234  12250     1  180.0000771  3.5564000  2
   6257  12238  12234  12250     1  0.0000000  0.4184000  3
   6260  12261  12257  12273     1  180.0000771  5.6484000  1
   6260  12261  12257  12273     1  180.0000771  3.5564000  2
   6260  12261  12257  12273     1  0.0000000  0.4184000  3
   6260  12261  12257  12256     1  180.0000771  0.4184000  2
   6260  12261  12257  12256     1  0.0000000  1.6024720  3
   6264   6265   6277   6289     1  0.0000000  0.6508444  3
   6264   6268   6280   6286     1  0.0000000  0.6508444  3
   6264   6271   6274   6283     1  0.0000000  0.6508444  3
   6265   6264   6268   6280     1  180.0000771  2.0083200  2
   6265   6264   6268   6280     1  0.0000000  1.2552000  3
   6265   6264   6271   6274     1  180.0000771  2.0083200  2
   6265   6264   6271   6274     1  0.0000000  1.2552000  3
   6265   6277   6289  12307     1  0.0000000  0.6508444  3
   6268   6264   6265   6277     1  180.0000771  2.0083200  2
   6268   6264   6265   6277     1  0.0000000  1.2552000  3
   6268   6264   6271   6274     1  180.0000771  2.0083200  2
   6268   6264   6271   6274     1  0.0000000  1.2552000  3
   6268   6280   6286  12284     1  0.0000000  0.6508444  3
   6271   6264   6265   6277     1  180.0000771  2.0083200  2
   6271   6264   6265   6277     1  0.0000000  1.2552000  3
   6271   6264   6268   6280     1  180.0000771  2.0083200  2
   6271   6264   6268   6280     1  0.0000000  1.2552000  3
   6271   6274   6283   6292     1  0.0000000  0.6508444  3
   6277   6289  12307  12303     1  180.0000771  0.4184000  2
   6277   6289  12307  12303     1  0.0000000  1.6024720  3
   6280   6286  12284  12280     1  180.0000771  0.4184000  2
   6280   6286  12284  12280     1  0.0000000  1.6024720  3
   6286  12284  12280  12279     1  180.0000771  0.4184000  2
   6286  12284  12280  12279     1  0.0000000  1.6024720  3
   6286  12284  12280  12296     1  180.0000771  5.6484000  1
   6286  12284  12280  12296     1  180.0000771  3.5564000  2
   6286  12284  12280  12296     1  0.0000000  0.4184000  3
   6289  12307  12303  12319     1  180.0000771  5.6484000  1
   6289  12307  12303  12319     1  180.0000771  3.5564000  2
   6289  12307  12303  12319     1  0.0000000  0.4184000  3
   6289  12307  12303  12302     1  180.0000771  0.4184000  2
   6289  12307  12303  12302     1  0.0000000  1.6024720  3
   6293   6294   6306   6318     1  0.0000000  0.6508444  3
   6293   6297   6309   6315     1  0.0000000  0.6508444  3
   6293   6300   6303   6312     1  0.0000000  0.6508444  3
   6294   6293   6297   6309     1  180.0000771  2.0083200  2
   6294   6293   6297   6309     1  0.0000000  1.2552000  3
   6294   6293   6300   6303     1  180.0000771  2.0083200  2
   6294   6293   6300   6303     1  0.0000000  1.2552000  3
   6294   6306   6318  12353     1  0.0000000  0.6508444  3
   6297   6293   6294   6306     1  180.0000771  2.0083200  2
   6297   6293   6294   6306     1  0.0000000  1.2552000  3
   6297   6293   6300   6303     1  180.0000771  2.0083200  2
   6297   6293   6300   6303     1  0.0000000  1.2552000  3
   6297   6309   6315  12330     1  0.0000000  0.6508444  3
   6300   6293   6294   6306     1  180.0000771  2.0083200  2
   6300   6293   6294   6306     1  0.0000000  1.2552000  3
   6300   6293   6297   6309     1  180.0000771  2.0083200  2
   6300   6293   6297   6309     1  0.0000000  1.2552000  3
   6300   6303   6312   6321     1  0.0000000  0.6508444  3
   6306   6318  12353  12349     1  180.0000771  0.4184000  2
   6306   6318  12353  12349     1  0.0000000  1.6024720  3
   6309   6315  12330  12326     1  180.0000771  0.4184000  2
   6309   6315  12330  12326     1  0.0000000  1.6024720  3
   6315  12330  12326  12325     1  180.0000771  0.4184000  2
   6315  12330  12326  12325     1  0.0000000  1.6024720  3
   6315  12330  12326  12342     1  180.0000771  5.6484000  1
   6315  12330  12326  12342     1  180.0000771  3.5564000  2
   6315  12330  12326  12342     1  0.0000000  0.4184000  3
   6318  12353  12349  12365     1  180.0000771  5.6484000  1
   6318  12353  12349  12365     1  180.0000771  3.5564000  2
   6318  12353  12349  12365     1  0.0000000  0.4184000  3
   6318  12353  12349  12348     1  180.0000771  0.4184000  2
   6318  12353  12349  12348     1  0.0000000  1.6024720  3
   6322   6323   6335   6347     1  0.0000000  0.6508444  3
   6322   6326   6338   6344     1  0.0000000  0.6508444  3
   6322   6329   6332   6341     1  0.0000000  0.6508444  3
   6323   6322   6326   6338     1  180.0000771  2.0083200  2
   6323   6322   6326   6338     1  0.0000000  1.2552000  3
   6323   6322   6329   6332     1  180.0000771  2.0083200  2
   6323   6322   6329   6332     1  0.0000000  1.2552000  3
   6323   6335   6347  12399     1  0.0000000  0.6508444  3
   6326   6322   6323   6335     1  180.0000771  2.0083200  2
   6326   6322   6323   6335     1  0.0000000  1.2552000  3
   6326   6322   6329   6332     1  180.0000771  2.0083200  2
   6326   6322   6329   6332     1  0.0000000  1.2552000  3
   6326   6338   6344  12376     1  0.0000000  0.6508444  3
   6329   6322   6323   6335     1  180.0000771  2.0083200  2
   6329   6322   6323   6335     1  0.0000000  1.2552000  3
   6329   6322   6326   6338     1  180.0000771  2.0083200  2
   6329   6322   6326   6338     1  0.0000000  1.2552000  3
   6329   6332   6341   6350     1  0.0000000  0.6508444  3
   6335   6347  12399  12395     1  180.0000771  0.4184000  2
   6335   6347  12399  12395     1  0.0000000  1.6024720  3
   6338   6344  12376  12372     1  180.0000771  0.4184000  2
   6338   6344  12376  12372     1  0.0000000  1.6024720  3
   6344  12376  12372  12371     1  180.0000771  0.4184000  2
   6344  12376  12372  12371     1  0.0000000  1.6024720  3
   6344  12376  12372  12388     1  180.0000771  5.6484000  1
   6344  12376  12372  12388     1  180.0000771  3.5564000  2
   6344  12376  12372  12388     1  0.0000000  0.4184000  3
   6347  12399  12395  12411     1  180.0000771  5.6484000  1
   6347  12399  12395  12411     1  180.0000771  3.5564000  2
   6347  12399  12395  12411     1  0.0000000  0.4184000  3
   6347  12399  12395  12394     1  180.0000771  0.4184000  2
   6347  12399  12395  12394     1  0.0000000  1.6024720  3
   6351   6352   6364   6376     1  0.0000000  0.6508444  3
   6351   6355   6367   6373     1  0.0000000  0.6508444  3
   6351   6358   6361   6370     1  0.0000000  0.6508444  3
   6352   6351   6355   6367     1  180.0000771  2.0083200  2
   6352   6351   6355   6367     1  0.0000000  1.2552000  3
   6352   6351   6358   6361     1  180.0000771  2.0083200  2
   6352   6351   6358   6361     1  0.0000000  1.2552000  3
   6352   6364   6376  12445     1  0.0000000  0.6508444  3
   6355   6351   6352   6364     1  180.0000771  2.0083200  2
   6355   6351   6352   6364     1  0.0000000  1.2552000  3
   6355   6351   6358   6361     1  180.0000771  2.0083200  2
   6355   6351   6358   6361     1  0.0000000  1.2552000  3
   6355   6367   6373  12422     1  0.0000000  0.6508444  3
   6358   6351   6352   6364     1  180.0000771  2.0083200  2
   6358   6351   6352   6364     1  0.0000000  1.2552000  3
   6358   6351   6355   6367     1  180.0000771  2.0083200  2
   6358   6351   6355   6367     1  0.0000000  1.2552000  3
   6358   6361   6370   6379     1  0.0000000  0.6508444  3
   6364   6376  12445  12441     1  180.0000771  0.4184000  2
   6364   6376  12445  12441     1  0.0000000  1.6024720  3
   6367   6373  12422  12418     1  180.0000771  0.4184000  2
   6367   6373  12422  12418     1  0.0000000  1.6024720  3
   6373  12422  12418  12417     1  180.0000771  0.4184000  2
   6373  12422  12418  12417     1  0.0000000  1.6024720  3
   6373  12422  12418  12434     1  180.0000771  5.6484000  1
   6373  12422  12418  12434     1  180.0000771  3.5564000  2
   6373  12422  12418  12434     1  0.0000000  0.4184000  3
   6376  12445  12441  12457     1  180.0000771  5.6484000  1
   6376  12445  12441  12457     1  180.0000771  3.5564000  2
   6376  12445  12441  12457     1  0.0000000  0.4184000  3
   6376  12445  12441  12440     1  180.0000771  0.4184000  2
   6376  12445  12441  12440     1  0.0000000  1.6024720  3
   6380   6381   6393   6405     1  0.0000000  0.6508444  3
   6380   6384   6396   6402     1  0.0000000  0.6508444  3
   6380   6387   6390   6399     1  0.0000000  0.6508444  3
   6381   6380   6384   6396     1  180.0000771  2.0083200  2
   6381   6380   6384   6396     1  0.0000000  1.2552000  3
   6381   6380   6387   6390     1  180.0000771  2.0083200  2
   6381   6380   6387   6390     1  0.0000000  1.2552000  3
   6381   6393   6405  12491     1  0.0000000  0.6508444  3
   6384   6380   6381   6393     1  180.0000771  2.0083200  2
   6384   6380   6381   6393     1  0.0000000  1.2552000  3
   6384   6380   6387   6390     1  180.0000771  2.0083200  2
   6384   6380   6387   6390     1  0.0000000  1.2552000  3
   6384   6396   6402  12468     1  0.0000000  0.6508444  3
   6387   6380   6381   6393     1  180.0000771  2.0083200  2
   6387   6380   6381   6393     1  0.0000000  1.2552000  3
   6387   6380   6384   6396     1  180.0000771  2.0083200  2
   6387   6380   6384   6396     1  0.0000000  1.2552000  3
   6387   6390   6399   6408     1  0.0000000  0.6508444  3
   6393   6405  12491  12487     1  180.0000771  0.4184000  2
   6393   6405  12491  12487     1  0.0000000  1.6024720  3
   6396   6402  12468  12464     1  180.0000771  0.4184000  2
   6396   6402  12468  12464     1  0.0000000  1.6024720  3
   6402  12468  12464  12463     1  180.0000771  0.4184000  2
   6402  12468  12464  12463     1  0.0000000  1.6024720  3
   6402  12468  12464  12480     1  180.0000771  5.6484000  1
   6402  12468  12464  12480     1  180.0000771  3.5564000  2
   6402  12468  12464  12480     1  0.0000000  0.4184000  3
   6405  12491  12487  12503     1  180.0000771  5.6484000  1
   6405  12491  12487  12503     1  180.0000771  3.5564000  2
   6405  12491  12487  12503     1  0.0000000  0.4184000  3
   6405  12491  12487  12486     1  180.0000771  0.4184000  2
   6405  12491  12487  12486     1  0.0000000  1.6024720  3
   6409   6410   6422   6434     1  0.0000000  0.6508444  3
   6409   6413   6425   6431     1  0.0000000  0.6508444  3
   6409   6416   6419   6428     1  0.0000000  0.6508444  3
   6410   6409   6413   6425     1  180.0000771  2.0083200  2
   6410   6409   6413   6425     1  0.0000000  1.2552000  3
   6410   6409   6416   6419     1  180.0000771  2.0083200  2
   6410   6409   6416   6419     1  0.0000000  1.2552000  3
   6410   6422   6434  12537     1  0.0000000  0.6508444  3
   6413   6409   6410   6422     1  180.0000771  2.0083200  2
   6413   6409   6410   6422     1  0.0000000  1.2552000  3
   6413   6409   6416   6419     1  180.0000771  2.0083200  2
   6413   6409   6416   6419     1  0.0000000  1.2552000  3
   6413   6425   6431  12514     1  0.0000000  0.6508444  3
   6416   6409   6410   6422     1  180.0000771  2.0083200  2
   6416   6409   6410   6422     1  0.0000000  1.2552000  3
   6416   6409   6413   6425     1  180.0000771  2.0083200  2
   6416   6409   6413   6425     1  0.0000000  1.2552000  3
   6416   6419   6428   6437     1  0.0000000  0.6508444  3
   6422   6434  12537  12533     1  180.0000771  0.4184000  2
   6422   6434  12537  12533     1  0.0000000  1.6024720  3
   6425   6431  12514  12510     1  180.0000771  0.4184000  2
   6425   6431  12514  12510     1  0.0000000  1.6024720  3
   6431  12514  12510  12509     1  180.0000771  0.4184000  2
   6431  12514  12510  12509     1  0.0000000  1.6024720  3
   6431  12514  12510  12526     1  180.0000771  5.6484000  1
   6431  12514  12510  12526     1  180.0000771  3.5564000  2
   6431  12514  12510  12526     1  0.0000000  0.4184000  3
   6434  12537  12533  12549     1  180.0000771  5.6484000  1
   6434  12537  12533  12549     1  180.0000771  3.5564000  2
   6434  12537  12533  12549     1  0.0000000  0.4184000  3
   6434  12537  12533  12532     1  180.0000771  0.4184000  2
   6434  12537  12533  12532     1  0.0000000  1.6024720  3
   6438   6439   6451   6463     1  0.0000000  0.6508444  3
   6438   6442   6454   6460     1  0.0000000  0.6508444  3
   6438   6445   6448   6457     1  0.0000000  0.6508444  3
   6439   6438   6442   6454     1  180.0000771  2.0083200  2
   6439   6438   6442   6454     1  0.0000000  1.2552000  3
   6439   6438   6445   6448     1  180.0000771  2.0083200  2
   6439   6438   6445   6448     1  0.0000000  1.2552000  3
   6439   6451   6463  12583     1  0.0000000  0.6508444  3
   6442   6438   6439   6451     1  180.0000771  2.0083200  2
   6442   6438   6439   6451     1  0.0000000  1.2552000  3
   6442   6438   6445   6448     1  180.0000771  2.0083200  2
   6442   6438   6445   6448     1  0.0000000  1.2552000  3
   6442   6454   6460  12560     1  0.0000000  0.6508444  3
   6445   6438   6439   6451     1  180.0000771  2.0083200  2
   6445   6438   6439   6451     1  0.0000000  1.2552000  3
   6445   6438   6442   6454     1  180.0000771  2.0083200  2
   6445   6438   6442   6454     1  0.0000000  1.2552000  3
   6445   6448   6457   6466     1  0.0000000  0.6508444  3
   6451   6463  12583  12579     1  180.0000771  0.4184000  2
   6451   6463  12583  12579     1  0.0000000  1.6024720  3
   6454   6460  12560  12556     1  180.0000771  0.4184000  2
   6454   6460  12560  12556     1  0.0000000  1.6024720  3
   6460  12560  12556  12555     1  180.0000771  0.4184000  2
   6460  12560  12556  12555     1  0.0000000  1.6024720  3
   6460  12560  12556  12572     1  180.0000771  5.6484000  1
   6460  12560  12556  12572     1  180.0000771  3.5564000  2
   6460  12560  12556  12572     1  0.0000000  0.4184000  3
   6463  12583  12579  12595     1  180.0000771  5.6484000  1
   6463  12583  12579  12595     1  180.0000771  3.5564000  2
   6463  12583  12579  12595     1  0.0000000  0.4184000  3
   6463  12583  12579  12578     1  180.0000771  0.4184000  2
   6463  12583  12579  12578     1  0.0000000  1.6024720  3
   6467   6468   6480   6492     1  0.0000000  0.6508444  3
   6467   6471   6483   6489     1  0.0000000  0.6508444  3
   6467   6474   6477   6486     1  0.0000000  0.6508444  3
   6468   6467   6471   6483     1  180.0000771  2.0083200  2
   6468   6467   6471   6483     1  0.0000000  1.2552000  3
   6468   6467   6474   6477     1  180.0000771  2.0083200  2
   6468   6467   6474   6477     1  0.0000000  1.2552000  3
   6468   6480   6492  12629     1  0.0000000  0.6508444  3
   6471   6467   6468   6480     1  180.0000771  2.0083200  2
   6471   6467   6468   6480     1  0.0000000  1.2552000  3
   6471   6467   6474   6477     1  180.0000771  2.0083200  2
   6471   6467   6474   6477     1  0.0000000  1.2552000  3
   6471   6483   6489  12606     1  0.0000000  0.6508444  3
   6474   6467   6468   6480     1  180.0000771  2.0083200  2
   6474   6467   6468   6480     1  0.0000000  1.2552000  3
   6474   6467   6471   6483     1  180.0000771  2.0083200  2
   6474   6467   6471   6483     1  0.0000000  1.2552000  3
   6474   6477   6486   6495     1  0.0000000  0.6508444  3
   6480   6492  12629  12625     1  180.0000771  0.4184000  2
   6480   6492  12629  12625     1  0.0000000  1.6024720  3
   6483   6489  12606  12602     1  180.0000771  0.4184000  2
   6483   6489  12606  12602     1  0.0000000  1.6024720  3
   6489  12606  12602  12601     1  180.0000771  0.4184000  2
   6489  12606  12602  12601     1  0.0000000  1.6024720  3
   6489  12606  12602  12618     1  180.0000771  5.6484000  1
   6489  12606  12602  12618     1  180.0000771  3.5564000  2
   6489  12606  12602  12618     1  0.0000000  0.4184000  3
   6492  12629  12625  12641     1  180.0000771  5.6484000  1
   6492  12629  12625  12641     1  180.0000771  3.5564000  2
   6492  12629  12625  12641     1  0.0000000  0.4184000  3
   6492  12629  12625  12624     1  180.0000771  0.4184000  2
   6492  12629  12625  12624     1  0.0000000  1.6024720  3
   6496   6497   6509   6521     1  0.0000000  0.6508444  3
   6496   6500   6512   6518     1  0.0000000  0.6508444  3
   6496   6503   6506   6515     1  0.0000000  0.6508444  3
   6497   6496   6500   6512     1  180.0000771  2.0083200  2
   6497   6496   6500   6512     1  0.0000000  1.2552000  3
   6497   6496   6503   6506     1  180.0000771  2.0083200  2
   6497   6496   6503   6506     1  0.0000000  1.2552000  3
   6497   6509   6521  12675     1  0.0000000  0.6508444  3
   6500   6496   6497   6509     1  180.0000771  2.0083200  2
   6500   6496   6497   6509     1  0.0000000  1.2552000  3
   6500   6496   6503   6506     1  180.0000771  2.0083200  2
   6500   6496   6503   6506     1  0.0000000  1.2552000  3
   6500   6512   6518  12652     1  0.0000000  0.6508444  3
   6503   6496   6497   6509     1  180.0000771  2.0083200  2
   6503   6496   6497   6509     1  0.0000000  1.2552000  3
   6503   6496   6500   6512     1  180.0000771  2.0083200  2
   6503   6496   6500   6512     1  0.0000000  1.2552000  3
   6503   6506   6515   6524     1  0.0000000  0.6508444  3
   6509   6521  12675  12671     1  180.0000771  0.4184000  2
   6509   6521  12675  12671     1  0.0000000  1.6024720  3
   6512   6518  12652  12648     1  180.0000771  0.4184000  2
   6512   6518  12652  12648     1  0.0000000  1.6024720  3
   6518  12652  12648  12647     1  180.0000771  0.4184000  2
   6518  12652  12648  12647     1  0.0000000  1.6024720  3
   6518  12652  12648  12664     1  180.0000771  5.6484000  1
   6518  12652  12648  12664     1  180.0000771  3.5564000  2
   6518  12652  12648  12664     1  0.0000000  0.4184000  3
   6521  12675  12671  12687     1  180.0000771  5.6484000  1
   6521  12675  12671  12687     1  180.0000771  3.5564000  2
   6521  12675  12671  12687     1  0.0000000  0.4184000  3
   6521  12675  12671  12670     1  180.0000771  0.4184000  2
   6521  12675  12671  12670     1  0.0000000  1.6024720  3
   6525   6526   6538   6550     1  0.0000000  0.6508444  3
   6525   6529   6541   6547     1  0.0000000  0.6508444  3
   6525   6532   6535   6544     1  0.0000000  0.6508444  3
   6526   6525   6529   6541     1  180.0000771  2.0083200  2
   6526   6525   6529   6541     1  0.0000000  1.2552000  3
   6526   6525   6532   6535     1  180.0000771  2.0083200  2
   6526   6525   6532   6535     1  0.0000000  1.2552000  3
   6526   6538   6550  12721     1  0.0000000  0.6508444  3
   6529   6525   6526   6538     1  180.0000771  2.0083200  2
   6529   6525   6526   6538     1  0.0000000  1.2552000  3
   6529   6525   6532   6535     1  180.0000771  2.0083200  2
   6529   6525   6532   6535     1  0.0000000  1.2552000  3
   6529   6541   6547  12698     1  0.0000000  0.6508444  3
   6532   6525   6526   6538     1  180.0000771  2.0083200  2
   6532   6525   6526   6538     1  0.0000000  1.2552000  3
   6532   6525   6529   6541     1  180.0000771  2.0083200  2
   6532   6525   6529   6541     1  0.0000000  1.2552000  3
   6532   6535   6544   6553     1  0.0000000  0.6508444  3
   6538   6550  12721  12717     1  180.0000771  0.4184000  2
   6538   6550  12721  12717     1  0.0000000  1.6024720  3
   6541   6547  12698  12694     1  180.0000771  0.4184000  2
   6541   6547  12698  12694     1  0.0000000  1.6024720  3
   6547  12698  12694  12693     1  180.0000771  0.4184000  2
   6547  12698  12694  12693     1  0.0000000  1.6024720  3
   6547  12698  12694  12710     1  180.0000771  5.6484000  1
   6547  12698  12694  12710     1  180.0000771  3.5564000  2
   6547  12698  12694  12710     1  0.0000000  0.4184000  3
   6550  12721  12717  12733     1  180.0000771  5.6484000  1
   6550  12721  12717  12733     1  180.0000771  3.5564000  2
   6550  12721  12717  12733     1  0.0000000  0.4184000  3
   6550  12721  12717  12716     1  180.0000771  0.4184000  2
   6550  12721  12717  12716     1  0.0000000  1.6024720  3
   6554   6555   6567   6579     1  0.0000000  0.6508444  3
   6554   6558   6570   6576     1  0.0000000  0.6508444  3
   6554   6561   6564   6573     1  0.0000000  0.6508444  3
   6555   6554   6558   6570     1  180.0000771  2.0083200  2
   6555   6554   6558   6570     1  0.0000000  1.2552000  3
   6555   6554   6561   6564     1  180.0000771  2.0083200  2
   6555   6554   6561   6564     1  0.0000000  1.2552000  3
   6555   6567   6579  12767     1  0.0000000  0.6508444  3
   6558   6554   6555   6567     1  180.0000771  2.0083200  2
   6558   6554   6555   6567     1  0.0000000  1.2552000  3
   6558   6554   6561   6564     1  180.0000771  2.0083200  2
   6558   6554   6561   6564     1  0.0000000  1.2552000  3
   6558   6570   6576  12744     1  0.0000000  0.6508444  3
   6561   6554   6555   6567     1  180.0000771  2.0083200  2
   6561   6554   6555   6567     1  0.0000000  1.2552000  3
   6561   6554   6558   6570     1  180.0000771  2.0083200  2
   6561   6554   6558   6570     1  0.0000000  1.2552000  3
   6561   6564   6573   6582     1  0.0000000  0.6508444  3
   6567   6579  12767  12763     1  180.0000771  0.4184000  2
   6567   6579  12767  12763     1  0.0000000  1.6024720  3
   6570   6576  12744  12740     1  180.0000771  0.4184000  2
   6570   6576  12744  12740     1  0.0000000  1.6024720  3
   6576  12744  12740  12739     1  180.0000771  0.4184000  2
   6576  12744  12740  12739     1  0.0000000  1.6024720  3
   6576  12744  12740  12756     1  180.0000771  5.6484000  1
   6576  12744  12740  12756     1  180.0000771  3.5564000  2
   6576  12744  12740  12756     1  0.0000000  0.4184000  3
   6579  12767  12763  12779     1  180.0000771  5.6484000  1
   6579  12767  12763  12779     1  180.0000771  3.5564000  2
   6579  12767  12763  12779     1  0.0000000  0.4184000  3
   6579  12767  12763  12762     1  180.0000771  0.4184000  2
   6579  12767  12763  12762     1  0.0000000  1.6024720  3
   6583   6584   6596   6608     1  0.0000000  0.6508444  3
   6583   6587   6599   6605     1  0.0000000  0.6508444  3
   6583   6590   6593   6602     1  0.0000000  0.6508444  3
   6584   6583   6587   6599     1  180.0000771  2.0083200  2
   6584   6583   6587   6599     1  0.0000000  1.2552000  3
   6584   6583   6590   6593     1  180.0000771  2.0083200  2
   6584   6583   6590   6593     1  0.0000000  1.2552000  3
   6584   6596   6608  12813     1  0.0000000  0.6508444  3
   6587   6583   6584   6596     1  180.0000771  2.0083200  2
   6587   6583   6584   6596     1  0.0000000  1.2552000  3
   6587   6583   6590   6593     1  180.0000771  2.0083200  2
   6587   6583   6590   6593     1  0.0000000  1.2552000  3
   6587   6599   6605  12790     1  0.0000000  0.6508444  3
   6590   6583   6584   6596     1  180.0000771  2.0083200  2
   6590   6583   6584   6596     1  0.0000000  1.2552000  3
   6590   6583   6587   6599     1  180.0000771  2.0083200  2
   6590   6583   6587   6599     1  0.0000000  1.2552000  3
   6590   6593   6602   6611     1  0.0000000  0.6508444  3
   6596   6608  12813  12809     1  180.0000771  0.4184000  2
   6596   6608  12813  12809     1  0.0000000  1.6024720  3
   6599   6605  12790  12786     1  180.0000771  0.4184000  2
   6599   6605  12790  12786     1  0.0000000  1.6024720  3
   6605  12790  12786  12785     1  180.0000771  0.4184000  2
   6605  12790  12786  12785     1  0.0000000  1.6024720  3
   6605  12790  12786  12802     1  180.0000771  5.6484000  1
   6605  12790  12786  12802     1  180.0000771  3.5564000  2
   6605  12790  12786  12802     1  0.0000000  0.4184000  3
   6608  12813  12809  12825     1  180.0000771  5.6484000  1
   6608  12813  12809  12825     1  180.0000771  3.5564000  2
   6608  12813  12809  12825     1  0.0000000  0.4184000  3
   6608  12813  12809  12808     1  180.0000771  0.4184000  2
   6608  12813  12809  12808     1  0.0000000  1.6024720  3
   6612   6613   6625   6637     1  0.0000000  0.6508444  3
   6612   6616   6628   6634     1  0.0000000  0.6508444  3
   6612   6619   6622   6631     1  0.0000000  0.6508444  3
   6613   6612   6616   6628     1  180.0000771  2.0083200  2
   6613   6612   6616   6628     1  0.0000000  1.2552000  3
   6613   6612   6619   6622     1  180.0000771  2.0083200  2
   6613   6612   6619   6622     1  0.0000000  1.2552000  3
   6613   6625   6637  12859     1  0.0000000  0.6508444  3
   6616   6612   6613   6625     1  180.0000771  2.0083200  2
   6616   6612   6613   6625     1  0.0000000  1.2552000  3
   6616   6612   6619   6622     1  180.0000771  2.0083200  2
   6616   6612   6619   6622     1  0.0000000  1.2552000  3
   6616   6628   6634  12836     1  0.0000000  0.6508444  3
   6619   6612   6613   6625     1  180.0000771  2.0083200  2
   6619   6612   6613   6625     1  0.0000000  1.2552000  3
   6619   6612   6616   6628     1  180.0000771  2.0083200  2
   6619   6612   6616   6628     1  0.0000000  1.2552000  3
   6619   6622   6631   6640     1  0.0000000  0.6508444  3
   6625   6637  12859  12855     1  180.0000771  0.4184000  2
   6625   6637  12859  12855     1  0.0000000  1.6024720  3
   6628   6634  12836  12832     1  180.0000771  0.4184000  2
   6628   6634  12836  12832     1  0.0000000  1.6024720  3
   6634  12836  12832  12831     1  180.0000771  0.4184000  2
   6634  12836  12832  12831     1  0.0000000  1.6024720  3
   6634  12836  12832  12848     1  180.0000771  5.6484000  1
   6634  12836  12832  12848     1  180.0000771  3.5564000  2
   6634  12836  12832  12848     1  0.0000000  0.4184000  3
   6637  12859  12855  12871     1  180.0000771  5.6484000  1
   6637  12859  12855  12871     1  180.0000771  3.5564000  2
   6637  12859  12855  12871     1  0.0000000  0.4184000  3
   6637  12859  12855  12854     1  180.0000771  0.4184000  2
   6637  12859  12855  12854     1  0.0000000  1.6024720  3
   6641   6642   6654   6666     1  0.0000000  0.6508444  3
   6641   6645   6657   6663     1  0.0000000  0.6508444  3
   6641   6648   6651   6660     1  0.0000000  0.6508444  3
   6642   6641   6645   6657     1  180.0000771  2.0083200  2
   6642   6641   6645   6657     1  0.0000000  1.2552000  3
   6642   6641   6648   6651     1  180.0000771  2.0083200  2
   6642   6641   6648   6651     1  0.0000000  1.2552000  3
   6642   6654   6666  12905     1  0.0000000  0.6508444  3
   6645   6641   6642   6654     1  180.0000771  2.0083200  2
   6645   6641   6642   6654     1  0.0000000  1.2552000  3
   6645   6641   6648   6651     1  180.0000771  2.0083200  2
   6645   6641   6648   6651     1  0.0000000  1.2552000  3
   6645   6657   6663  12882     1  0.0000000  0.6508444  3
   6648   6641   6642   6654     1  180.0000771  2.0083200  2
   6648   6641   6642   6654     1  0.0000000  1.2552000  3
   6648   6641   6645   6657     1  180.0000771  2.0083200  2
   6648   6641   6645   6657     1  0.0000000  1.2552000  3
   6648   6651   6660   6669     1  0.0000000  0.6508444  3
   6654   6666  12905  12901     1  180.0000771  0.4184000  2
   6654   6666  12905  12901     1  0.0000000  1.6024720  3
   6657   6663  12882  12878     1  180.0000771  0.4184000  2
   6657   6663  12882  12878     1  0.0000000  1.6024720  3
   6663  12882  12878  12877     1  180.0000771  0.4184000  2
   6663  12882  12878  12877     1  0.0000000  1.6024720  3
   6663  12882  12878  12894     1  180.0000771  5.6484000  1
   6663  12882  12878  12894     1  180.0000771  3.5564000  2
   6663  12882  12878  12894     1  0.0000000  0.4184000  3
   6666  12905  12901  12917     1  180.0000771  5.6484000  1
   6666  12905  12901  12917     1  180.0000771  3.5564000  2
   6666  12905  12901  12917     1  0.0000000  0.4184000  3
   6666  12905  12901  12900     1  180.0000771  0.4184000  2
   6666  12905  12901  12900     1  0.0000000  1.6024720  3
   6670   6671   6683   6695     1  0.0000000  0.6508444  3
   6670   6674   6686   6692     1  0.0000000  0.6508444  3
   6670   6677   6680   6689     1  0.0000000  0.6508444  3
   6671   6670   6674   6686     1  180.0000771  2.0083200  2
   6671   6670   6674   6686     1  0.0000000  1.2552000  3
   6671   6670   6677   6680     1  180.0000771  2.0083200  2
   6671   6670   6677   6680     1  0.0000000  1.2552000  3
   6671   6683   6695  12951     1  0.0000000  0.6508444  3
   6674   6670   6671   6683     1  180.0000771  2.0083200  2
   6674   6670   6671   6683     1  0.0000000  1.2552000  3
   6674   6670   6677   6680     1  180.0000771  2.0083200  2
   6674   6670   6677   6680     1  0.0000000  1.2552000  3
   6674   6686   6692  12928     1  0.0000000  0.6508444  3
   6677   6670   6671   6683     1  180.0000771  2.0083200  2
   6677   6670   6671   6683     1  0.0000000  1.2552000  3
   6677   6670   6674   6686     1  180.0000771  2.0083200  2
   6677   6670   6674   6686     1  0.0000000  1.2552000  3
   6677   6680   6689   6698     1  0.0000000  0.6508444  3
   6683   6695  12951  12947     1  180.0000771  0.4184000  2
   6683   6695  12951  12947     1  0.0000000  1.6024720  3
   6686   6692  12928  12924     1  180.0000771  0.4184000  2
   6686   6692  12928  12924     1  0.0000000  1.6024720  3
   6692  12928  12924  12923     1  180.0000771  0.4184000  2
   6692  12928  12924  12923     1  0.0000000  1.6024720  3
   6692  12928  12924  12940     1  180.0000771  5.6484000  1
   6692  12928  12924  12940     1  180.0000771  3.5564000  2
   6692  12928  12924  12940     1  0.0000000  0.4184000  3
   6695  12951  12947  12963     1  180.0000771  5.6484000  1
   6695  12951  12947  12963     1  180.0000771  3.5564000  2
   6695  12951  12947  12963     1  0.0000000  0.4184000  3
   6695  12951  12947  12946     1  180.0000771  0.4184000  2
   6695  12951  12947  12946     1  0.0000000  1.6024720  3
   6699   6700   6712   6724     1  0.0000000  0.6508444  3
   6699   6703   6715   6721     1  0.0000000  0.6508444  3
   6699   6706   6709   6718     1  0.0000000  0.6508444  3
   6700   6699   6703   6715     1  180.0000771  2.0083200  2
   6700   6699   6703   6715     1  0.0000000  1.2552000  3
   6700   6699   6706   6709     1  180.0000771  2.0083200  2
   6700   6699   6706   6709     1  0.0000000  1.2552000  3
   6700   6712   6724  12997     1  0.0000000  0.6508444  3
   6703   6699   6700   6712     1  180.0000771  2.0083200  2
   6703   6699   6700   6712     1  0.0000000  1.2552000  3
   6703   6699   6706   6709     1  180.0000771  2.0083200  2
   6703   6699   6706   6709     1  0.0000000  1.2552000  3
   6703   6715   6721  12974     1  0.0000000  0.6508444  3
   6706   6699   6700   6712     1  180.0000771  2.0083200  2
   6706   6699   6700   6712     1  0.0000000  1.2552000  3
   6706   6699   6703   6715     1  180.0000771  2.0083200  2
   6706   6699   6703   6715     1  0.0000000  1.2552000  3
   6706   6709   6718   6727     1  0.0000000  0.6508444  3
   6712   6724  12997  12993     1  180.0000771  0.4184000  2
   6712   6724  12997  12993     1  0.0000000  1.6024720  3
   6715   6721  12974  12970     1  180.0000771  0.4184000  2
   6715   6721  12974  12970     1  0.0000000  1.6024720  3
   6721  12974  12970  12969     1  180.0000771  0.4184000  2
   6721  12974  12970  12969     1  0.0000000  1.6024720  3
   6721  12974  12970  12986     1  180.0000771  5.6484000  1
   6721  12974  12970  12986     1  180.0000771  3.5564000  2
   6721  12974  12970  12986     1  0.0000000  0.4184000  3
   6724  12997  12993  13009     1  180.0000771  5.6484000  1
   6724  12997  12993  13009     1  180.0000771  3.5564000  2
   6724  12997  12993  13009     1  0.0000000  0.4184000  3
   6724  12997  12993  12992     1  180.0000771  0.4184000  2
   6724  12997  12993  12992     1  0.0000000  1.6024720  3
   6728   6729   6741   6753     1  0.0000000  0.6508444  3
   6728   6732   6744   6750     1  0.0000000  0.6508444  3
   6728   6735   6738   6747     1  0.0000000  0.6508444  3
   6729   6728   6732   6744     1  180.0000771  2.0083200  2
   6729   6728   6732   6744     1  0.0000000  1.2552000  3
   6729   6728   6735   6738     1  180.0000771  2.0083200  2
   6729   6728   6735   6738     1  0.0000000  1.2552000  3
   6729   6741   6753  13043     1  0.0000000  0.6508444  3
   6732   6728   6729   6741     1  180.0000771  2.0083200  2
   6732   6728   6729   6741     1  0.0000000  1.2552000  3
   6732   6728   6735   6738     1  180.0000771  2.0083200  2
   6732   6728   6735   6738     1  0.0000000  1.2552000  3
   6732   6744   6750  13020     1  0.0000000  0.6508444  3
   6735   6728   6729   6741     1  180.0000771  2.0083200  2
   6735   6728   6729   6741     1  0.0000000  1.2552000  3
   6735   6728   6732   6744     1  180.0000771  2.0083200  2
   6735   6728   6732   6744     1  0.0000000  1.2552000  3
   6735   6738   6747   6756     1  0.0000000  0.6508444  3
   6741   6753  13043  13039     1  180.0000771  0.4184000  2
   6741   6753  13043  13039     1  0.0000000  1.6024720  3
   6744   6750  13020  13016     1  180.0000771  0.4184000  2
   6744   6750  13020  13016     1  0.0000000  1.6024720  3
   6750  13020  13016  13015     1  180.0000771  0.4184000  2
   6750  13020  13016  13015     1  0.0000000  1.6024720  3
   6750  13020  13016  13032     1  180.0000771  5.6484000  1
   6750  13020  13016  13032     1  180.0000771  3.5564000  2
   6750  13020  13016  13032     1  0.0000000  0.4184000  3
   6753  13043  13039  13055     1  180.0000771  5.6484000  1
   6753  13043  13039  13055     1  180.0000771  3.5564000  2
   6753  13043  13039  13055     1  0.0000000  0.4184000  3
   6753  13043  13039  13038     1  180.0000771  0.4184000  2
   6753  13043  13039  13038     1  0.0000000  1.6024720  3
   6757   6758   6770   6782     1  0.0000000  0.6508444  3
   6757   6761   6773   6779     1  0.0000000  0.6508444  3
   6757   6764   6767   6776     1  0.0000000  0.6508444  3
   6758   6757   6761   6773     1  180.0000771  2.0083200  2
   6758   6757   6761   6773     1  0.0000000  1.2552000  3
   6758   6757   6764   6767     1  180.0000771  2.0083200  2
   6758   6757   6764   6767     1  0.0000000  1.2552000  3
   6758   6770   6782  13089     1  0.0000000  0.6508444  3
   6761   6757   6758   6770     1  180.0000771  2.0083200  2
   6761   6757   6758   6770     1  0.0000000  1.2552000  3
   6761   6757   6764   6767     1  180.0000771  2.0083200  2
   6761   6757   6764   6767     1  0.0000000  1.2552000  3
   6761   6773   6779  13066     1  0.0000000  0.6508444  3
   6764   6757   6758   6770     1  180.0000771  2.0083200  2
   6764   6757   6758   6770     1  0.0000000  1.2552000  3
   6764   6757   6761   6773     1  180.0000771  2.0083200  2
   6764   6757   6761   6773     1  0.0000000  1.2552000  3
   6764   6767   6776   6785     1  0.0000000  0.6508444  3
   6770   6782  13089  13085     1  180.0000771  0.4184000  2
   6770   6782  13089  13085     1  0.0000000  1.6024720  3
   6773   6779  13066  13062     1  180.0000771  0.4184000  2
   6773   6779  13066  13062     1  0.0000000  1.6024720  3
   6779  13066  13062  13061     1  180.0000771  0.4184000  2
   6779  13066  13062  13061     1  0.0000000  1.6024720  3
   6779  13066  13062  13078     1  180.0000771  5.6484000  1
   6779  13066  13062  13078     1  180.0000771  3.5564000  2
   6779  13066  13062  13078     1  0.0000000  0.4184000  3
   6782  13089  13085  13101     1  180.0000771  5.6484000  1
   6782  13089  13085  13101     1  180.0000771  3.5564000  2
   6782  13089  13085  13101     1  0.0000000  0.4184000  3
   6782  13089  13085  13084     1  180.0000771  0.4184000  2
   6782  13089  13085  13084     1  0.0000000  1.6024720  3
   6786   6787   6799   6811     1  0.0000000  0.6508444  3
   6786   6790   6802   6808     1  0.0000000  0.6508444  3
   6786   6793   6796   6805     1  0.0000000  0.6508444  3
   6787   6786   6790   6802     1  180.0000771  2.0083200  2
   6787   6786   6790   6802     1  0.0000000  1.2552000  3
   6787   6786   6793   6796     1  180.0000771  2.0083200  2
   6787   6786   6793   6796     1  0.0000000  1.2552000  3
   6787   6799   6811  13135     1  0.0000000  0.6508444  3
   6790   6786   6787   6799     1  180.0000771  2.0083200  2
   6790   6786   6787   6799     1  0.0000000  1.2552000  3
   6790   6786   6793   6796     1  180.0000771  2.0083200  2
   6790   6786   6793   6796     1  0.0000000  1.2552000  3
   6790   6802   6808  13112     1  0.0000000  0.6508444  3
   6793   6786   6787   6799     1  180.0000771  2.0083200  2
   6793   6786   6787   6799     1  0.0000000  1.2552000  3
   6793   6786   6790   6802     1  180.0000771  2.0083200  2
   6793   6786   6790   6802     1  0.0000000  1.2552000  3
   6793   6796   6805   6814     1  0.0000000  0.6508444  3
   6799   6811  13135  13131     1  180.0000771  0.4184000  2
   6799   6811  13135  13131     1  0.0000000  1.6024720  3
   6802   6808  13112  13108     1  180.0000771  0.4184000  2
   6802   6808  13112  13108     1  0.0000000  1.6024720  3
   6808  13112  13108  13107     1  180.0000771  0.4184000  2
   6808  13112  13108  13107     1  0.0000000  1.6024720  3
   6808  13112  13108  13124     1  180.0000771  5.6484000  1
   6808  13112  13108  13124     1  180.0000771  3.5564000  2
   6808  13112  13108  13124     1  0.0000000  0.4184000  3
   6811  13135  13131  13147     1  180.0000771  5.6484000  1
   6811  13135  13131  13147     1  180.0000771  3.5564000  2
   6811  13135  13131  13147     1  0.0000000  0.4184000  3
   6811  13135  13131  13130     1  180.0000771  0.4184000  2
   6811  13135  13131  13130     1  0.0000000  1.6024720  3
   6815   6816   6828   6840     1  0.0000000  0.6508444  3
   6815   6819   6831   6837     1  0.0000000  0.6508444  3
   6815   6822   6825   6834     1  0.0000000  0.6508444  3
   6816   6815   6819   6831     1  180.0000771  2.0083200  2
   6816   6815   6819   6831     1  0.0000000  1.2552000  3
   6816   6815   6822   6825     1  180.0000771  2.0083200  2
   6816   6815   6822   6825     1  0.0000000  1.2552000  3
   6816   6828   6840  13181     1  0.0000000  0.6508444  3
   6819   6815   6816   6828     1  180.0000771  2.0083200  2
   6819   6815   6816   6828     1  0.0000000  1.2552000  3
   6819   6815   6822   6825     1  180.0000771  2.0083200  2
   6819   6815   6822   6825     1  0.0000000  1.2552000  3
   6819   6831   6837  13158     1  0.0000000  0.6508444  3
   6822   6815   6816   6828     1  180.0000771  2.0083200  2
   6822   6815   6816   6828     1  0.0000000  1.2552000  3
   6822   6815   6819   6831     1  180.0000771  2.0083200  2
   6822   6815   6819   6831     1  0.0000000  1.2552000  3
   6822   6825   6834   6843     1  0.0000000  0.6508444  3
   6828   6840  13181  13177     1  180.0000771  0.4184000  2
   6828   6840  13181  13177     1  0.0000000  1.6024720  3
   6831   6837  13158  13154     1  180.0000771  0.4184000  2
   6831   6837  13158  13154     1  0.0000000  1.6024720  3
   6837  13158  13154  13153     1  180.0000771  0.4184000  2
   6837  13158  13154  13153     1  0.0000000  1.6024720  3
   6837  13158  13154  13170     1  180.0000771  5.6484000  1
   6837  13158  13154  13170     1  180.0000771  3.5564000  2
   6837  13158  13154  13170     1  0.0000000  0.4184000  3
   6840  13181  13177  13193     1  180.0000771  5.6484000  1
   6840  13181  13177  13193     1  180.0000771  3.5564000  2
   6840  13181  13177  13193     1  0.0000000  0.4184000  3
   6840  13181  13177  13176     1  180.0000771  0.4184000  2
   6840  13181  13177  13176     1  0.0000000  1.6024720  3
   6844   6845   6857   6869     1  0.0000000  0.6508444  3
   6844   6848   6860   6866     1  0.0000000  0.6508444  3
   6844   6851   6854   6863     1  0.0000000  0.6508444  3
   6845   6844   6848   6860     1  180.0000771  2.0083200  2
   6845   6844   6848   6860     1  0.0000000  1.2552000  3
   6845   6844   6851   6854     1  180.0000771  2.0083200  2
   6845   6844   6851   6854     1  0.0000000  1.2552000  3
   6845   6857   6869  13227     1  0.0000000  0.6508444  3
   6848   6844   6845   6857     1  180.0000771  2.0083200  2
   6848   6844   6845   6857     1  0.0000000  1.2552000  3
   6848   6844   6851   6854     1  180.0000771  2.0083200  2
   6848   6844   6851   6854     1  0.0000000  1.2552000  3
   6848   6860   6866  13204     1  0.0000000  0.6508444  3
   6851   6844   6845   6857     1  180.0000771  2.0083200  2
   6851   6844   6845   6857     1  0.0000000  1.2552000  3
   6851   6844   6848   6860     1  180.0000771  2.0083200  2
   6851   6844   6848   6860     1  0.0000000  1.2552000  3
   6851   6854   6863   6872     1  0.0000000  0.6508444  3
   6857   6869  13227  13223     1  180.0000771  0.4184000  2
   6857   6869  13227  13223     1  0.0000000  1.6024720  3
   6860   6866  13204  13200     1  180.0000771  0.4184000  2
   6860   6866  13204  13200     1  0.0000000  1.6024720  3
   6866  13204  13200  13199     1  180.0000771  0.4184000  2
   6866  13204  13200  13199     1  0.0000000  1.6024720  3
   6866  13204  13200  13216     1  180.0000771  5.6484000  1
   6866  13204  13200  13216     1  180.0000771  3.5564000  2
   6866  13204  13200  13216     1  0.0000000  0.4184000  3
   6869  13227  13223  13239     1  180.0000771  5.6484000  1
   6869  13227  13223  13239     1  180.0000771  3.5564000  2
   6869  13227  13223  13239     1  0.0000000  0.4184000  3
   6869  13227  13223  13222     1  180.0000771  0.4184000  2
   6869  13227  13223  13222     1  0.0000000  1.6024720  3
   6873   6874   6886   6898     1  0.0000000  0.6508444  3
   6873   6877   6889   6895     1  0.0000000  0.6508444  3
   6873   6880   6883   6892     1  0.0000000  0.6508444  3
   6874   6873   6877   6889     1  180.0000771  2.0083200  2
   6874   6873   6877   6889     1  0.0000000  1.2552000  3
   6874   6873   6880   6883     1  180.0000771  2.0083200  2
   6874   6873   6880   6883     1  0.0000000  1.2552000  3
   6874   6886   6898  13273     1  0.0000000  0.6508444  3
   6877   6873   6874   6886     1  180.0000771  2.0083200  2
   6877   6873   6874   6886     1  0.0000000  1.2552000  3
   6877   6873   6880   6883     1  180.0000771  2.0083200  2
   6877   6873   6880   6883     1  0.0000000  1.2552000  3
   6877   6889   6895  13250     1  0.0000000  0.6508444  3
   6880   6873   6874   6886     1  180.0000771  2.0083200  2
   6880   6873   6874   6886     1  0.0000000  1.2552000  3
   6880   6873   6877   6889     1  180.0000771  2.0083200  2
   6880   6873   6877   6889     1  0.0000000  1.2552000  3
   6880   6883   6892   6901     1  0.0000000  0.6508444  3
   6886   6898  13273  13269     1  180.0000771  0.4184000  2
   6886   6898  13273  13269     1  0.0000000  1.6024720  3
   6889   6895  13250  13246     1  180.0000771  0.4184000  2
   6889   6895  13250  13246     1  0.0000000  1.6024720  3
   6895  13250  13246  13245     1  180.0000771  0.4184000  2
   6895  13250  13246  13245     1  0.0000000  1.6024720  3
   6895  13250  13246  13262     1  180.0000771  5.6484000  1
   6895  13250  13246  13262     1  180.0000771  3.5564000  2
   6895  13250  13246  13262     1  0.0000000  0.4184000  3
   6898  13273  13269  13285     1  180.0000771  5.6484000  1
   6898  13273  13269  13285     1  180.0000771  3.5564000  2
   6898  13273  13269  13285     1  0.0000000  0.4184000  3
   6898  13273  13269  13268     1  180.0000771  0.4184000  2
   6898  13273  13269  13268     1  0.0000000  1.6024720  3
   6902   6903   6915   6927     1  0.0000000  0.6508444  3
   6902   6906   6918   6924     1  0.0000000  0.6508444  3
   6902   6909   6912   6921     1  0.0000000  0.6508444  3
   6903   6902   6906   6918     1  180.0000771  2.0083200  2
   6903   6902   6906   6918     1  0.0000000  1.2552000  3
   6903   6902   6909   6912     1  180.0000771  2.0083200  2
   6903   6902   6909   6912     1  0.0000000  1.2552000  3
   6903   6915   6927  13319     1  0.0000000  0.6508444  3
   6906   6902   6903   6915     1  180.0000771  2.0083200  2
   6906   6902   6903   6915     1  0.0000000  1.2552000  3
   6906   6902   6909   6912     1  180.0000771  2.0083200  2
   6906   6902   6909   6912     1  0.0000000  1.2552000  3
   6906   6918   6924  13296     1  0.0000000  0.6508444  3
   6909   6902   6903   6915     1  180.0000771  2.0083200  2
   6909   6902   6903   6915     1  0.0000000  1.2552000  3
   6909   6902   6906   6918     1  180.0000771  2.0083200  2
   6909   6902   6906   6918     1  0.0000000  1.2552000  3
   6909   6912   6921   6930     1  0.0000000  0.6508444  3
   6915   6927  13319  13315     1  180.0000771  0.4184000  2
   6915   6927  13319  13315     1  0.0000000  1.6024720  3
   6918   6924  13296  13292     1  180.0000771  0.4184000  2
   6918   6924  13296  13292     1  0.0000000  1.6024720  3
   6924  13296  13292  13291     1  180.0000771  0.4184000  2
   6924  13296  13292  13291     1  0.0000000  1.6024720  3
   6924  13296  13292  13308     1  180.0000771  5.6484000  1
   6924  13296  13292  13308     1  180.0000771  3.5564000  2
   6924  13296  13292  13308     1  0.0000000  0.4184000  3
   6927  13319  13315  13331     1  180.0000771  5.6484000  1
   6927  13319  13315  13331     1  180.0000771  3.5564000  2
   6927  13319  13315  13331     1  0.0000000  0.4184000  3
   6927  13319  13315  13314     1  180.0000771  0.4184000  2
   6927  13319  13315  13314     1  0.0000000  1.6024720  3
   6931   6932   6944   6956     1  0.0000000  0.6508444  3
   6931   6935   6947   6953     1  0.0000000  0.6508444  3
   6931   6938   6941   6950     1  0.0000000  0.6508444  3
   6932   6931   6935   6947     1  180.0000771  2.0083200  2
   6932   6931   6935   6947     1  0.0000000  1.2552000  3
   6932   6931   6938   6941     1  180.0000771  2.0083200  2
   6932   6931   6938   6941     1  0.0000000  1.2552000  3
   6932   6944   6956  13365     1  0.0000000  0.6508444  3
   6935   6931   6932   6944     1  180.0000771  2.0083200  2
   6935   6931   6932   6944     1  0.0000000  1.2552000  3
   6935   6931   6938   6941     1  180.0000771  2.0083200  2
   6935   6931   6938   6941     1  0.0000000  1.2552000  3
   6935   6947   6953  13342     1  0.0000000  0.6508444  3
   6938   6931   6932   6944     1  180.0000771  2.0083200  2
   6938   6931   6932   6944     1  0.0000000  1.2552000  3
   6938   6931   6935   6947     1  180.0000771  2.0083200  2
   6938   6931   6935   6947     1  0.0000000  1.2552000  3
   6938   6941   6950   6959     1  0.0000000  0.6508444  3
   6944   6956  13365  13361     1  180.0000771  0.4184000  2
   6944   6956  13365  13361     1  0.0000000  1.6024720  3
   6947   6953  13342  13338     1  180.0000771  0.4184000  2
   6947   6953  13342  13338     1  0.0000000  1.6024720  3
   6953  13342  13338  13337     1  180.0000771  0.4184000  2
   6953  13342  13338  13337     1  0.0000000  1.6024720  3
   6953  13342  13338  13354     1  180.0000771  5.6484000  1
   6953  13342  13338  13354     1  180.0000771  3.5564000  2
   6953  13342  13338  13354     1  0.0000000  0.4184000  3
   6956  13365  13361  13377     1  180.0000771  5.6484000  1
   6956  13365  13361  13377     1  180.0000771  3.5564000  2
   6956  13365  13361  13377     1  0.0000000  0.4184000  3
   6956  13365  13361  13360     1  180.0000771  0.4184000  2
   6956  13365  13361  13360     1  0.0000000  1.6024720  3
   6960   6961   6973   6985     1  0.0000000  0.6508444  3
   6960   6964   6976   6982     1  0.0000000  0.6508444  3
   6960   6967   6970   6979     1  0.0000000  0.6508444  3
   6961   6960   6964   6976     1  180.0000771  2.0083200  2
   6961   6960   6964   6976     1  0.0000000  1.2552000  3
   6961   6960   6967   6970     1  180.0000771  2.0083200  2
   6961   6960   6967   6970     1  0.0000000  1.2552000  3
   6961   6973   6985  13411     1  0.0000000  0.6508444  3
   6964   6960   6961   6973     1  180.0000771  2.0083200  2
   6964   6960   6961   6973     1  0.0000000  1.2552000  3
   6964   6960   6967   6970     1  180.0000771  2.0083200  2
   6964   6960   6967   6970     1  0.0000000  1.2552000  3
   6964   6976   6982  13388     1  0.0000000  0.6508444  3
   6967   6960   6961   6973     1  180.0000771  2.0083200  2
   6967   6960   6961   6973     1  0.0000000  1.2552000  3
   6967   6960   6964   6976     1  180.0000771  2.0083200  2
   6967   6960   6964   6976     1  0.0000000  1.2552000  3
   6967   6970   6979   6988     1  0.0000000  0.6508444  3
   6973   6985  13411  13407     1  180.0000771  0.4184000  2
   6973   6985  13411  13407     1  0.0000000  1.6024720  3
   6976   6982  13388  13384     1  180.0000771  0.4184000  2
   6976   6982  13388  13384     1  0.0000000  1.6024720  3
   6982  13388  13384  13383     1  180.0000771  0.4184000  2
   6982  13388  13384  13383     1  0.0000000  1.6024720  3
   6982  13388  13384  13400     1  180.0000771  5.6484000  1
   6982  13388  13384  13400     1  180.0000771  3.5564000  2
   6982  13388  13384  13400     1  0.0000000  0.4184000  3
   6985  13411  13407  13423     1  180.0000771  5.6484000  1
   6985  13411  13407  13423     1  180.0000771  3.5564000  2
   6985  13411  13407  13423     1  0.0000000  0.4184000  3
   6985  13411  13407  13406     1  180.0000771  0.4184000  2
   6985  13411  13407  13406     1  0.0000000  1.6024720  3
   6989   6990   7002   7014     1  0.0000000  0.6508444  3
   6989   6993   7005   7011     1  0.0000000  0.6508444  3
   6989   6996   6999   7008     1  0.0000000  0.6508444  3
   6990   6989   6993   7005     1  180.0000771  2.0083200  2
   6990   6989   6993   7005     1  0.0000000  1.2552000  3
   6990   6989   6996   6999     1  180.0000771  2.0083200  2
   6990   6989   6996   6999     1  0.0000000  1.2552000  3
   6990   7002   7014  13457     1  0.0000000  0.6508444  3
   6993   6989   6990   7002     1  180.0000771  2.0083200  2
   6993   6989   6990   7002     1  0.0000000  1.2552000  3
   6993   6989   6996   6999     1  180.0000771  2.0083200  2
   6993   6989   6996   6999     1  0.0000000  1.2552000  3
   6993   7005   7011  13434     1  0.0000000  0.6508444  3
   6996   6989   6990   7002     1  180.0000771  2.0083200  2
   6996   6989   6990   7002     1  0.0000000  1.2552000  3
   6996   6989   6993   7005     1  180.0000771  2.0083200  2
   6996   6989   6993   7005     1  0.0000000  1.2552000  3
   6996   6999   7008   7017     1  0.0000000  0.6508444  3
   7002   7014  13457  13453     1  180.0000771  0.4184000  2
   7002   7014  13457  13453     1  0.0000000  1.6024720  3
   7005   7011  13434  13430     1  180.0000771  0.4184000  2
   7005   7011  13434  13430     1  0.0000000  1.6024720  3
   7011  13434  13430  13429     1  180.0000771  0.4184000  2
   7011  13434  13430  13429     1  0.0000000  1.6024720  3
   7011  13434  13430  13446     1  180.0000771  5.6484000  1
   7011  13434  13430  13446     1  180.0000771  3.5564000  2
   7011  13434  13430  13446     1  0.0000000  0.4184000  3
   7014  13457  13453  13469     1  180.0000771  5.6484000  1
   7014  13457  13453  13469     1  180.0000771  3.5564000  2
   7014  13457  13453  13469     1  0.0000000  0.4184000  3
   7014  13457  13453  13452     1  180.0000771  0.4184000  2
   7014  13457  13453  13452     1  0.0000000  1.6024720  3
   7018   7019   7031   7043     1  0.0000000  0.6508444  3
   7018   7022   7034   7040     1  0.0000000  0.6508444  3
   7018   7025   7028   7037     1  0.0000000  0.6508444  3
   7019   7018   7022   7034     1  180.0000771  2.0083200  2
   7019   7018   7022   7034     1  0.0000000  1.2552000  3
   7019   7018   7025   7028     1  180.0000771  2.0083200  2
   7019   7018   7025   7028     1  0.0000000  1.2552000  3
   7019   7031   7043  13503     1  0.0000000  0.6508444  3
   7022   7018   7019   7031     1  180.0000771  2.0083200  2
   7022   7018   7019   7031     1  0.0000000  1.2552000  3
   7022   7018   7025   7028     1  180.0000771  2.0083200  2
   7022   7018   7025   7028     1  0.0000000  1.2552000  3
   7022   7034   7040  13480     1  0.0000000  0.6508444  3
   7025   7018   7019   7031     1  180.0000771  2.0083200  2
   7025   7018   7019   7031     1  0.0000000  1.2552000  3
   7025   7018   7022   7034     1  180.0000771  2.0083200  2
   7025   7018   7022   7034     1  0.0000000  1.2552000  3
   7025   7028   7037   7046     1  0.0000000  0.6508444  3
   7031   7043  13503  13499     1  180.0000771  0.4184000  2
   7031   7043  13503  13499     1  0.0000000  1.6024720  3
   7034   7040  13480  13476     1  180.0000771  0.4184000  2
   7034   7040  13480  13476     1  0.0000000  1.6024720  3
   7040  13480  13476  13475     1  180.0000771  0.4184000  2
   7040  13480  13476  13475     1  0.0000000  1.6024720  3
   7040  13480  13476  13492     1  180.0000771  5.6484000  1
   7040  13480  13476  13492     1  180.0000771  3.5564000  2
   7040  13480  13476  13492     1  0.0000000  0.4184000  3
   7043  13503  13499  13515     1  180.0000771  5.6484000  1
   7043  13503  13499  13515     1  180.0000771  3.5564000  2
   7043  13503  13499  13515     1  0.0000000  0.4184000  3
   7043  13503  13499  13498     1  180.0000771  0.4184000  2
   7043  13503  13499  13498     1  0.0000000  1.6024720  3
   7047   7048   7060   7072     1  0.0000000  0.6508444  3
   7047   7051   7063   7069     1  0.0000000  0.6508444  3
   7047   7054   7057   7066     1  0.0000000  0.6508444  3
   7048   7047   7051   7063     1  180.0000771  2.0083200  2
   7048   7047   7051   7063     1  0.0000000  1.2552000  3
   7048   7047   7054   7057     1  180.0000771  2.0083200  2
   7048   7047   7054   7057     1  0.0000000  1.2552000  3
   7048   7060   7072  13549     1  0.0000000  0.6508444  3
   7051   7047   7048   7060     1  180.0000771  2.0083200  2
   7051   7047   7048   7060     1  0.0000000  1.2552000  3
   7051   7047   7054   7057     1  180.0000771  2.0083200  2
   7051   7047   7054   7057     1  0.0000000  1.2552000  3
   7051   7063   7069  13526     1  0.0000000  0.6508444  3
   7054   7047   7048   7060     1  180.0000771  2.0083200  2
   7054   7047   7048   7060     1  0.0000000  1.2552000  3
   7054   7047   7051   7063     1  180.0000771  2.0083200  2
   7054   7047   7051   7063     1  0.0000000  1.2552000  3
   7054   7057   7066   7075     1  0.0000000  0.6508444  3
   7060   7072  13549  13545     1  180.0000771  0.4184000  2
   7060   7072  13549  13545     1  0.0000000  1.6024720  3
   7063   7069  13526  13522     1  180.0000771  0.4184000  2
   7063   7069  13526  13522     1  0.0000000  1.6024720  3
   7069  13526  13522  13521     1  180.0000771  0.4184000  2
   7069  13526  13522  13521     1  0.0000000  1.6024720  3
   7069  13526  13522  13538     1  180.0000771  5.6484000  1
   7069  13526  13522  13538     1  180.0000771  3.5564000  2
   7069  13526  13522  13538     1  0.0000000  0.4184000  3
   7072  13549  13545  13561     1  180.0000771  5.6484000  1
   7072  13549  13545  13561     1  180.0000771  3.5564000  2
   7072  13549  13545  13561     1  0.0000000  0.4184000  3
   7072  13549  13545  13544     1  180.0000771  0.4184000  2
   7072  13549  13545  13544     1  0.0000000  1.6024720  3
   7076   7077   7089   7101     1  0.0000000  0.6508444  3
   7076   7080   7092   7098     1  0.0000000  0.6508444  3
   7076   7083   7086   7095     1  0.0000000  0.6508444  3
   7077   7076   7080   7092     1  180.0000771  2.0083200  2
   7077   7076   7080   7092     1  0.0000000  1.2552000  3
   7077   7076   7083   7086     1  180.0000771  2.0083200  2
   7077   7076   7083   7086     1  0.0000000  1.2552000  3
   7077   7089   7101  13595     1  0.0000000  0.6508444  3
   7080   7076   7077   7089     1  180.0000771  2.0083200  2
   7080   7076   7077   7089     1  0.0000000  1.2552000  3
   7080   7076   7083   7086     1  180.0000771  2.0083200  2
   7080   7076   7083   7086     1  0.0000000  1.2552000  3
   7080   7092   7098  13572     1  0.0000000  0.6508444  3
   7083   7076   7077   7089     1  180.0000771  2.0083200  2
   7083   7076   7077   7089     1  0.0000000  1.2552000  3
   7083   7076   7080   7092     1  180.0000771  2.0083200  2
   7083   7076   7080   7092     1  0.0000000  1.2552000  3
   7083   7086   7095   7104     1  0.0000000  0.6508444  3
   7089   7101  13595  13591     1  180.0000771  0.4184000  2
   7089   7101  13595  13591     1  0.0000000  1.6024720  3
   7092   7098  13572  13568     1  180.0000771  0.4184000  2
   7092   7098  13572  13568     1  0.0000000  1.6024720  3
   7098  13572  13568  13567     1  180.0000771  0.4184000  2
   7098  13572  13568  13567     1  0.0000000  1.6024720  3
   7098  13572  13568  13584     1  180.0000771  5.6484000  1
   7098  13572  13568  13584     1  180.0000771  3.5564000  2
   7098  13572  13568  13584     1  0.0000000  0.4184000  3
   7101  13595  13591  13607     1  180.0000771  5.6484000  1
   7101  13595  13591  13607     1  180.0000771  3.5564000  2
   7101  13595  13591  13607     1  0.0000000  0.4184000  3
   7101  13595  13591  13590     1  180.0000771  0.4184000  2
   7101  13595  13591  13590     1  0.0000000  1.6024720  3
   7105   7106   7118   7130     1  0.0000000  0.6508444  3
   7105   7109   7121   7127     1  0.0000000  0.6508444  3
   7105   7112   7115   7124     1  0.0000000  0.6508444  3
   7106   7105   7109   7121     1  180.0000771  2.0083200  2
   7106   7105   7109   7121     1  0.0000000  1.2552000  3
   7106   7105   7112   7115     1  180.0000771  2.0083200  2
   7106   7105   7112   7115     1  0.0000000  1.2552000  3
   7106   7118   7130  13641     1  0.0000000  0.6508444  3
   7109   7105   7106   7118     1  180.0000771  2.0083200  2
   7109   7105   7106   7118     1  0.0000000  1.2552000  3
   7109   7105   7112   7115     1  180.0000771  2.0083200  2
   7109   7105   7112   7115     1  0.0000000  1.2552000  3
   7109   7121   7127  13618     1  0.0000000  0.6508444  3
   7112   7105   7106   7118     1  180.0000771  2.0083200  2
   7112   7105   7106   7118     1  0.0000000  1.2552000  3
   7112   7105   7109   7121     1  180.0000771  2.0083200  2
   7112   7105   7109   7121     1  0.0000000  1.2552000  3
   7112   7115   7124   7133     1  0.0000000  0.6508444  3
   7118   7130  13641  13637     1  180.0000771  0.4184000  2
   7118   7130  13641  13637     1  0.0000000  1.6024720  3
   7121   7127  13618  13614     1  180.0000771  0.4184000  2
   7121   7127  13618  13614     1  0.0000000  1.6024720  3
   7127  13618  13614  13613     1  180.0000771  0.4184000  2
   7127  13618  13614  13613     1  0.0000000  1.6024720  3
   7127  13618  13614  13630     1  180.0000771  5.6484000  1
   7127  13618  13614  13630     1  180.0000771  3.5564000  2
   7127  13618  13614  13630     1  0.0000000  0.4184000  3
   7130  13641  13637  13653     1  180.0000771  5.6484000  1
   7130  13641  13637  13653     1  180.0000771  3.5564000  2
   7130  13641  13637  13653     1  0.0000000  0.4184000  3
   7130  13641  13637  13636     1  180.0000771  0.4184000  2
   7130  13641  13637  13636     1  0.0000000  1.6024720  3
   7134   7135   7147   7159     1  0.0000000  0.6508444  3
   7134   7138   7150   7156     1  0.0000000  0.6508444  3
   7134   7141   7144   7153     1  0.0000000  0.6508444  3
   7135   7134   7138   7150     1  180.0000771  2.0083200  2
   7135   7134   7138   7150     1  0.0000000  1.2552000  3
   7135   7134   7141   7144     1  180.0000771  2.0083200  2
   7135   7134   7141   7144     1  0.0000000  1.2552000  3
   7135   7147   7159  13687     1  0.0000000  0.6508444  3
   7138   7134   7135   7147     1  180.0000771  2.0083200  2
   7138   7134   7135   7147     1  0.0000000  1.2552000  3
   7138   7134   7141   7144     1  180.0000771  2.0083200  2
   7138   7134   7141   7144     1  0.0000000  1.2552000  3
   7138   7150   7156  13664     1  0.0000000  0.6508444  3
   7141   7134   7135   7147     1  180.0000771  2.0083200  2
   7141   7134   7135   7147     1  0.0000000  1.2552000  3
   7141   7134   7138   7150     1  180.0000771  2.0083200  2
   7141   7134   7138   7150     1  0.0000000  1.2552000  3
   7141   7144   7153   7162     1  0.0000000  0.6508444  3
   7147   7159  13687  13683     1  180.0000771  0.4184000  2
   7147   7159  13687  13683     1  0.0000000  1.6024720  3
   7150   7156  13664  13660     1  180.0000771  0.4184000  2
   7150   7156  13664  13660     1  0.0000000  1.6024720  3
   7156  13664  13660  13659     1  180.0000771  0.4184000  2
   7156  13664  13660  13659     1  0.0000000  1.6024720  3
   7156  13664  13660  13676     1  180.0000771  5.6484000  1
   7156  13664  13660  13676     1  180.0000771  3.5564000  2
   7156  13664  13660  13676     1  0.0000000  0.4184000  3
   7159  13687  13683  13699     1  180.0000771  5.6484000  1
   7159  13687  13683  13699     1  180.0000771  3.5564000  2
   7159  13687  13683  13699     1  0.0000000  0.4184000  3
   7159  13687  13683  13682     1  180.0000771  0.4184000  2
   7159  13687  13683  13682     1  0.0000000  1.6024720  3
   7163   7164   7176   7188     1  0.0000000  0.6508444  3
   7163   7167   7179   7185     1  0.0000000  0.6508444  3
   7163   7170   7173   7182     1  0.0000000  0.6508444  3
   7164   7163   7167   7179     1  180.0000771  2.0083200  2
   7164   7163   7167   7179     1  0.0000000  1.2552000  3
   7164   7163   7170   7173     1  180.0000771  2.0083200  2
   7164   7163   7170   7173     1  0.0000000  1.2552000  3
   7164   7176   7188  13733     1  0.0000000  0.6508444  3
   7167   7163   7164   7176     1  180.0000771  2.0083200  2
   7167   7163   7164   7176     1  0.0000000  1.2552000  3
   7167   7163   7170   7173     1  180.0000771  2.0083200  2
   7167   7163   7170   7173     1  0.0000000  1.2552000  3
   7167   7179   7185  13710     1  0.0000000  0.6508444  3
   7170   7163   7164   7176     1  180.0000771  2.0083200  2
   7170   7163   7164   7176     1  0.0000000  1.2552000  3
   7170   7163   7167   7179     1  180.0000771  2.0083200  2
   7170   7163   7167   7179     1  0.0000000  1.2552000  3
   7170   7173   7182   7191     1  0.0000000  0.6508444  3
   7176   7188  13733  13729     1  180.0000771  0.4184000  2
   7176   7188  13733  13729     1  0.0000000  1.6024720  3
   7179   7185  13710  13706     1  180.0000771  0.4184000  2
   7179   7185  13710  13706     1  0.0000000  1.6024720  3
   7185  13710  13706  13705     1  180.0000771  0.4184000  2
   7185  13710  13706  13705     1  0.0000000  1.6024720  3
   7185  13710  13706  13722     1  180.0000771  5.6484000  1
   7185  13710  13706  13722     1  180.0000771  3.5564000  2
   7185  13710  13706  13722     1  0.0000000  0.4184000  3
   7188  13733  13729  13745     1  180.0000771  5.6484000  1
   7188  13733  13729  13745     1  180.0000771  3.5564000  2
   7188  13733  13729  13745     1  0.0000000  0.4184000  3
   7188  13733  13729  13728     1  180.0000771  0.4184000  2
   7188  13733  13729  13728     1  0.0000000  1.6024720  3
   7192   7193   7205   7217     1  0.0000000  0.6508444  3
   7192   7196   7208   7214     1  0.0000000  0.6508444  3
   7192   7199   7202   7211     1  0.0000000  0.6508444  3
   7193   7192   7196   7208     1  180.0000771  2.0083200  2
   7193   7192   7196   7208     1  0.0000000  1.2552000  3
   7193   7192   7199   7202     1  180.0000771  2.0083200  2
   7193   7192   7199   7202     1  0.0000000  1.2552000  3
   7193   7205   7217  13779     1  0.0000000  0.6508444  3
   7196   7192   7193   7205     1  180.0000771  2.0083200  2
   7196   7192   7193   7205     1  0.0000000  1.2552000  3
   7196   7192   7199   7202     1  180.0000771  2.0083200  2
   7196   7192   7199   7202     1  0.0000000  1.2552000  3
   7196   7208   7214  13756     1  0.0000000  0.6508444  3
   7199   7192   7193   7205     1  180.0000771  2.0083200  2
   7199   7192   7193   7205     1  0.0000000  1.2552000  3
   7199   7192   7196   7208     1  180.0000771  2.0083200  2
   7199   7192   7196   7208     1  0.0000000  1.2552000  3
   7199   7202   7211   7220     1  0.0000000  0.6508444  3
   7205   7217  13779  13775     1  180.0000771  0.4184000  2
   7205   7217  13779  13775     1  0.0000000  1.6024720  3
   7208   7214  13756  13752     1  180.0000771  0.4184000  2
   7208   7214  13756  13752     1  0.0000000  1.6024720  3
   7214  13756  13752  13751     1  180.0000771  0.4184000  2
   7214  13756  13752  13751     1  0.0000000  1.6024720  3
   7214  13756  13752  13768     1  180.0000771  5.6484000  1
   7214  13756  13752  13768     1  180.0000771  3.5564000  2
   7214  13756  13752  13768     1  0.0000000  0.4184000  3
   7217  13779  13775  13791     1  180.0000771  5.6484000  1
   7217  13779  13775  13791     1  180.0000771  3.5564000  2
   7217  13779  13775  13791     1  0.0000000  0.4184000  3
   7217  13779  13775  13774     1  180.0000771  0.4184000  2
   7217  13779  13775  13774     1  0.0000000  1.6024720  3
   7221   7222   7234   7246     1  0.0000000  0.6508444  3
   7221   7225   7237   7243     1  0.0000000  0.6508444  3
   7221   7228   7231   7240     1  0.0000000  0.6508444  3
   7222   7221   7225   7237     1  180.0000771  2.0083200  2
   7222   7221   7225   7237     1  0.0000000  1.2552000  3
   7222   7221   7228   7231     1  180.0000771  2.0083200  2
   7222   7221   7228   7231     1  0.0000000  1.2552000  3
   7222   7234   7246  13825     1  0.0000000  0.6508444  3
   7225   7221   7222   7234     1  180.0000771  2.0083200  2
   7225   7221   7222   7234     1  0.0000000  1.2552000  3
   7225   7221   7228   7231     1  180.0000771  2.0083200  2
   7225   7221   7228   7231     1  0.0000000  1.2552000  3
   7225   7237   7243  13802     1  0.0000000  0.6508444  3
   7228   7221   7222   7234     1  180.0000771  2.0083200  2
   7228   7221   7222   7234     1  0.0000000  1.2552000  3
   7228   7221   7225   7237     1  180.0000771  2.0083200  2
   7228   7221   7225   7237     1  0.0000000  1.2552000  3
   7228   7231   7240   7249     1  0.0000000  0.6508444  3
   7234   7246  13825  13821     1  180.0000771  0.4184000  2
   7234   7246  13825  13821     1  0.0000000  1.6024720  3
   7237   7243  13802  13798     1  180.0000771  0.4184000  2
   7237   7243  13802  13798     1  0.0000000  1.6024720  3
   7243  13802  13798  13797     1  180.0000771  0.4184000  2
   7243  13802  13798  13797     1  0.0000000  1.6024720  3
   7243  13802  13798  13814     1  180.0000771  5.6484000  1
   7243  13802  13798  13814     1  180.0000771  3.5564000  2
   7243  13802  13798  13814     1  0.0000000  0.4184000  3
   7246  13825  13821  13837     1  180.0000771  5.6484000  1
   7246  13825  13821  13837     1  180.0000771  3.5564000  2
   7246  13825  13821  13837     1  0.0000000  0.4184000  3
   7246  13825  13821  13820     1  180.0000771  0.4184000  2
   7246  13825  13821  13820     1  0.0000000  1.6024720  3
   7250   7251   7263   7275     1  0.0000000  0.6508444  3
   7250   7254   7266   7272     1  0.0000000  0.6508444  3
   7250   7257   7260   7269     1  0.0000000  0.6508444  3
   7251   7250   7254   7266     1  180.0000771  2.0083200  2
   7251   7250   7254   7266     1  0.0000000  1.2552000  3
   7251   7250   7257   7260     1  180.0000771  2.0083200  2
   7251   7250   7257   7260     1  0.0000000  1.2552000  3
   7251   7263   7275  13871     1  0.0000000  0.6508444  3
   7254   7250   7251   7263     1  180.0000771  2.0083200  2
   7254   7250   7251   7263     1  0.0000000  1.2552000  3
   7254   7250   7257   7260     1  180.0000771  2.0083200  2
   7254   7250   7257   7260     1  0.0000000  1.2552000  3
   7254   7266   7272  13848     1  0.0000000  0.6508444  3
   7257   7250   7251   7263     1  180.0000771  2.0083200  2
   7257   7250   7251   7263     1  0.0000000  1.2552000  3
   7257   7250   7254   7266     1  180.0000771  2.0083200  2
   7257   7250   7254   7266     1  0.0000000  1.2552000  3
   7257   7260   7269   7278     1  0.0000000  0.6508444  3
   7263   7275  13871  13867     1  180.0000771  0.4184000  2
   7263   7275  13871  13867     1  0.0000000  1.6024720  3
   7266   7272  13848  13844     1  180.0000771  0.4184000  2
   7266   7272  13848  13844     1  0.0000000  1.6024720  3
   7272  13848  13844  13843     1  180.0000771  0.4184000  2
   7272  13848  13844  13843     1  0.0000000  1.6024720  3
   7272  13848  13844  13860     1  180.0000771  5.6484000  1
   7272  13848  13844  13860     1  180.0000771  3.5564000  2
   7272  13848  13844  13860     1  0.0000000  0.4184000  3
   7275  13871  13867  13883     1  180.0000771  5.6484000  1
   7275  13871  13867  13883     1  180.0000771  3.5564000  2
   7275  13871  13867  13883     1  0.0000000  0.4184000  3
   7275  13871  13867  13866     1  180.0000771  0.4184000  2
   7275  13871  13867  13866     1  0.0000000  1.6024720  3
   7279   7280   7292   7304     1  0.0000000  0.6508444  3
   7279   7283   7295   7301     1  0.0000000  0.6508444  3
   7279   7286   7289   7298     1  0.0000000  0.6508444  3
   7280   7279   7283   7295     1  180.0000771  2.0083200  2
   7280   7279   7283   7295     1  0.0000000  1.2552000  3
   7280   7279   7286   7289     1  180.0000771  2.0083200  2
   7280   7279   7286   7289     1  0.0000000  1.2552000  3
   7280   7292   7304  13917     1  0.0000000  0.6508444  3
   7283   7279   7280   7292     1  180.0000771  2.0083200  2
   7283   7279   7280   7292     1  0.0000000  1.2552000  3
   7283   7279   7286   7289     1  180.0000771  2.0083200  2
   7283   7279   7286   7289     1  0.0000000  1.2552000  3
   7283   7295   7301  13894     1  0.0000000  0.6508444  3
   7286   7279   7280   7292     1  180.0000771  2.0083200  2
   7286   7279   7280   7292     1  0.0000000  1.2552000  3
   7286   7279   7283   7295     1  180.0000771  2.0083200  2
   7286   7279   7283   7295     1  0.0000000  1.2552000  3
   7286   7289   7298   7307     1  0.0000000  0.6508444  3
   7292   7304  13917  13913     1  180.0000771  0.4184000  2
   7292   7304  13917  13913     1  0.0000000  1.6024720  3
   7295   7301  13894  13890     1  180.0000771  0.4184000  2
   7295   7301  13894  13890     1  0.0000000  1.6024720  3
   7301  13894  13890  13889     1  180.0000771  0.4184000  2
   7301  13894  13890  13889     1  0.0000000  1.6024720  3
   7301  13894  13890  13906     1  180.0000771  5.6484000  1
   7301  13894  13890  13906     1  180.0000771  3.5564000  2
   7301  13894  13890  13906     1  0.0000000  0.4184000  3
   7304  13917  13913  13929     1  180.0000771  5.6484000  1
   7304  13917  13913  13929     1  180.0000771  3.5564000  2
   7304  13917  13913  13929     1  0.0000000  0.4184000  3
   7304  13917  13913  13912     1  180.0000771  0.4184000  2
   7304  13917  13913  13912     1  0.0000000  1.6024720  3
   7308   7309   7321   7333     1  0.0000000  0.6508444  3
   7308   7312   7324   7330     1  0.0000000  0.6508444  3
   7308   7315   7318   7327     1  0.0000000  0.6508444  3
   7309   7308   7312   7324     1  180.0000771  2.0083200  2
   7309   7308   7312   7324     1  0.0000000  1.2552000  3
   7309   7308   7315   7318     1  180.0000771  2.0083200  2
   7309   7308   7315   7318     1  0.0000000  1.2552000  3
   7309   7321   7333  13963     1  0.0000000  0.6508444  3
   7312   7308   7309   7321     1  180.0000771  2.0083200  2
   7312   7308   7309   7321     1  0.0000000  1.2552000  3
   7312   7308   7315   7318     1  180.0000771  2.0083200  2
   7312   7308   7315   7318     1  0.0000000  1.2552000  3
   7312   7324   7330  13940     1  0.0000000  0.6508444  3
   7315   7308   7309   7321     1  180.0000771  2.0083200  2
   7315   7308   7309   7321     1  0.0000000  1.2552000  3
   7315   7308   7312   7324     1  180.0000771  2.0083200  2
   7315   7308   7312   7324     1  0.0000000  1.2552000  3
   7315   7318   7327   7336     1  0.0000000  0.6508444  3
   7321   7333  13963  13959     1  180.0000771  0.4184000  2
   7321   7333  13963  13959     1  0.0000000  1.6024720  3
   7324   7330  13940  13936     1  180.0000771  0.4184000  2
   7324   7330  13940  13936     1  0.0000000  1.6024720  3
   7330  13940  13936  13935     1  180.0000771  0.4184000  2
   7330  13940  13936  13935     1  0.0000000  1.6024720  3
   7330  13940  13936  13952     1  180.0000771  5.6484000  1
   7330  13940  13936  13952     1  180.0000771  3.5564000  2
   7330  13940  13936  13952     1  0.0000000  0.4184000  3
   7333  13963  13959  13975     1  180.0000771  5.6484000  1
   7333  13963  13959  13975     1  180.0000771  3.5564000  2
   7333  13963  13959  13975     1  0.0000000  0.4184000  3
   7333  13963  13959  13958     1  180.0000771  0.4184000  2
   7333  13963  13959  13958     1  0.0000000  1.6024720  3
   7337   7338   7350   7362     1  0.0000000  0.6508444  3
   7337   7341   7353   7359     1  0.0000000  0.6508444  3
   7337   7344   7347   7356     1  0.0000000  0.6508444  3
   7338   7337   7341   7353     1  180.0000771  2.0083200  2
   7338   7337   7341   7353     1  0.0000000  1.2552000  3
   7338   7337   7344   7347     1  180.0000771  2.0083200  2
   7338   7337   7344   7347     1  0.0000000  1.2552000  3
   7338   7350   7362  14009     1  0.0000000  0.6508444  3
   7341   7337   7338   7350     1  180.0000771  2.0083200  2
   7341   7337   7338   7350     1  0.0000000  1.2552000  3
   7341   7337   7344   7347     1  180.0000771  2.0083200  2
   7341   7337   7344   7347     1  0.0000000  1.2552000  3
   7341   7353   7359  13986     1  0.0000000  0.6508444  3
   7344   7337   7338   7350     1  180.0000771  2.0083200  2
   7344   7337   7338   7350     1  0.0000000  1.2552000  3
   7344   7337   7341   7353     1  180.0000771  2.0083200  2
   7344   7337   7341   7353     1  0.0000000  1.2552000  3
   7344   7347   7356   7365     1  0.0000000  0.6508444  3
   7350   7362  14009  14005     1  180.0000771  0.4184000  2
   7350   7362  14009  14005     1  0.0000000  1.6024720  3
   7353   7359  13986  13982     1  180.0000771  0.4184000  2
   7353   7359  13986  13982     1  0.0000000  1.6024720  3
   7359  13986  13982  13981     1  180.0000771  0.4184000  2
   7359  13986  13982  13981     1  0.0000000  1.6024720  3
   7359  13986  13982  13998     1  180.0000771  5.6484000  1
   7359  13986  13982  13998     1  180.0000771  3.5564000  2
   7359  13986  13982  13998     1  0.0000000  0.4184000  3
   7362  14009  14005  14021     1  180.0000771  5.6484000  1
   7362  14009  14005  14021     1  180.0000771  3.5564000  2
   7362  14009  14005  14021     1  0.0000000  0.4184000  3
   7362  14009  14005  14004     1  180.0000771  0.4184000  2
   7362  14009  14005  14004     1  0.0000000  1.6024720  3
   7366   7367   7379   7391     1  0.0000000  0.6508444  3
   7366   7370   7382   7388     1  0.0000000  0.6508444  3
   7366   7373   7376   7385     1  0.0000000  0.6508444  3
   7367   7366   7370   7382     1  180.0000771  2.0083200  2
   7367   7366   7370   7382     1  0.0000000  1.2552000  3
   7367   7366   7373   7376     1  180.0000771  2.0083200  2
   7367   7366   7373   7376     1  0.0000000  1.2552000  3
   7367   7379   7391  14055     1  0.0000000  0.6508444  3
   7370   7366   7367   7379     1  180.0000771  2.0083200  2
   7370   7366   7367   7379     1  0.0000000  1.2552000  3
   7370   7366   7373   7376     1  180.0000771  2.0083200  2
   7370   7366   7373   7376     1  0.0000000  1.2552000  3
   7370   7382   7388  14032     1  0.0000000  0.6508444  3
   7373   7366   7367   7379     1  180.0000771  2.0083200  2
   7373   7366   7367   7379     1  0.0000000  1.2552000  3
   7373   7366   7370   7382     1  180.0000771  2.0083200  2
   7373   7366   7370   7382     1  0.0000000  1.2552000  3
   7373   7376   7385   7394     1  0.0000000  0.6508444  3
   7379   7391  14055  14051     1  180.0000771  0.4184000  2
   7379   7391  14055  14051     1  0.0000000  1.6024720  3
   7382   7388  14032  14028     1  180.0000771  0.4184000  2
   7382   7388  14032  14028     1  0.0000000  1.6024720  3
   7388  14032  14028  14027     1  180.0000771  0.4184000  2
   7388  14032  14028  14027     1  0.0000000  1.6024720  3
   7388  14032  14028  14044     1  180.0000771  5.6484000  1
   7388  14032  14028  14044     1  180.0000771  3.5564000  2
   7388  14032  14028  14044     1  0.0000000  0.4184000  3
   7391  14055  14051  14067     1  180.0000771  5.6484000  1
   7391  14055  14051  14067     1  180.0000771  3.5564000  2
   7391  14055  14051  14067     1  0.0000000  0.4184000  3
   7391  14055  14051  14050     1  180.0000771  0.4184000  2
   7391  14055  14051  14050     1  0.0000000  1.6024720  3
   7395   7396   7408   7420     1  0.0000000  0.6508444  3
   7395   7399   7411   7417     1  0.0000000  0.6508444  3
   7395   7402   7405   7414     1  0.0000000  0.6508444  3
   7396   7395   7399   7411     1  180.0000771  2.0083200  2
   7396   7395   7399   7411     1  0.0000000  1.2552000  3
   7396   7395   7402   7405     1  180.0000771  2.0083200  2
   7396   7395   7402   7405     1  0.0000000  1.2552000  3
   7396   7408   7420  14101     1  0.0000000  0.6508444  3
   7399   7395   7396   7408     1  180.0000771  2.0083200  2
   7399   7395   7396   7408     1  0.0000000  1.2552000  3
   7399   7395   7402   7405     1  180.0000771  2.0083200  2
   7399   7395   7402   7405     1  0.0000000  1.2552000  3
   7399   7411   7417  14078     1  0.0000000  0.6508444  3
   7402   7395   7396   7408     1  180.0000771  2.0083200  2
   7402   7395   7396   7408     1  0.0000000  1.2552000  3
   7402   7395   7399   7411     1  180.0000771  2.0083200  2
   7402   7395   7399   7411     1  0.0000000  1.2552000  3
   7402   7405   7414   7423     1  0.0000000  0.6508444  3
   7408   7420  14101  14097     1  180.0000771  0.4184000  2
   7408   7420  14101  14097     1  0.0000000  1.6024720  3
   7411   7417  14078  14074     1  180.0000771  0.4184000  2
   7411   7417  14078  14074     1  0.0000000  1.6024720  3
   7417  14078  14074  14073     1  180.0000771  0.4184000  2
   7417  14078  14074  14073     1  0.0000000  1.6024720  3
   7417  14078  14074  14090     1  180.0000771  5.6484000  1
   7417  14078  14074  14090     1  180.0000771  3.5564000  2
   7417  14078  14074  14090     1  0.0000000  0.4184000  3
   7420  14101  14097  14113     1  180.0000771  5.6484000  1
   7420  14101  14097  14113     1  180.0000771  3.5564000  2
   7420  14101  14097  14113     1  0.0000000  0.4184000  3
   7420  14101  14097  14096     1  180.0000771  0.4184000  2
   7420  14101  14097  14096     1  0.0000000  1.6024720  3
   7424   7425   7437   7449     1  0.0000000  0.6508444  3
   7424   7428   7440   7446     1  0.0000000  0.6508444  3
   7424   7431   7434   7443     1  0.0000000  0.6508444  3
   7425   7424   7428   7440     1  180.0000771  2.0083200  2
   7425   7424   7428   7440     1  0.0000000  1.2552000  3
   7425   7424   7431   7434     1  180.0000771  2.0083200  2
   7425   7424   7431   7434     1  0.0000000  1.2552000  3
   7425   7437   7449  14147     1  0.0000000  0.6508444  3
   7428   7424   7425   7437     1  180.0000771  2.0083200  2
   7428   7424   7425   7437     1  0.0000000  1.2552000  3
   7428   7424   7431   7434     1  180.0000771  2.0083200  2
   7428   7424   7431   7434     1  0.0000000  1.2552000  3
   7428   7440   7446  14124     1  0.0000000  0.6508444  3
   7431   7424   7425   7437     1  180.0000771  2.0083200  2
   7431   7424   7425   7437     1  0.0000000  1.2552000  3
   7431   7424   7428   7440     1  180.0000771  2.0083200  2
   7431   7424   7428   7440     1  0.0000000  1.2552000  3
   7431   7434   7443   7452     1  0.0000000  0.6508444  3
   7437   7449  14147  14143     1  180.0000771  0.4184000  2
   7437   7449  14147  14143     1  0.0000000  1.6024720  3
   7440   7446  14124  14120     1  180.0000771  0.4184000  2
   7440   7446  14124  14120     1  0.0000000  1.6024720  3
   7446  14124  14120  14119     1  180.0000771  0.4184000  2
   7446  14124  14120  14119     1  0.0000000  1.6024720  3
   7446  14124  14120  14136     1  180.0000771  5.6484000  1
   7446  14124  14120  14136     1  180.0000771  3.5564000  2
   7446  14124  14120  14136     1  0.0000000  0.4184000  3
   7449  14147  14143  14159     1  180.0000771  5.6484000  1
   7449  14147  14143  14159     1  180.0000771  3.5564000  2
   7449  14147  14143  14159     1  0.0000000  0.4184000  3
   7449  14147  14143  14142     1  180.0000771  0.4184000  2
   7449  14147  14143  14142     1  0.0000000  1.6024720  3
   7453   7454   7466   7478     1  0.0000000  0.6508444  3
   7453   7457   7469   7475     1  0.0000000  0.6508444  3
   7453   7460   7463   7472     1  0.0000000  0.6508444  3
   7454   7453   7457   7469     1  180.0000771  2.0083200  2
   7454   7453   7457   7469     1  0.0000000  1.2552000  3
   7454   7453   7460   7463     1  180.0000771  2.0083200  2
   7454   7453   7460   7463     1  0.0000000  1.2552000  3
   7454   7466   7478  14193     1  0.0000000  0.6508444  3
   7457   7453   7454   7466     1  180.0000771  2.0083200  2
   7457   7453   7454   7466     1  0.0000000  1.2552000  3
   7457   7453   7460   7463     1  180.0000771  2.0083200  2
   7457   7453   7460   7463     1  0.0000000  1.2552000  3
   7457   7469   7475  14170     1  0.0000000  0.6508444  3
   7460   7453   7454   7466     1  180.0000771  2.0083200  2
   7460   7453   7454   7466     1  0.0000000  1.2552000  3
   7460   7453   7457   7469     1  180.0000771  2.0083200  2
   7460   7453   7457   7469     1  0.0000000  1.2552000  3
   7460   7463   7472   7481     1  0.0000000  0.6508444  3
   7466   7478  14193  14189     1  180.0000771  0.4184000  2
   7466   7478  14193  14189     1  0.0000000  1.6024720  3
   7469   7475  14170  14166     1  180.0000771  0.4184000  2
   7469   7475  14170  14166     1  0.0000000  1.6024720  3
   7475  14170  14166  14165     1  180.0000771  0.4184000  2
   7475  14170  14166  14165     1  0.0000000  1.6024720  3
   7475  14170  14166  14182     1  180.0000771  5.6484000  1
   7475  14170  14166  14182     1  180.0000771  3.5564000  2
   7475  14170  14166  14182     1  0.0000000  0.4184000  3
   7478  14193  14189  14205     1  180.0000771  5.6484000  1
   7478  14193  14189  14205     1  180.0000771  3.5564000  2
   7478  14193  14189  14205     1  0.0000000  0.4184000  3
   7478  14193  14189  14188     1  180.0000771  0.4184000  2
   7478  14193  14189  14188     1  0.0000000  1.6024720  3
   7482   7483   7495   7507     1  0.0000000  0.6508444  3
   7482   7486   7498   7504     1  0.0000000  0.6508444  3
   7482   7489   7492   7501     1  0.0000000  0.6508444  3
   7483   7482   7486   7498     1  180.0000771  2.0083200  2
   7483   7482   7486   7498     1  0.0000000  1.2552000  3
   7483   7482   7489   7492     1  180.0000771  2.0083200  2
   7483   7482   7489   7492     1  0.0000000  1.2552000  3
   7483   7495   7507  14239     1  0.0000000  0.6508444  3
   7486   7482   7483   7495     1  180.0000771  2.0083200  2
   7486   7482   7483   7495     1  0.0000000  1.2552000  3
   7486   7482   7489   7492     1  180.0000771  2.0083200  2
   7486   7482   7489   7492     1  0.0000000  1.2552000  3
   7486   7498   7504  14216     1  0.0000000  0.6508444  3
   7489   7482   7483   7495     1  180.0000771  2.0083200  2
   7489   7482   7483   7495     1  0.0000000  1.2552000  3
   7489   7482   7486   7498     1  180.0000771  2.0083200  2
   7489   7482   7486   7498     1  0.0000000  1.2552000  3
   7489   7492   7501   7510     1  0.0000000  0.6508444  3
   7495   7507  14239  14235     1  180.0000771  0.4184000  2
   7495   7507  14239  14235     1  0.0000000  1.6024720  3
   7498   7504  14216  14212     1  180.0000771  0.4184000  2
   7498   7504  14216  14212     1  0.0000000  1.6024720  3
   7504  14216  14212  14211     1  180.0000771  0.4184000  2
   7504  14216  14212  14211     1  0.0000000  1.6024720  3
   7504  14216  14212  14228     1  180.0000771  5.6484000  1
   7504  14216  14212  14228     1  180.0000771  3.5564000  2
   7504  14216  14212  14228     1  0.0000000  0.4184000  3
   7507  14239  14235  14251     1  180.0000771  5.6484000  1
   7507  14239  14235  14251     1  180.0000771  3.5564000  2
   7507  14239  14235  14251     1  0.0000000  0.4184000  3
   7507  14239  14235  14234     1  180.0000771  0.4184000  2
   7507  14239  14235  14234     1  0.0000000  1.6024720  3
   7511   7512   7524   7536     1  0.0000000  0.6508444  3
   7511   7515   7527   7533     1  0.0000000  0.6508444  3
   7511   7518   7521   7530     1  0.0000000  0.6508444  3
   7512   7511   7515   7527     1  180.0000771  2.0083200  2
   7512   7511   7515   7527     1  0.0000000  1.2552000  3
   7512   7511   7518   7521     1  180.0000771  2.0083200  2
   7512   7511   7518   7521     1  0.0000000  1.2552000  3
   7512   7524   7536  14285     1  0.0000000  0.6508444  3
   7515   7511   7512   7524     1  180.0000771  2.0083200  2
   7515   7511   7512   7524     1  0.0000000  1.2552000  3
   7515   7511   7518   7521     1  180.0000771  2.0083200  2
   7515   7511   7518   7521     1  0.0000000  1.2552000  3
   7515   7527   7533  14262     1  0.0000000  0.6508444  3
   7518   7511   7512   7524     1  180.0000771  2.0083200  2
   7518   7511   7512   7524     1  0.0000000  1.2552000  3
   7518   7511   7515   7527     1  180.0000771  2.0083200  2
   7518   7511   7515   7527     1  0.0000000  1.2552000  3
   7518   7521   7530   7539     1  0.0000000  0.6508444  3
   7524   7536  14285  14281     1  180.0000771  0.4184000  2
   7524   7536  14285  14281     1  0.0000000  1.6024720  3
   7527   7533  14262  14258     1  180.0000771  0.4184000  2
   7527   7533  14262  14258     1  0.0000000  1.6024720  3
   7533  14262  14258  14257     1  180.0000771  0.4184000  2
   7533  14262  14258  14257     1  0.0000000  1.6024720  3
   7533  14262  14258  14274     1  180.0000771  5.6484000  1
   7533  14262  14258  14274     1  180.0000771  3.5564000  2
   7533  14262  14258  14274     1  0.0000000  0.4184000  3
   7536  14285  14281  14297     1  180.0000771  5.6484000  1
   7536  14285  14281  14297     1  180.0000771  3.5564000  2
   7536  14285  14281  14297     1  0.0000000  0.4184000  3
   7536  14285  14281  14280     1  180.0000771  0.4184000  2
   7536  14285  14281  14280     1  0.0000000  1.6024720  3
   7540   7541   7553   7565     1  0.0000000  0.6508444  3
   7540   7544   7556   7562     1  0.0000000  0.6508444  3
   7540   7547   7550   7559     1  0.0000000  0.6508444  3
   7541   7540   7544   7556     1  180.0000771  2.0083200  2
   7541   7540   7544   7556     1  0.0000000  1.2552000  3
   7541   7540   7547   7550     1  180.0000771  2.0083200  2
   7541   7540   7547   7550     1  0.0000000  1.2552000  3
   7541   7553   7565  14331     1  0.0000000  0.6508444  3
   7544   7540   7541   7553     1  180.0000771  2.0083200  2
   7544   7540   7541   7553     1  0.0000000  1.2552000  3
   7544   7540   7547   7550     1  180.0000771  2.0083200  2
   7544   7540   7547   7550     1  0.0000000  1.2552000  3
   7544   7556   7562  14308     1  0.0000000  0.6508444  3
   7547   7540   7541   7553     1  180.0000771  2.0083200  2
   7547   7540   7541   7553     1  0.0000000  1.2552000  3
   7547   7540   7544   7556     1  180.0000771  2.0083200  2
   7547   7540   7544   7556     1  0.0000000  1.2552000  3
   7547   7550   7559   7568     1  0.0000000  0.6508444  3
   7553   7565  14331  14327     1  180.0000771  0.4184000  2
   7553   7565  14331  14327     1  0.0000000  1.6024720  3
   7556   7562  14308  14304     1  180.0000771  0.4184000  2
   7556   7562  14308  14304     1  0.0000000  1.6024720  3
   7562  14308  14304  14303     1  180.0000771  0.4184000  2
   7562  14308  14304  14303     1  0.0000000  1.6024720  3
   7562  14308  14304  14320     1  180.0000771  5.6484000  1
   7562  14308  14304  14320     1  180.0000771  3.5564000  2
   7562  14308  14304  14320     1  0.0000000  0.4184000  3
   7565  14331  14327  14343     1  180.0000771  5.6484000  1
   7565  14331  14327  14343     1  180.0000771  3.5564000  2
   7565  14331  14327  14343     1  0.0000000  0.4184000  3
   7565  14331  14327  14326     1  180.0000771  0.4184000  2
   7565  14331  14327  14326     1  0.0000000  1.6024720  3
   7569   7570   7582   7594     1  0.0000000  0.6508444  3
   7569   7573   7585   7591     1  0.0000000  0.6508444  3
   7569   7576   7579   7588     1  0.0000000  0.6508444  3
   7570   7569   7573   7585     1  180.0000771  2.0083200  2
   7570   7569   7573   7585     1  0.0000000  1.2552000  3
   7570   7569   7576   7579     1  180.0000771  2.0083200  2
   7570   7569   7576   7579     1  0.0000000  1.2552000  3
   7570   7582   7594  14377     1  0.0000000  0.6508444  3
   7573   7569   7570   7582     1  180.0000771  2.0083200  2
   7573   7569   7570   7582     1  0.0000000  1.2552000  3
   7573   7569   7576   7579     1  180.0000771  2.0083200  2
   7573   7569   7576   7579     1  0.0000000  1.2552000  3
   7573   7585   7591  14354     1  0.0000000  0.6508444  3
   7576   7569   7570   7582     1  180.0000771  2.0083200  2
   7576   7569   7570   7582     1  0.0000000  1.2552000  3
   7576   7569   7573   7585     1  180.0000771  2.0083200  2
   7576   7569   7573   7585     1  0.0000000  1.2552000  3
   7576   7579   7588   7597     1  0.0000000  0.6508444  3
   7582   7594  14377  14373     1  180.0000771  0.4184000  2
   7582   7594  14377  14373     1  0.0000000  1.6024720  3
   7585   7591  14354  14350     1  180.0000771  0.4184000  2
   7585   7591  14354  14350     1  0.0000000  1.6024720  3
   7591  14354  14350  14349     1  180.0000771  0.4184000  2
   7591  14354  14350  14349     1  0.0000000  1.6024720  3
   7591  14354  14350  14366     1  180.0000771  5.6484000  1
   7591  14354  14350  14366     1  180.0000771  3.5564000  2
   7591  14354  14350  14366     1  0.0000000  0.4184000  3
   7594  14377  14373  14389     1  180.0000771  5.6484000  1
   7594  14377  14373  14389     1  180.0000771  3.5564000  2
   7594  14377  14373  14389     1  0.0000000  0.4184000  3
   7594  14377  14373  14372     1  180.0000771  0.4184000  2
   7594  14377  14373  14372     1  0.0000000  1.6024720  3
   7598   7599   7611   7623     1  0.0000000  0.6508444  3
   7598   7602   7614   7620     1  0.0000000  0.6508444  3
   7598   7605   7608   7617     1  0.0000000  0.6508444  3
   7599   7598   7602   7614     1  180.0000771  2.0083200  2
   7599   7598   7602   7614     1  0.0000000  1.2552000  3
   7599   7598   7605   7608     1  180.0000771  2.0083200  2
   7599   7598   7605   7608     1  0.0000000  1.2552000  3
   7599   7611   7623  14423     1  0.0000000  0.6508444  3
   7602   7598   7599   7611     1  180.0000771  2.0083200  2
   7602   7598   7599   7611     1  0.0000000  1.2552000  3
   7602   7598   7605   7608     1  180.0000771  2.0083200  2
   7602   7598   7605   7608     1  0.0000000  1.2552000  3
   7602   7614   7620  14400     1  0.0000000  0.6508444  3
   7605   7598   7599   7611     1  180.0000771  2.0083200  2
   7605   7598   7599   7611     1  0.0000000  1.2552000  3
   7605   7598   7602   7614     1  180.0000771  2.0083200  2
   7605   7598   7602   7614     1  0.0000000  1.2552000  3
   7605   7608   7617   7626     1  0.0000000  0.6508444  3
   7611   7623  14423  14419     1  180.0000771  0.4184000  2
   7611   7623  14423  14419     1  0.0000000  1.6024720  3
   7614   7620  14400  14396     1  180.0000771  0.4184000  2
   7614   7620  14400  14396     1  0.0000000  1.6024720  3
   7620  14400  14396  14395     1  180.0000771  0.4184000  2
   7620  14400  14396  14395     1  0.0000000  1.6024720  3
   7620  14400  14396  14412     1  180.0000771  5.6484000  1
   7620  14400  14396  14412     1  180.0000771  3.5564000  2
   7620  14400  14396  14412     1  0.0000000  0.4184000  3
   7623  14423  14419  14435     1  180.0000771  5.6484000  1
   7623  14423  14419  14435     1  180.0000771  3.5564000  2
   7623  14423  14419  14435     1  0.0000000  0.4184000  3
   7623  14423  14419  14418     1  180.0000771  0.4184000  2
   7623  14423  14419  14418     1  0.0000000  1.6024720  3
   7627   7628   7640   7652     1  0.0000000  0.6508444  3
   7627   7631   7643   7649     1  0.0000000  0.6508444  3
   7627   7634   7637   7646     1  0.0000000  0.6508444  3
   7628   7627   7631   7643     1  180.0000771  2.0083200  2
   7628   7627   7631   7643     1  0.0000000  1.2552000  3
   7628   7627   7634   7637     1  180.0000771  2.0083200  2
   7628   7627   7634   7637     1  0.0000000  1.2552000  3
   7628   7640   7652  14469     1  0.0000000  0.6508444  3
   7631   7627   7628   7640     1  180.0000771  2.0083200  2
   7631   7627   7628   7640     1  0.0000000  1.2552000  3
   7631   7627   7634   7637     1  180.0000771  2.0083200  2
   7631   7627   7634   7637     1  0.0000000  1.2552000  3
   7631   7643   7649  14446     1  0.0000000  0.6508444  3
   7634   7627   7628   7640     1  180.0000771  2.0083200  2
   7634   7627   7628   7640     1  0.0000000  1.2552000  3
   7634   7627   7631   7643     1  180.0000771  2.0083200  2
   7634   7627   7631   7643     1  0.0000000  1.2552000  3
   7634   7637   7646   7655     1  0.0000000  0.6508444  3
   7640   7652  14469  14465     1  180.0000771  0.4184000  2
   7640   7652  14469  14465     1  0.0000000  1.6024720  3
   7643   7649  14446  14442     1  180.0000771  0.4184000  2
   7643   7649  14446  14442     1  0.0000000  1.6024720  3
   7649  14446  14442  14441     1  180.0000771  0.4184000  2
   7649  14446  14442  14441     1  0.0000000  1.6024720  3
   7649  14446  14442  14458     1  180.0000771  5.6484000  1
   7649  14446  14442  14458     1  180.0000771  3.5564000  2
   7649  14446  14442  14458     1  0.0000000  0.4184000  3
   7652  14469  14465  14481     1  180.0000771  5.6484000  1
   7652  14469  14465  14481     1  180.0000771  3.5564000  2
   7652  14469  14465  14481     1  0.0000000  0.4184000  3
   7652  14469  14465  14464     1  180.0000771  0.4184000  2
   7652  14469  14465  14464     1  0.0000000  1.6024720  3
   7656   7657   7669   7681     1  0.0000000  0.6508444  3
   7656   7660   7672   7678     1  0.0000000  0.6508444  3
   7656   7663   7666   7675     1  0.0000000  0.6508444  3
   7657   7656   7660   7672     1  180.0000771  2.0083200  2
   7657   7656   7660   7672     1  0.0000000  1.2552000  3
   7657   7656   7663   7666     1  180.0000771  2.0083200  2
   7657   7656   7663   7666     1  0.0000000  1.2552000  3
   7657   7669   7681  14515     1  0.0000000  0.6508444  3
   7660   7656   7657   7669     1  180.0000771  2.0083200  2
   7660   7656   7657   7669     1  0.0000000  1.2552000  3
   7660   7656   7663   7666     1  180.0000771  2.0083200  2
   7660   7656   7663   7666     1  0.0000000  1.2552000  3
   7660   7672   7678  14492     1  0.0000000  0.6508444  3
   7663   7656   7657   7669     1  180.0000771  2.0083200  2
   7663   7656   7657   7669     1  0.0000000  1.2552000  3
   7663   7656   7660   7672     1  180.0000771  2.0083200  2
   7663   7656   7660   7672     1  0.0000000  1.2552000  3
   7663   7666   7675   7684     1  0.0000000  0.6508444  3
   7669   7681  14515  14511     1  180.0000771  0.4184000  2
   7669   7681  14515  14511     1  0.0000000  1.6024720  3
   7672   7678  14492  14488     1  180.0000771  0.4184000  2
   7672   7678  14492  14488     1  0.0000000  1.6024720  3
   7678  14492  14488  14487     1  180.0000771  0.4184000  2
   7678  14492  14488  14487     1  0.0000000  1.6024720  3
   7678  14492  14488  14504     1  180.0000771  5.6484000  1
   7678  14492  14488  14504     1  180.0000771  3.5564000  2
   7678  14492  14488  14504     1  0.0000000  0.4184000  3
   7681  14515  14511  14527     1  180.0000771  5.6484000  1
   7681  14515  14511  14527     1  180.0000771  3.5564000  2
   7681  14515  14511  14527     1  0.0000000  0.4184000  3
   7681  14515  14511  14510     1  180.0000771  0.4184000  2
   7681  14515  14511  14510     1  0.0000000  1.6024720  3
   7685   7686   7698   7710     1  0.0000000  0.6508444  3
   7685   7689   7701   7707     1  0.0000000  0.6508444  3
   7685   7692   7695   7704     1  0.0000000  0.6508444  3
   7686   7685   7689   7701     1  180.0000771  2.0083200  2
   7686   7685   7689   7701     1  0.0000000  1.2552000  3
   7686   7685   7692   7695     1  180.0000771  2.0083200  2
   7686   7685   7692   7695     1  0.0000000  1.2552000  3
   7686   7698   7710  14561     1  0.0000000  0.6508444  3
   7689   7685   7686   7698     1  180.0000771  2.0083200  2
   7689   7685   7686   7698     1  0.0000000  1.2552000  3
   7689   7685   7692   7695     1  180.0000771  2.0083200  2
   7689   7685   7692   7695     1  0.0000000  1.2552000  3
   7689   7701   7707  14538     1  0.0000000  0.6508444  3
   7692   7685   7686   7698     1  180.0000771  2.0083200  2
   7692   7685   7686   7698     1  0.0000000  1.2552000  3
   7692   7685   7689   7701     1  180.0000771  2.0083200  2
   7692   7685   7689   7701     1  0.0000000  1.2552000  3
   7692   7695   7704   7713     1  0.0000000  0.6508444  3
   7698   7710  14561  14557     1  180.0000771  0.4184000  2
   7698   7710  14561  14557     1  0.0000000  1.6024720  3
   7701   7707  14538  14534     1  180.0000771  0.4184000  2
   7701   7707  14538  14534     1  0.0000000  1.6024720  3
   7707  14538  14534  14533     1  180.0000771  0.4184000  2
   7707  14538  14534  14533     1  0.0000000  1.6024720  3
   7707  14538  14534  14550     1  180.0000771  5.6484000  1
   7707  14538  14534  14550     1  180.0000771  3.5564000  2
   7707  14538  14534  14550     1  0.0000000  0.4184000  3
   7710  14561  14557  14573     1  180.0000771  5.6484000  1
   7710  14561  14557  14573     1  180.0000771  3.5564000  2
   7710  14561  14557  14573     1  0.0000000  0.4184000  3
   7710  14561  14557  14556     1  180.0000771  0.4184000  2
   7710  14561  14557  14556     1  0.0000000  1.6024720  3
   7714   7715   7727   7739     1  0.0000000  0.6508444  3
   7714   7718   7730   7736     1  0.0000000  0.6508444  3
   7714   7721   7724   7733     1  0.0000000  0.6508444  3
   7715   7714   7718   7730     1  180.0000771  2.0083200  2
   7715   7714   7718   7730     1  0.0000000  1.2552000  3
   7715   7714   7721   7724     1  180.0000771  2.0083200  2
   7715   7714   7721   7724     1  0.0000000  1.2552000  3
   7715   7727   7739  14607     1  0.0000000  0.6508444  3
   7718   7714   7715   7727     1  180.0000771  2.0083200  2
   7718   7714   7715   7727     1  0.0000000  1.2552000  3
   7718   7714   7721   7724     1  180.0000771  2.0083200  2
   7718   7714   7721   7724     1  0.0000000  1.2552000  3
   7718   7730   7736  14584     1  0.0000000  0.6508444  3
   7721   7714   7715   7727     1  180.0000771  2.0083200  2
   7721   7714   7715   7727     1  0.0000000  1.2552000  3
   7721   7714   7718   7730     1  180.0000771  2.0083200  2
   7721   7714   7718   7730     1  0.0000000  1.2552000  3
   7721   7724   7733   7742     1  0.0000000  0.6508444  3
   7727   7739  14607  14603     1  180.0000771  0.4184000  2
   7727   7739  14607  14603     1  0.0000000  1.6024720  3
   7730   7736  14584  14580     1  180.0000771  0.4184000  2
   7730   7736  14584  14580     1  0.0000000  1.6024720  3
   7736  14584  14580  14579     1  180.0000771  0.4184000  2
   7736  14584  14580  14579     1  0.0000000  1.6024720  3
   7736  14584  14580  14596     1  180.0000771  5.6484000  1
   7736  14584  14580  14596     1  180.0000771  3.5564000  2
   7736  14584  14580  14596     1  0.0000000  0.4184000  3
   7739  14607  14603  14619     1  180.0000771  5.6484000  1
   7739  14607  14603  14619     1  180.0000771  3.5564000  2
   7739  14607  14603  14619     1  0.0000000  0.4184000  3
   7739  14607  14603  14602     1  180.0000771  0.4184000  2
   7739  14607  14603  14602     1  0.0000000  1.6024720  3
   7743   7744   7756   7768     1  0.0000000  0.6508444  3
   7743   7747   7759   7765     1  0.0000000  0.6508444  3
   7743   7750   7753   7762     1  0.0000000  0.6508444  3
   7744   7743   7747   7759     1  180.0000771  2.0083200  2
   7744   7743   7747   7759     1  0.0000000  1.2552000  3
   7744   7743   7750   7753     1  180.0000771  2.0083200  2
   7744   7743   7750   7753     1  0.0000000  1.2552000  3
   7744   7756   7768  14653     1  0.0000000  0.6508444  3
   7747   7743   7744   7756     1  180.0000771  2.0083200  2
   7747   7743   7744   7756     1  0.0000000  1.2552000  3
   7747   7743   7750   7753     1  180.0000771  2.0083200  2
   7747   7743   7750   7753     1  0.0000000  1.2552000  3
   7747   7759   7765  14630     1  0.0000000  0.6508444  3
   7750   7743   7744   7756     1  180.0000771  2.0083200  2
   7750   7743   7744   7756     1  0.0000000  1.2552000  3
   7750   7743   7747   7759     1  180.0000771  2.0083200  2
   7750   7743   7747   7759     1  0.0000000  1.2552000  3
   7750   7753   7762   7771     1  0.0000000  0.6508444  3
   7756   7768  14653  14649     1  180.0000771  0.4184000  2
   7756   7768  14653  14649     1  0.0000000  1.6024720  3
   7759   7765  14630  14626     1  180.0000771  0.4184000  2
   7759   7765  14630  14626     1  0.0000000  1.6024720  3
   7765  14630  14626  14625     1  180.0000771  0.4184000  2
   7765  14630  14626  14625     1  0.0000000  1.6024720  3
   7765  14630  14626  14642     1  180.0000771  5.6484000  1
   7765  14630  14626  14642     1  180.0000771  3.5564000  2
   7765  14630  14626  14642     1  0.0000000  0.4184000  3
   7768  14653  14649  14665     1  180.0000771  5.6484000  1
   7768  14653  14649  14665     1  180.0000771  3.5564000  2
   7768  14653  14649  14665     1  0.0000000  0.4184000  3
   7768  14653  14649  14648     1  180.0000771  0.4184000  2
   7768  14653  14649  14648     1  0.0000000  1.6024720  3
   7772   7773   7785   7797     1  0.0000000  0.6508444  3
   7772   7776   7788   7794     1  0.0000000  0.6508444  3
   7772   7779   7782   7791     1  0.0000000  0.6508444  3
   7773   7772   7776   7788     1  180.0000771  2.0083200  2
   7773   7772   7776   7788     1  0.0000000  1.2552000  3
   7773   7772   7779   7782     1  180.0000771  2.0083200  2
   7773   7772   7779   7782     1  0.0000000  1.2552000  3
   7773   7785   7797  14699     1  0.0000000  0.6508444  3
   7776   7772   7773   7785     1  180.0000771  2.0083200  2
   7776   7772   7773   7785     1  0.0000000  1.2552000  3
   7776   7772   7779   7782     1  180.0000771  2.0083200  2
   7776   7772   7779   7782     1  0.0000000  1.2552000  3
   7776   7788   7794  14676     1  0.0000000  0.6508444  3
   7779   7772   7773   7785     1  180.0000771  2.0083200  2
   7779   7772   7773   7785     1  0.0000000  1.2552000  3
   7779   7772   7776   7788     1  180.0000771  2.0083200  2
   7779   7772   7776   7788     1  0.0000000  1.2552000  3
   7779   7782   7791   7800     1  0.0000000  0.6508444  3
   7785   7797  14699  14695     1  180.0000771  0.4184000  2
   7785   7797  14699  14695     1  0.0000000  1.6024720  3
   7788   7794  14676  14672     1  180.0000771  0.4184000  2
   7788   7794  14676  14672     1  0.0000000  1.6024720  3
   7794  14676  14672  14671     1  180.0000771  0.4184000  2
   7794  14676  14672  14671     1  0.0000000  1.6024720  3
   7794  14676  14672  14688     1  180.0000771  5.6484000  1
   7794  14676  14672  14688     1  180.0000771  3.5564000  2
   7794  14676  14672  14688     1  0.0000000  0.4184000  3
   7797  14699  14695  14711     1  180.0000771  5.6484000  1
   7797  14699  14695  14711     1  180.0000771  3.5564000  2
   7797  14699  14695  14711     1  0.0000000  0.4184000  3
   7797  14699  14695  14694     1  180.0000771  0.4184000  2
   7797  14699  14695  14694     1  0.0000000  1.6024720  3
   7801   7802   7814   7826     1  0.0000000  0.6508444  3
   7801   7805   7817   7823     1  0.0000000  0.6508444  3
   7801   7808   7811   7820     1  0.0000000  0.6508444  3
   7802   7801   7805   7817     1  180.0000771  2.0083200  2
   7802   7801   7805   7817     1  0.0000000  1.2552000  3
   7802   7801   7808   7811     1  180.0000771  2.0083200  2
   7802   7801   7808   7811     1  0.0000000  1.2552000  3
   7802   7814   7826  14745     1  0.0000000  0.6508444  3
   7805   7801   7802   7814     1  180.0000771  2.0083200  2
   7805   7801   7802   7814     1  0.0000000  1.2552000  3
   7805   7801   7808   7811     1  180.0000771  2.0083200  2
   7805   7801   7808   7811     1  0.0000000  1.2552000  3
   7805   7817   7823  14722     1  0.0000000  0.6508444  3
   7808   7801   7802   7814     1  180.0000771  2.0083200  2
   7808   7801   7802   7814     1  0.0000000  1.2552000  3
   7808   7801   7805   7817     1  180.0000771  2.0083200  2
   7808   7801   7805   7817     1  0.0000000  1.2552000  3
   7808   7811   7820   7829     1  0.0000000  0.6508444  3
   7814   7826  14745  14741     1  180.0000771  0.4184000  2
   7814   7826  14745  14741     1  0.0000000  1.6024720  3
   7817   7823  14722  14718     1  180.0000771  0.4184000  2
   7817   7823  14722  14718     1  0.0000000  1.6024720  3
   7823  14722  14718  14717     1  180.0000771  0.4184000  2
   7823  14722  14718  14717     1  0.0000000  1.6024720  3
   7823  14722  14718  14734     1  180.0000771  5.6484000  1
   7823  14722  14718  14734     1  180.0000771  3.5564000  2
   7823  14722  14718  14734     1  0.0000000  0.4184000  3
   7826  14745  14741  14757     1  180.0000771  5.6484000  1
   7826  14745  14741  14757     1  180.0000771  3.5564000  2
   7826  14745  14741  14757     1  0.0000000  0.4184000  3
   7826  14745  14741  14740     1  180.0000771  0.4184000  2
   7826  14745  14741  14740     1  0.0000000  1.6024720  3
   7830   7831   7843   7855     1  0.0000000  0.6508444  3
   7830   7834   7846   7852     1  0.0000000  0.6508444  3
   7830   7837   7840   7849     1  0.0000000  0.6508444  3
   7831   7830   7834   7846     1  180.0000771  2.0083200  2
   7831   7830   7834   7846     1  0.0000000  1.2552000  3
   7831   7830   7837   7840     1  180.0000771  2.0083200  2
   7831   7830   7837   7840     1  0.0000000  1.2552000  3
   7831   7843   7855  14791     1  0.0000000  0.6508444  3
   7834   7830   7831   7843     1  180.0000771  2.0083200  2
   7834   7830   7831   7843     1  0.0000000  1.2552000  3
   7834   7830   7837   7840     1  180.0000771  2.0083200  2
   7834   7830   7837   7840     1  0.0000000  1.2552000  3
   7834   7846   7852  14768     1  0.0000000  0.6508444  3
   7837   7830   7831   7843     1  180.0000771  2.0083200  2
   7837   7830   7831   7843     1  0.0000000  1.2552000  3
   7837   7830   7834   7846     1  180.0000771  2.0083200  2
   7837   7830   7834   7846     1  0.0000000  1.2552000  3
   7837   7840   7849   7858     1  0.0000000  0.6508444  3
   7843   7855  14791  14787     1  180.0000771  0.4184000  2
   7843   7855  14791  14787     1  0.0000000  1.6024720  3
   7846   7852  14768  14764     1  180.0000771  0.4184000  2
   7846   7852  14768  14764     1  0.0000000  1.6024720  3
   7852  14768  14764  14763     1  180.0000771  0.4184000  2
   7852  14768  14764  14763     1  0.0000000  1.6024720  3
   7852  14768  14764  14780     1  180.0000771  5.6484000  1
   7852  14768  14764  14780     1  180.0000771  3.5564000  2
   7852  14768  14764  14780     1  0.0000000  0.4184000  3
   7855  14791  14787  14803     1  180.0000771  5.6484000  1
   7855  14791  14787  14803     1  180.0000771  3.5564000  2
   7855  14791  14787  14803     1  0.0000000  0.4184000  3
   7855  14791  14787  14786     1  180.0000771  0.4184000  2
   7855  14791  14787  14786     1  0.0000000  1.6024720  3
   7859   7860   7872   7884     1  0.0000000  0.6508444  3
   7859   7863   7875   7881     1  0.0000000  0.6508444  3
   7859   7866   7869   7878     1  0.0000000  0.6508444  3
   7860   7859   7863   7875     1  180.0000771  2.0083200  2
   7860   7859   7863   7875     1  0.0000000  1.2552000  3
   7860   7859   7866   7869     1  180.0000771  2.0083200  2
   7860   7859   7866   7869     1  0.0000000  1.2552000  3
   7860   7872   7884  14837     1  0.0000000  0.6508444  3
   7863   7859   7860   7872     1  180.0000771  2.0083200  2
   7863   7859   7860   7872     1  0.0000000  1.2552000  3
   7863   7859   7866   7869     1  180.0000771  2.0083200  2
   7863   7859   7866   7869     1  0.0000000  1.2552000  3
   7863   7875   7881  14814     1  0.0000000  0.6508444  3
   7866   7859   7860   7872     1  180.0000771  2.0083200  2
   7866   7859   7860   7872     1  0.0000000  1.2552000  3
   7866   7859   7863   7875     1  180.0000771  2.0083200  2
   7866   7859   7863   7875     1  0.0000000  1.2552000  3
   7866   7869   7878   7887     1  0.0000000  0.6508444  3
   7872   7884  14837  14833     1  180.0000771  0.4184000  2
   7872   7884  14837  14833     1  0.0000000  1.6024720  3
   7875   7881  14814  14810     1  180.0000771  0.4184000  2
   7875   7881  14814  14810     1  0.0000000  1.6024720  3
   7881  14814  14810  14809     1  180.0000771  0.4184000  2
   7881  14814  14810  14809     1  0.0000000  1.6024720  3
   7881  14814  14810  14826     1  180.0000771  5.6484000  1
   7881  14814  14810  14826     1  180.0000771  3.5564000  2
   7881  14814  14810  14826     1  0.0000000  0.4184000  3
   7884  14837  14833  14849     1  180.0000771  5.6484000  1
   7884  14837  14833  14849     1  180.0000771  3.5564000  2
   7884  14837  14833  14849     1  0.0000000  0.4184000  3
   7884  14837  14833  14832     1  180.0000771  0.4184000  2
   7884  14837  14833  14832     1  0.0000000  1.6024720  3
   7888   7889   7901   7913     1  0.0000000  0.6508444  3
   7888   7892   7904   7910     1  0.0000000  0.6508444  3
   7888   7895   7898   7907     1  0.0000000  0.6508444  3
   7889   7888   7892   7904     1  180.0000771  2.0083200  2
   7889   7888   7892   7904     1  0.0000000  1.2552000  3
   7889   7888   7895   7898     1  180.0000771  2.0083200  2
   7889   7888   7895   7898     1  0.0000000  1.2552000  3
   7889   7901   7913  14883     1  0.0000000  0.6508444  3
   7892   7888   7889   7901     1  180.0000771  2.0083200  2
   7892   7888   7889   7901     1  0.0000000  1.2552000  3
   7892   7888   7895   7898     1  180.0000771  2.0083200  2
   7892   7888   7895   7898     1  0.0000000  1.2552000  3
   7892   7904   7910  14860     1  0.0000000  0.6508444  3
   7895   7888   7889   7901     1  180.0000771  2.0083200  2
   7895   7888   7889   7901     1  0.0000000  1.2552000  3
   7895   7888   7892   7904     1  180.0000771  2.0083200  2
   7895   7888   7892   7904     1  0.0000000  1.2552000  3
   7895   7898   7907   7916     1  0.0000000  0.6508444  3
   7901   7913  14883  14879     1  180.0000771  0.4184000  2
   7901   7913  14883  14879     1  0.0000000  1.6024720  3
   7904   7910  14860  14856     1  180.0000771  0.4184000  2
   7904   7910  14860  14856     1  0.0000000  1.6024720  3
   7910  14860  14856  14855     1  180.0000771  0.4184000  2
   7910  14860  14856  14855     1  0.0000000  1.6024720  3
   7910  14860  14856  14872     1  180.0000771  5.6484000  1
   7910  14860  14856  14872     1  180.0000771  3.5564000  2
   7910  14860  14856  14872     1  0.0000000  0.4184000  3
   7913  14883  14879  14895     1  180.0000771  5.6484000  1
   7913  14883  14879  14895     1  180.0000771  3.5564000  2
   7913  14883  14879  14895     1  0.0000000  0.4184000  3
   7913  14883  14879  14878     1  180.0000771  0.4184000  2
   7913  14883  14879  14878     1  0.0000000  1.6024720  3
   7917   7918   7930   7942     1  0.0000000  0.6508444  3
   7917   7921   7933   7939     1  0.0000000  0.6508444  3
   7917   7924   7927   7936     1  0.0000000  0.6508444  3
   7918   7917   7921   7933     1  180.0000771  2.0083200  2
   7918   7917   7921   7933     1  0.0000000  1.2552000  3
   7918   7917   7924   7927     1  180.0000771  2.0083200  2
   7918   7917   7924   7927     1  0.0000000  1.2552000  3
   7918   7930   7942  14929     1  0.0000000  0.6508444  3
   7921   7917   7918   7930     1  180.0000771  2.0083200  2
   7921   7917   7918   7930     1  0.0000000  1.2552000  3
   7921   7917   7924   7927     1  180.0000771  2.0083200  2
   7921   7917   7924   7927     1  0.0000000  1.2552000  3
   7921   7933   7939  14906     1  0.0000000  0.6508444  3
   7924   7917   7918   7930     1  180.0000771  2.0083200  2
   7924   7917   7918   7930     1  0.0000000  1.2552000  3
   7924   7917   7921   7933     1  180.0000771  2.0083200  2
   7924   7917   7921   7933     1  0.0000000  1.2552000  3
   7924   7927   7936   7945     1  0.0000000  0.6508444  3
   7930   7942  14929  14925     1  180.0000771  0.4184000  2
   7930   7942  14929  14925     1  0.0000000  1.6024720  3
   7933   7939  14906  14902     1  180.0000771  0.4184000  2
   7933   7939  14906  14902     1  0.0000000  1.6024720  3
   7939  14906  14902  14901     1  180.0000771  0.4184000  2
   7939  14906  14902  14901     1  0.0000000  1.6024720  3
   7939  14906  14902  14918     1  180.0000771  5.6484000  1
   7939  14906  14902  14918     1  180.0000771  3.5564000  2
   7939  14906  14902  14918     1  0.0000000  0.4184000  3
   7942  14929  14925  14941     1  180.0000771  5.6484000  1
   7942  14929  14925  14941     1  180.0000771  3.5564000  2
   7942  14929  14925  14941     1  0.0000000  0.4184000  3
   7942  14929  14925  14924     1  180.0000771  0.4184000  2
   7942  14929  14925  14924     1  0.0000000  1.6024720  3
   7946   7947   7959   7971     1  0.0000000  0.6508444  3
   7946   7950   7962   7968     1  0.0000000  0.6508444  3
   7946   7953   7956   7965     1  0.0000000  0.6508444  3
   7947   7946   7950   7962     1  180.0000771  2.0083200  2
   7947   7946   7950   7962     1  0.0000000  1.2552000  3
   7947   7946   7953   7956     1  180.0000771  2.0083200  2
   7947   7946   7953   7956     1  0.0000000  1.2552000  3
   7947   7959   7971  14975     1  0.0000000  0.6508444  3
   7950   7946   7947   7959     1  180.0000771  2.0083200  2
   7950   7946   7947   7959     1  0.0000000  1.2552000  3
   7950   7946   7953   7956     1  180.0000771  2.0083200  2
   7950   7946   7953   7956     1  0.0000000  1.2552000  3
   7950   7962   7968  14952     1  0.0000000  0.6508444  3
   7953   7946   7947   7959     1  180.0000771  2.0083200  2
   7953   7946   7947   7959     1  0.0000000  1.2552000  3
   7953   7946   7950   7962     1  180.0000771  2.0083200  2
   7953   7946   7950   7962     1  0.0000000  1.2552000  3
   7953   7956   7965   7974     1  0.0000000  0.6508444  3
   7959   7971  14975  14971     1  180.0000771  0.4184000  2
   7959   7971  14975  14971     1  0.0000000  1.6024720  3
   7962   7968  14952  14948     1  180.0000771  0.4184000  2
   7962   7968  14952  14948     1  0.0000000  1.6024720  3
   7968  14952  14948  14947     1  180.0000771  0.4184000  2
   7968  14952  14948  14947     1  0.0000000  1.6024720  3
   7968  14952  14948  14964     1  180.0000771  5.6484000  1
   7968  14952  14948  14964     1  180.0000771  3.5564000  2
   7968  14952  14948  14964     1  0.0000000  0.4184000  3
   7971  14975  14971  14987     1  180.0000771  5.6484000  1
   7971  14975  14971  14987     1  180.0000771  3.5564000  2
   7971  14975  14971  14987     1  0.0000000  0.4184000  3
   7971  14975  14971  14970     1  180.0000771  0.4184000  2
   7971  14975  14971  14970     1  0.0000000  1.6024720  3
   7975   7976   7988   8000     1  0.0000000  0.6508444  3
   7975   7979   7991   7997     1  0.0000000  0.6508444  3
   7975   7982   7985   7994     1  0.0000000  0.6508444  3
   7976   7975   7979   7991     1  180.0000771  2.0083200  2
   7976   7975   7979   7991     1  0.0000000  1.2552000  3
   7976   7975   7982   7985     1  180.0000771  2.0083200  2
   7976   7975   7982   7985     1  0.0000000  1.2552000  3
   7976   7988   8000  15021     1  0.0000000  0.6508444  3
   7979   7975   7976   7988     1  180.0000771  2.0083200  2
   7979   7975   7976   7988     1  0.0000000  1.2552000  3
   7979   7975   7982   7985     1  180.0000771  2.0083200  2
   7979   7975   7982   7985     1  0.0000000  1.2552000  3
   7979   7991   7997  14998     1  0.0000000  0.6508444  3
   7982   7975   7976   7988     1  180.0000771  2.0083200  2
   7982   7975   7976   7988     1  0.0000000  1.2552000  3
   7982   7975   7979   7991     1  180.0000771  2.0083200  2
   7982   7975   7979   7991     1  0.0000000  1.2552000  3
   7982   7985   7994   8003     1  0.0000000  0.6508444  3
   7988   8000  15021  15017     1  180.0000771  0.4184000  2
   7988   8000  15021  15017     1  0.0000000  1.6024720  3
   7991   7997  14998  14994     1  180.0000771  0.4184000  2
   7991   7997  14998  14994     1  0.0000000  1.6024720  3
   7997  14998  14994  14993     1  180.0000771  0.4184000  2
   7997  14998  14994  14993     1  0.0000000  1.6024720  3
   7997  14998  14994  15010     1  180.0000771  5.6484000  1
   7997  14998  14994  15010     1  180.0000771  3.5564000  2
   7997  14998  14994  15010     1  0.0000000  0.4184000  3
   8000  15021  15017  15033     1  180.0000771  5.6484000  1
   8000  15021  15017  15033     1  180.0000771  3.5564000  2
   8000  15021  15017  15033     1  0.0000000  0.4184000  3
   8000  15021  15017  15016     1  180.0000771  0.4184000  2
   8000  15021  15017  15016     1  0.0000000  1.6024720  3
   8004   8005   8017   8029     1  0.0000000  0.6508444  3
   8004   8008   8020   8026     1  0.0000000  0.6508444  3
   8004   8011   8014   8023     1  0.0000000  0.6508444  3
   8005   8004   8008   8020     1  180.0000771  2.0083200  2
   8005   8004   8008   8020     1  0.0000000  1.2552000  3
   8005   8004   8011   8014     1  180.0000771  2.0083200  2
   8005   8004   8011   8014     1  0.0000000  1.2552000  3
   8005   8017   8029  15067     1  0.0000000  0.6508444  3
   8008   8004   8005   8017     1  180.0000771  2.0083200  2
   8008   8004   8005   8017     1  0.0000000  1.2552000  3
   8008   8004   8011   8014     1  180.0000771  2.0083200  2
   8008   8004   8011   8014     1  0.0000000  1.2552000  3
   8008   8020   8026  15044     1  0.0000000  0.6508444  3
   8011   8004   8005   8017     1  180.0000771  2.0083200  2
   8011   8004   8005   8017     1  0.0000000  1.2552000  3
   8011   8004   8008   8020     1  180.0000771  2.0083200  2
   8011   8004   8008   8020     1  0.0000000  1.2552000  3
   8011   8014   8023   8032     1  0.0000000  0.6508444  3
   8017   8029  15067  15063     1  180.0000771  0.4184000  2
   8017   8029  15067  15063     1  0.0000000  1.6024720  3
   8020   8026  15044  15040     1  180.0000771  0.4184000  2
   8020   8026  15044  15040     1  0.0000000  1.6024720  3
   8026  15044  15040  15039     1  180.0000771  0.4184000  2
   8026  15044  15040  15039     1  0.0000000  1.6024720  3
   8026  15044  15040  15056     1  180.0000771  5.6484000  1
   8026  15044  15040  15056     1  180.0000771  3.5564000  2
   8026  15044  15040  15056     1  0.0000000  0.4184000  3
   8029  15067  15063  15079     1  180.0000771  5.6484000  1
   8029  15067  15063  15079     1  180.0000771  3.5564000  2
   8029  15067  15063  15079     1  0.0000000  0.4184000  3
   8029  15067  15063  15062     1  180.0000771  0.4184000  2
   8029  15067  15063  15062     1  0.0000000  1.6024720  3
   8033   8034   8046   8058     1  0.0000000  0.6508444  3
   8033   8037   8049   8055     1  0.0000000  0.6508444  3
   8033   8040   8043   8052     1  0.0000000  0.6508444  3
   8034   8033   8037   8049     1  180.0000771  2.0083200  2
   8034   8033   8037   8049     1  0.0000000  1.2552000  3
   8034   8033   8040   8043     1  180.0000771  2.0083200  2
   8034   8033   8040   8043     1  0.0000000  1.2552000  3
   8034   8046   8058  15113     1  0.0000000  0.6508444  3
   8037   8033   8034   8046     1  180.0000771  2.0083200  2
   8037   8033   8034   8046     1  0.0000000  1.2552000  3
   8037   8033   8040   8043     1  180.0000771  2.0083200  2
   8037   8033   8040   8043     1  0.0000000  1.2552000  3
   8037   8049   8055  15090     1  0.0000000  0.6508444  3
   8040   8033   8034   8046     1  180.0000771  2.0083200  2
   8040   8033   8034   8046     1  0.0000000  1.2552000  3
   8040   8033   8037   8049     1  180.0000771  2.0083200  2
   8040   8033   8037   8049     1  0.0000000  1.2552000  3
   8040   8043   8052   8061     1  0.0000000  0.6508444  3
   8046   8058  15113  15109     1  180.0000771  0.4184000  2
   8046   8058  15113  15109     1  0.0000000  1.6024720  3
   8049   8055  15090  15086     1  180.0000771  0.4184000  2
   8049   8055  15090  15086     1  0.0000000  1.6024720  3
   8055  15090  15086  15085     1  180.0000771  0.4184000  2
   8055  15090  15086  15085     1  0.0000000  1.6024720  3
   8055  15090  15086  15102     1  180.0000771  5.6484000  1
   8055  15090  15086  15102     1  180.0000771  3.5564000  2
   8055  15090  15086  15102     1  0.0000000  0.4184000  3
   8058  15113  15109  15125     1  180.0000771  5.6484000  1
   8058  15113  15109  15125     1  180.0000771  3.5564000  2
   8058  15113  15109  15125     1  0.0000000  0.4184000  3
   8058  15113  15109  15108     1  180.0000771  0.4184000  2
   8058  15113  15109  15108     1  0.0000000  1.6024720  3
   8062   8063   8075   8087     1  0.0000000  0.6508444  3
   8062   8066   8078   8084     1  0.0000000  0.6508444  3
   8062   8069   8072   8081     1  0.0000000  0.6508444  3
   8063   8062   8066   8078     1  180.0000771  2.0083200  2
   8063   8062   8066   8078     1  0.0000000  1.2552000  3
   8063   8062   8069   8072     1  180.0000771  2.0083200  2
   8063   8062   8069   8072     1  0.0000000  1.2552000  3
   8063   8075   8087  15159     1  0.0000000  0.6508444  3
   8066   8062   8063   8075     1  180.0000771  2.0083200  2
   8066   8062   8063   8075     1  0.0000000  1.2552000  3
   8066   8062   8069   8072     1  180.0000771  2.0083200  2
   8066   8062   8069   8072     1  0.0000000  1.2552000  3
   8066   8078   8084  15136     1  0.0000000  0.6508444  3
   8069   8062   8063   8075     1  180.0000771  2.0083200  2
   8069   8062   8063   8075     1  0.0000000  1.2552000  3
   8069   8062   8066   8078     1  180.0000771  2.0083200  2
   8069   8062   8066   8078     1  0.0000000  1.2552000  3
   8069   8072   8081   8090     1  0.0000000  0.6508444  3
   8075   8087  15159  15155     1  180.0000771  0.4184000  2
   8075   8087  15159  15155     1  0.0000000  1.6024720  3
   8078   8084  15136  15132     1  180.0000771  0.4184000  2
   8078   8084  15136  15132     1  0.0000000  1.6024720  3
   8084  15136  15132  15131     1  180.0000771  0.4184000  2
   8084  15136  15132  15131     1  0.0000000  1.6024720  3
   8084  15136  15132  15148     1  180.0000771  5.6484000  1
   8084  15136  15132  15148     1  180.0000771  3.5564000  2
   8084  15136  15132  15148     1  0.0000000  0.4184000  3
   8087  15159  15155  15171     1  180.0000771  5.6484000  1
   8087  15159  15155  15171     1  180.0000771  3.5564000  2
   8087  15159  15155  15171     1  0.0000000  0.4184000  3
   8087  15159  15155  15154     1  180.0000771  0.4184000  2
   8087  15159  15155  15154     1  0.0000000  1.6024720  3
   8091   8092   8104   8116     1  0.0000000  0.6508444  3
   8091   8095   8107   8113     1  0.0000000  0.6508444  3
   8091   8098   8101   8110     1  0.0000000  0.6508444  3
   8092   8091   8095   8107     1  180.0000771  2.0083200  2
   8092   8091   8095   8107     1  0.0000000  1.2552000  3
   8092   8091   8098   8101     1  180.0000771  2.0083200  2
   8092   8091   8098   8101     1  0.0000000  1.2552000  3
   8092   8104   8116  15205     1  0.0000000  0.6508444  3
   8095   8091   8092   8104     1  180.0000771  2.0083200  2
   8095   8091   8092   8104     1  0.0000000  1.2552000  3
   8095   8091   8098   8101     1  180.0000771  2.0083200  2
   8095   8091   8098   8101     1  0.0000000  1.2552000  3
   8095   8107   8113  15182     1  0.0000000  0.6508444  3
   8098   8091   8092   8104     1  180.0000771  2.0083200  2
   8098   8091   8092   8104     1  0.0000000  1.2552000  3
   8098   8091   8095   8107     1  180.0000771  2.0083200  2
   8098   8091   8095   8107     1  0.0000000  1.2552000  3
   8098   8101   8110   8119     1  0.0000000  0.6508444  3
   8104   8116  15205  15201     1  180.0000771  0.4184000  2
   8104   8116  15205  15201     1  0.0000000  1.6024720  3
   8107   8113  15182  15178     1  180.0000771  0.4184000  2
   8107   8113  15182  15178     1  0.0000000  1.6024720  3
   8113  15182  15178  15177     1  180.0000771  0.4184000  2
   8113  15182  15178  15177     1  0.0000000  1.6024720  3
   8113  15182  15178  15194     1  180.0000771  5.6484000  1
   8113  15182  15178  15194     1  180.0000771  3.5564000  2
   8113  15182  15178  15194     1  0.0000000  0.4184000  3
   8116  15205  15201  15217     1  180.0000771  5.6484000  1
   8116  15205  15201  15217     1  180.0000771  3.5564000  2
   8116  15205  15201  15217     1  0.0000000  0.4184000  3
   8116  15205  15201  15200     1  180.0000771  0.4184000  2
   8116  15205  15201  15200     1  0.0000000  1.6024720  3
   8120   8121   8133   8145     1  0.0000000  0.6508444  3
   8120   8124   8136   8142     1  0.0000000  0.6508444  3
   8120   8127   8130   8139     1  0.0000000  0.6508444  3
   8121   8120   8124   8136     1  180.0000771  2.0083200  2
   8121   8120   8124   8136     1  0.0000000  1.2552000  3
   8121   8120   8127   8130     1  180.0000771  2.0083200  2
   8121   8120   8127   8130     1  0.0000000  1.2552000  3
   8121   8133   8145  15251     1  0.0000000  0.6508444  3
   8124   8120   8121   8133     1  180.0000771  2.0083200  2
   8124   8120   8121   8133     1  0.0000000  1.2552000  3
   8124   8120   8127   8130     1  180.0000771  2.0083200  2
   8124   8120   8127   8130     1  0.0000000  1.2552000  3
   8124   8136   8142  15228     1  0.0000000  0.6508444  3
   8127   8120   8121   8133     1  180.0000771  2.0083200  2
   8127   8120   8121   8133     1  0.0000000  1.2552000  3
   8127   8120   8124   8136     1  180.0000771  2.0083200  2
   8127   8120   8124   8136     1  0.0000000  1.2552000  3
   8127   8130   8139   8148     1  0.0000000  0.6508444  3
   8133   8145  15251  15247     1  180.0000771  0.4184000  2
   8133   8145  15251  15247     1  0.0000000  1.6024720  3
   8136   8142  15228  15224     1  180.0000771  0.4184000  2
   8136   8142  15228  15224     1  0.0000000  1.6024720  3
   8142  15228  15224  15223     1  180.0000771  0.4184000  2
   8142  15228  15224  15223     1  0.0000000  1.6024720  3
   8142  15228  15224  15240     1  180.0000771  5.6484000  1
   8142  15228  15224  15240     1  180.0000771  3.5564000  2
   8142  15228  15224  15240     1  0.0000000  0.4184000  3
   8145  15251  15247  15263     1  180.0000771  5.6484000  1
   8145  15251  15247  15263     1  180.0000771  3.5564000  2
   8145  15251  15247  15263     1  0.0000000  0.4184000  3
   8145  15251  15247  15246     1  180.0000771  0.4184000  2
   8145  15251  15247  15246     1  0.0000000  1.6024720  3
   8149   8150   8162   8174     1  0.0000000  0.6508444  3
   8149   8153   8165   8171     1  0.0000000  0.6508444  3
   8149   8156   8159   8168     1  0.0000000  0.6508444  3
   8150   8149   8153   8165     1  180.0000771  2.0083200  2
   8150   8149   8153   8165     1  0.0000000  1.2552000  3
   8150   8149   8156   8159     1  180.0000771  2.0083200  2
   8150   8149   8156   8159     1  0.0000000  1.2552000  3
   8150   8162   8174  15297     1  0.0000000  0.6508444  3
   8153   8149   8150   8162     1  180.0000771  2.0083200  2
   8153   8149   8150   8162     1  0.0000000  1.2552000  3
   8153   8149   8156   8159     1  180.0000771  2.0083200  2
   8153   8149   8156   8159     1  0.0000000  1.2552000  3
   8153   8165   8171  15274     1  0.0000000  0.6508444  3
   8156   8149   8150   8162     1  180.0000771  2.0083200  2
   8156   8149   8150   8162     1  0.0000000  1.2552000  3
   8156   8149   8153   8165     1  180.0000771  2.0083200  2
   8156   8149   8153   8165     1  0.0000000  1.2552000  3
   8156   8159   8168   8177     1  0.0000000  0.6508444  3
   8162   8174  15297  15293     1  180.0000771  0.4184000  2
   8162   8174  15297  15293     1  0.0000000  1.6024720  3
   8165   8171  15274  15270     1  180.0000771  0.4184000  2
   8165   8171  15274  15270     1  0.0000000  1.6024720  3
   8171  15274  15270  15269     1  180.0000771  0.4184000  2
   8171  15274  15270  15269     1  0.0000000  1.6024720  3
   8171  15274  15270  15286     1  180.0000771  5.6484000  1
   8171  15274  15270  15286     1  180.0000771  3.5564000  2
   8171  15274  15270  15286     1  0.0000000  0.4184000  3
   8174  15297  15293  15309     1  180.0000771  5.6484000  1
   8174  15297  15293  15309     1  180.0000771  3.5564000  2
   8174  15297  15293  15309     1  0.0000000  0.4184000  3
   8174  15297  15293  15292     1  180.0000771  0.4184000  2
   8174  15297  15293  15292     1  0.0000000  1.6024720  3
   8178   8179   8191   8203     1  0.0000000  0.6508444  3
   8178   8182   8194   8200     1  0.0000000  0.6508444  3
   8178   8185   8188   8197     1  0.0000000  0.6508444  3
   8179   8178   8182   8194     1  180.0000771  2.0083200  2
   8179   8178   8182   8194     1  0.0000000  1.2552000  3
   8179   8178   8185   8188     1  180.0000771  2.0083200  2
   8179   8178   8185   8188     1  0.0000000  1.2552000  3
   8179   8191   8203  15343     1  0.0000000  0.6508444  3
   8182   8178   8179   8191     1  180.0000771  2.0083200  2
   8182   8178   8179   8191     1  0.0000000  1.2552000  3
   8182   8178   8185   8188     1  180.0000771  2.0083200  2
   8182   8178   8185   8188     1  0.0000000  1.2552000  3
   8182   8194   8200  15320     1  0.0000000  0.6508444  3
   8185   8178   8179   8191     1  180.0000771  2.0083200  2
   8185   8178   8179   8191     1  0.0000000  1.2552000  3
   8185   8178   8182   8194     1  180.0000771  2.0083200  2
   8185   8178   8182   8194     1  0.0000000  1.2552000  3
   8185   8188   8197   8206     1  0.0000000  0.6508444  3
   8191   8203  15343  15339     1  180.0000771  0.4184000  2
   8191   8203  15343  15339     1  0.0000000  1.6024720  3
   8194   8200  15320  15316     1  180.0000771  0.4184000  2
   8194   8200  15320  15316     1  0.0000000  1.6024720  3
   8200  15320  15316  15315     1  180.0000771  0.4184000  2
   8200  15320  15316  15315     1  0.0000000  1.6024720  3
   8200  15320  15316  15332     1  180.0000771  5.6484000  1
   8200  15320  15316  15332     1  180.0000771  3.5564000  2
   8200  15320  15316  15332     1  0.0000000  0.4184000  3
   8203  15343  15339  15355     1  180.0000771  5.6484000  1
   8203  15343  15339  15355     1  180.0000771  3.5564000  2
   8203  15343  15339  15355     1  0.0000000  0.4184000  3
   8203  15343  15339  15338     1  180.0000771  0.4184000  2
   8203  15343  15339  15338     1  0.0000000  1.6024720  3
   8207   8208   8220   8232     1  0.0000000  0.6508444  3
   8207   8211   8223   8229     1  0.0000000  0.6508444  3
   8207   8214   8217   8226     1  0.0000000  0.6508444  3
   8208   8207   8211   8223     1  180.0000771  2.0083200  2
   8208   8207   8211   8223     1  0.0000000  1.2552000  3
   8208   8207   8214   8217     1  180.0000771  2.0083200  2
   8208   8207   8214   8217     1  0.0000000  1.2552000  3
   8208   8220   8232  15389     1  0.0000000  0.6508444  3
   8211   8207   8208   8220     1  180.0000771  2.0083200  2
   8211   8207   8208   8220     1  0.0000000  1.2552000  3
   8211   8207   8214   8217     1  180.0000771  2.0083200  2
   8211   8207   8214   8217     1  0.0000000  1.2552000  3
   8211   8223   8229  15366     1  0.0000000  0.6508444  3
   8214   8207   8208   8220     1  180.0000771  2.0083200  2
   8214   8207   8208   8220     1  0.0000000  1.2552000  3
   8214   8207   8211   8223     1  180.0000771  2.0083200  2
   8214   8207   8211   8223     1  0.0000000  1.2552000  3
   8214   8217   8226   8235     1  0.0000000  0.6508444  3
   8220   8232  15389  15385     1  180.0000771  0.4184000  2
   8220   8232  15389  15385     1  0.0000000  1.6024720  3
   8223   8229  15366  15362     1  180.0000771  0.4184000  2
   8223   8229  15366  15362     1  0.0000000  1.6024720  3
   8229  15366  15362  15361     1  180.0000771  0.4184000  2
   8229  15366  15362  15361     1  0.0000000  1.6024720  3
   8229  15366  15362  15378     1  180.0000771  5.6484000  1
   8229  15366  15362  15378     1  180.0000771  3.5564000  2
   8229  15366  15362  15378     1  0.0000000  0.4184000  3
   8232  15389  15385  15401     1  180.0000771  5.6484000  1
   8232  15389  15385  15401     1  180.0000771  3.5564000  2
   8232  15389  15385  15401     1  0.0000000  0.4184000  3
   8232  15389  15385  15384     1  180.0000771  0.4184000  2
   8232  15389  15385  15384     1  0.0000000  1.6024720  3
   8236   8237   8249   8261     1  0.0000000  0.6508444  3
   8236   8240   8252   8258     1  0.0000000  0.6508444  3
   8236   8243   8246   8255     1  0.0000000  0.6508444  3
   8237   8236   8240   8252     1  180.0000771  2.0083200  2
   8237   8236   8240   8252     1  0.0000000  1.2552000  3
   8237   8236   8243   8246     1  180.0000771  2.0083200  2
   8237   8236   8243   8246     1  0.0000000  1.2552000  3
   8237   8249   8261  15435     1  0.0000000  0.6508444  3
   8240   8236   8237   8249     1  180.0000771  2.0083200  2
   8240   8236   8237   8249     1  0.0000000  1.2552000  3
   8240   8236   8243   8246     1  180.0000771  2.0083200  2
   8240   8236   8243   8246     1  0.0000000  1.2552000  3
   8240   8252   8258  15412     1  0.0000000  0.6508444  3
   8243   8236   8237   8249     1  180.0000771  2.0083200  2
   8243   8236   8237   8249     1  0.0000000  1.2552000  3
   8243   8236   8240   8252     1  180.0000771  2.0083200  2
   8243   8236   8240   8252     1  0.0000000  1.2552000  3
   8243   8246   8255   8264     1  0.0000000  0.6508444  3
   8249   8261  15435  15431     1  180.0000771  0.4184000  2
   8249   8261  15435  15431     1  0.0000000  1.6024720  3
   8252   8258  15412  15408     1  180.0000771  0.4184000  2
   8252   8258  15412  15408     1  0.0000000  1.6024720  3
   8258  15412  15408  15407     1  180.0000771  0.4184000  2
   8258  15412  15408  15407     1  0.0000000  1.6024720  3
   8258  15412  15408  15424     1  180.0000771  5.6484000  1
   8258  15412  15408  15424     1  180.0000771  3.5564000  2
   8258  15412  15408  15424     1  0.0000000  0.4184000  3
   8261  15435  15431  15447     1  180.0000771  5.6484000  1
   8261  15435  15431  15447     1  180.0000771  3.5564000  2
   8261  15435  15431  15447     1  0.0000000  0.4184000  3
   8261  15435  15431  15430     1  180.0000771  0.4184000  2
   8261  15435  15431  15430     1  0.0000000  1.6024720  3
   8265   8266   8278   8290     1  0.0000000  0.6508444  3
   8265   8269   8281   8287     1  0.0000000  0.6508444  3
   8265   8272   8275   8284     1  0.0000000  0.6508444  3
   8266   8265   8269   8281     1  180.0000771  2.0083200  2
   8266   8265   8269   8281     1  0.0000000  1.2552000  3
   8266   8265   8272   8275     1  180.0000771  2.0083200  2
   8266   8265   8272   8275     1  0.0000000  1.2552000  3
   8266   8278   8290  15481     1  0.0000000  0.6508444  3
   8269   8265   8266   8278     1  180.0000771  2.0083200  2
   8269   8265   8266   8278     1  0.0000000  1.2552000  3
   8269   8265   8272   8275     1  180.0000771  2.0083200  2
   8269   8265   8272   8275     1  0.0000000  1.2552000  3
   8269   8281   8287  15458     1  0.0000000  0.6508444  3
   8272   8265   8266   8278     1  180.0000771  2.0083200  2
   8272   8265   8266   8278     1  0.0000000  1.2552000  3
   8272   8265   8269   8281     1  180.0000771  2.0083200  2
   8272   8265   8269   8281     1  0.0000000  1.2552000  3
   8272   8275   8284   8293     1  0.0000000  0.6508444  3
   8278   8290  15481  15477     1  180.0000771  0.4184000  2
   8278   8290  15481  15477     1  0.0000000  1.6024720  3
   8281   8287  15458  15454     1  180.0000771  0.4184000  2
   8281   8287  15458  15454     1  0.0000000  1.6024720  3
   8287  15458  15454  15453     1  180.0000771  0.4184000  2
   8287  15458  15454  15453     1  0.0000000  1.6024720  3
   8287  15458  15454  15470     1  180.0000771  5.6484000  1
   8287  15458  15454  15470     1  180.0000771  3.5564000  2
   8287  15458  15454  15470     1  0.0000000  0.4184000  3
   8290  15481  15477  15493     1  180.0000771  5.6484000  1
   8290  15481  15477  15493     1  180.0000771  3.5564000  2
   8290  15481  15477  15493     1  0.0000000  0.4184000  3
   8290  15481  15477  15476     1  180.0000771  0.4184000  2
   8290  15481  15477  15476     1  0.0000000  1.6024720  3
   8294   8295   8307   8319     1  0.0000000  0.6508444  3
   8294   8298   8310   8316     1  0.0000000  0.6508444  3
   8294   8301   8304   8313     1  0.0000000  0.6508444  3
   8295   8294   8298   8310     1  180.0000771  2.0083200  2
   8295   8294   8298   8310     1  0.0000000  1.2552000  3
   8295   8294   8301   8304     1  180.0000771  2.0083200  2
   8295   8294   8301   8304     1  0.0000000  1.2552000  3
   8295   8307   8319  15527     1  0.0000000  0.6508444  3
   8298   8294   8295   8307     1  180.0000771  2.0083200  2
   8298   8294   8295   8307     1  0.0000000  1.2552000  3
   8298   8294   8301   8304     1  180.0000771  2.0083200  2
   8298   8294   8301   8304     1  0.0000000  1.2552000  3
   8298   8310   8316  15504     1  0.0000000  0.6508444  3
   8301   8294   8295   8307     1  180.0000771  2.0083200  2
   8301   8294   8295   8307     1  0.0000000  1.2552000  3
   8301   8294   8298   8310     1  180.0000771  2.0083200  2
   8301   8294   8298   8310     1  0.0000000  1.2552000  3
   8301   8304   8313   8322     1  0.0000000  0.6508444  3
   8307   8319  15527  15523     1  180.0000771  0.4184000  2
   8307   8319  15527  15523     1  0.0000000  1.6024720  3
   8310   8316  15504  15500     1  180.0000771  0.4184000  2
   8310   8316  15504  15500     1  0.0000000  1.6024720  3
   8316  15504  15500  15499     1  180.0000771  0.4184000  2
   8316  15504  15500  15499     1  0.0000000  1.6024720  3
   8316  15504  15500  15516     1  180.0000771  5.6484000  1
   8316  15504  15500  15516     1  180.0000771  3.5564000  2
   8316  15504  15500  15516     1  0.0000000  0.4184000  3
   8319  15527  15523  15539     1  180.0000771  5.6484000  1
   8319  15527  15523  15539     1  180.0000771  3.5564000  2
   8319  15527  15523  15539     1  0.0000000  0.4184000  3
   8319  15527  15523  15522     1  180.0000771  0.4184000  2
   8319  15527  15523  15522     1  0.0000000  1.6024720  3
   8323   8324   8336   8348     1  0.0000000  0.6508444  3
   8323   8327   8339   8345     1  0.0000000  0.6508444  3
   8323   8330   8333   8342     1  0.0000000  0.6508444  3
   8324   8323   8327   8339     1  180.0000771  2.0083200  2
   8324   8323   8327   8339     1  0.0000000  1.2552000  3
   8324   8323   8330   8333     1  180.0000771  2.0083200  2
   8324   8323   8330   8333     1  0.0000000  1.2552000  3
   8324   8336   8348  15573     1  0.0000000  0.6508444  3
   8327   8323   8324   8336     1  180.0000771  2.0083200  2
   8327   8323   8324   8336     1  0.0000000  1.2552000  3
   8327   8323   8330   8333     1  180.0000771  2.0083200  2
   8327   8323   8330   8333     1  0.0000000  1.2552000  3
   8327   8339   8345  15550     1  0.0000000  0.6508444  3
   8330   8323   8324   8336     1  180.0000771  2.0083200  2
   8330   8323   8324   8336     1  0.0000000  1.2552000  3
   8330   8323   8327   8339     1  180.0000771  2.0083200  2
   8330   8323   8327   8339     1  0.0000000  1.2552000  3
   8330   8333   8342   8351     1  0.0000000  0.6508444  3
   8336   8348  15573  15569     1  180.0000771  0.4184000  2
   8336   8348  15573  15569     1  0.0000000  1.6024720  3
   8339   8345  15550  15546     1  180.0000771  0.4184000  2
   8339   8345  15550  15546     1  0.0000000  1.6024720  3
   8345  15550  15546  15545     1  180.0000771  0.4184000  2
   8345  15550  15546  15545     1  0.0000000  1.6024720  3
   8345  15550  15546  15562     1  180.0000771  5.6484000  1
   8345  15550  15546  15562     1  180.0000771  3.5564000  2
   8345  15550  15546  15562     1  0.0000000  0.4184000  3
   8348  15573  15569  15585     1  180.0000771  5.6484000  1
   8348  15573  15569  15585     1  180.0000771  3.5564000  2
   8348  15573  15569  15585     1  0.0000000  0.4184000  3
   8348  15573  15569  15568     1  180.0000771  0.4184000  2
   8348  15573  15569  15568     1  0.0000000  1.6024720  3
   8352   8353   8365   8377     1  0.0000000  0.6508444  3
   8352   8356   8368   8374     1  0.0000000  0.6508444  3
   8352   8359   8362   8371     1  0.0000000  0.6508444  3
   8353   8352   8356   8368     1  180.0000771  2.0083200  2
   8353   8352   8356   8368     1  0.0000000  1.2552000  3
   8353   8352   8359   8362     1  180.0000771  2.0083200  2
   8353   8352   8359   8362     1  0.0000000  1.2552000  3
   8353   8365   8377  15619     1  0.0000000  0.6508444  3
   8356   8352   8353   8365     1  180.0000771  2.0083200  2
   8356   8352   8353   8365     1  0.0000000  1.2552000  3
   8356   8352   8359   8362     1  180.0000771  2.0083200  2
   8356   8352   8359   8362     1  0.0000000  1.2552000  3
   8356   8368   8374  15596     1  0.0000000  0.6508444  3
   8359   8352   8353   8365     1  180.0000771  2.0083200  2
   8359   8352   8353   8365     1  0.0000000  1.2552000  3
   8359   8352   8356   8368     1  180.0000771  2.0083200  2
   8359   8352   8356   8368     1  0.0000000  1.2552000  3
   8359   8362   8371   8380     1  0.0000000  0.6508444  3
   8365   8377  15619  15615     1  180.0000771  0.4184000  2
   8365   8377  15619  15615     1  0.0000000  1.6024720  3
   8368   8374  15596  15592     1  180.0000771  0.4184000  2
   8368   8374  15596  15592     1  0.0000000  1.6024720  3
   8374  15596  15592  15591     1  180.0000771  0.4184000  2
   8374  15596  15592  15591     1  0.0000000  1.6024720  3
   8374  15596  15592  15608     1  180.0000771  5.6484000  1
   8374  15596  15592  15608     1  180.0000771  3.5564000  2
   8374  15596  15592  15608     1  0.0000000  0.4184000  3
   8377  15619  15615  15631     1  180.0000771  5.6484000  1
   8377  15619  15615  15631     1  180.0000771  3.5564000  2
   8377  15619  15615  15631     1  0.0000000  0.4184000  3
   8377  15619  15615  15614     1  180.0000771  0.4184000  2
   8377  15619  15615  15614     1  0.0000000  1.6024720  3
   8381   8382   8394   8406     1  0.0000000  0.6508444  3
   8381   8385   8397   8403     1  0.0000000  0.6508444  3
   8381   8388   8391   8400     1  0.0000000  0.6508444  3
   8382   8381   8385   8397     1  180.0000771  2.0083200  2
   8382   8381   8385   8397     1  0.0000000  1.2552000  3
   8382   8381   8388   8391     1  180.0000771  2.0083200  2
   8382   8381   8388   8391     1  0.0000000  1.2552000  3
   8382   8394   8406  15665     1  0.0000000  0.6508444  3
   8385   8381   8382   8394     1  180.0000771  2.0083200  2
   8385   8381   8382   8394     1  0.0000000  1.2552000  3
   8385   8381   8388   8391     1  180.0000771  2.0083200  2
   8385   8381   8388   8391     1  0.0000000  1.2552000  3
   8385   8397   8403  15642     1  0.0000000  0.6508444  3
   8388   8381   8382   8394     1  180.0000771  2.0083200  2
   8388   8381   8382   8394     1  0.0000000  1.2552000  3
   8388   8381   8385   8397     1  180.0000771  2.0083200  2
   8388   8381   8385   8397     1  0.0000000  1.2552000  3
   8388   8391   8400   8409     1  0.0000000  0.6508444  3
   8394   8406  15665  15661     1  180.0000771  0.4184000  2
   8394   8406  15665  15661     1  0.0000000  1.6024720  3
   8397   8403  15642  15638     1  180.0000771  0.4184000  2
   8397   8403  15642  15638     1  0.0000000  1.6024720  3
   8403  15642  15638  15637     1  180.0000771  0.4184000  2
   8403  15642  15638  15637     1  0.0000000  1.6024720  3
   8403  15642  15638  15654     1  180.0000771  5.6484000  1
   8403  15642  15638  15654     1  180.0000771  3.5564000  2
   8403  15642  15638  15654     1  0.0000000  0.4184000  3
   8406  15665  15661  15677     1  180.0000771  5.6484000  1
   8406  15665  15661  15677     1  180.0000771  3.5564000  2
   8406  15665  15661  15677     1  0.0000000  0.4184000  3
   8406  15665  15661  15660     1  180.0000771  0.4184000  2
   8406  15665  15661  15660     1  0.0000000  1.6024720  3
   8410   8411   8423   8435     1  0.0000000  0.6508444  3
   8410   8414   8426   8432     1  0.0000000  0.6508444  3
   8410   8417   8420   8429     1  0.0000000  0.6508444  3
   8411   8410   8414   8426     1  180.0000771  2.0083200  2
   8411   8410   8414   8426     1  0.0000000  1.2552000  3
   8411   8410   8417   8420     1  180.0000771  2.0083200  2
   8411   8410   8417   8420     1  0.0000000  1.2552000  3
   8411   8423   8435  15711     1  0.0000000  0.6508444  3
   8414   8410   8411   8423     1  180.0000771  2.0083200  2
   8414   8410   8411   8423     1  0.0000000  1.2552000  3
   8414   8410   8417   8420     1  180.0000771  2.0083200  2
   8414   8410   8417   8420     1  0.0000000  1.2552000  3
   8414   8426   8432  15688     1  0.0000000  0.6508444  3
   8417   8410   8411   8423     1  180.0000771  2.0083200  2
   8417   8410   8411   8423     1  0.0000000  1.2552000  3
   8417   8410   8414   8426     1  180.0000771  2.0083200  2
   8417   8410   8414   8426     1  0.0000000  1.2552000  3
   8417   8420   8429   8438     1  0.0000000  0.6508444  3
   8423   8435  15711  15707     1  180.0000771  0.4184000  2
   8423   8435  15711  15707     1  0.0000000  1.6024720  3
   8426   8432  15688  15684     1  180.0000771  0.4184000  2
   8426   8432  15688  15684     1  0.0000000  1.6024720  3
   8432  15688  15684  15683     1  180.0000771  0.4184000  2
   8432  15688  15684  15683     1  0.0000000  1.6024720  3
   8432  15688  15684  15700     1  180.0000771  5.6484000  1
   8432  15688  15684  15700     1  180.0000771  3.5564000  2
   8432  15688  15684  15700     1  0.0000000  0.4184000  3
   8435  15711  15707  15723     1  180.0000771  5.6484000  1
   8435  15711  15707  15723     1  180.0000771  3.5564000  2
   8435  15711  15707  15723     1  0.0000000  0.4184000  3
   8435  15711  15707  15706     1  180.0000771  0.4184000  2
   8435  15711  15707  15706     1  0.0000000  1.6024720  3
   8439   8440   8452   8464     1  0.0000000  0.6508444  3
   8439   8443   8455   8461     1  0.0000000  0.6508444  3
   8439   8446   8449   8458     1  0.0000000  0.6508444  3
   8440   8439   8443   8455     1  180.0000771  2.0083200  2
   8440   8439   8443   8455     1  0.0000000  1.2552000  3
   8440   8439   8446   8449     1  180.0000771  2.0083200  2
   8440   8439   8446   8449     1  0.0000000  1.2552000  3
   8440   8452   8464  15757     1  0.0000000  0.6508444  3
   8443   8439   8440   8452     1  180.0000771  2.0083200  2
   8443   8439   8440   8452     1  0.0000000  1.2552000  3
   8443   8439   8446   8449     1  180.0000771  2.0083200  2
   8443   8439   8446   8449     1  0.0000000  1.2552000  3
   8443   8455   8461  15734     1  0.0000000  0.6508444  3
   8446   8439   8440   8452     1  180.0000771  2.0083200  2
   8446   8439   8440   8452     1  0.0000000  1.2552000  3
   8446   8439   8443   8455     1  180.0000771  2.0083200  2
   8446   8439   8443   8455     1  0.0000000  1.2552000  3
   8446   8449   8458   8467     1  0.0000000  0.6508444  3
   8452   8464  15757  15753     1  180.0000771  0.4184000  2
   8452   8464  15757  15753     1  0.0000000  1.6024720  3
   8455   8461  15734  15730     1  180.0000771  0.4184000  2
   8455   8461  15734  15730     1  0.0000000  1.6024720  3
   8461  15734  15730  15729     1  180.0000771  0.4184000  2
   8461  15734  15730  15729     1  0.0000000  1.6024720  3
   8461  15734  15730  15746     1  180.0000771  5.6484000  1
   8461  15734  15730  15746     1  180.0000771  3.5564000  2
   8461  15734  15730  15746     1  0.0000000  0.4184000  3
   8464  15757  15753  15769     1  180.0000771  5.6484000  1
   8464  15757  15753  15769     1  180.0000771  3.5564000  2
   8464  15757  15753  15769     1  0.0000000  0.4184000  3
   8464  15757  15753  15752     1  180.0000771  0.4184000  2
   8464  15757  15753  15752     1  0.0000000  1.6024720  3
   8468   8469   8481   8493     1  0.0000000  0.6508444  3
   8468   8472   8484   8490     1  0.0000000  0.6508444  3
   8468   8475   8478   8487     1  0.0000000  0.6508444  3
   8469   8468   8472   8484     1  180.0000771  2.0083200  2
   8469   8468   8472   8484     1  0.0000000  1.2552000  3
   8469   8468   8475   8478     1  180.0000771  2.0083200  2
   8469   8468   8475   8478     1  0.0000000  1.2552000  3
   8469   8481   8493  15803     1  0.0000000  0.6508444  3
   8472   8468   8469   8481     1  180.0000771  2.0083200  2
   8472   8468   8469   8481     1  0.0000000  1.2552000  3
   8472   8468   8475   8478     1  180.0000771  2.0083200  2
   8472   8468   8475   8478     1  0.0000000  1.2552000  3
   8472   8484   8490  15780     1  0.0000000  0.6508444  3
   8475   8468   8469   8481     1  180.0000771  2.0083200  2
   8475   8468   8469   8481     1  0.0000000  1.2552000  3
   8475   8468   8472   8484     1  180.0000771  2.0083200  2
   8475   8468   8472   8484     1  0.0000000  1.2552000  3
   8475   8478   8487   8496     1  0.0000000  0.6508444  3
   8481   8493  15803  15799     1  180.0000771  0.4184000  2
   8481   8493  15803  15799     1  0.0000000  1.6024720  3
   8484   8490  15780  15776     1  180.0000771  0.4184000  2
   8484   8490  15780  15776     1  0.0000000  1.6024720  3
   8490  15780  15776  15775     1  180.0000771  0.4184000  2
   8490  15780  15776  15775     1  0.0000000  1.6024720  3
   8490  15780  15776  15792     1  180.0000771  5.6484000  1
   8490  15780  15776  15792     1  180.0000771  3.5564000  2
   8490  15780  15776  15792     1  0.0000000  0.4184000  3
   8493  15803  15799  15815     1  180.0000771  5.6484000  1
   8493  15803  15799  15815     1  180.0000771  3.5564000  2
   8493  15803  15799  15815     1  0.0000000  0.4184000  3
   8493  15803  15799  15798     1  180.0000771  0.4184000  2
   8493  15803  15799  15798     1  0.0000000  1.6024720  3
   8497   8498   8510   8522     1  0.0000000  0.6508444  3
   8497   8501   8513   8519     1  0.0000000  0.6508444  3
   8497   8504   8507   8516     1  0.0000000  0.6508444  3
   8498   8497   8501   8513     1  180.0000771  2.0083200  2
   8498   8497   8501   8513     1  0.0000000  1.2552000  3
   8498   8497   8504   8507     1  180.0000771  2.0083200  2
   8498   8497   8504   8507     1  0.0000000  1.2552000  3
   8498   8510   8522  15849     1  0.0000000  0.6508444  3
   8501   8497   8498   8510     1  180.0000771  2.0083200  2
   8501   8497   8498   8510     1  0.0000000  1.2552000  3
   8501   8497   8504   8507     1  180.0000771  2.0083200  2
   8501   8497   8504   8507     1  0.0000000  1.2552000  3
   8501   8513   8519  15826     1  0.0000000  0.6508444  3
   8504   8497   8498   8510     1  180.0000771  2.0083200  2
   8504   8497   8498   8510     1  0.0000000  1.2552000  3
   8504   8497   8501   8513     1  180.0000771  2.0083200  2
   8504   8497   8501   8513     1  0.0000000  1.2552000  3
   8504   8507   8516   8525     1  0.0000000  0.6508444  3
   8510   8522  15849  15845     1  180.0000771  0.4184000  2
   8510   8522  15849  15845     1  0.0000000  1.6024720  3
   8513   8519  15826  15822     1  180.0000771  0.4184000  2
   8513   8519  15826  15822     1  0.0000000  1.6024720  3
   8519  15826  15822  15821     1  180.0000771  0.4184000  2
   8519  15826  15822  15821     1  0.0000000  1.6024720  3
   8519  15826  15822  15838     1  180.0000771  5.6484000  1
   8519  15826  15822  15838     1  180.0000771  3.5564000  2
   8519  15826  15822  15838     1  0.0000000  0.4184000  3
   8522  15849  15845  15861     1  180.0000771  5.6484000  1
   8522  15849  15845  15861     1  180.0000771  3.5564000  2
   8522  15849  15845  15861     1  0.0000000  0.4184000  3
   8522  15849  15845  15844     1  180.0000771  0.4184000  2
   8522  15849  15845  15844     1  0.0000000  1.6024720  3
   8526   8527   8539   8551     1  0.0000000  0.6508444  3
   8526   8530   8542   8548     1  0.0000000  0.6508444  3
   8526   8533   8536   8545     1  0.0000000  0.6508444  3
   8527   8526   8530   8542     1  180.0000771  2.0083200  2
   8527   8526   8530   8542     1  0.0000000  1.2552000  3
   8527   8526   8533   8536     1  180.0000771  2.0083200  2
   8527   8526   8533   8536     1  0.0000000  1.2552000  3
   8527   8539   8551  15895     1  0.0000000  0.6508444  3
   8530   8526   8527   8539     1  180.0000771  2.0083200  2
   8530   8526   8527   8539     1  0.0000000  1.2552000  3
   8530   8526   8533   8536     1  180.0000771  2.0083200  2
   8530   8526   8533   8536     1  0.0000000  1.2552000  3
   8530   8542   8548  15872     1  0.0000000  0.6508444  3
   8533   8526   8527   8539     1  180.0000771  2.0083200  2
   8533   8526   8527   8539     1  0.0000000  1.2552000  3
   8533   8526   8530   8542     1  180.0000771  2.0083200  2
   8533   8526   8530   8542     1  0.0000000  1.2552000  3
   8533   8536   8545   8554     1  0.0000000  0.6508444  3
   8539   8551  15895  15891     1  180.0000771  0.4184000  2
   8539   8551  15895  15891     1  0.0000000  1.6024720  3
   8542   8548  15872  15868     1  180.0000771  0.4184000  2
   8542   8548  15872  15868     1  0.0000000  1.6024720  3
   8548  15872  15868  15867     1  180.0000771  0.4184000  2
   8548  15872  15868  15867     1  0.0000000  1.6024720  3
   8548  15872  15868  15884     1  180.0000771  5.6484000  1
   8548  15872  15868  15884     1  180.0000771  3.5564000  2
   8548  15872  15868  15884     1  0.0000000  0.4184000  3
   8551  15895  15891  15907     1  180.0000771  5.6484000  1
   8551  15895  15891  15907     1  180.0000771  3.5564000  2
   8551  15895  15891  15907     1  0.0000000  0.4184000  3
   8551  15895  15891  15890     1  180.0000771  0.4184000  2
   8551  15895  15891  15890     1  0.0000000  1.6024720  3
   8555   8556   8568   8580     1  0.0000000  0.6508444  3
   8555   8559   8571   8577     1  0.0000000  0.6508444  3
   8555   8562   8565   8574     1  0.0000000  0.6508444  3
   8556   8555   8559   8571     1  180.0000771  2.0083200  2
   8556   8555   8559   8571     1  0.0000000  1.2552000  3
   8556   8555   8562   8565     1  180.0000771  2.0083200  2
   8556   8555   8562   8565     1  0.0000000  1.2552000  3
   8556   8568   8580  15941     1  0.0000000  0.6508444  3
   8559   8555   8556   8568     1  180.0000771  2.0083200  2
   8559   8555   8556   8568     1  0.0000000  1.2552000  3
   8559   8555   8562   8565     1  180.0000771  2.0083200  2
   8559   8555   8562   8565     1  0.0000000  1.2552000  3
   8559   8571   8577  15918     1  0.0000000  0.6508444  3
   8562   8555   8556   8568     1  180.0000771  2.0083200  2
   8562   8555   8556   8568     1  0.0000000  1.2552000  3
   8562   8555   8559   8571     1  180.0000771  2.0083200  2
   8562   8555   8559   8571     1  0.0000000  1.2552000  3
   8562   8565   8574   8583     1  0.0000000  0.6508444  3
   8568   8580  15941  15937     1  180.0000771  0.4184000  2
   8568   8580  15941  15937     1  0.0000000  1.6024720  3
   8571   8577  15918  15914     1  180.0000771  0.4184000  2
   8571   8577  15918  15914     1  0.0000000  1.6024720  3
   8577  15918  15914  15913     1  180.0000771  0.4184000  2
   8577  15918  15914  15913     1  0.0000000  1.6024720  3
   8577  15918  15914  15930     1  180.0000771  5.6484000  1
   8577  15918  15914  15930     1  180.0000771  3.5564000  2
   8577  15918  15914  15930     1  0.0000000  0.4184000  3
   8580  15941  15937  15953     1  180.0000771  5.6484000  1
   8580  15941  15937  15953     1  180.0000771  3.5564000  2
   8580  15941  15937  15953     1  0.0000000  0.4184000  3
   8580  15941  15937  15936     1  180.0000771  0.4184000  2
   8580  15941  15937  15936     1  0.0000000  1.6024720  3
   8584   8585   8597   8609     1  0.0000000  0.6508444  3
   8584   8588   8600   8606     1  0.0000000  0.6508444  3
   8584   8591   8594   8603     1  0.0000000  0.6508444  3
   8585   8584   8588   8600     1  180.0000771  2.0083200  2
   8585   8584   8588   8600     1  0.0000000  1.2552000  3
   8585   8584   8591   8594     1  180.0000771  2.0083200  2
   8585   8584   8591   8594     1  0.0000000  1.2552000  3
   8585   8597   8609  15987     1  0.0000000  0.6508444  3
   8588   8584   8585   8597     1  180.0000771  2.0083200  2
   8588   8584   8585   8597     1  0.0000000  1.2552000  3
   8588   8584   8591   8594     1  180.0000771  2.0083200  2
   8588   8584   8591   8594     1  0.0000000  1.2552000  3
   8588   8600   8606  15964     1  0.0000000  0.6508444  3
   8591   8584   8585   8597     1  180.0000771  2.0083200  2
   8591   8584   8585   8597     1  0.0000000  1.2552000  3
   8591   8584   8588   8600     1  180.0000771  2.0083200  2
   8591   8584   8588   8600     1  0.0000000  1.2552000  3
   8591   8594   8603   8612     1  0.0000000  0.6508444  3
   8597   8609  15987  15983     1  180.0000771  0.4184000  2
   8597   8609  15987  15983     1  0.0000000  1.6024720  3
   8600   8606  15964  15960     1  180.0000771  0.4184000  2
   8600   8606  15964  15960     1  0.0000000  1.6024720  3
   8606  15964  15960  15959     1  180.0000771  0.4184000  2
   8606  15964  15960  15959     1  0.0000000  1.6024720  3
   8606  15964  15960  15976     1  180.0000771  5.6484000  1
   8606  15964  15960  15976     1  180.0000771  3.5564000  2
   8606  15964  15960  15976     1  0.0000000  0.4184000  3
   8609  15987  15983  15999     1  180.0000771  5.6484000  1
   8609  15987  15983  15999     1  180.0000771  3.5564000  2
   8609  15987  15983  15999     1  0.0000000  0.4184000  3
   8609  15987  15983  15982     1  180.0000771  0.4184000  2
   8609  15987  15983  15982     1  0.0000000  1.6024720  3
   8613   8614   8626   8638     1  0.0000000  0.6508444  3
   8613   8617   8629   8635     1  0.0000000  0.6508444  3
   8613   8620   8623   8632     1  0.0000000  0.6508444  3
   8614   8613   8617   8629     1  180.0000771  2.0083200  2
   8614   8613   8617   8629     1  0.0000000  1.2552000  3
   8614   8613   8620   8623     1  180.0000771  2.0083200  2
   8614   8613   8620   8623     1  0.0000000  1.2552000  3
   8614   8626   8638  16033     1  0.0000000  0.6508444  3
   8617   8613   8614   8626     1  180.0000771  2.0083200  2
   8617   8613   8614   8626     1  0.0000000  1.2552000  3
   8617   8613   8620   8623     1  180.0000771  2.0083200  2
   8617   8613   8620   8623     1  0.0000000  1.2552000  3
   8617   8629   8635  16010     1  0.0000000  0.6508444  3
   8620   8613   8614   8626     1  180.0000771  2.0083200  2
   8620   8613   8614   8626     1  0.0000000  1.2552000  3
   8620   8613   8617   8629     1  180.0000771  2.0083200  2
   8620   8613   8617   8629     1  0.0000000  1.2552000  3
   8620   8623   8632   8641     1  0.0000000  0.6508444  3
   8626   8638  16033  16029     1  180.0000771  0.4184000  2
   8626   8638  16033  16029     1  0.0000000  1.6024720  3
   8629   8635  16010  16006     1  180.0000771  0.4184000  2
   8629   8635  16010  16006     1  0.0000000  1.6024720  3
   8635  16010  16006  16005     1  180.0000771  0.4184000  2
   8635  16010  16006  16005     1  0.0000000  1.6024720  3
   8635  16010  16006  16022     1  180.0000771  5.6484000  1
   8635  16010  16006  16022     1  180.0000771  3.5564000  2
   8635  16010  16006  16022     1  0.0000000  0.4184000  3
   8638  16033  16029  16045     1  180.0000771  5.6484000  1
   8638  16033  16029  16045     1  180.0000771  3.5564000  2
   8638  16033  16029  16045     1  0.0000000  0.4184000  3
   8638  16033  16029  16028     1  180.0000771  0.4184000  2
   8638  16033  16029  16028     1  0.0000000  1.6024720  3
   8642   8643   8655   8667     1  0.0000000  0.6508444  3
   8642   8646   8658   8664     1  0.0000000  0.6508444  3
   8642   8649   8652   8661     1  0.0000000  0.6508444  3
   8643   8642   8646   8658     1  180.0000771  2.0083200  2
   8643   8642   8646   8658     1  0.0000000  1.2552000  3
   8643   8642   8649   8652     1  180.0000771  2.0083200  2
   8643   8642   8649   8652     1  0.0000000  1.2552000  3
   8643   8655   8667  16079     1  0.0000000  0.6508444  3
   8646   8642   8643   8655     1  180.0000771  2.0083200  2
   8646   8642   8643   8655     1  0.0000000  1.2552000  3
   8646   8642   8649   8652     1  180.0000771  2.0083200  2
   8646   8642   8649   8652     1  0.0000000  1.2552000  3
   8646   8658   8664  16056     1  0.0000000  0.6508444  3
   8649   8642   8643   8655     1  180.0000771  2.0083200  2
   8649   8642   8643   8655     1  0.0000000  1.2552000  3
   8649   8642   8646   8658     1  180.0000771  2.0083200  2
   8649   8642   8646   8658     1  0.0000000  1.2552000  3
   8649   8652   8661   8670     1  0.0000000  0.6508444  3
   8655   8667  16079  16075     1  180.0000771  0.4184000  2
   8655   8667  16079  16075     1  0.0000000  1.6024720  3
   8658   8664  16056  16052     1  180.0000771  0.4184000  2
   8658   8664  16056  16052     1  0.0000000  1.6024720  3
   8664  16056  16052  16051     1  180.0000771  0.4184000  2
   8664  16056  16052  16051     1  0.0000000  1.6024720  3
   8664  16056  16052  16068     1  180.0000771  5.6484000  1
   8664  16056  16052  16068     1  180.0000771  3.5564000  2
   8664  16056  16052  16068     1  0.0000000  0.4184000  3
   8667  16079  16075  16091     1  180.0000771  5.6484000  1
   8667  16079  16075  16091     1  180.0000771  3.5564000  2
   8667  16079  16075  16091     1  0.0000000  0.4184000  3
   8667  16079  16075  16074     1  180.0000771  0.4184000  2
   8667  16079  16075  16074     1  0.0000000  1.6024720  3
   8671   8672   8684   8696     1  0.0000000  0.6508444  3
   8671   8675   8687   8693     1  0.0000000  0.6508444  3
   8671   8678   8681   8690     1  0.0000000  0.6508444  3
   8672   8671   8675   8687     1  180.0000771  2.0083200  2
   8672   8671   8675   8687     1  0.0000000  1.2552000  3
   8672   8671   8678   8681     1  180.0000771  2.0083200  2
   8672   8671   8678   8681     1  0.0000000  1.2552000  3
   8672   8684   8696  16125     1  0.0000000  0.6508444  3
   8675   8671   8672   8684     1  180.0000771  2.0083200  2
   8675   8671   8672   8684     1  0.0000000  1.2552000  3
   8675   8671   8678   8681     1  180.0000771  2.0083200  2
   8675   8671   8678   8681     1  0.0000000  1.2552000  3
   8675   8687   8693  16102     1  0.0000000  0.6508444  3
   8678   8671   8672   8684     1  180.0000771  2.0083200  2
   8678   8671   8672   8684     1  0.0000000  1.2552000  3
   8678   8671   8675   8687     1  180.0000771  2.0083200  2
   8678   8671   8675   8687     1  0.0000000  1.2552000  3
   8678   8681   8690   8699     1  0.0000000  0.6508444  3
   8684   8696  16125  16121     1  180.0000771  0.4184000  2
   8684   8696  16125  16121     1  0.0000000  1.6024720  3
   8687   8693  16102  16098     1  180.0000771  0.4184000  2
   8687   8693  16102  16098     1  0.0000000  1.6024720  3
   8693  16102  16098  16097     1  180.0000771  0.4184000  2
   8693  16102  16098  16097     1  0.0000000  1.6024720  3
   8693  16102  16098  16114     1  180.0000771  5.6484000  1
   8693  16102  16098  16114     1  180.0000771  3.5564000  2
   8693  16102  16098  16114     1  0.0000000  0.4184000  3
   8696  16125  16121  16137     1  180.0000771  5.6484000  1
   8696  16125  16121  16137     1  180.0000771  3.5564000  2
   8696  16125  16121  16137     1  0.0000000  0.4184000  3
   8696  16125  16121  16120     1  180.0000771  0.4184000  2
   8696  16125  16121  16120     1  0.0000000  1.6024720  3
   8700   8701   8713   8725     1  0.0000000  0.6508444  3
   8700   8704   8716   8722     1  0.0000000  0.6508444  3
   8700   8707   8710   8719     1  0.0000000  0.6508444  3
   8701   8700   8704   8716     1  180.0000771  2.0083200  2
   8701   8700   8704   8716     1  0.0000000  1.2552000  3
   8701   8700   8707   8710     1  180.0000771  2.0083200  2
   8701   8700   8707   8710     1  0.0000000  1.2552000  3
   8701   8713   8725  16171     1  0.0000000  0.6508444  3
   8704   8700   8701   8713     1  180.0000771  2.0083200  2
   8704   8700   8701   8713     1  0.0000000  1.2552000  3
   8704   8700   8707   8710     1  180.0000771  2.0083200  2
   8704   8700   8707   8710     1  0.0000000  1.2552000  3
   8704   8716   8722  16148     1  0.0000000  0.6508444  3
   8707   8700   8701   8713     1  180.0000771  2.0083200  2
   8707   8700   8701   8713     1  0.0000000  1.2552000  3
   8707   8700   8704   8716     1  180.0000771  2.0083200  2
   8707   8700   8704   8716     1  0.0000000  1.2552000  3
   8707   8710   8719   8728     1  0.0000000  0.6508444  3
   8713   8725  16171  16167     1  180.0000771  0.4184000  2
   8713   8725  16171  16167     1  0.0000000  1.6024720  3
   8716   8722  16148  16144     1  180.0000771  0.4184000  2
   8716   8722  16148  16144     1  0.0000000  1.6024720  3
   8722  16148  16144  16143     1  180.0000771  0.4184000  2
   8722  16148  16144  16143     1  0.0000000  1.6024720  3
   8722  16148  16144  16160     1  180.0000771  5.6484000  1
   8722  16148  16144  16160     1  180.0000771  3.5564000  2
   8722  16148  16144  16160     1  0.0000000  0.4184000  3
   8725  16171  16167  16183     1  180.0000771  5.6484000  1
   8725  16171  16167  16183     1  180.0000771  3.5564000  2
   8725  16171  16167  16183     1  0.0000000  0.4184000  3
   8725  16171  16167  16166     1  180.0000771  0.4184000  2
   8725  16171  16167  16166     1  0.0000000  1.6024720  3
   8729   8730   8742   8754     1  0.0000000  0.6508444  3
   8729   8733   8745   8751     1  0.0000000  0.6508444  3
   8729   8736   8739   8748     1  0.0000000  0.6508444  3
   8730   8729   8733   8745     1  180.0000771  2.0083200  2
   8730   8729   8733   8745     1  0.0000000  1.2552000  3
   8730   8729   8736   8739     1  180.0000771  2.0083200  2
   8730   8729   8736   8739     1  0.0000000  1.2552000  3
   8730   8742   8754  16217     1  0.0000000  0.6508444  3
   8733   8729   8730   8742     1  180.0000771  2.0083200  2
   8733   8729   8730   8742     1  0.0000000  1.2552000  3
   8733   8729   8736   8739     1  180.0000771  2.0083200  2
   8733   8729   8736   8739     1  0.0000000  1.2552000  3
   8733   8745   8751  16194     1  0.0000000  0.6508444  3
   8736   8729   8730   8742     1  180.0000771  2.0083200  2
   8736   8729   8730   8742     1  0.0000000  1.2552000  3
   8736   8729   8733   8745     1  180.0000771  2.0083200  2
   8736   8729   8733   8745     1  0.0000000  1.2552000  3
   8736   8739   8748   8757     1  0.0000000  0.6508444  3
   8742   8754  16217  16213     1  180.0000771  0.4184000  2
   8742   8754  16217  16213     1  0.0000000  1.6024720  3
   8745   8751  16194  16190     1  180.0000771  0.4184000  2
   8745   8751  16194  16190     1  0.0000000  1.6024720  3
   8751  16194  16190  16189     1  180.0000771  0.4184000  2
   8751  16194  16190  16189     1  0.0000000  1.6024720  3
   8751  16194  16190  16206     1  180.0000771  5.6484000  1
   8751  16194  16190  16206     1  180.0000771  3.5564000  2
   8751  16194  16190  16206     1  0.0000000  0.4184000  3
   8754  16217  16213  16229     1  180.0000771  5.6484000  1
   8754  16217  16213  16229     1  180.0000771  3.5564000  2
   8754  16217  16213  16229     1  0.0000000  0.4184000  3
   8754  16217  16213  16212     1  180.0000771  0.4184000  2
   8754  16217  16213  16212     1  0.0000000  1.6024720  3
   8758   8759   8771   8783     1  0.0000000  0.6508444  3
   8758   8762   8774   8780     1  0.0000000  0.6508444  3
   8758   8765   8768   8777     1  0.0000000  0.6508444  3
   8759   8758   8762   8774     1  180.0000771  2.0083200  2
   8759   8758   8762   8774     1  0.0000000  1.2552000  3
   8759   8758   8765   8768     1  180.0000771  2.0083200  2
   8759   8758   8765   8768     1  0.0000000  1.2552000  3
   8759   8771   8783  16263     1  0.0000000  0.6508444  3
   8762   8758   8759   8771     1  180.0000771  2.0083200  2
   8762   8758   8759   8771     1  0.0000000  1.2552000  3
   8762   8758   8765   8768     1  180.0000771  2.0083200  2
   8762   8758   8765   8768     1  0.0000000  1.2552000  3
   8762   8774   8780  16240     1  0.0000000  0.6508444  3
   8765   8758   8759   8771     1  180.0000771  2.0083200  2
   8765   8758   8759   8771     1  0.0000000  1.2552000  3
   8765   8758   8762   8774     1  180.0000771  2.0083200  2
   8765   8758   8762   8774     1  0.0000000  1.2552000  3
   8765   8768   8777   8786     1  0.0000000  0.6508444  3
   8771   8783  16263  16259     1  180.0000771  0.4184000  2
   8771   8783  16263  16259     1  0.0000000  1.6024720  3
   8774   8780  16240  16236     1  180.0000771  0.4184000  2
   8774   8780  16240  16236     1  0.0000000  1.6024720  3
   8780  16240  16236  16235     1  180.0000771  0.4184000  2
   8780  16240  16236  16235     1  0.0000000  1.6024720  3
   8780  16240  16236  16252     1  180.0000771  5.6484000  1
   8780  16240  16236  16252     1  180.0000771  3.5564000  2
   8780  16240  16236  16252     1  0.0000000  0.4184000  3
   8783  16263  16259  16275     1  180.0000771  5.6484000  1
   8783  16263  16259  16275     1  180.0000771  3.5564000  2
   8783  16263  16259  16275     1  0.0000000  0.4184000  3
   8783  16263  16259  16258     1  180.0000771  0.4184000  2
   8783  16263  16259  16258     1  0.0000000  1.6024720  3
   8787   8788   8800   8812     1  0.0000000  0.6508444  3
   8787   8791   8803   8809     1  0.0000000  0.6508444  3
   8787   8794   8797   8806     1  0.0000000  0.6508444  3
   8788   8787   8791   8803     1  180.0000771  2.0083200  2
   8788   8787   8791   8803     1  0.0000000  1.2552000  3
   8788   8787   8794   8797     1  180.0000771  2.0083200  2
   8788   8787   8794   8797     1  0.0000000  1.2552000  3
   8788   8800   8812  16309     1  0.0000000  0.6508444  3
   8791   8787   8788   8800     1  180.0000771  2.0083200  2
   8791   8787   8788   8800     1  0.0000000  1.2552000  3
   8791   8787   8794   8797     1  180.0000771  2.0083200  2
   8791   8787   8794   8797     1  0.0000000  1.2552000  3
   8791   8803   8809  16286     1  0.0000000  0.6508444  3
   8794   8787   8788   8800     1  180.0000771  2.0083200  2
   8794   8787   8788   8800     1  0.0000000  1.2552000  3
   8794   8787   8791   8803     1  180.0000771  2.0083200  2
   8794   8787   8791   8803     1  0.0000000  1.2552000  3
   8794   8797   8806   8815     1  0.0000000  0.6508444  3
   8800   8812  16309  16305     1  180.0000771  0.4184000  2
   8800   8812  16309  16305     1  0.0000000  1.6024720  3
   8803   8809  16286  16282     1  180.0000771  0.4184000  2
   8803   8809  16286  16282     1  0.0000000  1.6024720  3
   8809  16286  16282  16281     1  180.0000771  0.4184000  2
   8809  16286  16282  16281     1  0.0000000  1.6024720  3
   8809  16286  16282  16298     1  180.0000771  5.6484000  1
   8809  16286  16282  16298     1  180.0000771  3.5564000  2
   8809  16286  16282  16298     1  0.0000000  0.4184000  3
   8812  16309  16305  16321     1  180.0000771  5.6484000  1
   8812  16309  16305  16321     1  180.0000771  3.5564000  2
   8812  16309  16305  16321     1  0.0000000  0.4184000  3
   8812  16309  16305  16304     1  180.0000771  0.4184000  2
   8812  16309  16305  16304     1  0.0000000  1.6024720  3
   8816   8817   8829   8841     1  0.0000000  0.6508444  3
   8816   8820   8832   8838     1  0.0000000  0.6508444  3
   8816   8823   8826   8835     1  0.0000000  0.6508444  3
   8817   8816   8820   8832     1  180.0000771  2.0083200  2
   8817   8816   8820   8832     1  0.0000000  1.2552000  3
   8817   8816   8823   8826     1  180.0000771  2.0083200  2
   8817   8816   8823   8826     1  0.0000000  1.2552000  3
   8817   8829   8841  16355     1  0.0000000  0.6508444  3
   8820   8816   8817   8829     1  180.0000771  2.0083200  2
   8820   8816   8817   8829     1  0.0000000  1.2552000  3
   8820   8816   8823   8826     1  180.0000771  2.0083200  2
   8820   8816   8823   8826     1  0.0000000  1.2552000  3
   8820   8832   8838  16332     1  0.0000000  0.6508444  3
   8823   8816   8817   8829     1  180.0000771  2.0083200  2
   8823   8816   8817   8829     1  0.0000000  1.2552000  3
   8823   8816   8820   8832     1  180.0000771  2.0083200  2
   8823   8816   8820   8832     1  0.0000000  1.2552000  3
   8823   8826   8835   8844     1  0.0000000  0.6508444  3
   8829   8841  16355  16351     1  180.0000771  0.4184000  2
   8829   8841  16355  16351     1  0.0000000  1.6024720  3
   8832   8838  16332  16328     1  180.0000771  0.4184000  2
   8832   8838  16332  16328     1  0.0000000  1.6024720  3
   8838  16332  16328  16327     1  180.0000771  0.4184000  2
   8838  16332  16328  16327     1  0.0000000  1.6024720  3
   8838  16332  16328  16344     1  180.0000771  5.6484000  1
   8838  16332  16328  16344     1  180.0000771  3.5564000  2
   8838  16332  16328  16344     1  0.0000000  0.4184000  3
   8841  16355  16351  16367     1  180.0000771  5.6484000  1
   8841  16355  16351  16367     1  180.0000771  3.5564000  2
   8841  16355  16351  16367     1  0.0000000  0.4184000  3
   8841  16355  16351  16350     1  180.0000771  0.4184000  2
   8841  16355  16351  16350     1  0.0000000  1.6024720  3
   8845   8846   8858   8870     1  0.0000000  0.6508444  3
   8845   8849   8861   8867     1  0.0000000  0.6508444  3
   8845   8852   8855   8864     1  0.0000000  0.6508444  3
   8846   8845   8849   8861     1  180.0000771  2.0083200  2
   8846   8845   8849   8861     1  0.0000000  1.2552000  3
   8846   8845   8852   8855     1  180.0000771  2.0083200  2
   8846   8845   8852   8855     1  0.0000000  1.2552000  3
   8846   8858   8870  16401     1  0.0000000  0.6508444  3
   8849   8845   8846   8858     1  180.0000771  2.0083200  2
   8849   8845   8846   8858     1  0.0000000  1.2552000  3
   8849   8845   8852   8855     1  180.0000771  2.0083200  2
   8849   8845   8852   8855     1  0.0000000  1.2552000  3
   8849   8861   8867  16378     1  0.0000000  0.6508444  3
   8852   8845   8846   8858     1  180.0000771  2.0083200  2
   8852   8845   8846   8858     1  0.0000000  1.2552000  3
   8852   8845   8849   8861     1  180.0000771  2.0083200  2
   8852   8845   8849   8861     1  0.0000000  1.2552000  3
   8852   8855   8864   8873     1  0.0000000  0.6508444  3
   8858   8870  16401  16397     1  180.0000771  0.4184000  2
   8858   8870  16401  16397     1  0.0000000  1.6024720  3
   8861   8867  16378  16374     1  180.0000771  0.4184000  2
   8861   8867  16378  16374     1  0.0000000  1.6024720  3
   8867  16378  16374  16373     1  180.0000771  0.4184000  2
   8867  16378  16374  16373     1  0.0000000  1.6024720  3
   8867  16378  16374  16390     1  180.0000771  5.6484000  1
   8867  16378  16374  16390     1  180.0000771  3.5564000  2
   8867  16378  16374  16390     1  0.0000000  0.4184000  3
   8870  16401  16397  16413     1  180.0000771  5.6484000  1
   8870  16401  16397  16413     1  180.0000771  3.5564000  2
   8870  16401  16397  16413     1  0.0000000  0.4184000  3
   8870  16401  16397  16396     1  180.0000771  0.4184000  2
   8870  16401  16397  16396     1  0.0000000  1.6024720  3
   8874   8875   8887   8899     1  0.0000000  0.6508444  3
   8874   8878   8890   8896     1  0.0000000  0.6508444  3
   8874   8881   8884   8893     1  0.0000000  0.6508444  3
   8875   8874   8878   8890     1  180.0000771  2.0083200  2
   8875   8874   8878   8890     1  0.0000000  1.2552000  3
   8875   8874   8881   8884     1  180.0000771  2.0083200  2
   8875   8874   8881   8884     1  0.0000000  1.2552000  3
   8875   8887   8899  16447     1  0.0000000  0.6508444  3
   8878   8874   8875   8887     1  180.0000771  2.0083200  2
   8878   8874   8875   8887     1  0.0000000  1.2552000  3
   8878   8874   8881   8884     1  180.0000771  2.0083200  2
   8878   8874   8881   8884     1  0.0000000  1.2552000  3
   8878   8890   8896  16424     1  0.0000000  0.6508444  3
   8881   8874   8875   8887     1  180.0000771  2.0083200  2
   8881   8874   8875   8887     1  0.0000000  1.2552000  3
   8881   8874   8878   8890     1  180.0000771  2.0083200  2
   8881   8874   8878   8890     1  0.0000000  1.2552000  3
   8881   8884   8893   8902     1  0.0000000  0.6508444  3
   8887   8899  16447  16443     1  180.0000771  0.4184000  2
   8887   8899  16447  16443     1  0.0000000  1.6024720  3
   8890   8896  16424  16420     1  180.0000771  0.4184000  2
   8890   8896  16424  16420     1  0.0000000  1.6024720  3
   8896  16424  16420  16419     1  180.0000771  0.4184000  2
   8896  16424  16420  16419     1  0.0000000  1.6024720  3
   8896  16424  16420  16436     1  180.0000771  5.6484000  1
   8896  16424  16420  16436     1  180.0000771  3.5564000  2
   8896  16424  16420  16436     1  0.0000000  0.4184000  3
   8899  16447  16443  16459     1  180.0000771  5.6484000  1
   8899  16447  16443  16459     1  180.0000771  3.5564000  2
   8899  16447  16443  16459     1  0.0000000  0.4184000  3
   8899  16447  16443  16442     1  180.0000771  0.4184000  2
   8899  16447  16443  16442     1  0.0000000  1.6024720  3
   8903   8904   8916   8928     1  0.0000000  0.6508444  3
   8903   8907   8919   8925     1  0.0000000  0.6508444  3
   8903   8910   8913   8922     1  0.0000000  0.6508444  3
   8904   8903   8907   8919     1  180.0000771  2.0083200  2
   8904   8903   8907   8919     1  0.0000000  1.2552000  3
   8904   8903   8910   8913     1  180.0000771  2.0083200  2
   8904   8903   8910   8913     1  0.0000000  1.2552000  3
   8904   8916   8928  16493     1  0.0000000  0.6508444  3
   8907   8903   8904   8916     1  180.0000771  2.0083200  2
   8907   8903   8904   8916     1  0.0000000  1.2552000  3
   8907   8903   8910   8913     1  180.0000771  2.0083200  2
   8907   8903   8910   8913     1  0.0000000  1.2552000  3
   8907   8919   8925  16470     1  0.0000000  0.6508444  3
   8910   8903   8904   8916     1  180.0000771  2.0083200  2
   8910   8903   8904   8916     1  0.0000000  1.2552000  3
   8910   8903   8907   8919     1  180.0000771  2.0083200  2
   8910   8903   8907   8919     1  0.0000000  1.2552000  3
   8910   8913   8922   8931     1  0.0000000  0.6508444  3
   8916   8928  16493  16489     1  180.0000771  0.4184000  2
   8916   8928  16493  16489     1  0.0000000  1.6024720  3
   8919   8925  16470  16466     1  180.0000771  0.4184000  2
   8919   8925  16470  16466     1  0.0000000  1.6024720  3
   8925  16470  16466  16465     1  180.0000771  0.4184000  2
   8925  16470  16466  16465     1  0.0000000  1.6024720  3
   8925  16470  16466  16482     1  180.0000771  5.6484000  1
   8925  16470  16466  16482     1  180.0000771  3.5564000  2
   8925  16470  16466  16482     1  0.0000000  0.4184000  3
   8928  16493  16489  16505     1  180.0000771  5.6484000  1
   8928  16493  16489  16505     1  180.0000771  3.5564000  2
   8928  16493  16489  16505     1  0.0000000  0.4184000  3
   8928  16493  16489  16488     1  180.0000771  0.4184000  2
   8928  16493  16489  16488     1  0.0000000  1.6024720  3
   8932   8933   8945   8957     1  0.0000000  0.6508444  3
   8932   8936   8948   8954     1  0.0000000  0.6508444  3
   8932   8939   8942   8951     1  0.0000000  0.6508444  3
   8933   8932   8936   8948     1  180.0000771  2.0083200  2
   8933   8932   8936   8948     1  0.0000000  1.2552000  3
   8933   8932   8939   8942     1  180.0000771  2.0083200  2
   8933   8932   8939   8942     1  0.0000000  1.2552000  3
   8933   8945   8957  16539     1  0.0000000  0.6508444  3
   8936   8932   8933   8945     1  180.0000771  2.0083200  2
   8936   8932   8933   8945     1  0.0000000  1.2552000  3
   8936   8932   8939   8942     1  180.0000771  2.0083200  2
   8936   8932   8939   8942     1  0.0000000  1.2552000  3
   8936   8948   8954  16516     1  0.0000000  0.6508444  3
   8939   8932   8933   8945     1  180.0000771  2.0083200  2
   8939   8932   8933   8945     1  0.0000000  1.2552000  3
   8939   8932   8936   8948     1  180.0000771  2.0083200  2
   8939   8932   8936   8948     1  0.0000000  1.2552000  3
   8939   8942   8951   8960     1  0.0000000  0.6508444  3
   8945   8957  16539  16535     1  180.0000771  0.4184000  2
   8945   8957  16539  16535     1  0.0000000  1.6024720  3
   8948   8954  16516  16512     1  180.0000771  0.4184000  2
   8948   8954  16516  16512     1  0.0000000  1.6024720  3
   8954  16516  16512  16511     1  180.0000771  0.4184000  2
   8954  16516  16512  16511     1  0.0000000  1.6024720  3
   8954  16516  16512  16528     1  180.0000771  5.6484000  1
   8954  16516  16512  16528     1  180.0000771  3.5564000  2
   8954  16516  16512  16528     1  0.0000000  0.4184000  3
   8957  16539  16535  16551     1  180.0000771  5.6484000  1
   8957  16539  16535  16551     1  180.0000771  3.5564000  2
   8957  16539  16535  16551     1  0.0000000  0.4184000  3
   8957  16539  16535  16534     1  180.0000771  0.4184000  2
   8957  16539  16535  16534     1  0.0000000  1.6024720  3
   8961   8962   8974   8986     1  0.0000000  0.6508444  3
   8961   8965   8977   8983     1  0.0000000  0.6508444  3
   8961   8968   8971   8980     1  0.0000000  0.6508444  3
   8962   8961   8965   8977     1  180.0000771  2.0083200  2
   8962   8961   8965   8977     1  0.0000000  1.2552000  3
   8962   8961   8968   8971     1  180.0000771  2.0083200  2
   8962   8961   8968   8971     1  0.0000000  1.2552000  3
   8962   8974   8986  16585     1  0.0000000  0.6508444  3
   8965   8961   8962   8974     1  180.0000771  2.0083200  2
   8965   8961   8962   8974     1  0.0000000  1.2552000  3
   8965   8961   8968   8971     1  180.0000771  2.0083200  2
   8965   8961   8968   8971     1  0.0000000  1.2552000  3
   8965   8977   8983  16562     1  0.0000000  0.6508444  3
   8968   8961   8962   8974     1  180.0000771  2.0083200  2
   8968   8961   8962   8974     1  0.0000000  1.2552000  3
   8968   8961   8965   8977     1  180.0000771  2.0083200  2
   8968   8961   8965   8977     1  0.0000000  1.2552000  3
   8968   8971   8980   8989     1  0.0000000  0.6508444  3
   8974   8986  16585  16581     1  180.0000771  0.4184000  2
   8974   8986  16585  16581     1  0.0000000  1.6024720  3
   8977   8983  16562  16558     1  180.0000771  0.4184000  2
   8977   8983  16562  16558     1  0.0000000  1.6024720  3
   8983  16562  16558  16557     1  180.0000771  0.4184000  2
   8983  16562  16558  16557     1  0.0000000  1.6024720  3
   8983  16562  16558  16574     1  180.0000771  5.6484000  1
   8983  16562  16558  16574     1  180.0000771  3.5564000  2
   8983  16562  16558  16574     1  0.0000000  0.4184000  3
   8986  16585  16581  16597     1  180.0000771  5.6484000  1
   8986  16585  16581  16597     1  180.0000771  3.5564000  2
   8986  16585  16581  16597     1  0.0000000  0.4184000  3
   8986  16585  16581  16580     1  180.0000771  0.4184000  2
   8986  16585  16581  16580     1  0.0000000  1.6024720  3
   8990   8991   9003   9015     1  0.0000000  0.6508444  3
   8990   8994   9006   9012     1  0.0000000  0.6508444  3
   8990   8997   9000   9009     1  0.0000000  0.6508444  3
   8991   8990   8994   9006     1  180.0000771  2.0083200  2
   8991   8990   8994   9006     1  0.0000000  1.2552000  3
   8991   8990   8997   9000     1  180.0000771  2.0083200  2
   8991   8990   8997   9000     1  0.0000000  1.2552000  3
   8991   9003   9015  16631     1  0.0000000  0.6508444  3
   8994   8990   8991   9003     1  180.0000771  2.0083200  2
   8994   8990   8991   9003     1  0.0000000  1.2552000  3
   8994   8990   8997   9000     1  180.0000771  2.0083200  2
   8994   8990   8997   9000     1  0.0000000  1.2552000  3
   8994   9006   9012  16608     1  0.0000000  0.6508444  3
   8997   8990   8991   9003     1  180.0000771  2.0083200  2
   8997   8990   8991   9003     1  0.0000000  1.2552000  3
   8997   8990   8994   9006     1  180.0000771  2.0083200  2
   8997   8990   8994   9006     1  0.0000000  1.2552000  3
   8997   9000   9009   9018     1  0.0000000  0.6508444  3
   9003   9015  16631  16627     1  180.0000771  0.4184000  2
   9003   9015  16631  16627     1  0.0000000  1.6024720  3
   9006   9012  16608  16604     1  180.0000771  0.4184000  2
   9006   9012  16608  16604     1  0.0000000  1.6024720  3
   9012  16608  16604  16603     1  180.0000771  0.4184000  2
   9012  16608  16604  16603     1  0.0000000  1.6024720  3
   9012  16608  16604  16620     1  180.0000771  5.6484000  1
   9012  16608  16604  16620     1  180.0000771  3.5564000  2
   9012  16608  16604  16620     1  0.0000000  0.4184000  3
   9015  16631  16627  16643     1  180.0000771  5.6484000  1
   9015  16631  16627  16643     1  180.0000771  3.5564000  2
   9015  16631  16627  16643     1  0.0000000  0.4184000  3
   9015  16631  16627  16626     1  180.0000771  0.4184000  2
   9015  16631  16627  16626     1  0.0000000  1.6024720  3
   9019   9020   9032   9044     1  0.0000000  0.6508444  3
   9019   9023   9035   9041     1  0.0000000  0.6508444  3
   9019   9026   9029   9038     1  0.0000000  0.6508444  3
   9020   9019   9023   9035     1  180.0000771  2.0083200  2
   9020   9019   9023   9035     1  0.0000000  1.2552000  3
   9020   9019   9026   9029     1  180.0000771  2.0083200  2
   9020   9019   9026   9029     1  0.0000000  1.2552000  3
   9020   9032   9044  16677     1  0.0000000  0.6508444  3
   9023   9019   9020   9032     1  180.0000771  2.0083200  2
   9023   9019   9020   9032     1  0.0000000  1.2552000  3
   9023   9019   9026   9029     1  180.0000771  2.0083200  2
   9023   9019   9026   9029     1  0.0000000  1.2552000  3
   9023   9035   9041  16654     1  0.0000000  0.6508444  3
   9026   9019   9020   9032     1  180.0000771  2.0083200  2
   9026   9019   9020   9032     1  0.0000000  1.2552000  3
   9026   9019   9023   9035     1  180.0000771  2.0083200  2
   9026   9019   9023   9035     1  0.0000000  1.2552000  3
   9026   9029   9038   9047     1  0.0000000  0.6508444  3
   9032   9044  16677  16673     1  180.0000771  0.4184000  2
   9032   9044  16677  16673     1  0.0000000  1.6024720  3
   9035   9041  16654  16650     1  180.0000771  0.4184000  2
   9035   9041  16654  16650     1  0.0000000  1.6024720  3
   9041  16654  16650  16649     1  180.0000771  0.4184000  2
   9041  16654  16650  16649     1  0.0000000  1.6024720  3
   9041  16654  16650  16666     1  180.0000771  5.6484000  1
   9041  16654  16650  16666     1  180.0000771  3.5564000  2
   9041  16654  16650  16666     1  0.0000000  0.4184000  3
   9044  16677  16673  16689     1  180.0000771  5.6484000  1
   9044  16677  16673  16689     1  180.0000771  3.5564000  2
   9044  16677  16673  16689     1  0.0000000  0.4184000  3
   9044  16677  16673  16672     1  180.0000771  0.4184000  2
   9044  16677  16673  16672     1  0.0000000  1.6024720  3
   9048   9049   9061   9073     1  0.0000000  0.6508444  3
   9048   9052   9064   9070     1  0.0000000  0.6508444  3
   9048   9055   9058   9067     1  0.0000000  0.6508444  3
   9049   9048   9052   9064     1  180.0000771  2.0083200  2
   9049   9048   9052   9064     1  0.0000000  1.2552000  3
   9049   9048   9055   9058     1  180.0000771  2.0083200  2
   9049   9048   9055   9058     1  0.0000000  1.2552000  3
   9049   9061   9073  16723     1  0.0000000  0.6508444  3
   9052   9048   9049   9061     1  180.0000771  2.0083200  2
   9052   9048   9049   9061     1  0.0000000  1.2552000  3
   9052   9048   9055   9058     1  180.0000771  2.0083200  2
   9052   9048   9055   9058     1  0.0000000  1.2552000  3
   9052   9064   9070  16700     1  0.0000000  0.6508444  3
   9055   9048   9049   9061     1  180.0000771  2.0083200  2
   9055   9048   9049   9061     1  0.0000000  1.2552000  3
   9055   9048   9052   9064     1  180.0000771  2.0083200  2
   9055   9048   9052   9064     1  0.0000000  1.2552000  3
   9055   9058   9067   9076     1  0.0000000  0.6508444  3
   9061   9073  16723  16719     1  180.0000771  0.4184000  2
   9061   9073  16723  16719     1  0.0000000  1.6024720  3
   9064   9070  16700  16696     1  180.0000771  0.4184000  2
   9064   9070  16700  16696     1  0.0000000  1.6024720  3
   9070  16700  16696  16695     1  180.0000771  0.4184000  2
   9070  16700  16696  16695     1  0.0000000  1.6024720  3
   9070  16700  16696  16712     1  180.0000771  5.6484000  1
   9070  16700  16696  16712     1  180.0000771  3.5564000  2
   9070  16700  16696  16712     1  0.0000000  0.4184000  3
   9073  16723  16719  16735     1  180.0000771  5.6484000  1
   9073  16723  16719  16735     1  180.0000771  3.5564000  2
   9073  16723  16719  16735     1  0.0000000  0.4184000  3
   9073  16723  16719  16718     1  180.0000771  0.4184000  2
   9073  16723  16719  16718     1  0.0000000  1.6024720  3
   9077   9078   9090   9102     1  0.0000000  0.6508444  3
   9077   9081   9093   9099     1  0.0000000  0.6508444  3
   9077   9084   9087   9096     1  0.0000000  0.6508444  3
   9078   9077   9081   9093     1  180.0000771  2.0083200  2
   9078   9077   9081   9093     1  0.0000000  1.2552000  3
   9078   9077   9084   9087     1  180.0000771  2.0083200  2
   9078   9077   9084   9087     1  0.0000000  1.2552000  3
   9078   9090   9102  16769     1  0.0000000  0.6508444  3
   9081   9077   9078   9090     1  180.0000771  2.0083200  2
   9081   9077   9078   9090     1  0.0000000  1.2552000  3
   9081   9077   9084   9087     1  180.0000771  2.0083200  2
   9081   9077   9084   9087     1  0.0000000  1.2552000  3
   9081   9093   9099  16746     1  0.0000000  0.6508444  3
   9084   9077   9078   9090     1  180.0000771  2.0083200  2
   9084   9077   9078   9090     1  0.0000000  1.2552000  3
   9084   9077   9081   9093     1  180.0000771  2.0083200  2
   9084   9077   9081   9093     1  0.0000000  1.2552000  3
   9084   9087   9096   9105     1  0.0000000  0.6508444  3
   9090   9102  16769  16765     1  180.0000771  0.4184000  2
   9090   9102  16769  16765     1  0.0000000  1.6024720  3
   9093   9099  16746  16742     1  180.0000771  0.4184000  2
   9093   9099  16746  16742     1  0.0000000  1.6024720  3
   9099  16746  16742  16741     1  180.0000771  0.4184000  2
   9099  16746  16742  16741     1  0.0000000  1.6024720  3
   9099  16746  16742  16758     1  180.0000771  5.6484000  1
   9099  16746  16742  16758     1  180.0000771  3.5564000  2
   9099  16746  16742  16758     1  0.0000000  0.4184000  3
   9102  16769  16765  16781     1  180.0000771  5.6484000  1
   9102  16769  16765  16781     1  180.0000771  3.5564000  2
   9102  16769  16765  16781     1  0.0000000  0.4184000  3
   9102  16769  16765  16764     1  180.0000771  0.4184000  2
   9102  16769  16765  16764     1  0.0000000  1.6024720  3
   9106   9107   9119   9131     1  0.0000000  0.6508444  3
   9106   9110   9122   9128     1  0.0000000  0.6508444  3
   9106   9113   9116   9125     1  0.0000000  0.6508444  3
   9107   9106   9110   9122     1  180.0000771  2.0083200  2
   9107   9106   9110   9122     1  0.0000000  1.2552000  3
   9107   9106   9113   9116     1  180.0000771  2.0083200  2
   9107   9106   9113   9116     1  0.0000000  1.2552000  3
   9107   9119   9131  16815     1  0.0000000  0.6508444  3
   9110   9106   9107   9119     1  180.0000771  2.0083200  2
   9110   9106   9107   9119     1  0.0000000  1.2552000  3
   9110   9106   9113   9116     1  180.0000771  2.0083200  2
   9110   9106   9113   9116     1  0.0000000  1.2552000  3
   9110   9122   9128  16792     1  0.0000000  0.6508444  3
   9113   9106   9107   9119     1  180.0000771  2.0083200  2
   9113   9106   9107   9119     1  0.0000000  1.2552000  3
   9113   9106   9110   9122     1  180.0000771  2.0083200  2
   9113   9106   9110   9122     1  0.0000000  1.2552000  3
   9113   9116   9125   9134     1  0.0000000  0.6508444  3
   9119   9131  16815  16811     1  180.0000771  0.4184000  2
   9119   9131  16815  16811     1  0.0000000  1.6024720  3
   9122   9128  16792  16788     1  180.0000771  0.4184000  2
   9122   9128  16792  16788     1  0.0000000  1.6024720  3
   9128  16792  16788  16787     1  180.0000771  0.4184000  2
   9128  16792  16788  16787     1  0.0000000  1.6024720  3
   9128  16792  16788  16804     1  180.0000771  5.6484000  1
   9128  16792  16788  16804     1  180.0000771  3.5564000  2
   9128  16792  16788  16804     1  0.0000000  0.4184000  3
   9131  16815  16811  16827     1  180.0000771  5.6484000  1
   9131  16815  16811  16827     1  180.0000771  3.5564000  2
   9131  16815  16811  16827     1  0.0000000  0.4184000  3
   9131  16815  16811  16810     1  180.0000771  0.4184000  2
   9131  16815  16811  16810     1  0.0000000  1.6024720  3
   9135   9136   9148   9160     1  0.0000000  0.6508444  3
   9135   9139   9151   9157     1  0.0000000  0.6508444  3
   9135   9142   9145   9154     1  0.0000000  0.6508444  3
   9136   9135   9139   9151     1  180.0000771  2.0083200  2
   9136   9135   9139   9151     1  0.0000000  1.2552000  3
   9136   9135   9142   9145     1  180.0000771  2.0083200  2
   9136   9135   9142   9145     1  0.0000000  1.2552000  3
   9136   9148   9160  16861     1  0.0000000  0.6508444  3
   9139   9135   9136   9148     1  180.0000771  2.0083200  2
   9139   9135   9136   9148     1  0.0000000  1.2552000  3
   9139   9135   9142   9145     1  180.0000771  2.0083200  2
   9139   9135   9142   9145     1  0.0000000  1.2552000  3
   9139   9151   9157  16838     1  0.0000000  0.6508444  3
   9142   9135   9136   9148     1  180.0000771  2.0083200  2
   9142   9135   9136   9148     1  0.0000000  1.2552000  3
   9142   9135   9139   9151     1  180.0000771  2.0083200  2
   9142   9135   9139   9151     1  0.0000000  1.2552000  3
   9142   9145   9154   9163     1  0.0000000  0.6508444  3
   9148   9160  16861  16857     1  180.0000771  0.4184000  2
   9148   9160  16861  16857     1  0.0000000  1.6024720  3
   9151   9157  16838  16834     1  180.0000771  0.4184000  2
   9151   9157  16838  16834     1  0.0000000  1.6024720  3
   9157  16838  16834  16833     1  180.0000771  0.4184000  2
   9157  16838  16834  16833     1  0.0000000  1.6024720  3
   9157  16838  16834  16850     1  180.0000771  5.6484000  1
   9157  16838  16834  16850     1  180.0000771  3.5564000  2
   9157  16838  16834  16850     1  0.0000000  0.4184000  3
   9160  16861  16857  16873     1  180.0000771  5.6484000  1
   9160  16861  16857  16873     1  180.0000771  3.5564000  2
   9160  16861  16857  16873     1  0.0000000  0.4184000  3
   9160  16861  16857  16856     1  180.0000771  0.4184000  2
   9160  16861  16857  16856     1  0.0000000  1.6024720  3
   9164   9165   9177   9189     1  0.0000000  0.6508444  3
   9164   9168   9180   9186     1  0.0000000  0.6508444  3
   9164   9171   9174   9183     1  0.0000000  0.6508444  3
   9165   9164   9168   9180     1  180.0000771  2.0083200  2
   9165   9164   9168   9180     1  0.0000000  1.2552000  3
   9165   9164   9171   9174     1  180.0000771  2.0083200  2
   9165   9164   9171   9174     1  0.0000000  1.2552000  3
   9165   9177   9189  16907     1  0.0000000  0.6508444  3
   9168   9164   9165   9177     1  180.0000771  2.0083200  2
   9168   9164   9165   9177     1  0.0000000  1.2552000  3
   9168   9164   9171   9174     1  180.0000771  2.0083200  2
   9168   9164   9171   9174     1  0.0000000  1.2552000  3
   9168   9180   9186  16884     1  0.0000000  0.6508444  3
   9171   9164   9165   9177     1  180.0000771  2.0083200  2
   9171   9164   9165   9177     1  0.0000000  1.2552000  3
   9171   9164   9168   9180     1  180.0000771  2.0083200  2
   9171   9164   9168   9180     1  0.0000000  1.2552000  3
   9171   9174   9183   9192     1  0.0000000  0.6508444  3
   9177   9189  16907  16903     1  180.0000771  0.4184000  2
   9177   9189  16907  16903     1  0.0000000  1.6024720  3
   9180   9186  16884  16880     1  180.0000771  0.4184000  2
   9180   9186  16884  16880     1  0.0000000  1.6024720  3
   9186  16884  16880  16879     1  180.0000771  0.4184000  2
   9186  16884  16880  16879     1  0.0000000  1.6024720  3
   9186  16884  16880  16896     1  180.0000771  5.6484000  1
   9186  16884  16880  16896     1  180.0000771  3.5564000  2
   9186  16884  16880  16896     1  0.0000000  0.4184000  3
   9189  16907  16903  16919     1  180.0000771  5.6484000  1
   9189  16907  16903  16919     1  180.0000771  3.5564000  2
   9189  16907  16903  16919     1  0.0000000  0.4184000  3
   9189  16907  16903  16902     1  180.0000771  0.4184000  2
   9189  16907  16903  16902     1  0.0000000  1.6024720  3
   9193   9194   9206   9218     1  0.0000000  0.6508444  3
   9193   9197   9209   9215     1  0.0000000  0.6508444  3
   9193   9200   9203   9212     1  0.0000000  0.6508444  3
   9194   9193   9197   9209     1  180.0000771  2.0083200  2
   9194   9193   9197   9209     1  0.0000000  1.2552000  3
   9194   9193   9200   9203     1  180.0000771  2.0083200  2
   9194   9193   9200   9203     1  0.0000000  1.2552000  3
   9194   9206   9218  16953     1  0.0000000  0.6508444  3
   9197   9193   9194   9206     1  180.0000771  2.0083200  2
   9197   9193   9194   9206     1  0.0000000  1.2552000  3
   9197   9193   9200   9203     1  180.0000771  2.0083200  2
   9197   9193   9200   9203     1  0.0000000  1.2552000  3
   9197   9209   9215  16930     1  0.0000000  0.6508444  3
   9200   9193   9194   9206     1  180.0000771  2.0083200  2
   9200   9193   9194   9206     1  0.0000000  1.2552000  3
   9200   9193   9197   9209     1  180.0000771  2.0083200  2
   9200   9193   9197   9209     1  0.0000000  1.2552000  3
   9200   9203   9212   9221     1  0.0000000  0.6508444  3
   9206   9218  16953  16949     1  180.0000771  0.4184000  2
   9206   9218  16953  16949     1  0.0000000  1.6024720  3
   9209   9215  16930  16926     1  180.0000771  0.4184000  2
   9209   9215  16930  16926     1  0.0000000  1.6024720  3
   9215  16930  16926  16925     1  180.0000771  0.4184000  2
   9215  16930  16926  16925     1  0.0000000  1.6024720  3
   9215  16930  16926  16942     1  180.0000771  5.6484000  1
   9215  16930  16926  16942     1  180.0000771  3.5564000  2
   9215  16930  16926  16942     1  0.0000000  0.4184000  3
   9218  16953  16949  16965     1  180.0000771  5.6484000  1
   9218  16953  16949  16965     1  180.0000771  3.5564000  2
   9218  16953  16949  16965     1  0.0000000  0.4184000  3
   9218  16953  16949  16948     1  180.0000771  0.4184000  2
   9218  16953  16949  16948     1  0.0000000  1.6024720  3
   9222   9223   9235   9247     1  0.0000000  0.6508444  3
   9222   9226   9238   9244     1  0.0000000  0.6508444  3
   9222   9229   9232   9241     1  0.0000000  0.6508444  3
   9223   9222   9226   9238     1  180.0000771  2.0083200  2
   9223   9222   9226   9238     1  0.0000000  1.2552000  3
   9223   9222   9229   9232     1  180.0000771  2.0083200  2
   9223   9222   9229   9232     1  0.0000000  1.2552000  3
   9223   9235   9247  16999     1  0.0000000  0.6508444  3
   9226   9222   9223   9235     1  180.0000771  2.0083200  2
   9226   9222   9223   9235     1  0.0000000  1.2552000  3
   9226   9222   9229   9232     1  180.0000771  2.0083200  2
   9226   9222   9229   9232     1  0.0000000  1.2552000  3
   9226   9238   9244  16976     1  0.0000000  0.6508444  3
   9229   9222   9223   9235     1  180.0000771  2.0083200  2
   9229   9222   9223   9235     1  0.0000000  1.2552000  3
   9229   9222   9226   9238     1  180.0000771  2.0083200  2
   9229   9222   9226   9238     1  0.0000000  1.2552000  3
   9229   9232   9241   9250     1  0.0000000  0.6508444  3
   9235   9247  16999  16995     1  180.0000771  0.4184000  2
   9235   9247  16999  16995     1  0.0000000  1.6024720  3
   9238   9244  16976  16972     1  180.0000771  0.4184000  2
   9238   9244  16976  16972     1  0.0000000  1.6024720  3
   9244  16976  16972  16971     1  180.0000771  0.4184000  2
   9244  16976  16972  16971     1  0.0000000  1.6024720  3
   9244  16976  16972  16988     1  180.0000771  5.6484000  1
   9244  16976  16972  16988     1  180.0000771  3.5564000  2
   9244  16976  16972  16988     1  0.0000000  0.4184000  3
   9247  16999  16995  17011     1  180.0000771  5.6484000  1
   9247  16999  16995  17011     1  180.0000771  3.5564000  2
   9247  16999  16995  17011     1  0.0000000  0.4184000  3
   9247  16999  16995  16994     1  180.0000771  0.4184000  2
   9247  16999  16995  16994     1  0.0000000  1.6024720  3
   9251   9252   9264   9276     1  0.0000000  0.6508444  3
   9251   9255   9267   9273     1  0.0000000  0.6508444  3
   9251   9258   9261   9270     1  0.0000000  0.6508444  3
   9252   9251   9255   9267     1  180.0000771  2.0083200  2
   9252   9251   9255   9267     1  0.0000000  1.2552000  3
   9252   9251   9258   9261     1  180.0000771  2.0083200  2
   9252   9251   9258   9261     1  0.0000000  1.2552000  3
   9252   9264   9276  17045     1  0.0000000  0.6508444  3
   9255   9251   9252   9264     1  180.0000771  2.0083200  2
   9255   9251   9252   9264     1  0.0000000  1.2552000  3
   9255   9251   9258   9261     1  180.0000771  2.0083200  2
   9255   9251   9258   9261     1  0.0000000  1.2552000  3
   9255   9267   9273  17022     1  0.0000000  0.6508444  3
   9258   9251   9252   9264     1  180.0000771  2.0083200  2
   9258   9251   9252   9264     1  0.0000000  1.2552000  3
   9258   9251   9255   9267     1  180.0000771  2.0083200  2
   9258   9251   9255   9267     1  0.0000000  1.2552000  3
   9258   9261   9270   9279     1  0.0000000  0.6508444  3
   9264   9276  17045  17041     1  180.0000771  0.4184000  2
   9264   9276  17045  17041     1  0.0000000  1.6024720  3
   9267   9273  17022  17018     1  180.0000771  0.4184000  2
   9267   9273  17022  17018     1  0.0000000  1.6024720  3
   9273  17022  17018  17017     1  180.0000771  0.4184000  2
   9273  17022  17018  17017     1  0.0000000  1.6024720  3
   9273  17022  17018  17034     1  180.0000771  5.6484000  1
   9273  17022  17018  17034     1  180.0000771  3.5564000  2
   9273  17022  17018  17034     1  0.0000000  0.4184000  3
   9276  17045  17041  17057     1  180.0000771  5.6484000  1
   9276  17045  17041  17057     1  180.0000771  3.5564000  2
   9276  17045  17041  17057     1  0.0000000  0.4184000  3
   9276  17045  17041  17040     1  180.0000771  0.4184000  2
   9276  17045  17041  17040     1  0.0000000  1.6024720  3
   9280   9281   9293   9305     1  0.0000000  0.6508444  3
   9280   9284   9296   9302     1  0.0000000  0.6508444  3
   9280   9287   9290   9299     1  0.0000000  0.6508444  3
   9281   9280   9284   9296     1  180.0000771  2.0083200  2
   9281   9280   9284   9296     1  0.0000000  1.2552000  3
   9281   9280   9287   9290     1  180.0000771  2.0083200  2
   9281   9280   9287   9290     1  0.0000000  1.2552000  3
   9281   9293   9305  17091     1  0.0000000  0.6508444  3
   9284   9280   9281   9293     1  180.0000771  2.0083200  2
   9284   9280   9281   9293     1  0.0000000  1.2552000  3
   9284   9280   9287   9290     1  180.0000771  2.0083200  2
   9284   9280   9287   9290     1  0.0000000  1.2552000  3
   9284   9296   9302  17068     1  0.0000000  0.6508444  3
   9287   9280   9281   9293     1  180.0000771  2.0083200  2
   9287   9280   9281   9293     1  0.0000000  1.2552000  3
   9287   9280   9284   9296     1  180.0000771  2.0083200  2
   9287   9280   9284   9296     1  0.0000000  1.2552000  3
   9287   9290   9299   9308     1  0.0000000  0.6508444  3
   9293   9305  17091  17087     1  180.0000771  0.4184000  2
   9293   9305  17091  17087     1  0.0000000  1.6024720  3
   9296   9302  17068  17064     1  180.0000771  0.4184000  2
   9296   9302  17068  17064     1  0.0000000  1.6024720  3
   9302  17068  17064  17063     1  180.0000771  0.4184000  2
   9302  17068  17064  17063     1  0.0000000  1.6024720  3
   9302  17068  17064  17080     1  180.0000771  5.6484000  1
   9302  17068  17064  17080     1  180.0000771  3.5564000  2
   9302  17068  17064  17080     1  0.0000000  0.4184000  3
   9305  17091  17087  17103     1  180.0000771  5.6484000  1
   9305  17091  17087  17103     1  180.0000771  3.5564000  2
   9305  17091  17087  17103     1  0.0000000  0.4184000  3
   9305  17091  17087  17086     1  180.0000771  0.4184000  2
   9305  17091  17087  17086     1  0.0000000  1.6024720  3
   9309   9310   9322   9334     1  0.0000000  0.6508444  3
   9309   9313   9325   9331     1  0.0000000  0.6508444  3
   9309   9316   9319   9328     1  0.0000000  0.6508444  3
   9310   9309   9313   9325     1  180.0000771  2.0083200  2
   9310   9309   9313   9325     1  0.0000000  1.2552000  3
   9310   9309   9316   9319     1  180.0000771  2.0083200  2
   9310   9309   9316   9319     1  0.0000000  1.2552000  3
   9310   9322   9334  17137     1  0.0000000  0.6508444  3
   9313   9309   9310   9322     1  180.0000771  2.0083200  2
   9313   9309   9310   9322     1  0.0000000  1.2552000  3
   9313   9309   9316   9319     1  180.0000771  2.0083200  2
   9313   9309   9316   9319     1  0.0000000  1.2552000  3
   9313   9325   9331  17114     1  0.0000000  0.6508444  3
   9316   9309   9310   9322     1  180.0000771  2.0083200  2
   9316   9309   9310   9322     1  0.0000000  1.2552000  3
   9316   9309   9313   9325     1  180.0000771  2.0083200  2
   9316   9309   9313   9325     1  0.0000000  1.2552000  3
   9316   9319   9328   9337     1  0.0000000  0.6508444  3
   9322   9334  17137  17133     1  180.0000771  0.4184000  2
   9322   9334  17137  17133     1  0.0000000  1.6024720  3
   9325   9331  17114  17110     1  180.0000771  0.4184000  2
   9325   9331  17114  17110     1  0.0000000  1.6024720  3
   9331  17114  17110  17109     1  180.0000771  0.4184000  2
   9331  17114  17110  17109     1  0.0000000  1.6024720  3
   9331  17114  17110  17126     1  180.0000771  5.6484000  1
   9331  17114  17110  17126     1  180.0000771  3.5564000  2
   9331  17114  17110  17126     1  0.0000000  0.4184000  3
   9334  17137  17133  17149     1  180.0000771  5.6484000  1
   9334  17137  17133  17149     1  180.0000771  3.5564000  2
   9334  17137  17133  17149     1  0.0000000  0.4184000  3
   9334  17137  17133  17132     1  180.0000771  0.4184000  2
   9334  17137  17133  17132     1  0.0000000  1.6024720  3
   9338   9339   9351   9363     1  0.0000000  0.6508444  3
   9338   9342   9354   9360     1  0.0000000  0.6508444  3
   9338   9345   9348   9357     1  0.0000000  0.6508444  3
   9339   9338   9342   9354     1  180.0000771  2.0083200  2
   9339   9338   9342   9354     1  0.0000000  1.2552000  3
   9339   9338   9345   9348     1  180.0000771  2.0083200  2
   9339   9338   9345   9348     1  0.0000000  1.2552000  3
   9339   9351   9363  17183     1  0.0000000  0.6508444  3
   9342   9338   9339   9351     1  180.0000771  2.0083200  2
   9342   9338   9339   9351     1  0.0000000  1.2552000  3
   9342   9338   9345   9348     1  180.0000771  2.0083200  2
   9342   9338   9345   9348     1  0.0000000  1.2552000  3
   9342   9354   9360  17160     1  0.0000000  0.6508444  3
   9345   9338   9339   9351     1  180.0000771  2.0083200  2
   9345   9338   9339   9351     1  0.0000000  1.2552000  3
   9345   9338   9342   9354     1  180.0000771  2.0083200  2
   9345   9338   9342   9354     1  0.0000000  1.2552000  3
   9345   9348   9357   9366     1  0.0000000  0.6508444  3
   9351   9363  17183  17179     1  180.0000771  0.4184000  2
   9351   9363  17183  17179     1  0.0000000  1.6024720  3
   9354   9360  17160  17156     1  180.0000771  0.4184000  2
   9354   9360  17160  17156     1  0.0000000  1.6024720  3
   9360  17160  17156  17155     1  180.0000771  0.4184000  2
   9360  17160  17156  17155     1  0.0000000  1.6024720  3
   9360  17160  17156  17172     1  180.0000771  5.6484000  1
   9360  17160  17156  17172     1  180.0000771  3.5564000  2
   9360  17160  17156  17172     1  0.0000000  0.4184000  3
   9363  17183  17179  17195     1  180.0000771  5.6484000  1
   9363  17183  17179  17195     1  180.0000771  3.5564000  2
   9363  17183  17179  17195     1  0.0000000  0.4184000  3
   9363  17183  17179  17178     1  180.0000771  0.4184000  2
   9363  17183  17179  17178     1  0.0000000  1.6024720  3
   9367   9368   9380   9392     1  0.0000000  0.6508444  3
   9367   9371   9383   9389     1  0.0000000  0.6508444  3
   9367   9374   9377   9386     1  0.0000000  0.6508444  3
   9368   9367   9371   9383     1  180.0000771  2.0083200  2
   9368   9367   9371   9383     1  0.0000000  1.2552000  3
   9368   9367   9374   9377     1  180.0000771  2.0083200  2
   9368   9367   9374   9377     1  0.0000000  1.2552000  3
   9368   9380   9392  17229     1  0.0000000  0.6508444  3
   9371   9367   9368   9380     1  180.0000771  2.0083200  2
   9371   9367   9368   9380     1  0.0000000  1.2552000  3
   9371   9367   9374   9377     1  180.0000771  2.0083200  2
   9371   9367   9374   9377     1  0.0000000  1.2552000  3
   9371   9383   9389  17206     1  0.0000000  0.6508444  3
   9374   9367   9368   9380     1  180.0000771  2.0083200  2
   9374   9367   9368   9380     1  0.0000000  1.2552000  3
   9374   9367   9371   9383     1  180.0000771  2.0083200  2
   9374   9367   9371   9383     1  0.0000000  1.2552000  3
   9374   9377   9386   9395     1  0.0000000  0.6508444  3
   9380   9392  17229  17225     1  180.0000771  0.4184000  2
   9380   9392  17229  17225     1  0.0000000  1.6024720  3
   9383   9389  17206  17202     1  180.0000771  0.4184000  2
   9383   9389  17206  17202     1  0.0000000  1.6024720  3
   9389  17206  17202  17201     1  180.0000771  0.4184000  2
   9389  17206  17202  17201     1  0.0000000  1.6024720  3
   9389  17206  17202  17218     1  180.0000771  5.6484000  1
   9389  17206  17202  17218     1  180.0000771  3.5564000  2
   9389  17206  17202  17218     1  0.0000000  0.4184000  3
   9392  17229  17225  17241     1  180.0000771  5.6484000  1
   9392  17229  17225  17241     1  180.0000771  3.5564000  2
   9392  17229  17225  17241     1  0.0000000  0.4184000  3
   9392  17229  17225  17224     1  180.0000771  0.4184000  2
   9392  17229  17225  17224     1  0.0000000  1.6024720  3
   9396   9397   9409   9421     1  0.0000000  0.6508444  3
   9396   9400   9412   9418     1  0.0000000  0.6508444  3
   9396   9403   9406   9415     1  0.0000000  0.6508444  3
   9397   9396   9400   9412     1  180.0000771  2.0083200  2
   9397   9396   9400   9412     1  0.0000000  1.2552000  3
   9397   9396   9403   9406     1  180.0000771  2.0083200  2
   9397   9396   9403   9406     1  0.0000000  1.2552000  3
   9397   9409   9421  17275     1  0.0000000  0.6508444  3
   9400   9396   9397   9409     1  180.0000771  2.0083200  2
   9400   9396   9397   9409     1  0.0000000  1.2552000  3
   9400   9396   9403   9406     1  180.0000771  2.0083200  2
   9400   9396   9403   9406     1  0.0000000  1.2552000  3
   9400   9412   9418  17252     1  0.0000000  0.6508444  3
   9403   9396   9397   9409     1  180.0000771  2.0083200  2
   9403   9396   9397   9409     1  0.0000000  1.2552000  3
   9403   9396   9400   9412     1  180.0000771  2.0083200  2
   9403   9396   9400   9412     1  0.0000000  1.2552000  3
   9403   9406   9415   9424     1  0.0000000  0.6508444  3
   9409   9421  17275  17271     1  180.0000771  0.4184000  2
   9409   9421  17275  17271     1  0.0000000  1.6024720  3
   9412   9418  17252  17248     1  180.0000771  0.4184000  2
   9412   9418  17252  17248     1  0.0000000  1.6024720  3
   9418  17252  17248  17247     1  180.0000771  0.4184000  2
   9418  17252  17248  17247     1  0.0000000  1.6024720  3
   9418  17252  17248  17264     1  180.0000771  5.6484000  1
   9418  17252  17248  17264     1  180.0000771  3.5564000  2
   9418  17252  17248  17264     1  0.0000000  0.4184000  3
   9421  17275  17271  17287     1  180.0000771  5.6484000  1
   9421  17275  17271  17287     1  180.0000771  3.5564000  2
   9421  17275  17271  17287     1  0.0000000  0.4184000  3
   9421  17275  17271  17270     1  180.0000771  0.4184000  2
   9421  17275  17271  17270     1  0.0000000  1.6024720  3
   9425   9426   9438   9450     1  0.0000000  0.6508444  3
   9425   9429   9441   9447     1  0.0000000  0.6508444  3
   9425   9432   9435   9444     1  0.0000000  0.6508444  3
   9426   9425   9429   9441     1  180.0000771  2.0083200  2
   9426   9425   9429   9441     1  0.0000000  1.2552000  3
   9426   9425   9432   9435     1  180.0000771  2.0083200  2
   9426   9425   9432   9435     1  0.0000000  1.2552000  3
   9426   9438   9450  17321     1  0.0000000  0.6508444  3
   9429   9425   9426   9438     1  180.0000771  2.0083200  2
   9429   9425   9426   9438     1  0.0000000  1.2552000  3
   9429   9425   9432   9435     1  180.0000771  2.0083200  2
   9429   9425   9432   9435     1  0.0000000  1.2552000  3
   9429   9441   9447  17298     1  0.0000000  0.6508444  3
   9432   9425   9426   9438     1  180.0000771  2.0083200  2
   9432   9425   9426   9438     1  0.0000000  1.2552000  3
   9432   9425   9429   9441     1  180.0000771  2.0083200  2
   9432   9425   9429   9441     1  0.0000000  1.2552000  3
   9432   9435   9444   9453     1  0.0000000  0.6508444  3
   9438   9450  17321  17317     1  180.0000771  0.4184000  2
   9438   9450  17321  17317     1  0.0000000  1.6024720  3
   9441   9447  17298  17294     1  180.0000771  0.4184000  2
   9441   9447  17298  17294     1  0.0000000  1.6024720  3
   9447  17298  17294  17293     1  180.0000771  0.4184000  2
   9447  17298  17294  17293     1  0.0000000  1.6024720  3
   9447  17298  17294  17310     1  180.0000771  5.6484000  1
   9447  17298  17294  17310     1  180.0000771  3.5564000  2
   9447  17298  17294  17310     1  0.0000000  0.4184000  3
   9450  17321  17317  17333     1  180.0000771  5.6484000  1
   9450  17321  17317  17333     1  180.0000771  3.5564000  2
   9450  17321  17317  17333     1  0.0000000  0.4184000  3
   9450  17321  17317  17316     1  180.0000771  0.4184000  2
   9450  17321  17317  17316     1  0.0000000  1.6024720  3
   9454   9455   9467   9479     1  0.0000000  0.6508444  3
   9454   9458   9470   9476     1  0.0000000  0.6508444  3
   9454   9461   9464   9473     1  0.0000000  0.6508444  3
   9455   9454   9458   9470     1  180.0000771  2.0083200  2
   9455   9454   9458   9470     1  0.0000000  1.2552000  3
   9455   9454   9461   9464     1  180.0000771  2.0083200  2
   9455   9454   9461   9464     1  0.0000000  1.2552000  3
   9455   9467   9479  17367     1  0.0000000  0.6508444  3
   9458   9454   9455   9467     1  180.0000771  2.0083200  2
   9458   9454   9455   9467     1  0.0000000  1.2552000  3
   9458   9454   9461   9464     1  180.0000771  2.0083200  2
   9458   9454   9461   9464     1  0.0000000  1.2552000  3
   9458   9470   9476  17344     1  0.0000000  0.6508444  3
   9461   9454   9455   9467     1  180.0000771  2.0083200  2
   9461   9454   9455   9467     1  0.0000000  1.2552000  3
   9461   9454   9458   9470     1  180.0000771  2.0083200  2
   9461   9454   9458   9470     1  0.0000000  1.2552000  3
   9461   9464   9473   9482     1  0.0000000  0.6508444  3
   9467   9479  17367  17363     1  180.0000771  0.4184000  2
   9467   9479  17367  17363     1  0.0000000  1.6024720  3
   9470   9476  17344  17340     1  180.0000771  0.4184000  2
   9470   9476  17344  17340     1  0.0000000  1.6024720  3
   9476  17344  17340  17339     1  180.0000771  0.4184000  2
   9476  17344  17340  17339     1  0.0000000  1.6024720  3
   9476  17344  17340  17356     1  180.0000771  5.6484000  1
   9476  17344  17340  17356     1  180.0000771  3.5564000  2
   9476  17344  17340  17356     1  0.0000000  0.4184000  3
   9479  17367  17363  17379     1  180.0000771  5.6484000  1
   9479  17367  17363  17379     1  180.0000771  3.5564000  2
   9479  17367  17363  17379     1  0.0000000  0.4184000  3
   9479  17367  17363  17362     1  180.0000771  0.4184000  2
   9479  17367  17363  17362     1  0.0000000  1.6024720  3
   9483   9484   9496   9508     1  0.0000000  0.6508444  3
   9483   9487   9499   9505     1  0.0000000  0.6508444  3
   9483   9490   9493   9502     1  0.0000000  0.6508444  3
   9484   9483   9487   9499     1  180.0000771  2.0083200  2
   9484   9483   9487   9499     1  0.0000000  1.2552000  3
   9484   9483   9490   9493     1  180.0000771  2.0083200  2
   9484   9483   9490   9493     1  0.0000000  1.2552000  3
   9484   9496   9508  17413     1  0.0000000  0.6508444  3
   9487   9483   9484   9496     1  180.0000771  2.0083200  2
   9487   9483   9484   9496     1  0.0000000  1.2552000  3
   9487   9483   9490   9493     1  180.0000771  2.0083200  2
   9487   9483   9490   9493     1  0.0000000  1.2552000  3
   9487   9499   9505  17390     1  0.0000000  0.6508444  3
   9490   9483   9484   9496     1  180.0000771  2.0083200  2
   9490   9483   9484   9496     1  0.0000000  1.2552000  3
   9490   9483   9487   9499     1  180.0000771  2.0083200  2
   9490   9483   9487   9499     1  0.0000000  1.2552000  3
   9490   9493   9502   9511     1  0.0000000  0.6508444  3
   9496   9508  17413  17409     1  180.0000771  0.4184000  2
   9496   9508  17413  17409     1  0.0000000  1.6024720  3
   9499   9505  17390  17386     1  180.0000771  0.4184000  2
   9499   9505  17390  17386     1  0.0000000  1.6024720  3
   9505  17390  17386  17385     1  180.0000771  0.4184000  2
   9505  17390  17386  17385     1  0.0000000  1.6024720  3
   9505  17390  17386  17402     1  180.0000771  5.6484000  1
   9505  17390  17386  17402     1  180.0000771  3.5564000  2
   9505  17390  17386  17402     1  0.0000000  0.4184000  3
   9508  17413  17409  17425     1  180.0000771  5.6484000  1
   9508  17413  17409  17425     1  180.0000771  3.5564000  2
   9508  17413  17409  17425     1  0.0000000  0.4184000  3
   9508  17413  17409  17408     1  180.0000771  0.4184000  2
   9508  17413  17409  17408     1  0.0000000  1.6024720  3
   9512   9513   9525   9537     1  0.0000000  0.6508444  3
   9512   9516   9528   9534     1  0.0000000  0.6508444  3
   9512   9519   9522   9531     1  0.0000000  0.6508444  3
   9513   9512   9516   9528     1  180.0000771  2.0083200  2
   9513   9512   9516   9528     1  0.0000000  1.2552000  3
   9513   9512   9519   9522     1  180.0000771  2.0083200  2
   9513   9512   9519   9522     1  0.0000000  1.2552000  3
   9513   9525   9537  17459     1  0.0000000  0.6508444  3
   9516   9512   9513   9525     1  180.0000771  2.0083200  2
   9516   9512   9513   9525     1  0.0000000  1.2552000  3
   9516   9512   9519   9522     1  180.0000771  2.0083200  2
   9516   9512   9519   9522     1  0.0000000  1.2552000  3
   9516   9528   9534  17436     1  0.0000000  0.6508444  3
   9519   9512   9513   9525     1  180.0000771  2.0083200  2
   9519   9512   9513   9525     1  0.0000000  1.2552000  3
   9519   9512   9516   9528     1  180.0000771  2.0083200  2
   9519   9512   9516   9528     1  0.0000000  1.2552000  3
   9519   9522   9531   9540     1  0.0000000  0.6508444  3
   9525   9537  17459  17455     1  180.0000771  0.4184000  2
   9525   9537  17459  17455     1  0.0000000  1.6024720  3
   9528   9534  17436  17432     1  180.0000771  0.4184000  2
   9528   9534  17436  17432     1  0.0000000  1.6024720  3
   9534  17436  17432  17431     1  180.0000771  0.4184000  2
   9534  17436  17432  17431     1  0.0000000  1.6024720  3
   9534  17436  17432  17448     1  180.0000771  5.6484000  1
   9534  17436  17432  17448     1  180.0000771  3.5564000  2
   9534  17436  17432  17448     1  0.0000000  0.4184000  3
   9537  17459  17455  17471     1  180.0000771  5.6484000  1
   9537  17459  17455  17471     1  180.0000771  3.5564000  2
   9537  17459  17455  17471     1  0.0000000  0.4184000  3
   9537  17459  17455  17454     1  180.0000771  0.4184000  2
   9537  17459  17455  17454     1  0.0000000  1.6024720  3
   9541   9542   9554   9566     1  0.0000000  0.6508444  3
   9541   9545   9557   9563     1  0.0000000  0.6508444  3
   9541   9548   9551   9560     1  0.0000000  0.6508444  3
   9542   9541   9545   9557     1  180.0000771  2.0083200  2
   9542   9541   9545   9557     1  0.0000000  1.2552000  3
   9542   9541   9548   9551     1  180.0000771  2.0083200  2
   9542   9541   9548   9551     1  0.0000000  1.2552000  3
   9542   9554   9566  17505     1  0.0000000  0.6508444  3
   9545   9541   9542   9554     1  180.0000771  2.0083200  2
   9545   9541   9542   9554     1  0.0000000  1.2552000  3
   9545   9541   9548   9551     1  180.0000771  2.0083200  2
   9545   9541   9548   9551     1  0.0000000  1.2552000  3
   9545   9557   9563  17482     1  0.0000000  0.6508444  3
   9548   9541   9542   9554     1  180.0000771  2.0083200  2
   9548   9541   9542   9554     1  0.0000000  1.2552000  3
   9548   9541   9545   9557     1  180.0000771  2.0083200  2
   9548   9541   9545   9557     1  0.0000000  1.2552000  3
   9548   9551   9560   9569     1  0.0000000  0.6508444  3
   9554   9566  17505  17501     1  180.0000771  0.4184000  2
   9554   9566  17505  17501     1  0.0000000  1.6024720  3
   9557   9563  17482  17478     1  180.0000771  0.4184000  2
   9557   9563  17482  17478     1  0.0000000  1.6024720  3
   9563  17482  17478  17477     1  180.0000771  0.4184000  2
   9563  17482  17478  17477     1  0.0000000  1.6024720  3
   9563  17482  17478  17494     1  180.0000771  5.6484000  1
   9563  17482  17478  17494     1  180.0000771  3.5564000  2
   9563  17482  17478  17494     1  0.0000000  0.4184000  3
   9566  17505  17501  17517     1  180.0000771  5.6484000  1
   9566  17505  17501  17517     1  180.0000771  3.5564000  2
   9566  17505  17501  17517     1  0.0000000  0.4184000  3
   9566  17505  17501  17500     1  180.0000771  0.4184000  2
   9566  17505  17501  17500     1  0.0000000  1.6024720  3
   9570   9571   9583   9595     1  0.0000000  0.6508444  3
   9570   9574   9586   9592     1  0.0000000  0.6508444  3
   9570   9577   9580   9589     1  0.0000000  0.6508444  3
   9571   9570   9574   9586     1  180.0000771  2.0083200  2
   9571   9570   9574   9586     1  0.0000000  1.2552000  3
   9571   9570   9577   9580     1  180.0000771  2.0083200  2
   9571   9570   9577   9580     1  0.0000000  1.2552000  3
   9571   9583   9595  17551     1  0.0000000  0.6508444  3
   9574   9570   9571   9583     1  180.0000771  2.0083200  2
   9574   9570   9571   9583     1  0.0000000  1.2552000  3
   9574   9570   9577   9580     1  180.0000771  2.0083200  2
   9574   9570   9577   9580     1  0.0000000  1.2552000  3
   9574   9586   9592  17528     1  0.0000000  0.6508444  3
   9577   9570   9571   9583     1  180.0000771  2.0083200  2
   9577   9570   9571   9583     1  0.0000000  1.2552000  3
   9577   9570   9574   9586     1  180.0000771  2.0083200  2
   9577   9570   9574   9586     1  0.0000000  1.2552000  3
   9577   9580   9589   9598     1  0.0000000  0.6508444  3
   9583   9595  17551  17547     1  180.0000771  0.4184000  2
   9583   9595  17551  17547     1  0.0000000  1.6024720  3
   9586   9592  17528  17524     1  180.0000771  0.4184000  2
   9586   9592  17528  17524     1  0.0000000  1.6024720  3
   9592  17528  17524  17523     1  180.0000771  0.4184000  2
   9592  17528  17524  17523     1  0.0000000  1.6024720  3
   9592  17528  17524  17540     1  180.0000771  5.6484000  1
   9592  17528  17524  17540     1  180.0000771  3.5564000  2
   9592  17528  17524  17540     1  0.0000000  0.4184000  3
   9595  17551  17547  17563     1  180.0000771  5.6484000  1
   9595  17551  17547  17563     1  180.0000771  3.5564000  2
   9595  17551  17547  17563     1  0.0000000  0.4184000  3
   9595  17551  17547  17546     1  180.0000771  0.4184000  2
   9595  17551  17547  17546     1  0.0000000  1.6024720  3
   9599   9600   9612   9624     1  0.0000000  0.6508444  3
   9599   9603   9615   9621     1  0.0000000  0.6508444  3
   9599   9606   9609   9618     1  0.0000000  0.6508444  3
   9600   9599   9603   9615     1  180.0000771  2.0083200  2
   9600   9599   9603   9615     1  0.0000000  1.2552000  3
   9600   9599   9606   9609     1  180.0000771  2.0083200  2
   9600   9599   9606   9609     1  0.0000000  1.2552000  3
   9600   9612   9624  17597     1  0.0000000  0.6508444  3
   9603   9599   9600   9612     1  180.0000771  2.0083200  2
   9603   9599   9600   9612     1  0.0000000  1.2552000  3
   9603   9599   9606   9609     1  180.0000771  2.0083200  2
   9603   9599   9606   9609     1  0.0000000  1.2552000  3
   9603   9615   9621  17574     1  0.0000000  0.6508444  3
   9606   9599   9600   9612     1  180.0000771  2.0083200  2
   9606   9599   9600   9612     1  0.0000000  1.2552000  3
   9606   9599   9603   9615     1  180.0000771  2.0083200  2
   9606   9599   9603   9615     1  0.0000000  1.2552000  3
   9606   9609   9618   9627     1  0.0000000  0.6508444  3
   9612   9624  17597  17593     1  180.0000771  0.4184000  2
   9612   9624  17597  17593     1  0.0000000  1.6024720  3
   9615   9621  17574  17570     1  180.0000771  0.4184000  2
   9615   9621  17574  17570     1  0.0000000  1.6024720  3
   9621  17574  17570  17569     1  180.0000771  0.4184000  2
   9621  17574  17570  17569     1  0.0000000  1.6024720  3
   9621  17574  17570  17586     1  180.0000771  5.6484000  1
   9621  17574  17570  17586     1  180.0000771  3.5564000  2
   9621  17574  17570  17586     1  0.0000000  0.4184000  3
   9624  17597  17593  17609     1  180.0000771  5.6484000  1
   9624  17597  17593  17609     1  180.0000771  3.5564000  2
   9624  17597  17593  17609     1  0.0000000  0.4184000  3
   9624  17597  17593  17592     1  180.0000771  0.4184000  2
   9624  17597  17593  17592     1  0.0000000  1.6024720  3
   9628   9629   9641   9653     1  0.0000000  0.6508444  3
   9628   9632   9644   9650     1  0.0000000  0.6508444  3
   9628   9635   9638   9647     1  0.0000000  0.6508444  3
   9629   9628   9632   9644     1  180.0000771  2.0083200  2
   9629   9628   9632   9644     1  0.0000000  1.2552000  3
   9629   9628   9635   9638     1  180.0000771  2.0083200  2
   9629   9628   9635   9638     1  0.0000000  1.2552000  3
   9629   9641   9653  17643     1  0.0000000  0.6508444  3
   9632   9628   9629   9641     1  180.0000771  2.0083200  2
   9632   9628   9629   9641     1  0.0000000  1.2552000  3
   9632   9628   9635   9638     1  180.0000771  2.0083200  2
   9632   9628   9635   9638     1  0.0000000  1.2552000  3
   9632   9644   9650  17620     1  0.0000000  0.6508444  3
   9635   9628   9629   9641     1  180.0000771  2.0083200  2
   9635   9628   9629   9641     1  0.0000000  1.2552000  3
   9635   9628   9632   9644     1  180.0000771  2.0083200  2
   9635   9628   9632   9644     1  0.0000000  1.2552000  3
   9635   9638   9647   9656     1  0.0000000  0.6508444  3
   9641   9653  17643  17639     1  180.0000771  0.4184000  2
   9641   9653  17643  17639     1  0.0000000  1.6024720  3
   9644   9650  17620  17616     1  180.0000771  0.4184000  2
   9644   9650  17620  17616     1  0.0000000  1.6024720  3
   9650  17620  17616  17615     1  180.0000771  0.4184000  2
   9650  17620  17616  17615     1  0.0000000  1.6024720  3
   9650  17620  17616  17632     1  180.0000771  5.6484000  1
   9650  17620  17616  17632     1  180.0000771  3.5564000  2
   9650  17620  17616  17632     1  0.0000000  0.4184000  3
   9653  17643  17639  17655     1  180.0000771  5.6484000  1
   9653  17643  17639  17655     1  180.0000771  3.5564000  2
   9653  17643  17639  17655     1  0.0000000  0.4184000  3
   9653  17643  17639  17638     1  180.0000771  0.4184000  2
   9653  17643  17639  17638     1  0.0000000  1.6024720  3
   9657   9658   9670   9682     1  0.0000000  0.6508444  3
   9657   9661   9673   9679     1  0.0000000  0.6508444  3
   9657   9664   9667   9676     1  0.0000000  0.6508444  3
   9658   9657   9661   9673     1  180.0000771  2.0083200  2
   9658   9657   9661   9673     1  0.0000000  1.2552000  3
   9658   9657   9664   9667     1  180.0000771  2.0083200  2
   9658   9657   9664   9667     1  0.0000000  1.2552000  3
   9658   9670   9682  17689     1  0.0000000  0.6508444  3
   9661   9657   9658   9670     1  180.0000771  2.0083200  2
   9661   9657   9658   9670     1  0.0000000  1.2552000  3
   9661   9657   9664   9667     1  180.0000771  2.0083200  2
   9661   9657   9664   9667     1  0.0000000  1.2552000  3
   9661   9673   9679  17666     1  0.0000000  0.6508444  3
   9664   9657   9658   9670     1  180.0000771  2.0083200  2
   9664   9657   9658   9670     1  0.0000000  1.2552000  3
   9664   9657   9661   9673     1  180.0000771  2.0083200  2
   9664   9657   9661   9673     1  0.0000000  1.2552000  3
   9664   9667   9676   9685     1  0.0000000  0.6508444  3
   9670   9682  17689  17685     1  180.0000771  0.4184000  2
   9670   9682  17689  17685     1  0.0000000  1.6024720  3
   9673   9679  17666  17662     1  180.0000771  0.4184000  2
   9673   9679  17666  17662     1  0.0000000  1.6024720  3
   9679  17666  17662  17661     1  180.0000771  0.4184000  2
   9679  17666  17662  17661     1  0.0000000  1.6024720  3
   9679  17666  17662  17678     1  180.0000771  5.6484000  1
   9679  17666  17662  17678     1  180.0000771  3.5564000  2
   9679  17666  17662  17678     1  0.0000000  0.4184000  3
   9682  17689  17685  17701     1  180.0000771  5.6484000  1
   9682  17689  17685  17701     1  180.0000771  3.5564000  2
   9682  17689  17685  17701     1  0.0000000  0.4184000  3
   9682  17689  17685  17684     1  180.0000771  0.4184000  2
   9682  17689  17685  17684     1  0.0000000  1.6024720  3
   9686   9687   9699   9711     1  0.0000000  0.6508444  3
   9686   9690   9702   9708     1  0.0000000  0.6508444  3
   9686   9693   9696   9705     1  0.0000000  0.6508444  3
   9687   9686   9690   9702     1  180.0000771  2.0083200  2
   9687   9686   9690   9702     1  0.0000000  1.2552000  3
   9687   9686   9693   9696     1  180.0000771  2.0083200  2
   9687   9686   9693   9696     1  0.0000000  1.2552000  3
   9687   9699   9711  17735     1  0.0000000  0.6508444  3
   9690   9686   9687   9699     1  180.0000771  2.0083200  2
   9690   9686   9687   9699     1  0.0000000  1.2552000  3
   9690   9686   9693   9696     1  180.0000771  2.0083200  2
   9690   9686   9693   9696     1  0.0000000  1.2552000  3
   9690   9702   9708  17712     1  0.0000000  0.6508444  3
   9693   9686   9687   9699     1  180.0000771  2.0083200  2
   9693   9686   9687   9699     1  0.0000000  1.2552000  3
   9693   9686   9690   9702     1  180.0000771  2.0083200  2
   9693   9686   9690   9702     1  0.0000000  1.2552000  3
   9693   9696   9705   9714     1  0.0000000  0.6508444  3
   9699   9711  17735  17731     1  180.0000771  0.4184000  2
   9699   9711  17735  17731     1  0.0000000  1.6024720  3
   9702   9708  17712  17708     1  180.0000771  0.4184000  2
   9702   9708  17712  17708     1  0.0000000  1.6024720  3
   9708  17712  17708  17707     1  180.0000771  0.4184000  2
   9708  17712  17708  17707     1  0.0000000  1.6024720  3
   9708  17712  17708  17724     1  180.0000771  5.6484000  1
   9708  17712  17708  17724     1  180.0000771  3.5564000  2
   9708  17712  17708  17724     1  0.0000000  0.4184000  3
   9711  17735  17731  17747     1  180.0000771  5.6484000  1
   9711  17735  17731  17747     1  180.0000771  3.5564000  2
   9711  17735  17731  17747     1  0.0000000  0.4184000  3
   9711  17735  17731  17730     1  180.0000771  0.4184000  2
   9711  17735  17731  17730     1  0.0000000  1.6024720  3
   9715   9716   9728   9740     1  0.0000000  0.6508444  3
   9715   9719   9731   9737     1  0.0000000  0.6508444  3
   9715   9722   9725   9734     1  0.0000000  0.6508444  3
   9716   9715   9719   9731     1  180.0000771  2.0083200  2
   9716   9715   9719   9731     1  0.0000000  1.2552000  3
   9716   9715   9722   9725     1  180.0000771  2.0083200  2
   9716   9715   9722   9725     1  0.0000000  1.2552000  3
   9716   9728   9740  17781     1  0.0000000  0.6508444  3
   9719   9715   9716   9728     1  180.0000771  2.0083200  2
   9719   9715   9716   9728     1  0.0000000  1.2552000  3
   9719   9715   9722   9725     1  180.0000771  2.0083200  2
   9719   9715   9722   9725     1  0.0000000  1.2552000  3
   9719   9731   9737  17758     1  0.0000000  0.6508444  3
   9722   9715   9716   9728     1  180.0000771  2.0083200  2
   9722   9715   9716   9728     1  0.0000000  1.2552000  3
   9722   9715   9719   9731     1  180.0000771  2.0083200  2
   9722   9715   9719   9731     1  0.0000000  1.2552000  3
   9722   9725   9734   9743     1  0.0000000  0.6508444  3
   9728   9740  17781  17777     1  180.0000771  0.4184000  2
   9728   9740  17781  17777     1  0.0000000  1.6024720  3
   9731   9737  17758  17754     1  180.0000771  0.4184000  2
   9731   9737  17758  17754     1  0.0000000  1.6024720  3
   9737  17758  17754  17753     1  180.0000771  0.4184000  2
   9737  17758  17754  17753     1  0.0000000  1.6024720  3
   9737  17758  17754  17770     1  180.0000771  5.6484000  1
   9737  17758  17754  17770     1  180.0000771  3.5564000  2
   9737  17758  17754  17770     1  0.0000000  0.4184000  3
   9740  17781  17777  17793     1  180.0000771  5.6484000  1
   9740  17781  17777  17793     1  180.0000771  3.5564000  2
   9740  17781  17777  17793     1  0.0000000  0.4184000  3
   9740  17781  17777  17776     1  180.0000771  0.4184000  2
   9740  17781  17777  17776     1  0.0000000  1.6024720  3
   9744   9745   9757   9769     1  0.0000000  0.6508444  3
   9744   9748   9760   9766     1  0.0000000  0.6508444  3
   9744   9751   9754   9763     1  0.0000000  0.6508444  3
   9745   9744   9748   9760     1  180.0000771  2.0083200  2
   9745   9744   9748   9760     1  0.0000000  1.2552000  3
   9745   9744   9751   9754     1  180.0000771  2.0083200  2
   9745   9744   9751   9754     1  0.0000000  1.2552000  3
   9745   9757   9769  17827     1  0.0000000  0.6508444  3
   9748   9744   9745   9757     1  180.0000771  2.0083200  2
   9748   9744   9745   9757     1  0.0000000  1.2552000  3
   9748   9744   9751   9754     1  180.0000771  2.0083200  2
   9748   9744   9751   9754     1  0.0000000  1.2552000  3
   9748   9760   9766  17804     1  0.0000000  0.6508444  3
   9751   9744   9745   9757     1  180.0000771  2.0083200  2
   9751   9744   9745   9757     1  0.0000000  1.2552000  3
   9751   9744   9748   9760     1  180.0000771  2.0083200  2
   9751   9744   9748   9760     1  0.0000000  1.2552000  3
   9751   9754   9763   9772     1  0.0000000  0.6508444  3
   9757   9769  17827  17823     1  180.0000771  0.4184000  2
   9757   9769  17827  17823     1  0.0000000  1.6024720  3
   9760   9766  17804  17800     1  180.0000771  0.4184000  2
   9760   9766  17804  17800     1  0.0000000  1.6024720  3
   9766  17804  17800  17799     1  180.0000771  0.4184000  2
   9766  17804  17800  17799     1  0.0000000  1.6024720  3
   9766  17804  17800  17816     1  180.0000771  5.6484000  1
   9766  17804  17800  17816     1  180.0000771  3.5564000  2
   9766  17804  17800  17816     1  0.0000000  0.4184000  3
   9769  17827  17823  17839     1  180.0000771  5.6484000  1
   9769  17827  17823  17839     1  180.0000771  3.5564000  2
   9769  17827  17823  17839     1  0.0000000  0.4184000  3
   9769  17827  17823  17822     1  180.0000771  0.4184000  2
   9769  17827  17823  17822     1  0.0000000  1.6024720  3
   9773   9774   9786   9798     1  0.0000000  0.6508444  3
   9773   9777   9789   9795     1  0.0000000  0.6508444  3
   9773   9780   9783   9792     1  0.0000000  0.6508444  3
   9774   9773   9777   9789     1  180.0000771  2.0083200  2
   9774   9773   9777   9789     1  0.0000000  1.2552000  3
   9774   9773   9780   9783     1  180.0000771  2.0083200  2
   9774   9773   9780   9783     1  0.0000000  1.2552000  3
   9774   9786   9798  17873     1  0.0000000  0.6508444  3
   9777   9773   9774   9786     1  180.0000771  2.0083200  2
   9777   9773   9774   9786     1  0.0000000  1.2552000  3
   9777   9773   9780   9783     1  180.0000771  2.0083200  2
   9777   9773   9780   9783     1  0.0000000  1.2552000  3
   9777   9789   9795  17850     1  0.0000000  0.6508444  3
   9780   9773   9774   9786     1  180.0000771  2.0083200  2
   9780   9773   9774   9786     1  0.0000000  1.2552000  3
   9780   9773   9777   9789     1  180.0000771  2.0083200  2
   9780   9773   9777   9789     1  0.0000000  1.2552000  3
   9780   9783   9792   9801     1  0.0000000  0.6508444  3
   9786   9798  17873  17869     1  180.0000771  0.4184000  2
   9786   9798  17873  17869     1  0.0000000  1.6024720  3
   9789   9795  17850  17846     1  180.0000771  0.4184000  2
   9789   9795  17850  17846     1  0.0000000  1.6024720  3
   9795  17850  17846  17845     1  180.0000771  0.4184000  2
   9795  17850  17846  17845     1  0.0000000  1.6024720  3
   9795  17850  17846  17862     1  180.0000771  5.6484000  1
   9795  17850  17846  17862     1  180.0000771  3.5564000  2
   9795  17850  17846  17862     1  0.0000000  0.4184000  3
   9798  17873  17869  17885     1  180.0000771  5.6484000  1
   9798  17873  17869  17885     1  180.0000771  3.5564000  2
   9798  17873  17869  17885     1  0.0000000  0.4184000  3
   9798  17873  17869  17868     1  180.0000771  0.4184000  2
   9798  17873  17869  17868     1  0.0000000  1.6024720  3
   9802   9803   9815   9827     1  0.0000000  0.6508444  3
   9802   9806   9818   9824     1  0.0000000  0.6508444  3
   9802   9809   9812   9821     1  0.0000000  0.6508444  3
   9803   9802   9806   9818     1  180.0000771  2.0083200  2
   9803   9802   9806   9818     1  0.0000000  1.2552000  3
   9803   9802   9809   9812     1  180.0000771  2.0083200  2
   9803   9802   9809   9812     1  0.0000000  1.2552000  3
   9803   9815   9827  17919     1  0.0000000  0.6508444  3
   9806   9802   9803   9815     1  180.0000771  2.0083200  2
   9806   9802   9803   9815     1  0.0000000  1.2552000  3
   9806   9802   9809   9812     1  180.0000771  2.0083200  2
   9806   9802   9809   9812     1  0.0000000  1.2552000  3
   9806   9818   9824  17896     1  0.0000000  0.6508444  3
   9809   9802   9803   9815     1  180.0000771  2.0083200  2
   9809   9802   9803   9815     1  0.0000000  1.2552000  3
   9809   9802   9806   9818     1  180.0000771  2.0083200  2
   9809   9802   9806   9818     1  0.0000000  1.2552000  3
   9809   9812   9821   9830     1  0.0000000  0.6508444  3
   9815   9827  17919  17915     1  180.0000771  0.4184000  2
   9815   9827  17919  17915     1  0.0000000  1.6024720  3
   9818   9824  17896  17892     1  180.0000771  0.4184000  2
   9818   9824  17896  17892     1  0.0000000  1.6024720  3
   9824  17896  17892  17891     1  180.0000771  0.4184000  2
   9824  17896  17892  17891     1  0.0000000  1.6024720  3
   9824  17896  17892  17908     1  180.0000771  5.6484000  1
   9824  17896  17892  17908     1  180.0000771  3.5564000  2
   9824  17896  17892  17908     1  0.0000000  0.4184000  3
   9827  17919  17915  17931     1  180.0000771  5.6484000  1
   9827  17919  17915  17931     1  180.0000771  3.5564000  2
   9827  17919  17915  17931     1  0.0000000  0.4184000  3
   9827  17919  17915  17914     1  180.0000771  0.4184000  2
   9827  17919  17915  17914     1  0.0000000  1.6024720  3
   9831   9832   9844   9856     1  0.0000000  0.6508444  3
   9831   9835   9847   9853     1  0.0000000  0.6508444  3
   9831   9838   9841   9850     1  0.0000000  0.6508444  3
   9832   9831   9835   9847     1  180.0000771  2.0083200  2
   9832   9831   9835   9847     1  0.0000000  1.2552000  3
   9832   9831   9838   9841     1  180.0000771  2.0083200  2
   9832   9831   9838   9841     1  0.0000000  1.2552000  3
   9832   9844   9856  17965     1  0.0000000  0.6508444  3
   9835   9831   9832   9844     1  180.0000771  2.0083200  2
   9835   9831   9832   9844     1  0.0000000  1.2552000  3
   9835   9831   9838   9841     1  180.0000771  2.0083200  2
   9835   9831   9838   9841     1  0.0000000  1.2552000  3
   9835   9847   9853  17942     1  0.0000000  0.6508444  3
   9838   9831   9832   9844     1  180.0000771  2.0083200  2
   9838   9831   9832   9844     1  0.0000000  1.2552000  3
   9838   9831   9835   9847     1  180.0000771  2.0083200  2
   9838   9831   9835   9847     1  0.0000000  1.2552000  3
   9838   9841   9850   9859     1  0.0000000  0.6508444  3
   9844   9856  17965  17961     1  180.0000771  0.4184000  2
   9844   9856  17965  17961     1  0.0000000  1.6024720  3
   9847   9853  17942  17938     1  180.0000771  0.4184000  2
   9847   9853  17942  17938     1  0.0000000  1.6024720  3
   9853  17942  17938  17937     1  180.0000771  0.4184000  2
   9853  17942  17938  17937     1  0.0000000  1.6024720  3
   9853  17942  17938  17954     1  180.0000771  5.6484000  1
   9853  17942  17938  17954     1  180.0000771  3.5564000  2
   9853  17942  17938  17954     1  0.0000000  0.4184000  3
   9856  17965  17961  17977     1  180.0000771  5.6484000  1
   9856  17965  17961  17977     1  180.0000771  3.5564000  2
   9856  17965  17961  17977     1  0.0000000  0.4184000  3
   9856  17965  17961  17960     1  180.0000771  0.4184000  2
   9856  17965  17961  17960     1  0.0000000  1.6024720  3
   9860   9861   9873   9885     1  0.0000000  0.6508444  3
   9860   9864   9876   9882     1  0.0000000  0.6508444  3
   9860   9867   9870   9879     1  0.0000000  0.6508444  3
   9861   9860   9864   9876     1  180.0000771  2.0083200  2
   9861   9860   9864   9876     1  0.0000000  1.2552000  3
   9861   9860   9867   9870     1  180.0000771  2.0083200  2
   9861   9860   9867   9870     1  0.0000000  1.2552000  3
   9861   9873   9885  18011     1  0.0000000  0.6508444  3
   9864   9860   9861   9873     1  180.0000771  2.0083200  2
   9864   9860   9861   9873     1  0.0000000  1.2552000  3
   9864   9860   9867   9870     1  180.0000771  2.0083200  2
   9864   9860   9867   9870     1  0.0000000  1.2552000  3
   9864   9876   9882  17988     1  0.0000000  0.6508444  3
   9867   9860   9861   9873     1  180.0000771  2.0083200  2
   9867   9860   9861   9873     1  0.0000000  1.2552000  3
   9867   9860   9864   9876     1  180.0000771  2.0083200  2
   9867   9860   9864   9876     1  0.0000000  1.2552000  3
   9867   9870   9879   9888     1  0.0000000  0.6508444  3
   9873   9885  18011  18007     1  180.0000771  0.4184000  2
   9873   9885  18011  18007     1  0.0000000  1.6024720  3
   9876   9882  17988  17984     1  180.0000771  0.4184000  2
   9876   9882  17988  17984     1  0.0000000  1.6024720  3
   9882  17988  17984  17983     1  180.0000771  0.4184000  2
   9882  17988  17984  17983     1  0.0000000  1.6024720  3
   9882  17988  17984  18000     1  180.0000771  5.6484000  1
   9882  17988  17984  18000     1  180.0000771  3.5564000  2
   9882  17988  17984  18000     1  0.0000000  0.4184000  3
   9885  18011  18007  18023     1  180.0000771  5.6484000  1
   9885  18011  18007  18023     1  180.0000771  3.5564000  2
   9885  18011  18007  18023     1  0.0000000  0.4184000  3
   9885  18011  18007  18006     1  180.0000771  0.4184000  2
   9885  18011  18007  18006     1  0.0000000  1.6024720  3
   9889   9890   9902   9914     1  0.0000000  0.6508444  3
   9889   9893   9905   9911     1  0.0000000  0.6508444  3
   9889   9896   9899   9908     1  0.0000000  0.6508444  3
   9890   9889   9893   9905     1  180.0000771  2.0083200  2
   9890   9889   9893   9905     1  0.0000000  1.2552000  3
   9890   9889   9896   9899     1  180.0000771  2.0083200  2
   9890   9889   9896   9899     1  0.0000000  1.2552000  3
   9890   9902   9914  18057     1  0.0000000  0.6508444  3
   9893   9889   9890   9902     1  180.0000771  2.0083200  2
   9893   9889   9890   9902     1  0.0000000  1.2552000  3
   9893   9889   9896   9899     1  180.0000771  2.0083200  2
   9893   9889   9896   9899     1  0.0000000  1.2552000  3
   9893   9905   9911  18034     1  0.0000000  0.6508444  3
   9896   9889   9890   9902     1  180.0000771  2.0083200  2
   9896   9889   9890   9902     1  0.0000000  1.2552000  3
   9896   9889   9893   9905     1  180.0000771  2.0083200  2
   9896   9889   9893   9905     1  0.0000000  1.2552000  3
   9896   9899   9908   9917     1  0.0000000  0.6508444  3
   9902   9914  18057  18053     1  180.0000771  0.4184000  2
   9902   9914  18057  18053     1  0.0000000  1.6024720  3
   9905   9911  18034  18030     1  180.0000771  0.4184000  2
   9905   9911  18034  18030     1  0.0000000  1.6024720  3
   9911  18034  18030  18029     1  180.0000771  0.4184000  2
   9911  18034  18030  18029     1  0.0000000  1.6024720  3
   9911  18034  18030  18046     1  180.0000771  5.6484000  1
   9911  18034  18030  18046     1  180.0000771  3.5564000  2
   9911  18034  18030  18046     1  0.0000000  0.4184000  3
   9914  18057  18053  18069     1  180.0000771  5.6484000  1
   9914  18057  18053  18069     1  180.0000771  3.5564000  2
   9914  18057  18053  18069     1  0.0000000  0.4184000  3
   9914  18057  18053  18052     1  180.0000771  0.4184000  2
   9914  18057  18053  18052     1  0.0000000  1.6024720  3
   9918   9919   9931   9943     1  0.0000000  0.6508444  3
   9918   9922   9934   9940     1  0.0000000  0.6508444  3
   9918   9925   9928   9937     1  0.0000000  0.6508444  3
   9919   9918   9922   9934     1  180.0000771  2.0083200  2
   9919   9918   9922   9934     1  0.0000000  1.2552000  3
   9919   9918   9925   9928     1  180.0000771  2.0083200  2
   9919   9918   9925   9928     1  0.0000000  1.2552000  3
   9919   9931   9943  18103     1  0.0000000  0.6508444  3
   9922   9918   9919   9931     1  180.0000771  2.0083200  2
   9922   9918   9919   9931     1  0.0000000  1.2552000  3
   9922   9918   9925   9928     1  180.0000771  2.0083200  2
   9922   9918   9925   9928     1  0.0000000  1.2552000  3
   9922   9934   9940  18080     1  0.0000000  0.6508444  3
   9925   9918   9919   9931     1  180.0000771  2.0083200  2
   9925   9918   9919   9931     1  0.0000000  1.2552000  3
   9925   9918   9922   9934     1  180.0000771  2.0083200  2
   9925   9918   9922   9934     1  0.0000000  1.2552000  3
   9925   9928   9937   9946     1  0.0000000  0.6508444  3
   9931   9943  18103  18099     1  180.0000771  0.4184000  2
   9931   9943  18103  18099     1  0.0000000  1.6024720  3
   9934   9940  18080  18076     1  180.0000771  0.4184000  2
   9934   9940  18080  18076     1  0.0000000  1.6024720  3
   9940  18080  18076  18075     1  180.0000771  0.4184000  2
   9940  18080  18076  18075     1  0.0000000  1.6024720  3
   9940  18080  18076  18092     1  180.0000771  5.6484000  1
   9940  18080  18076  18092     1  180.0000771  3.5564000  2
   9940  18080  18076  18092     1  0.0000000  0.4184000  3
   9943  18103  18099  18115     1  180.0000771  5.6484000  1
   9943  18103  18099  18115     1  180.0000771  3.5564000  2
   9943  18103  18099  18115     1  0.0000000  0.4184000  3
   9943  18103  18099  18098     1  180.0000771  0.4184000  2
   9943  18103  18099  18098     1  0.0000000  1.6024720  3
   9947   9948   9960   9972     1  0.0000000  0.6508444  3
   9947   9951   9963   9969     1  0.0000000  0.6508444  3
   9947   9954   9957   9966     1  0.0000000  0.6508444  3
   9948   9947   9951   9963     1  180.0000771  2.0083200  2
   9948   9947   9951   9963     1  0.0000000  1.2552000  3
   9948   9947   9954   9957     1  180.0000771  2.0083200  2
   9948   9947   9954   9957     1  0.0000000  1.2552000  3
   9948   9960   9972  18149     1  0.0000000  0.6508444  3
   9951   9947   9948   9960     1  180.0000771  2.0083200  2
   9951   9947   9948   9960     1  0.0000000  1.2552000  3
   9951   9947   9954   9957     1  180.0000771  2.0083200  2
   9951   9947   9954   9957     1  0.0000000  1.2552000  3
   9951   9963   9969  18126     1  0.0000000  0.6508444  3
   9954   9947   9948   9960     1  180.0000771  2.0083200  2
   9954   9947   9948   9960     1  0.0000000  1.2552000  3
   9954   9947   9951   9963     1  180.0000771  2.0083200  2
   9954   9947   9951   9963     1  0.0000000  1.2552000  3
   9954   9957   9966   9975     1  0.0000000  0.6508444  3
   9960   9972  18149  18145     1  180.0000771  0.4184000  2
   9960   9972  18149  18145     1  0.0000000  1.6024720  3
   9963   9969  18126  18122     1  180.0000771  0.4184000  2
   9963   9969  18126  18122     1  0.0000000  1.6024720  3
   9969  18126  18122  18121     1  180.0000771  0.4184000  2
   9969  18126  18122  18121     1  0.0000000  1.6024720  3
   9969  18126  18122  18138     1  180.0000771  5.6484000  1
   9969  18126  18122  18138     1  180.0000771  3.5564000  2
   9969  18126  18122  18138     1  0.0000000  0.4184000  3
   9972  18149  18145  18161     1  180.0000771  5.6484000  1
   9972  18149  18145  18161     1  180.0000771  3.5564000  2
   9972  18149  18145  18161     1  0.0000000  0.4184000  3
   9972  18149  18145  18144     1  180.0000771  0.4184000  2
   9972  18149  18145  18144     1  0.0000000  1.6024720  3
   9976   9977   9989  10001     1  0.0000000  0.6508444  3
   9976   9980   9992   9998     1  0.0000000  0.6508444  3
   9976   9983   9986   9995     1  0.0000000  0.6508444  3
   9977   9976   9980   9992     1  180.0000771  2.0083200  2
   9977   9976   9980   9992     1  0.0000000  1.2552000  3
   9977   9976   9983   9986     1  180.0000771  2.0083200  2
   9977   9976   9983   9986     1  0.0000000  1.2552000  3
   9977   9989  10001  18195     1  0.0000000  0.6508444  3
   9980   9976   9977   9989     1  180.0000771  2.0083200  2
   9980   9976   9977   9989     1  0.0000000  1.2552000  3
   9980   9976   9983   9986     1  180.0000771  2.0083200  2
   9980   9976   9983   9986     1  0.0000000  1.2552000  3
   9980   9992   9998  18172     1  0.0000000  0.6508444  3
   9983   9976   9977   9989     1  180.0000771  2.0083200  2
   9983   9976   9977   9989     1  0.0000000  1.2552000  3
   9983   9976   9980   9992     1  180.0000771  2.0083200  2
   9983   9976   9980   9992     1  0.0000000  1.2552000  3
   9983   9986   9995  10004     1  0.0000000  0.6508444  3
   9989  10001  18195  18191     1  180.0000771  0.4184000  2
   9989  10001  18195  18191     1  0.0000000  1.6024720  3
   9992   9998  18172  18168     1  180.0000771  0.4184000  2
   9992   9998  18172  18168     1  0.0000000  1.6024720  3
   9998  18172  18168  18167     1  180.0000771  0.4184000  2
   9998  18172  18168  18167     1  0.0000000  1.6024720  3
   9998  18172  18168  18184     1  180.0000771  5.6484000  1
   9998  18172  18168  18184     1  180.0000771  3.5564000  2
   9998  18172  18168  18184     1  0.0000000  0.4184000  3
  10001  18195  18191  18207     1  180.0000771  5.6484000  1
  10001  18195  18191  18207     1  180.0000771  3.5564000  2
  10001  18195  18191  18207     1  0.0000000  0.4184000  3
  10001  18195  18191  18190     1  180.0000771  0.4184000  2
  10001  18195  18191  18190     1  0.0000000  1.6024720  3
  10005  10006  10018  10030     1  0.0000000  0.6508444  3
  10005  10009  10021  10027     1  0.0000000  0.6508444  3
  10005  10012  10015  10024     1  0.0000000  0.6508444  3
  10006  10005  10009  10021     1  180.0000771  2.0083200  2
  10006  10005  10009  10021     1  0.0000000  1.2552000  3
  10006  10005  10012  10015     1  180.0000771  2.0083200  2
  10006  10005  10012  10015     1  0.0000000  1.2552000  3
  10006  10018  10030  18241     1  0.0000000  0.6508444  3
  10009  10005  10006  10018     1  180.0000771  2.0083200  2
  10009  10005  10006  10018     1  0.0000000  1.2552000  3
  10009  10005  10012  10015     1  180.0000771  2.0083200  2
  10009  10005  10012  10015     1  0.0000000  1.2552000  3
  10009  10021  10027  18218     1  0.0000000  0.6508444  3
  10012  10005  10006  10018     1  180.0000771  2.0083200  2
  10012  10005  10006  10018     1  0.0000000  1.2552000  3
  10012  10005  10009  10021     1  180.0000771  2.0083200  2
  10012  10005  10009  10021     1  0.0000000  1.2552000  3
  10012  10015  10024  10033     1  0.0000000  0.6508444  3
  10018  10030  18241  18237     1  180.0000771  0.4184000  2
  10018  10030  18241  18237     1  0.0000000  1.6024720  3
  10021  10027  18218  18214     1  180.0000771  0.4184000  2
  10021  10027  18218  18214     1  0.0000000  1.6024720  3
  10027  18218  18214  18213     1  180.0000771  0.4184000  2
  10027  18218  18214  18213     1  0.0000000  1.6024720  3
  10027  18218  18214  18230     1  180.0000771  5.6484000  1
  10027  18218  18214  18230     1  180.0000771  3.5564000  2
  10027  18218  18214  18230     1  0.0000000  0.4184000  3
  10030  18241  18237  18253     1  180.0000771  5.6484000  1
  10030  18241  18237  18253     1  180.0000771  3.5564000  2
  10030  18241  18237  18253     1  0.0000000  0.4184000  3
  10030  18241  18237  18236     1  180.0000771  0.4184000  2
  10030  18241  18237  18236     1  0.0000000  1.6024720  3
  10034  10035  10047  10059     1  0.0000000  0.6508444  3
  10034  10038  10050  10056     1  0.0000000  0.6508444  3
  10034  10041  10044  10053     1  0.0000000  0.6508444  3
  10035  10034  10038  10050     1  180.0000771  2.0083200  2
  10035  10034  10038  10050     1  0.0000000  1.2552000  3
  10035  10034  10041  10044     1  180.0000771  2.0083200  2
  10035  10034  10041  10044     1  0.0000000  1.2552000  3
  10035  10047  10059  18287     1  0.0000000  0.6508444  3
  10038  10034  10035  10047     1  180.0000771  2.0083200  2
  10038  10034  10035  10047     1  0.0000000  1.2552000  3
  10038  10034  10041  10044     1  180.0000771  2.0083200  2
  10038  10034  10041  10044     1  0.0000000  1.2552000  3
  10038  10050  10056  18264     1  0.0000000  0.6508444  3
  10041  10034  10035  10047     1  180.0000771  2.0083200  2
  10041  10034  10035  10047     1  0.0000000  1.2552000  3
  10041  10034  10038  10050     1  180.0000771  2.0083200  2
  10041  10034  10038  10050     1  0.0000000  1.2552000  3
  10041  10044  10053  10062     1  0.0000000  0.6508444  3
  10047  10059  18287  18283     1  180.0000771  0.4184000  2
  10047  10059  18287  18283     1  0.0000000  1.6024720  3
  10050  10056  18264  18260     1  180.0000771  0.4184000  2
  10050  10056  18264  18260     1  0.0000000  1.6024720  3
  10056  18264  18260  18259     1  180.0000771  0.4184000  2
  10056  18264  18260  18259     1  0.0000000  1.6024720  3
  10056  18264  18260  18276     1  180.0000771  5.6484000  1
  10056  18264  18260  18276     1  180.0000771  3.5564000  2
  10056  18264  18260  18276     1  0.0000000  0.4184000  3
  10059  18287  18283  18299     1  180.0000771  5.6484000  1
  10059  18287  18283  18299     1  180.0000771  3.5564000  2
  10059  18287  18283  18299     1  0.0000000  0.4184000  3
  10059  18287  18283  18282     1  180.0000771  0.4184000  2
  10059  18287  18283  18282     1  0.0000000  1.6024720  3
  10063  10064  10076  10088     1  0.0000000  0.6508444  3
  10063  10067  10079  10085     1  0.0000000  0.6508444  3
  10063  10070  10073  10082     1  0.0000000  0.6508444  3
  10064  10063  10067  10079     1  180.0000771  2.0083200  2
  10064  10063  10067  10079     1  0.0000000  1.2552000  3
  10064  10063  10070  10073     1  180.0000771  2.0083200  2
  10064  10063  10070  10073     1  0.0000000  1.2552000  3
  10064  10076  10088  18333     1  0.0000000  0.6508444  3
  10067  10063  10064  10076     1  180.0000771  2.0083200  2
  10067  10063  10064  10076     1  0.0000000  1.2552000  3
  10067  10063  10070  10073     1  180.0000771  2.0083200  2
  10067  10063  10070  10073     1  0.0000000  1.2552000  3
  10067  10079  10085  18310     1  0.0000000  0.6508444  3
  10070  10063  10064  10076     1  180.0000771  2.0083200  2
  10070  10063  10064  10076     1  0.0000000  1.2552000  3
  10070  10063  10067  10079     1  180.0000771  2.0083200  2
  10070  10063  10067  10079     1  0.0000000  1.2552000  3
  10070  10073  10082  10091     1  0.0000000  0.6508444  3
  10076  10088  18333  18329     1  180.0000771  0.4184000  2
  10076  10088  18333  18329     1  0.0000000  1.6024720  3
  10079  10085  18310  18306     1  180.0000771  0.4184000  2
  10079  10085  18310  18306     1  0.0000000  1.6024720  3
  10085  18310  18306  18305     1  180.0000771  0.4184000  2
  10085  18310  18306  18305     1  0.0000000  1.6024720  3
  10085  18310  18306  18322     1  180.0000771  5.6484000  1
  10085  18310  18306  18322     1  180.0000771  3.5564000  2
  10085  18310  18306  18322     1  0.0000000  0.4184000  3
  10088  18333  18329  18345     1  180.0000771  5.6484000  1
  10088  18333  18329  18345     1  180.0000771  3.5564000  2
  10088  18333  18329  18345     1  0.0000000  0.4184000  3
  10088  18333  18329  18328     1  180.0000771  0.4184000  2
  10088  18333  18329  18328     1  0.0000000  1.6024720  3
  10092  10093  10105  10117     1  0.0000000  0.6508444  3
  10092  10096  10108  10114     1  0.0000000  0.6508444  3
  10092  10099  10102  10111     1  0.0000000  0.6508444  3
  10093  10092  10096  10108     1  180.0000771  2.0083200  2
  10093  10092  10096  10108     1  0.0000000  1.2552000  3
  10093  10092  10099  10102     1  180.0000771  2.0083200  2
  10093  10092  10099  10102     1  0.0000000  1.2552000  3
  10093  10105  10117  18379     1  0.0000000  0.6508444  3
  10096  10092  10093  10105     1  180.0000771  2.0083200  2
  10096  10092  10093  10105     1  0.0000000  1.2552000  3
  10096  10092  10099  10102     1  180.0000771  2.0083200  2
  10096  10092  10099  10102     1  0.0000000  1.2552000  3
  10096  10108  10114  18356     1  0.0000000  0.6508444  3
  10099  10092  10093  10105     1  180.0000771  2.0083200  2
  10099  10092  10093  10105     1  0.0000000  1.2552000  3
  10099  10092  10096  10108     1  180.0000771  2.0083200  2
  10099  10092  10096  10108     1  0.0000000  1.2552000  3
  10099  10102  10111  10120     1  0.0000000  0.6508444  3
  10105  10117  18379  18375     1  180.0000771  0.4184000  2
  10105  10117  18379  18375     1  0.0000000  1.6024720  3
  10108  10114  18356  18352     1  180.0000771  0.4184000  2
  10108  10114  18356  18352     1  0.0000000  1.6024720  3
  10114  18356  18352  18351     1  180.0000771  0.4184000  2
  10114  18356  18352  18351     1  0.0000000  1.6024720  3
  10114  18356  18352  18368     1  180.0000771  5.6484000  1
  10114  18356  18352  18368     1  180.0000771  3.5564000  2
  10114  18356  18352  18368     1  0.0000000  0.4184000  3
  10117  18379  18375  18391     1  180.0000771  5.6484000  1
  10117  18379  18375  18391     1  180.0000771  3.5564000  2
  10117  18379  18375  18391     1  0.0000000  0.4184000  3
  10117  18379  18375  18374     1  180.0000771  0.4184000  2
  10117  18379  18375  18374     1  0.0000000  1.6024720  3
  10121  10122  10134  10146     1  0.0000000  0.6508444  3
  10121  10125  10137  10143     1  0.0000000  0.6508444  3
  10121  10128  10131  10140     1  0.0000000  0.6508444  3
  10122  10121  10125  10137     1  180.0000771  2.0083200  2
  10122  10121  10125  10137     1  0.0000000  1.2552000  3
  10122  10121  10128  10131     1  180.0000771  2.0083200  2
  10122  10121  10128  10131     1  0.0000000  1.2552000  3
  10122  10134  10146  18425     1  0.0000000  0.6508444  3
  10125  10121  10122  10134     1  180.0000771  2.0083200  2
  10125  10121  10122  10134     1  0.0000000  1.2552000  3
  10125  10121  10128  10131     1  180.0000771  2.0083200  2
  10125  10121  10128  10131     1  0.0000000  1.2552000  3
  10125  10137  10143  18402     1  0.0000000  0.6508444  3
  10128  10121  10122  10134     1  180.0000771  2.0083200  2
  10128  10121  10122  10134     1  0.0000000  1.2552000  3
  10128  10121  10125  10137     1  180.0000771  2.0083200  2
  10128  10121  10125  10137     1  0.0000000  1.2552000  3
  10128  10131  10140  10149     1  0.0000000  0.6508444  3
  10134  10146  18425  18421     1  180.0000771  0.4184000  2
  10134  10146  18425  18421     1  0.0000000  1.6024720  3
  10137  10143  18402  18398     1  180.0000771  0.4184000  2
  10137  10143  18402  18398     1  0.0000000  1.6024720  3
  10143  18402  18398  18397     1  180.0000771  0.4184000  2
  10143  18402  18398  18397     1  0.0000000  1.6024720  3
  10143  18402  18398  18414     1  180.0000771  5.6484000  1
  10143  18402  18398  18414     1  180.0000771  3.5564000  2
  10143  18402  18398  18414     1  0.0000000  0.4184000  3
  10146  18425  18421  18437     1  180.0000771  5.6484000  1
  10146  18425  18421  18437     1  180.0000771  3.5564000  2
  10146  18425  18421  18437     1  0.0000000  0.4184000  3
  10146  18425  18421  18420     1  180.0000771  0.4184000  2
  10146  18425  18421  18420     1  0.0000000  1.6024720  3
  10150  10151  10163  10175     1  0.0000000  0.6508444  3
  10150  10154  10166  10172     1  0.0000000  0.6508444  3
  10150  10157  10160  10169     1  0.0000000  0.6508444  3
  10151  10150  10154  10166     1  180.0000771  2.0083200  2
  10151  10150  10154  10166     1  0.0000000  1.2552000  3
  10151  10150  10157  10160     1  180.0000771  2.0083200  2
  10151  10150  10157  10160     1  0.0000000  1.2552000  3
  10151  10163  10175  18471     1  0.0000000  0.6508444  3
  10154  10150  10151  10163     1  180.0000771  2.0083200  2
  10154  10150  10151  10163     1  0.0000000  1.2552000  3
  10154  10150  10157  10160     1  180.0000771  2.0083200  2
  10154  10150  10157  10160     1  0.0000000  1.2552000  3
  10154  10166  10172  18448     1  0.0000000  0.6508444  3
  10157  10150  10151  10163     1  180.0000771  2.0083200  2
  10157  10150  10151  10163     1  0.0000000  1.2552000  3
  10157  10150  10154  10166     1  180.0000771  2.0083200  2
  10157  10150  10154  10166     1  0.0000000  1.2552000  3
  10157  10160  10169  10178     1  0.0000000  0.6508444  3
  10163  10175  18471  18467     1  180.0000771  0.4184000  2
  10163  10175  18471  18467     1  0.0000000  1.6024720  3
  10166  10172  18448  18444     1  180.0000771  0.4184000  2
  10166  10172  18448  18444     1  0.0000000  1.6024720  3
  10172  18448  18444  18443     1  180.0000771  0.4184000  2
  10172  18448  18444  18443     1  0.0000000  1.6024720  3
  10172  18448  18444  18460     1  180.0000771  5.6484000  1
  10172  18448  18444  18460     1  180.0000771  3.5564000  2
  10172  18448  18444  18460     1  0.0000000  0.4184000  3
  10175  18471  18467  18483     1  180.0000771  5.6484000  1
  10175  18471  18467  18483     1  180.0000771  3.5564000  2
  10175  18471  18467  18483     1  0.0000000  0.4184000  3
  10175  18471  18467  18466     1  180.0000771  0.4184000  2
  10175  18471  18467  18466     1  0.0000000  1.6024720  3
  10179  10180  10192  10204     1  0.0000000  0.6508444  3
  10179  10183  10195  10201     1  0.0000000  0.6508444  3
  10179  10186  10189  10198     1  0.0000000  0.6508444  3
  10180  10179  10183  10195     1  180.0000771  2.0083200  2
  10180  10179  10183  10195     1  0.0000000  1.2552000  3
  10180  10179  10186  10189     1  180.0000771  2.0083200  2
  10180  10179  10186  10189     1  0.0000000  1.2552000  3
  10180  10192  10204  18517     1  0.0000000  0.6508444  3
  10183  10179  10180  10192     1  180.0000771  2.0083200  2
  10183  10179  10180  10192     1  0.0000000  1.2552000  3
  10183  10179  10186  10189     1  180.0000771  2.0083200  2
  10183  10179  10186  10189     1  0.0000000  1.2552000  3
  10183  10195  10201  18494     1  0.0000000  0.6508444  3
  10186  10179  10180  10192     1  180.0000771  2.0083200  2
  10186  10179  10180  10192     1  0.0000000  1.2552000  3
  10186  10179  10183  10195     1  180.0000771  2.0083200  2
  10186  10179  10183  10195     1  0.0000000  1.2552000  3
  10186  10189  10198  10207     1  0.0000000  0.6508444  3
  10192  10204  18517  18513     1  180.0000771  0.4184000  2
  10192  10204  18517  18513     1  0.0000000  1.6024720  3
  10195  10201  18494  18490     1  180.0000771  0.4184000  2
  10195  10201  18494  18490     1  0.0000000  1.6024720  3
  10201  18494  18490  18489     1  180.0000771  0.4184000  2
  10201  18494  18490  18489     1  0.0000000  1.6024720  3
  10201  18494  18490  18506     1  180.0000771  5.6484000  1
  10201  18494  18490  18506     1  180.0000771  3.5564000  2
  10201  18494  18490  18506     1  0.0000000  0.4184000  3
  10204  18517  18513  18529     1  180.0000771  5.6484000  1
  10204  18517  18513  18529     1  180.0000771  3.5564000  2
  10204  18517  18513  18529     1  0.0000000  0.4184000  3
  10204  18517  18513  18512     1  180.0000771  0.4184000  2
  10204  18517  18513  18512     1  0.0000000  1.6024720  3
  10208  10209  10221  10233     1  0.0000000  0.6508444  3
  10208  10212  10224  10230     1  0.0000000  0.6508444  3
  10208  10215  10218  10227     1  0.0000000  0.6508444  3
  10209  10208  10212  10224     1  180.0000771  2.0083200  2
  10209  10208  10212  10224     1  0.0000000  1.2552000  3
  10209  10208  10215  10218     1  180.0000771  2.0083200  2
  10209  10208  10215  10218     1  0.0000000  1.2552000  3
  10209  10221  10233  18563     1  0.0000000  0.6508444  3
  10212  10208  10209  10221     1  180.0000771  2.0083200  2
  10212  10208  10209  10221     1  0.0000000  1.2552000  3
  10212  10208  10215  10218     1  180.0000771  2.0083200  2
  10212  10208  10215  10218     1  0.0000000  1.2552000  3
  10212  10224  10230  18540     1  0.0000000  0.6508444  3
  10215  10208  10209  10221     1  180.0000771  2.0083200  2
  10215  10208  10209  10221     1  0.0000000  1.2552000  3
  10215  10208  10212  10224     1  180.0000771  2.0083200  2
  10215  10208  10212  10224     1  0.0000000  1.2552000  3
  10215  10218  10227  10236     1  0.0000000  0.6508444  3
  10221  10233  18563  18559     1  180.0000771  0.4184000  2
  10221  10233  18563  18559     1  0.0000000  1.6024720  3
  10224  10230  18540  18536     1  180.0000771  0.4184000  2
  10224  10230  18540  18536     1  0.0000000  1.6024720  3
  10230  18540  18536  18535     1  180.0000771  0.4184000  2
  10230  18540  18536  18535     1  0.0000000  1.6024720  3
  10230  18540  18536  18552     1  180.0000771  5.6484000  1
  10230  18540  18536  18552     1  180.0000771  3.5564000  2
  10230  18540  18536  18552     1  0.0000000  0.4184000  3
  10233  18563  18559  18575     1  180.0000771  5.6484000  1
  10233  18563  18559  18575     1  180.0000771  3.5564000  2
  10233  18563  18559  18575     1  0.0000000  0.4184000  3
  10233  18563  18559  18558     1  180.0000771  0.4184000  2
  10233  18563  18559  18558     1  0.0000000  1.6024720  3
  10237  10238  10250  10262     1  0.0000000  0.6508444  3
  10237  10241  10253  10259     1  0.0000000  0.6508444  3
  10237  10244  10247  10256     1  0.0000000  0.6508444  3
  10238  10237  10241  10253     1  180.0000771  2.0083200  2
  10238  10237  10241  10253     1  0.0000000  1.2552000  3
  10238  10237  10244  10247     1  180.0000771  2.0083200  2
  10238  10237  10244  10247     1  0.0000000  1.2552000  3
  10238  10250  10262  18609     1  0.0000000  0.6508444  3
  10241  10237  10238  10250     1  180.0000771  2.0083200  2
  10241  10237  10238  10250     1  0.0000000  1.2552000  3
  10241  10237  10244  10247     1  180.0000771  2.0083200  2
  10241  10237  10244  10247     1  0.0000000  1.2552000  3
  10241  10253  10259  18586     1  0.0000000  0.6508444  3
  10244  10237  10238  10250     1  180.0000771  2.0083200  2
  10244  10237  10238  10250     1  0.0000000  1.2552000  3
  10244  10237  10241  10253     1  180.0000771  2.0083200  2
  10244  10237  10241  10253     1  0.0000000  1.2552000  3
  10244  10247  10256  10265     1  0.0000000  0.6508444  3
  10250  10262  18609  18605     1  180.0000771  0.4184000  2
  10250  10262  18609  18605     1  0.0000000  1.6024720  3
  10253  10259  18586  18582     1  180.0000771  0.4184000  2
  10253  10259  18586  18582     1  0.0000000  1.6024720  3
  10259  18586  18582  18581     1  180.0000771  0.4184000  2
  10259  18586  18582  18581     1  0.0000000  1.6024720  3
  10259  18586  18582  18598     1  180.0000771  5.6484000  1
  10259  18586  18582  18598     1  180.0000771  3.5564000  2
  10259  18586  18582  18598     1  0.0000000  0.4184000  3
  10262  18609  18605  18621     1  180.0000771  5.6484000  1
  10262  18609  18605  18621     1  180.0000771  3.5564000  2
  10262  18609  18605  18621     1  0.0000000  0.4184000  3
  10262  18609  18605  18604     1  180.0000771  0.4184000  2
  10262  18609  18605  18604     1  0.0000000  1.6024720  3
  10266  10267  10279  10291     1  0.0000000  0.6508444  3
  10266  10270  10282  10288     1  0.0000000  0.6508444  3
  10266  10273  10276  10285     1  0.0000000  0.6508444  3
  10267  10266  10270  10282     1  180.0000771  2.0083200  2
  10267  10266  10270  10282     1  0.0000000  1.2552000  3
  10267  10266  10273  10276     1  180.0000771  2.0083200  2
  10267  10266  10273  10276     1  0.0000000  1.2552000  3
  10267  10279  10291  18655     1  0.0000000  0.6508444  3
  10270  10266  10267  10279     1  180.0000771  2.0083200  2
  10270  10266  10267  10279     1  0.0000000  1.2552000  3
  10270  10266  10273  10276     1  180.0000771  2.0083200  2
  10270  10266  10273  10276     1  0.0000000  1.2552000  3
  10270  10282  10288  18632     1  0.0000000  0.6508444  3
  10273  10266  10267  10279     1  180.0000771  2.0083200  2
  10273  10266  10267  10279     1  0.0000000  1.2552000  3
  10273  10266  10270  10282     1  180.0000771  2.0083200  2
  10273  10266  10270  10282     1  0.0000000  1.2552000  3
  10273  10276  10285  10294     1  0.0000000  0.6508444  3
  10279  10291  18655  18651     1  180.0000771  0.4184000  2
  10279  10291  18655  18651     1  0.0000000  1.6024720  3
  10282  10288  18632  18628     1  180.0000771  0.4184000  2
  10282  10288  18632  18628     1  0.0000000  1.6024720  3
  10288  18632  18628  18627     1  180.0000771  0.4184000  2
  10288  18632  18628  18627     1  0.0000000  1.6024720  3
  10288  18632  18628  18644     1  180.0000771  5.6484000  1
  10288  18632  18628  18644     1  180.0000771  3.5564000  2
  10288  18632  18628  18644     1  0.0000000  0.4184000  3
  10291  18655  18651  18667     1  180.0000771  5.6484000  1
  10291  18655  18651  18667     1  180.0000771  3.5564000  2
  10291  18655  18651  18667     1  0.0000000  0.4184000  3
  10291  18655  18651  18650     1  180.0000771  0.4184000  2
  10291  18655  18651  18650     1  0.0000000  1.6024720  3
  10295  10296  10308  10320     1  0.0000000  0.6508444  3
  10295  10299  10311  10317     1  0.0000000  0.6508444  3
  10295  10302  10305  10314     1  0.0000000  0.6508444  3
  10296  10295  10299  10311     1  180.0000771  2.0083200  2
  10296  10295  10299  10311     1  0.0000000  1.2552000  3
  10296  10295  10302  10305     1  180.0000771  2.0083200  2
  10296  10295  10302  10305     1  0.0000000  1.2552000  3
  10296  10308  10320  18701     1  0.0000000  0.6508444  3
  10299  10295  10296  10308     1  180.0000771  2.0083200  2
  10299  10295  10296  10308     1  0.0000000  1.2552000  3
  10299  10295  10302  10305     1  180.0000771  2.0083200  2
  10299  10295  10302  10305     1  0.0000000  1.2552000  3
  10299  10311  10317  18678     1  0.0000000  0.6508444  3
  10302  10295  10296  10308     1  180.0000771  2.0083200  2
  10302  10295  10296  10308     1  0.0000000  1.2552000  3
  10302  10295  10299  10311     1  180.0000771  2.0083200  2
  10302  10295  10299  10311     1  0.0000000  1.2552000  3
  10302  10305  10314  10323     1  0.0000000  0.6508444  3
  10308  10320  18701  18697     1  180.0000771  0.4184000  2
  10308  10320  18701  18697     1  0.0000000  1.6024720  3
  10311  10317  18678  18674     1  180.0000771  0.4184000  2
  10311  10317  18678  18674     1  0.0000000  1.6024720  3
  10317  18678  18674  18673     1  180.0000771  0.4184000  2
  10317  18678  18674  18673     1  0.0000000  1.6024720  3
  10317  18678  18674  18690     1  180.0000771  5.6484000  1
  10317  18678  18674  18690     1  180.0000771  3.5564000  2
  10317  18678  18674  18690     1  0.0000000  0.4184000  3
  10320  18701  18697  18713     1  180.0000771  5.6484000  1
  10320  18701  18697  18713     1  180.0000771  3.5564000  2
  10320  18701  18697  18713     1  0.0000000  0.4184000  3
  10320  18701  18697  18696     1  180.0000771  0.4184000  2
  10320  18701  18697  18696     1  0.0000000  1.6024720  3
  10324  10325  10337  10349     1  0.0000000  0.6508444  3
  10324  10328  10340  10346     1  0.0000000  0.6508444  3
  10324  10331  10334  10343     1  0.0000000  0.6508444  3
  10325  10324  10328  10340     1  180.0000771  2.0083200  2
  10325  10324  10328  10340     1  0.0000000  1.2552000  3
  10325  10324  10331  10334     1  180.0000771  2.0083200  2
  10325  10324  10331  10334     1  0.0000000  1.2552000  3
  10325  10337  10349  18747     1  0.0000000  0.6508444  3
  10328  10324  10325  10337     1  180.0000771  2.0083200  2
  10328  10324  10325  10337     1  0.0000000  1.2552000  3
  10328  10324  10331  10334     1  180.0000771  2.0083200  2
  10328  10324  10331  10334     1  0.0000000  1.2552000  3
  10328  10340  10346  18724     1  0.0000000  0.6508444  3
  10331  10324  10325  10337     1  180.0000771  2.0083200  2
  10331  10324  10325  10337     1  0.0000000  1.2552000  3
  10331  10324  10328  10340     1  180.0000771  2.0083200  2
  10331  10324  10328  10340     1  0.0000000  1.2552000  3
  10331  10334  10343  10352     1  0.0000000  0.6508444  3
  10337  10349  18747  18743     1  180.0000771  0.4184000  2
  10337  10349  18747  18743     1  0.0000000  1.6024720  3
  10340  10346  18724  18720     1  180.0000771  0.4184000  2
  10340  10346  18724  18720     1  0.0000000  1.6024720  3
  10346  18724  18720  18719     1  180.0000771  0.4184000  2
  10346  18724  18720  18719     1  0.0000000  1.6024720  3
  10346  18724  18720  18736     1  180.0000771  5.6484000  1
  10346  18724  18720  18736     1  180.0000771  3.5564000  2
  10346  18724  18720  18736     1  0.0000000  0.4184000  3
  10349  18747  18743  18759     1  180.0000771  5.6484000  1
  10349  18747  18743  18759     1  180.0000771  3.5564000  2
  10349  18747  18743  18759     1  0.0000000  0.4184000  3
  10349  18747  18743  18742     1  180.0000771  0.4184000  2
  10349  18747  18743  18742     1  0.0000000  1.6024720  3
  10353  10354  10366  10378     1  0.0000000  0.6508444  3
  10353  10357  10369  10375     1  0.0000000  0.6508444  3
  10353  10360  10363  10372     1  0.0000000  0.6508444  3
  10354  10353  10357  10369     1  180.0000771  2.0083200  2
  10354  10353  10357  10369     1  0.0000000  1.2552000  3
  10354  10353  10360  10363     1  180.0000771  2.0083200  2
  10354  10353  10360  10363     1  0.0000000  1.2552000  3
  10354  10366  10378  18793     1  0.0000000  0.6508444  3
  10357  10353  10354  10366     1  180.0000771  2.0083200  2
  10357  10353  10354  10366     1  0.0000000  1.2552000  3
  10357  10353  10360  10363     1  180.0000771  2.0083200  2
  10357  10353  10360  10363     1  0.0000000  1.2552000  3
  10357  10369  10375  18770     1  0.0000000  0.6508444  3
  10360  10353  10354  10366     1  180.0000771  2.0083200  2
  10360  10353  10354  10366     1  0.0000000  1.2552000  3
  10360  10353  10357  10369     1  180.0000771  2.0083200  2
  10360  10353  10357  10369     1  0.0000000  1.2552000  3
  10360  10363  10372  10381     1  0.0000000  0.6508444  3
  10366  10378  18793  18789     1  180.0000771  0.4184000  2
  10366  10378  18793  18789     1  0.0000000  1.6024720  3
  10369  10375  18770  18766     1  180.0000771  0.4184000  2
  10369  10375  18770  18766     1  0.0000000  1.6024720  3
  10375  18770  18766  18765     1  180.0000771  0.4184000  2
  10375  18770  18766  18765     1  0.0000000  1.6024720  3
  10375  18770  18766  18782     1  180.0000771  5.6484000  1
  10375  18770  18766  18782     1  180.0000771  3.5564000  2
  10375  18770  18766  18782     1  0.0000000  0.4184000  3
  10378  18793  18789  18805     1  180.0000771  5.6484000  1
  10378  18793  18789  18805     1  180.0000771  3.5564000  2
  10378  18793  18789  18805     1  0.0000000  0.4184000  3
  10378  18793  18789  18788     1  180.0000771  0.4184000  2
  10378  18793  18789  18788     1  0.0000000  1.6024720  3
  10382  10383  10395  10407     1  0.0000000  0.6508444  3
  10382  10386  10398  10404     1  0.0000000  0.6508444  3
  10382  10389  10392  10401     1  0.0000000  0.6508444  3
  10383  10382  10386  10398     1  180.0000771  2.0083200  2
  10383  10382  10386  10398     1  0.0000000  1.2552000  3
  10383  10382  10389  10392     1  180.0000771  2.0083200  2
  10383  10382  10389  10392     1  0.0000000  1.2552000  3
  10383  10395  10407  18839     1  0.0000000  0.6508444  3
  10386  10382  10383  10395     1  180.0000771  2.0083200  2
  10386  10382  10383  10395     1  0.0000000  1.2552000  3
  10386  10382  10389  10392     1  180.0000771  2.0083200  2
  10386  10382  10389  10392     1  0.0000000  1.2552000  3
  10386  10398  10404  18816     1  0.0000000  0.6508444  3
  10389  10382  10383  10395     1  180.0000771  2.0083200  2
  10389  10382  10383  10395     1  0.0000000  1.2552000  3
  10389  10382  10386  10398     1  180.0000771  2.0083200  2
  10389  10382  10386  10398     1  0.0000000  1.2552000  3
  10389  10392  10401  10410     1  0.0000000  0.6508444  3
  10395  10407  18839  18835     1  180.0000771  0.4184000  2
  10395  10407  18839  18835     1  0.0000000  1.6024720  3
  10398  10404  18816  18812     1  180.0000771  0.4184000  2
  10398  10404  18816  18812     1  0.0000000  1.6024720  3
  10404  18816  18812  18811     1  180.0000771  0.4184000  2
  10404  18816  18812  18811     1  0.0000000  1.6024720  3
  10404  18816  18812  18828     1  180.0000771  5.6484000  1
  10404  18816  18812  18828     1  180.0000771  3.5564000  2
  10404  18816  18812  18828     1  0.0000000  0.4184000  3
  10407  18839  18835  18851     1  180.0000771  5.6484000  1
  10407  18839  18835  18851     1  180.0000771  3.5564000  2
  10407  18839  18835  18851     1  0.0000000  0.4184000  3
  10407  18839  18835  18834     1  180.0000771  0.4184000  2
  10407  18839  18835  18834     1  0.0000000  1.6024720  3
  10411  10412  10424  10436     1  0.0000000  0.6508444  3
  10411  10415  10427  10433     1  0.0000000  0.6508444  3
  10411  10418  10421  10430     1  0.0000000  0.6508444  3
  10412  10411  10415  10427     1  180.0000771  2.0083200  2
  10412  10411  10415  10427     1  0.0000000  1.2552000  3
  10412  10411  10418  10421     1  180.0000771  2.0083200  2
  10412  10411  10418  10421     1  0.0000000  1.2552000  3
  10412  10424  10436  18885     1  0.0000000  0.6508444  3
  10415  10411  10412  10424     1  180.0000771  2.0083200  2
  10415  10411  10412  10424     1  0.0000000  1.2552000  3
  10415  10411  10418  10421     1  180.0000771  2.0083200  2
  10415  10411  10418  10421     1  0.0000000  1.2552000  3
  10415  10427  10433  18862     1  0.0000000  0.6508444  3
  10418  10411  10412  10424     1  180.0000771  2.0083200  2
  10418  10411  10412  10424     1  0.0000000  1.2552000  3
  10418  10411  10415  10427     1  180.0000771  2.0083200  2
  10418  10411  10415  10427     1  0.0000000  1.2552000  3
  10418  10421  10430  10439     1  0.0000000  0.6508444  3
  10424  10436  18885  18881     1  180.0000771  0.4184000  2
  10424  10436  18885  18881     1  0.0000000  1.6024720  3
  10427  10433  18862  18858     1  180.0000771  0.4184000  2
  10427  10433  18862  18858     1  0.0000000  1.6024720  3
  10433  18862  18858  18857     1  180.0000771  0.4184000  2
  10433  18862  18858  18857     1  0.0000000  1.6024720  3
  10433  18862  18858  18874     1  180.0000771  5.6484000  1
  10433  18862  18858  18874     1  180.0000771  3.5564000  2
  10433  18862  18858  18874     1  0.0000000  0.4184000  3
  10436  18885  18881  18897     1  180.0000771  5.6484000  1
  10436  18885  18881  18897     1  180.0000771  3.5564000  2
  10436  18885  18881  18897     1  0.0000000  0.4184000  3
  10436  18885  18881  18880     1  180.0000771  0.4184000  2
  10436  18885  18881  18880     1  0.0000000  1.6024720  3
  10440  10441  10453  10465     1  0.0000000  0.6508444  3
  10440  10444  10456  10462     1  0.0000000  0.6508444  3
  10440  10447  10450  10459     1  0.0000000  0.6508444  3
  10441  10440  10444  10456     1  180.0000771  2.0083200  2
  10441  10440  10444  10456     1  0.0000000  1.2552000  3
  10441  10440  10447  10450     1  180.0000771  2.0083200  2
  10441  10440  10447  10450     1  0.0000000  1.2552000  3
  10441  10453  10465  18931     1  0.0000000  0.6508444  3
  10444  10440  10441  10453     1  180.0000771  2.0083200  2
  10444  10440  10441  10453     1  0.0000000  1.2552000  3
  10444  10440  10447  10450     1  180.0000771  2.0083200  2
  10444  10440  10447  10450     1  0.0000000  1.2552000  3
  10444  10456  10462  18908     1  0.0000000  0.6508444  3
  10447  10440  10441  10453     1  180.0000771  2.0083200  2
  10447  10440  10441  10453     1  0.0000000  1.2552000  3
  10447  10440  10444  10456     1  180.0000771  2.0083200  2
  10447  10440  10444  10456     1  0.0000000  1.2552000  3
  10447  10450  10459  10468     1  0.0000000  0.6508444  3
  10453  10465  18931  18927     1  180.0000771  0.4184000  2
  10453  10465  18931  18927     1  0.0000000  1.6024720  3
  10456  10462  18908  18904     1  180.0000771  0.4184000  2
  10456  10462  18908  18904     1  0.0000000  1.6024720  3
  10462  18908  18904  18903     1  180.0000771  0.4184000  2
  10462  18908  18904  18903     1  0.0000000  1.6024720  3
  10462  18908  18904  18920     1  180.0000771  5.6484000  1
  10462  18908  18904  18920     1  180.0000771  3.5564000  2
  10462  18908  18904  18920     1  0.0000000  0.4184000  3
  10465  18931  18927  18943     1  180.0000771  5.6484000  1
  10465  18931  18927  18943     1  180.0000771  3.5564000  2
  10465  18931  18927  18943     1  0.0000000  0.4184000  3
  10465  18931  18927  18926     1  180.0000771  0.4184000  2
  10465  18931  18927  18926     1  0.0000000  1.6024720  3
  10469  10470  10482  10494     1  0.0000000  0.6508444  3
  10469  10473  10485  10491     1  0.0000000  0.6508444  3
  10469  10476  10479  10488     1  0.0000000  0.6508444  3
  10470  10469  10473  10485     1  180.0000771  2.0083200  2
  10470  10469  10473  10485     1  0.0000000  1.2552000  3
  10470  10469  10476  10479     1  180.0000771  2.0083200  2
  10470  10469  10476  10479     1  0.0000000  1.2552000  3
  10470  10482  10494  18977     1  0.0000000  0.6508444  3
  10473  10469  10470  10482     1  180.0000771  2.0083200  2
  10473  10469  10470  10482     1  0.0000000  1.2552000  3
  10473  10469  10476  10479     1  180.0000771  2.0083200  2
  10473  10469  10476  10479     1  0.0000000  1.2552000  3
  10473  10485  10491  18954     1  0.0000000  0.6508444  3
  10476  10469  10470  10482     1  180.0000771  2.0083200  2
  10476  10469  10470  10482     1  0.0000000  1.2552000  3
  10476  10469  10473  10485     1  180.0000771  2.0083200  2
  10476  10469  10473  10485     1  0.0000000  1.2552000  3
  10476  10479  10488  10497     1  0.0000000  0.6508444  3
  10482  10494  18977  18973     1  180.0000771  0.4184000  2
  10482  10494  18977  18973     1  0.0000000  1.6024720  3
  10485  10491  18954  18950     1  180.0000771  0.4184000  2
  10485  10491  18954  18950     1  0.0000000  1.6024720  3
  10491  18954  18950  18949     1  180.0000771  0.4184000  2
  10491  18954  18950  18949     1  0.0000000  1.6024720  3
  10491  18954  18950  18966     1  180.0000771  5.6484000  1
  10491  18954  18950  18966     1  180.0000771  3.5564000  2
  10491  18954  18950  18966     1  0.0000000  0.4184000  3
  10494  18977  18973  18989     1  180.0000771  5.6484000  1
  10494  18977  18973  18989     1  180.0000771  3.5564000  2
  10494  18977  18973  18989     1  0.0000000  0.4184000  3
  10494  18977  18973  18972     1  180.0000771  0.4184000  2
  10494  18977  18973  18972     1  0.0000000  1.6024720  3
  10498  10499  10511  10523     1  0.0000000  0.6508444  3
  10498  10502  10514  10520     1  0.0000000  0.6508444  3
  10498  10505  10508  10517     1  0.0000000  0.6508444  3
  10499  10498  10502  10514     1  180.0000771  2.0083200  2
  10499  10498  10502  10514     1  0.0000000  1.2552000  3
  10499  10498  10505  10508     1  180.0000771  2.0083200  2
  10499  10498  10505  10508     1  0.0000000  1.2552000  3
  10499  10511  10523  19023     1  0.0000000  0.6508444  3
  10502  10498  10499  10511     1  180.0000771  2.0083200  2
  10502  10498  10499  10511     1  0.0000000  1.2552000  3
  10502  10498  10505  10508     1  180.0000771  2.0083200  2
  10502  10498  10505  10508     1  0.0000000  1.2552000  3
  10502  10514  10520  19000     1  0.0000000  0.6508444  3
  10505  10498  10499  10511     1  180.0000771  2.0083200  2
  10505  10498  10499  10511     1  0.0000000  1.2552000  3
  10505  10498  10502  10514     1  180.0000771  2.0083200  2
  10505  10498  10502  10514     1  0.0000000  1.2552000  3
  10505  10508  10517  10526     1  0.0000000  0.6508444  3
  10511  10523  19023  19019     1  180.0000771  0.4184000  2
  10511  10523  19023  19019     1  0.0000000  1.6024720  3
  10514  10520  19000  18996     1  180.0000771  0.4184000  2
  10514  10520  19000  18996     1  0.0000000  1.6024720  3
  10520  19000  18996  18995     1  180.0000771  0.4184000  2
  10520  19000  18996  18995     1  0.0000000  1.6024720  3
  10520  19000  18996  19012     1  180.0000771  5.6484000  1
  10520  19000  18996  19012     1  180.0000771  3.5564000  2
  10520  19000  18996  19012     1  0.0000000  0.4184000  3
  10523  19023  19019  19035     1  180.0000771  5.6484000  1
  10523  19023  19019  19035     1  180.0000771  3.5564000  2
  10523  19023  19019  19035     1  0.0000000  0.4184000  3
  10523  19023  19019  19018     1  180.0000771  0.4184000  2
  10523  19023  19019  19018     1  0.0000000  1.6024720  3
  10527  10528  10540  10552     1  0.0000000  0.6508444  3
  10527  10531  10543  10549     1  0.0000000  0.6508444  3
  10527  10534  10537  10546     1  0.0000000  0.6508444  3
  10528  10527  10531  10543     1  180.0000771  2.0083200  2
  10528  10527  10531  10543     1  0.0000000  1.2552000  3
  10528  10527  10534  10537     1  180.0000771  2.0083200  2
  10528  10527  10534  10537     1  0.0000000  1.2552000  3
  10528  10540  10552  19069     1  0.0000000  0.6508444  3
  10531  10527  10528  10540     1  180.0000771  2.0083200  2
  10531  10527  10528  10540     1  0.0000000  1.2552000  3
  10531  10527  10534  10537     1  180.0000771  2.0083200  2
  10531  10527  10534  10537     1  0.0000000  1.2552000  3
  10531  10543  10549  19046     1  0.0000000  0.6508444  3
  10534  10527  10528  10540     1  180.0000771  2.0083200  2
  10534  10527  10528  10540     1  0.0000000  1.2552000  3
  10534  10527  10531  10543     1  180.0000771  2.0083200  2
  10534  10527  10531  10543     1  0.0000000  1.2552000  3
  10534  10537  10546  10555     1  0.0000000  0.6508444  3
  10540  10552  19069  19065     1  180.0000771  0.4184000  2
  10540  10552  19069  19065     1  0.0000000  1.6024720  3
  10543  10549  19046  19042     1  180.0000771  0.4184000  2
  10543  10549  19046  19042     1  0.0000000  1.6024720  3
  10549  19046  19042  19041     1  180.0000771  0.4184000  2
  10549  19046  19042  19041     1  0.0000000  1.6024720  3
  10549  19046  19042  19058     1  180.0000771  5.6484000  1
  10549  19046  19042  19058     1  180.0000771  3.5564000  2
  10549  19046  19042  19058     1  0.0000000  0.4184000  3
  10552  19069  19065  19081     1  180.0000771  5.6484000  1
  10552  19069  19065  19081     1  180.0000771  3.5564000  2
  10552  19069  19065  19081     1  0.0000000  0.4184000  3
  10552  19069  19065  19064     1  180.0000771  0.4184000  2
  10552  19069  19065  19064     1  0.0000000  1.6024720  3
  10556  10557  10569  10581     1  0.0000000  0.6508444  3
  10556  10560  10572  10578     1  0.0000000  0.6508444  3
  10556  10563  10566  10575     1  0.0000000  0.6508444  3
  10557  10556  10560  10572     1  180.0000771  2.0083200  2
  10557  10556  10560  10572     1  0.0000000  1.2552000  3
  10557  10556  10563  10566     1  180.0000771  2.0083200  2
  10557  10556  10563  10566     1  0.0000000  1.2552000  3
  10557  10569  10581  19115     1  0.0000000  0.6508444  3
  10560  10556  10557  10569     1  180.0000771  2.0083200  2
  10560  10556  10557  10569     1  0.0000000  1.2552000  3
  10560  10556  10563  10566     1  180.0000771  2.0083200  2
  10560  10556  10563  10566     1  0.0000000  1.2552000  3
  10560  10572  10578  19092     1  0.0000000  0.6508444  3
  10563  10556  10557  10569     1  180.0000771  2.0083200  2
  10563  10556  10557  10569     1  0.0000000  1.2552000  3
  10563  10556  10560  10572     1  180.0000771  2.0083200  2
  10563  10556  10560  10572     1  0.0000000  1.2552000  3
  10563  10566  10575  10584     1  0.0000000  0.6508444  3
  10569  10581  19115  19111     1  180.0000771  0.4184000  2
  10569  10581  19115  19111     1  0.0000000  1.6024720  3
  10572  10578  19092  19088     1  180.0000771  0.4184000  2
  10572  10578  19092  19088     1  0.0000000  1.6024720  3
  10578  19092  19088  19087     1  180.0000771  0.4184000  2
  10578  19092  19088  19087     1  0.0000000  1.6024720  3
  10578  19092  19088  19104     1  180.0000771  5.6484000  1
  10578  19092  19088  19104     1  180.0000771  3.5564000  2
  10578  19092  19088  19104     1  0.0000000  0.4184000  3
  10581  19115  19111  19127     1  180.0000771  5.6484000  1
  10581  19115  19111  19127     1  180.0000771  3.5564000  2
  10581  19115  19111  19127     1  0.0000000  0.4184000  3
  10581  19115  19111  19110     1  180.0000771  0.4184000  2
  10581  19115  19111  19110     1  0.0000000  1.6024720  3
  10585  10586  10598  10610     1  0.0000000  0.6508444  3
  10585  10589  10601  10607     1  0.0000000  0.6508444  3
  10585  10592  10595  10604     1  0.0000000  0.6508444  3
  10586  10585  10589  10601     1  180.0000771  2.0083200  2
  10586  10585  10589  10601     1  0.0000000  1.2552000  3
  10586  10585  10592  10595     1  180.0000771  2.0083200  2
  10586  10585  10592  10595     1  0.0000000  1.2552000  3
  10586  10598  10610  19161     1  0.0000000  0.6508444  3
  10589  10585  10586  10598     1  180.0000771  2.0083200  2
  10589  10585  10586  10598     1  0.0000000  1.2552000  3
  10589  10585  10592  10595     1  180.0000771  2.0083200  2
  10589  10585  10592  10595     1  0.0000000  1.2552000  3
  10589  10601  10607  19138     1  0.0000000  0.6508444  3
  10592  10585  10586  10598     1  180.0000771  2.0083200  2
  10592  10585  10586  10598     1  0.0000000  1.2552000  3
  10592  10585  10589  10601     1  180.0000771  2.0083200  2
  10592  10585  10589  10601     1  0.0000000  1.2552000  3
  10592  10595  10604  10613     1  0.0000000  0.6508444  3
  10598  10610  19161  19157     1  180.0000771  0.4184000  2
  10598  10610  19161  19157     1  0.0000000  1.6024720  3
  10601  10607  19138  19134     1  180.0000771  0.4184000  2
  10601  10607  19138  19134     1  0.0000000  1.6024720  3
  10607  19138  19134  19133     1  180.0000771  0.4184000  2
  10607  19138  19134  19133     1  0.0000000  1.6024720  3
  10607  19138  19134  19150     1  180.0000771  5.6484000  1
  10607  19138  19134  19150     1  180.0000771  3.5564000  2
  10607  19138  19134  19150     1  0.0000000  0.4184000  3
  10610  19161  19157  19173     1  180.0000771  5.6484000  1
  10610  19161  19157  19173     1  180.0000771  3.5564000  2
  10610  19161  19157  19173     1  0.0000000  0.4184000  3
  10610  19161  19157  19156     1  180.0000771  0.4184000  2
  10610  19161  19157  19156     1  0.0000000  1.6024720  3
  10614  10615  10627  10639     1  0.0000000  0.6508444  3
  10614  10618  10630  10636     1  0.0000000  0.6508444  3
  10614  10621  10624  10633     1  0.0000000  0.6508444  3
  10615  10614  10618  10630     1  180.0000771  2.0083200  2
  10615  10614  10618  10630     1  0.0000000  1.2552000  3
  10615  10614  10621  10624     1  180.0000771  2.0083200  2
  10615  10614  10621  10624     1  0.0000000  1.2552000  3
  10615  10627  10639  19207     1  0.0000000  0.6508444  3
  10618  10614  10615  10627     1  180.0000771  2.0083200  2
  10618  10614  10615  10627     1  0.0000000  1.2552000  3
  10618  10614  10621  10624     1  180.0000771  2.0083200  2
  10618  10614  10621  10624     1  0.0000000  1.2552000  3
  10618  10630  10636  19184     1  0.0000000  0.6508444  3
  10621  10614  10615  10627     1  180.0000771  2.0083200  2
  10621  10614  10615  10627     1  0.0000000  1.2552000  3
  10621  10614  10618  10630     1  180.0000771  2.0083200  2
  10621  10614  10618  10630     1  0.0000000  1.2552000  3
  10621  10624  10633  10642     1  0.0000000  0.6508444  3
  10627  10639  19207  19203     1  180.0000771  0.4184000  2
  10627  10639  19207  19203     1  0.0000000  1.6024720  3
  10630  10636  19184  19180     1  180.0000771  0.4184000  2
  10630  10636  19184  19180     1  0.0000000  1.6024720  3
  10636  19184  19180  19179     1  180.0000771  0.4184000  2
  10636  19184  19180  19179     1  0.0000000  1.6024720  3
  10636  19184  19180  19196     1  180.0000771  5.6484000  1
  10636  19184  19180  19196     1  180.0000771  3.5564000  2
  10636  19184  19180  19196     1  0.0000000  0.4184000  3
  10639  19207  19203  19219     1  180.0000771  5.6484000  1
  10639  19207  19203  19219     1  180.0000771  3.5564000  2
  10639  19207  19203  19219     1  0.0000000  0.4184000  3
  10639  19207  19203  19202     1  180.0000771  0.4184000  2
  10639  19207  19203  19202     1  0.0000000  1.6024720  3
  10643  10644  10656  10668     1  0.0000000  0.6508444  3
  10643  10647  10659  10665     1  0.0000000  0.6508444  3
  10643  10650  10653  10662     1  0.0000000  0.6508444  3
  10644  10643  10647  10659     1  180.0000771  2.0083200  2
  10644  10643  10647  10659     1  0.0000000  1.2552000  3
  10644  10643  10650  10653     1  180.0000771  2.0083200  2
  10644  10643  10650  10653     1  0.0000000  1.2552000  3
  10644  10656  10668  19253     1  0.0000000  0.6508444  3
  10647  10643  10644  10656     1  180.0000771  2.0083200  2
  10647  10643  10644  10656     1  0.0000000  1.2552000  3
  10647  10643  10650  10653     1  180.0000771  2.0083200  2
  10647  10643  10650  10653     1  0.0000000  1.2552000  3
  10647  10659  10665  19230     1  0.0000000  0.6508444  3
  10650  10643  10644  10656     1  180.0000771  2.0083200  2
  10650  10643  10644  10656     1  0.0000000  1.2552000  3
  10650  10643  10647  10659     1  180.0000771  2.0083200  2
  10650  10643  10647  10659     1  0.0000000  1.2552000  3
  10650  10653  10662  10671     1  0.0000000  0.6508444  3
  10656  10668  19253  19249     1  180.0000771  0.4184000  2
  10656  10668  19253  19249     1  0.0000000  1.6024720  3
  10659  10665  19230  19226     1  180.0000771  0.4184000  2
  10659  10665  19230  19226     1  0.0000000  1.6024720  3
  10665  19230  19226  19225     1  180.0000771  0.4184000  2
  10665  19230  19226  19225     1  0.0000000  1.6024720  3
  10665  19230  19226  19242     1  180.0000771  5.6484000  1
  10665  19230  19226  19242     1  180.0000771  3.5564000  2
  10665  19230  19226  19242     1  0.0000000  0.4184000  3
  10668  19253  19249  19265     1  180.0000771  5.6484000  1
  10668  19253  19249  19265     1  180.0000771  3.5564000  2
  10668  19253  19249  19265     1  0.0000000  0.4184000  3
  10668  19253  19249  19248     1  180.0000771  0.4184000  2
  10668  19253  19249  19248     1  0.0000000  1.6024720  3
  10672  10673  10685  10697     1  0.0000000  0.6508444  3
  10672  10676  10688  10694     1  0.0000000  0.6508444  3
  10672  10679  10682  10691     1  0.0000000  0.6508444  3
  10673  10672  10676  10688     1  180.0000771  2.0083200  2
  10673  10672  10676  10688     1  0.0000000  1.2552000  3
  10673  10672  10679  10682     1  180.0000771  2.0083200  2
  10673  10672  10679  10682     1  0.0000000  1.2552000  3
  10673  10685  10697  19299     1  0.0000000  0.6508444  3
  10676  10672  10673  10685     1  180.0000771  2.0083200  2
  10676  10672  10673  10685     1  0.0000000  1.2552000  3
  10676  10672  10679  10682     1  180.0000771  2.0083200  2
  10676  10672  10679  10682     1  0.0000000  1.2552000  3
  10676  10688  10694  19276     1  0.0000000  0.6508444  3
  10679  10672  10673  10685     1  180.0000771  2.0083200  2
  10679  10672  10673  10685     1  0.0000000  1.2552000  3
  10679  10672  10676  10688     1  180.0000771  2.0083200  2
  10679  10672  10676  10688     1  0.0000000  1.2552000  3
  10679  10682  10691  10700     1  0.0000000  0.6508444  3
  10685  10697  19299  19295     1  180.0000771  0.4184000  2
  10685  10697  19299  19295     1  0.0000000  1.6024720  3
  10688  10694  19276  19272     1  180.0000771  0.4184000  2
  10688  10694  19276  19272     1  0.0000000  1.6024720  3
  10694  19276  19272  19271     1  180.0000771  0.4184000  2
  10694  19276  19272  19271     1  0.0000000  1.6024720  3
  10694  19276  19272  19288     1  180.0000771  5.6484000  1
  10694  19276  19272  19288     1  180.0000771  3.5564000  2
  10694  19276  19272  19288     1  0.0000000  0.4184000  3
  10697  19299  19295  19311     1  180.0000771  5.6484000  1
  10697  19299  19295  19311     1  180.0000771  3.5564000  2
  10697  19299  19295  19311     1  0.0000000  0.4184000  3
  10697  19299  19295  19294     1  180.0000771  0.4184000  2
  10697  19299  19295  19294     1  0.0000000  1.6024720  3
  10701  10702  10714  10726     1  0.0000000  0.6508444  3
  10701  10705  10717  10723     1  0.0000000  0.6508444  3
  10701  10708  10711  10720     1  0.0000000  0.6508444  3
  10702  10701  10705  10717     1  180.0000771  2.0083200  2
  10702  10701  10705  10717     1  0.0000000  1.2552000  3
  10702  10701  10708  10711     1  180.0000771  2.0083200  2
  10702  10701  10708  10711     1  0.0000000  1.2552000  3
  10702  10714  10726  19345     1  0.0000000  0.6508444  3
  10705  10701  10702  10714     1  180.0000771  2.0083200  2
  10705  10701  10702  10714     1  0.0000000  1.2552000  3
  10705  10701  10708  10711     1  180.0000771  2.0083200  2
  10705  10701  10708  10711     1  0.0000000  1.2552000  3
  10705  10717  10723  19322     1  0.0000000  0.6508444  3
  10708  10701  10702  10714     1  180.0000771  2.0083200  2
  10708  10701  10702  10714     1  0.0000000  1.2552000  3
  10708  10701  10705  10717     1  180.0000771  2.0083200  2
  10708  10701  10705  10717     1  0.0000000  1.2552000  3
  10708  10711  10720  10729     1  0.0000000  0.6508444  3
  10714  10726  19345  19341     1  180.0000771  0.4184000  2
  10714  10726  19345  19341     1  0.0000000  1.6024720  3
  10717  10723  19322  19318     1  180.0000771  0.4184000  2
  10717  10723  19322  19318     1  0.0000000  1.6024720  3
  10723  19322  19318  19317     1  180.0000771  0.4184000  2
  10723  19322  19318  19317     1  0.0000000  1.6024720  3
  10723  19322  19318  19334     1  180.0000771  5.6484000  1
  10723  19322  19318  19334     1  180.0000771  3.5564000  2
  10723  19322  19318  19334     1  0.0000000  0.4184000  3
  10726  19345  19341  19357     1  180.0000771  5.6484000  1
  10726  19345  19341  19357     1  180.0000771  3.5564000  2
  10726  19345  19341  19357     1  0.0000000  0.4184000  3
  10726  19345  19341  19340     1  180.0000771  0.4184000  2
  10726  19345  19341  19340     1  0.0000000  1.6024720  3
  10730  10731  10743  10755     1  0.0000000  0.6508444  3
  10730  10734  10746  10752     1  0.0000000  0.6508444  3
  10730  10737  10740  10749     1  0.0000000  0.6508444  3
  10731  10730  10734  10746     1  180.0000771  2.0083200  2
  10731  10730  10734  10746     1  0.0000000  1.2552000  3
  10731  10730  10737  10740     1  180.0000771  2.0083200  2
  10731  10730  10737  10740     1  0.0000000  1.2552000  3
  10731  10743  10755  19391     1  0.0000000  0.6508444  3
  10734  10730  10731  10743     1  180.0000771  2.0083200  2
  10734  10730  10731  10743     1  0.0000000  1.2552000  3
  10734  10730  10737  10740     1  180.0000771  2.0083200  2
  10734  10730  10737  10740     1  0.0000000  1.2552000  3
  10734  10746  10752  19368     1  0.0000000  0.6508444  3
  10737  10730  10731  10743     1  180.0000771  2.0083200  2
  10737  10730  10731  10743     1  0.0000000  1.2552000  3
  10737  10730  10734  10746     1  180.0000771  2.0083200  2
  10737  10730  10734  10746     1  0.0000000  1.2552000  3
  10737  10740  10749  10758     1  0.0000000  0.6508444  3
  10743  10755  19391  19387     1  180.0000771  0.4184000  2
  10743  10755  19391  19387     1  0.0000000  1.6024720  3
  10746  10752  19368  19364     1  180.0000771  0.4184000  2
  10746  10752  19368  19364     1  0.0000000  1.6024720  3
  10752  19368  19364  19363     1  180.0000771  0.4184000  2
  10752  19368  19364  19363     1  0.0000000  1.6024720  3
  10752  19368  19364  19380     1  180.0000771  5.6484000  1
  10752  19368  19364  19380     1  180.0000771  3.5564000  2
  10752  19368  19364  19380     1  0.0000000  0.4184000  3
  10755  19391  19387  19403     1  180.0000771  5.6484000  1
  10755  19391  19387  19403     1  180.0000771  3.5564000  2
  10755  19391  19387  19403     1  0.0000000  0.4184000  3
  10755  19391  19387  19386     1  180.0000771  0.4184000  2
  10755  19391  19387  19386     1  0.0000000  1.6024720  3
  10759  10760  10772  10784     1  0.0000000  0.6508444  3
  10759  10763  10775  10781     1  0.0000000  0.6508444  3
  10759  10766  10769  10778     1  0.0000000  0.6508444  3
  10760  10759  10763  10775     1  180.0000771  2.0083200  2
  10760  10759  10763  10775     1  0.0000000  1.2552000  3
  10760  10759  10766  10769     1  180.0000771  2.0083200  2
  10760  10759  10766  10769     1  0.0000000  1.2552000  3
  10760  10772  10784  19437     1  0.0000000  0.6508444  3
  10763  10759  10760  10772     1  180.0000771  2.0083200  2
  10763  10759  10760  10772     1  0.0000000  1.2552000  3
  10763  10759  10766  10769     1  180.0000771  2.0083200  2
  10763  10759  10766  10769     1  0.0000000  1.2552000  3
  10763  10775  10781  19414     1  0.0000000  0.6508444  3
  10766  10759  10760  10772     1  180.0000771  2.0083200  2
  10766  10759  10760  10772     1  0.0000000  1.2552000  3
  10766  10759  10763  10775     1  180.0000771  2.0083200  2
  10766  10759  10763  10775     1  0.0000000  1.2552000  3
  10766  10769  10778  10787     1  0.0000000  0.6508444  3
  10772  10784  19437  19433     1  180.0000771  0.4184000  2
  10772  10784  19437  19433     1  0.0000000  1.6024720  3
  10775  10781  19414  19410     1  180.0000771  0.4184000  2
  10775  10781  19414  19410     1  0.0000000  1.6024720  3
  10781  19414  19410  19409     1  180.0000771  0.4184000  2
  10781  19414  19410  19409     1  0.0000000  1.6024720  3
  10781  19414  19410  19426     1  180.0000771  5.6484000  1
  10781  19414  19410  19426     1  180.0000771  3.5564000  2
  10781  19414  19410  19426     1  0.0000000  0.4184000  3
  10784  19437  19433  19449     1  180.0000771  5.6484000  1
  10784  19437  19433  19449     1  180.0000771  3.5564000  2
  10784  19437  19433  19449     1  0.0000000  0.4184000  3
  10784  19437  19433  19432     1  180.0000771  0.4184000  2
  10784  19437  19433  19432     1  0.0000000  1.6024720  3
  10788  10789  10801  10813     1  0.0000000  0.6508444  3
  10788  10792  10804  10810     1  0.0000000  0.6508444  3
  10788  10795  10798  10807     1  0.0000000  0.6508444  3
  10789  10788  10792  10804     1  180.0000771  2.0083200  2
  10789  10788  10792  10804     1  0.0000000  1.2552000  3
  10789  10788  10795  10798     1  180.0000771  2.0083200  2
  10789  10788  10795  10798     1  0.0000000  1.2552000  3
  10789  10801  10813  19483     1  0.0000000  0.6508444  3
  10792  10788  10789  10801     1  180.0000771  2.0083200  2
  10792  10788  10789  10801     1  0.0000000  1.2552000  3
  10792  10788  10795  10798     1  180.0000771  2.0083200  2
  10792  10788  10795  10798     1  0.0000000  1.2552000  3
  10792  10804  10810  19460     1  0.0000000  0.6508444  3
  10795  10788  10789  10801     1  180.0000771  2.0083200  2
  10795  10788  10789  10801     1  0.0000000  1.2552000  3
  10795  10788  10792  10804     1  180.0000771  2.0083200  2
  10795  10788  10792  10804     1  0.0000000  1.2552000  3
  10795  10798  10807  10816     1  0.0000000  0.6508444  3
  10801  10813  19483  19479     1  180.0000771  0.4184000  2
  10801  10813  19483  19479     1  0.0000000  1.6024720  3
  10804  10810  19460  19456     1  180.0000771  0.4184000  2
  10804  10810  19460  19456     1  0.0000000  1.6024720  3
  10810  19460  19456  19455     1  180.0000771  0.4184000  2
  10810  19460  19456  19455     1  0.0000000  1.6024720  3
  10810  19460  19456  19472     1  180.0000771  5.6484000  1
  10810  19460  19456  19472     1  180.0000771  3.5564000  2
  10810  19460  19456  19472     1  0.0000000  0.4184000  3
  10813  19483  19479  19495     1  180.0000771  5.6484000  1
  10813  19483  19479  19495     1  180.0000771  3.5564000  2
  10813  19483  19479  19495     1  0.0000000  0.4184000  3
  10813  19483  19479  19478     1  180.0000771  0.4184000  2
  10813  19483  19479  19478     1  0.0000000  1.6024720  3
  10817  10818  10830  10842     1  0.0000000  0.6508444  3
  10817  10821  10833  10839     1  0.0000000  0.6508444  3
  10817  10824  10827  10836     1  0.0000000  0.6508444  3
  10818  10817  10821  10833     1  180.0000771  2.0083200  2
  10818  10817  10821  10833     1  0.0000000  1.2552000  3
  10818  10817  10824  10827     1  180.0000771  2.0083200  2
  10818  10817  10824  10827     1  0.0000000  1.2552000  3
  10818  10830  10842  19529     1  0.0000000  0.6508444  3
  10821  10817  10818  10830     1  180.0000771  2.0083200  2
  10821  10817  10818  10830     1  0.0000000  1.2552000  3
  10821  10817  10824  10827     1  180.0000771  2.0083200  2
  10821  10817  10824  10827     1  0.0000000  1.2552000  3
  10821  10833  10839  19506     1  0.0000000  0.6508444  3
  10824  10817  10818  10830     1  180.0000771  2.0083200  2
  10824  10817  10818  10830     1  0.0000000  1.2552000  3
  10824  10817  10821  10833     1  180.0000771  2.0083200  2
  10824  10817  10821  10833     1  0.0000000  1.2552000  3
  10824  10827  10836  10845     1  0.0000000  0.6508444  3
  10830  10842  19529  19525     1  180.0000771  0.4184000  2
  10830  10842  19529  19525     1  0.0000000  1.6024720  3
  10833  10839  19506  19502     1  180.0000771  0.4184000  2
  10833  10839  19506  19502     1  0.0000000  1.6024720  3
  10839  19506  19502  19501     1  180.0000771  0.4184000  2
  10839  19506  19502  19501     1  0.0000000  1.6024720  3
  10839  19506  19502  19518     1  180.0000771  5.6484000  1
  10839  19506  19502  19518     1  180.0000771  3.5564000  2
  10839  19506  19502  19518     1  0.0000000  0.4184000  3
  10842  19529  19525  19541     1  180.0000771  5.6484000  1
  10842  19529  19525  19541     1  180.0000771  3.5564000  2
  10842  19529  19525  19541     1  0.0000000  0.4184000  3
  10842  19529  19525  19524     1  180.0000771  0.4184000  2
  10842  19529  19525  19524     1  0.0000000  1.6024720  3
  10846  10847  10859  10871     1  0.0000000  0.6508444  3
  10846  10850  10862  10868     1  0.0000000  0.6508444  3
  10846  10853  10856  10865     1  0.0000000  0.6508444  3
  10847  10846  10850  10862     1  180.0000771  2.0083200  2
  10847  10846  10850  10862     1  0.0000000  1.2552000  3
  10847  10846  10853  10856     1  180.0000771  2.0083200  2
  10847  10846  10853  10856     1  0.0000000  1.2552000  3
  10847  10859  10871  19575     1  0.0000000  0.6508444  3
  10850  10846  10847  10859     1  180.0000771  2.0083200  2
  10850  10846  10847  10859     1  0.0000000  1.2552000  3
  10850  10846  10853  10856     1  180.0000771  2.0083200  2
  10850  10846  10853  10856     1  0.0000000  1.2552000  3
  10850  10862  10868  19552     1  0.0000000  0.6508444  3
  10853  10846  10847  10859     1  180.0000771  2.0083200  2
  10853  10846  10847  10859     1  0.0000000  1.2552000  3
  10853  10846  10850  10862     1  180.0000771  2.0083200  2
  10853  10846  10850  10862     1  0.0000000  1.2552000  3
  10853  10856  10865  10874     1  0.0000000  0.6508444  3
  10859  10871  19575  19571     1  180.0000771  0.4184000  2
  10859  10871  19575  19571     1  0.0000000  1.6024720  3
  10862  10868  19552  19548     1  180.0000771  0.4184000  2
  10862  10868  19552  19548     1  0.0000000  1.6024720  3
  10868  19552  19548  19547     1  180.0000771  0.4184000  2
  10868  19552  19548  19547     1  0.0000000  1.6024720  3
  10868  19552  19548  19564     1  180.0000771  5.6484000  1
  10868  19552  19548  19564     1  180.0000771  3.5564000  2
  10868  19552  19548  19564     1  0.0000000  0.4184000  3
  10871  19575  19571  19587     1  180.0000771  5.6484000  1
  10871  19575  19571  19587     1  180.0000771  3.5564000  2
  10871  19575  19571  19587     1  0.0000000  0.4184000  3
  10871  19575  19571  19570     1  180.0000771  0.4184000  2
  10871  19575  19571  19570     1  0.0000000  1.6024720  3
  10875  10876  10888  10900     1  0.0000000  0.6508444  3
  10875  10879  10891  10897     1  0.0000000  0.6508444  3
  10875  10882  10885  10894     1  0.0000000  0.6508444  3
  10876  10875  10879  10891     1  180.0000771  2.0083200  2
  10876  10875  10879  10891     1  0.0000000  1.2552000  3
  10876  10875  10882  10885     1  180.0000771  2.0083200  2
  10876  10875  10882  10885     1  0.0000000  1.2552000  3
  10876  10888  10900  19621     1  0.0000000  0.6508444  3
  10879  10875  10876  10888     1  180.0000771  2.0083200  2
  10879  10875  10876  10888     1  0.0000000  1.2552000  3
  10879  10875  10882  10885     1  180.0000771  2.0083200  2
  10879  10875  10882  10885     1  0.0000000  1.2552000  3
  10879  10891  10897  19598     1  0.0000000  0.6508444  3
  10882  10875  10876  10888     1  180.0000771  2.0083200  2
  10882  10875  10876  10888     1  0.0000000  1.2552000  3
  10882  10875  10879  10891     1  180.0000771  2.0083200  2
  10882  10875  10879  10891     1  0.0000000  1.2552000  3
  10882  10885  10894  10903     1  0.0000000  0.6508444  3
  10888  10900  19621  19617     1  180.0000771  0.4184000  2
  10888  10900  19621  19617     1  0.0000000  1.6024720  3
  10891  10897  19598  19594     1  180.0000771  0.4184000  2
  10891  10897  19598  19594     1  0.0000000  1.6024720  3
  10897  19598  19594  19593     1  180.0000771  0.4184000  2
  10897  19598  19594  19593     1  0.0000000  1.6024720  3
  10897  19598  19594  19610     1  180.0000771  5.6484000  1
  10897  19598  19594  19610     1  180.0000771  3.5564000  2
  10897  19598  19594  19610     1  0.0000000  0.4184000  3
  10900  19621  19617  19633     1  180.0000771  5.6484000  1
  10900  19621  19617  19633     1  180.0000771  3.5564000  2
  10900  19621  19617  19633     1  0.0000000  0.4184000  3
  10900  19621  19617  19616     1  180.0000771  0.4184000  2
  10900  19621  19617  19616     1  0.0000000  1.6024720  3
  10904  10905  10917  10929     1  0.0000000  0.6508444  3
  10904  10908  10920  10926     1  0.0000000  0.6508444  3
  10904  10911  10914  10923     1  0.0000000  0.6508444  3
  10905  10904  10908  10920     1  180.0000771  2.0083200  2
  10905  10904  10908  10920     1  0.0000000  1.2552000  3
  10905  10904  10911  10914     1  180.0000771  2.0083200  2
  10905  10904  10911  10914     1  0.0000000  1.2552000  3
  10905  10917  10929  19667     1  0.0000000  0.6508444  3
  10908  10904  10905  10917     1  180.0000771  2.0083200  2
  10908  10904  10905  10917     1  0.0000000  1.2552000  3
  10908  10904  10911  10914     1  180.0000771  2.0083200  2
  10908  10904  10911  10914     1  0.0000000  1.2552000  3
  10908  10920  10926  19644     1  0.0000000  0.6508444  3
  10911  10904  10905  10917     1  180.0000771  2.0083200  2
  10911  10904  10905  10917     1  0.0000000  1.2552000  3
  10911  10904  10908  10920     1  180.0000771  2.0083200  2
  10911  10904  10908  10920     1  0.0000000  1.2552000  3
  10911  10914  10923  10932     1  0.0000000  0.6508444  3
  10917  10929  19667  19663     1  180.0000771  0.4184000  2
  10917  10929  19667  19663     1  0.0000000  1.6024720  3
  10920  10926  19644  19640     1  180.0000771  0.4184000  2
  10920  10926  19644  19640     1  0.0000000  1.6024720  3
  10926  19644  19640  19639     1  180.0000771  0.4184000  2
  10926  19644  19640  19639     1  0.0000000  1.6024720  3
  10926  19644  19640  19656     1  180.0000771  5.6484000  1
  10926  19644  19640  19656     1  180.0000771  3.5564000  2
  10926  19644  19640  19656     1  0.0000000  0.4184000  3
  10929  19667  19663  19679     1  180.0000771  5.6484000  1
  10929  19667  19663  19679     1  180.0000771  3.5564000  2
  10929  19667  19663  19679     1  0.0000000  0.4184000  3
  10929  19667  19663  19662     1  180.0000771  0.4184000  2
  10929  19667  19663  19662     1  0.0000000  1.6024720  3
  10933  10934  10946  10958     1  0.0000000  0.6508444  3
  10933  10937  10949  10955     1  0.0000000  0.6508444  3
  10933  10940  10943  10952     1  0.0000000  0.6508444  3
  10934  10933  10937  10949     1  180.0000771  2.0083200  2
  10934  10933  10937  10949     1  0.0000000  1.2552000  3
  10934  10933  10940  10943     1  180.0000771  2.0083200  2
  10934  10933  10940  10943     1  0.0000000  1.2552000  3
  10934  10946  10958  19713     1  0.0000000  0.6508444  3
  10937  10933  10934  10946     1  180.0000771  2.0083200  2
  10937  10933  10934  10946     1  0.0000000  1.2552000  3
  10937  10933  10940  10943     1  180.0000771  2.0083200  2
  10937  10933  10940  10943     1  0.0000000  1.2552000  3
  10937  10949  10955  19690     1  0.0000000  0.6508444  3
  10940  10933  10934  10946     1  180.0000771  2.0083200  2
  10940  10933  10934  10946     1  0.0000000  1.2552000  3
  10940  10933  10937  10949     1  180.0000771  2.0083200  2
  10940  10933  10937  10949     1  0.0000000  1.2552000  3
  10940  10943  10952  10961     1  0.0000000  0.6508444  3
  10946  10958  19713  19709     1  180.0000771  0.4184000  2
  10946  10958  19713  19709     1  0.0000000  1.6024720  3
  10949  10955  19690  19686     1  180.0000771  0.4184000  2
  10949  10955  19690  19686     1  0.0000000  1.6024720  3
  10955  19690  19686  19685     1  180.0000771  0.4184000  2
  10955  19690  19686  19685     1  0.0000000  1.6024720  3
  10955  19690  19686  19702     1  180.0000771  5.6484000  1
  10955  19690  19686  19702     1  180.0000771  3.5564000  2
  10955  19690  19686  19702     1  0.0000000  0.4184000  3
  10958  19713  19709  19725     1  180.0000771  5.6484000  1
  10958  19713  19709  19725     1  180.0000771  3.5564000  2
  10958  19713  19709  19725     1  0.0000000  0.4184000  3
  10958  19713  19709  19708     1  180.0000771  0.4184000  2
  10958  19713  19709  19708     1  0.0000000  1.6024720  3
  10962  10963  10975  10987     1  0.0000000  0.6508444  3
  10962  10966  10978  10984     1  0.0000000  0.6508444  3
  10962  10969  10972  10981     1  0.0000000  0.6508444  3
  10963  10962  10966  10978     1  180.0000771  2.0083200  2
  10963  10962  10966  10978     1  0.0000000  1.2552000  3
  10963  10962  10969  10972     1  180.0000771  2.0083200  2
  10963  10962  10969  10972     1  0.0000000  1.2552000  3
  10963  10975  10987  19759     1  0.0000000  0.6508444  3
  10966  10962  10963  10975     1  180.0000771  2.0083200  2
  10966  10962  10963  10975     1  0.0000000  1.2552000  3
  10966  10962  10969  10972     1  180.0000771  2.0083200  2
  10966  10962  10969  10972     1  0.0000000  1.2552000  3
  10966  10978  10984  19736     1  0.0000000  0.6508444  3
  10969  10962  10963  10975     1  180.0000771  2.0083200  2
  10969  10962  10963  10975     1  0.0000000  1.2552000  3
  10969  10962  10966  10978     1  180.0000771  2.0083200  2
  10969  10962  10966  10978     1  0.0000000  1.2552000  3
  10969  10972  10981  10990     1  0.0000000  0.6508444  3
  10975  10987  19759  19755     1  180.0000771  0.4184000  2
  10975  10987  19759  19755     1  0.0000000  1.6024720  3
  10978  10984  19736  19732     1  180.0000771  0.4184000  2
  10978  10984  19736  19732     1  0.0000000  1.6024720  3
  10984  19736  19732  19731     1  180.0000771  0.4184000  2
  10984  19736  19732  19731     1  0.0000000  1.6024720  3
  10984  19736  19732  19748     1  180.0000771  5.6484000  1
  10984  19736  19732  19748     1  180.0000771  3.5564000  2
  10984  19736  19732  19748     1  0.0000000  0.4184000  3
  10987  19759  19755  19771     1  180.0000771  5.6484000  1
  10987  19759  19755  19771     1  180.0000771  3.5564000  2
  10987  19759  19755  19771     1  0.0000000  0.4184000  3
  10987  19759  19755  19754     1  180.0000771  0.4184000  2
  10987  19759  19755  19754     1  0.0000000  1.6024720  3
  10991  10992  11004  11016     1  0.0000000  0.6508444  3
  10991  10995  11007  11013     1  0.0000000  0.6508444  3
  10991  10998  11001  11010     1  0.0000000  0.6508444  3
  10992  10991  10995  11007     1  180.0000771  2.0083200  2
  10992  10991  10995  11007     1  0.0000000  1.2552000  3
  10992  10991  10998  11001     1  180.0000771  2.0083200  2
  10992  10991  10998  11001     1  0.0000000  1.2552000  3
  10992  11004  11016  19805     1  0.0000000  0.6508444  3
  10995  10991  10992  11004     1  180.0000771  2.0083200  2
  10995  10991  10992  11004     1  0.0000000  1.2552000  3
  10995  10991  10998  11001     1  180.0000771  2.0083200  2
  10995  10991  10998  11001     1  0.0000000  1.2552000  3
  10995  11007  11013  19782     1  0.0000000  0.6508444  3
  10998  10991  10992  11004     1  180.0000771  2.0083200  2
  10998  10991  10992  11004     1  0.0000000  1.2552000  3
  10998  10991  10995  11007     1  180.0000771  2.0083200  2
  10998  10991  10995  11007     1  0.0000000  1.2552000  3
  10998  11001  11010  11019     1  0.0000000  0.6508444  3
  11004  11016  19805  19801     1  180.0000771  0.4184000  2
  11004  11016  19805  19801     1  0.0000000  1.6024720  3
  11007  11013  19782  19778     1  180.0000771  0.4184000  2
  11007  11013  19782  19778     1  0.0000000  1.6024720  3
  11013  19782  19778  19777     1  180.0000771  0.4184000  2
  11013  19782  19778  19777     1  0.0000000  1.6024720  3
  11013  19782  19778  19794     1  180.0000771  5.6484000  1
  11013  19782  19778  19794     1  180.0000771  3.5564000  2
  11013  19782  19778  19794     1  0.0000000  0.4184000  3
  11016  19805  19801  19817     1  180.0000771  5.6484000  1
  11016  19805  19801  19817     1  180.0000771  3.5564000  2
  11016  19805  19801  19817     1  0.0000000  0.4184000  3
  11016  19805  19801  19800     1  180.0000771  0.4184000  2
  11016  19805  19801  19800     1  0.0000000  1.6024720  3
  11020  11021  11033  11045     1  0.0000000  0.6508444  3
  11020  11024  11036  11042     1  0.0000000  0.6508444  3
  11020  11027  11030  11039     1  0.0000000  0.6508444  3
  11021  11020  11024  11036     1  180.0000771  2.0083200  2
  11021  11020  11024  11036     1  0.0000000  1.2552000  3
  11021  11020  11027  11030     1  180.0000771  2.0083200  2
  11021  11020  11027  11030     1  0.0000000  1.2552000  3
  11021  11033  11045  19851     1  0.0000000  0.6508444  3
  11024  11020  11021  11033     1  180.0000771  2.0083200  2
  11024  11020  11021  11033     1  0.0000000  1.2552000  3
  11024  11020  11027  11030     1  180.0000771  2.0083200  2
  11024  11020  11027  11030     1  0.0000000  1.2552000  3
  11024  11036  11042  19828     1  0.0000000  0.6508444  3
  11027  11020  11021  11033     1  180.0000771  2.0083200  2
  11027  11020  11021  11033     1  0.0000000  1.2552000  3
  11027  11020  11024  11036     1  180.0000771  2.0083200  2
  11027  11020  11024  11036     1  0.0000000  1.2552000  3
  11027  11030  11039  11048     1  0.0000000  0.6508444  3
  11033  11045  19851  19847     1  180.0000771  0.4184000  2
  11033  11045  19851  19847     1  0.0000000  1.6024720  3
  11036  11042  19828  19824     1  180.0000771  0.4184000  2
  11036  11042  19828  19824     1  0.0000000  1.6024720  3
  11042  19828  19824  19823     1  180.0000771  0.4184000  2
  11042  19828  19824  19823     1  0.0000000  1.6024720  3
  11042  19828  19824  19840     1  180.0000771  5.6484000  1
  11042  19828  19824  19840     1  180.0000771  3.5564000  2
  11042  19828  19824  19840     1  0.0000000  0.4184000  3
  11045  19851  19847  19863     1  180.0000771  5.6484000  1
  11045  19851  19847  19863     1  180.0000771  3.5564000  2
  11045  19851  19847  19863     1  0.0000000  0.4184000  3
  11045  19851  19847  19846     1  180.0000771  0.4184000  2
  11045  19851  19847  19846     1  0.0000000  1.6024720  3
  11049  11050  11062  11074     1  0.0000000  0.6508444  3
  11049  11053  11065  11071     1  0.0000000  0.6508444  3
  11049  11056  11059  11068     1  0.0000000  0.6508444  3
  11050  11049  11053  11065     1  180.0000771  2.0083200  2
  11050  11049  11053  11065     1  0.0000000  1.2552000  3
  11050  11049  11056  11059     1  180.0000771  2.0083200  2
  11050  11049  11056  11059     1  0.0000000  1.2552000  3
  11050  11062  11074  19897     1  0.0000000  0.6508444  3
  11053  11049  11050  11062     1  180.0000771  2.0083200  2
  11053  11049  11050  11062     1  0.0000000  1.2552000  3
  11053  11049  11056  11059     1  180.0000771  2.0083200  2
  11053  11049  11056  11059     1  0.0000000  1.2552000  3
  11053  11065  11071  19874     1  0.0000000  0.6508444  3
  11056  11049  11050  11062     1  180.0000771  2.0083200  2
  11056  11049  11050  11062     1  0.0000000  1.2552000  3
  11056  11049  11053  11065     1  180.0000771  2.0083200  2
  11056  11049  11053  11065     1  0.0000000  1.2552000  3
  11056  11059  11068  11077     1  0.0000000  0.6508444  3
  11062  11074  19897  19893     1  180.0000771  0.4184000  2
  11062  11074  19897  19893     1  0.0000000  1.6024720  3
  11065  11071  19874  19870     1  180.0000771  0.4184000  2
  11065  11071  19874  19870     1  0.0000000  1.6024720  3
  11071  19874  19870  19869     1  180.0000771  0.4184000  2
  11071  19874  19870  19869     1  0.0000000  1.6024720  3
  11071  19874  19870  19886     1  180.0000771  5.6484000  1
  11071  19874  19870  19886     1  180.0000771  3.5564000  2
  11071  19874  19870  19886     1  0.0000000  0.4184000  3
  11074  19897  19893  19909     1  180.0000771  5.6484000  1
  11074  19897  19893  19909     1  180.0000771  3.5564000  2
  11074  19897  19893  19909     1  0.0000000  0.4184000  3
  11074  19897  19893  19892     1  180.0000771  0.4184000  2
  11074  19897  19893  19892     1  0.0000000  1.6024720  3
  11078  11079  11082  11083     1  180.0000771  0.8368000  1
  11078  11079  11082  11083     1  180.0000771  1.0460000  2
  11078  11079  11082  11083     1  0.0000000  0.7531200  3
  11078  11079  11082  11090     1  0.0000000  0.6508444  3
  11078  11100  11084  11083     1  180.0000771  0.4184000  2
  11078  11100  11084  11083     1  0.0000000  1.6024720  3
  11078  11100  11084  11088     1  180.0000771  5.6484000  1
  11078  11100  11084  11088     1  180.0000771  3.5564000  2
  11078  11100  11084  11088     1  0.0000000  0.4184000  3
  11079  11078  11092  11098     1  0.0000000  0.6508444  3
  11079  11078  11100  11084     1  180.0000771  0.4184000  2
  11079  11078  11100  11084     1  0.0000000  1.6024720  3
  11079  11082  11083  11084     1  180.0000771  0.8368000  1
  11079  11082  11083  11084     1  180.0000771  1.0460000  2
  11079  11082  11083  11084     1  0.0000000  0.7531200  3
  11079  11082  11083  11089     1  0.0000000  0.6508444  3
  11082  11079  11078  11092     1  180.0000771  0.8368000  1
  11082  11079  11078  11092     1  180.0000771  1.0460000  2
  11082  11079  11078  11092     1  0.0000000  0.7531200  3
  11082  11079  11078  11100     1  0.0000000  0.6508444  3
  11082  11083  11084  11088     1  0.0000000  0.6508444  3
  11082  11083  11084  11100     1  0.0000000  0.6508444  3
  11083  11082  11079  11091     1  0.0000000  0.6508444  3
  11084  11083  11082  11090     1  0.0000000  0.6508444  3
  11084  11100  11078  11092     1  180.0000771  0.4184000  2
  11084  11100  11078  11092     1  0.0000000  1.6024720  3
  11088  11084  11083  11089     1  0.0000000  4.9162000  2
  11088  11084  11083  11089     1  0.0000000  0.6024960  3
  11089  11083  11082  11090     1  0.0000000  4.9162000  2
  11089  11083  11082  11090     1  0.0000000  0.6024960  3
  11089  11083  11084  11100     1  0.0000000  4.9162000  2
  11089  11083  11084  11100     1  0.0000000  0.6024960  3
  11090  11082  11079  11091     1  0.0000000  4.9162000  2
  11090  11082  11079  11091     1  0.0000000  0.6024960  3
  11091  11079  11078  11092     1  0.0000000  0.6508444  3
  11091  11079  11078  11100     1  0.0000000  4.9162000  2
  11091  11079  11078  11100     1  0.0000000  0.6024960  3
  11098  11092  11078  11100     1  0.0000000  4.9162000  2
  11098  11092  11078  11100     1  0.0000000  0.6024960  3
  11101  11102  11105  11106     1  180.0000771  0.8368000  1
  11101  11102  11105  11106     1  180.0000771  1.0460000  2
  11101  11102  11105  11106     1  0.0000000  0.7531200  3
  11101  11102  11105  11113     1  0.0000000  0.6508444  3
  11101  11123  11107  11111     1  180.0000771  5.6484000  1
  11101  11123  11107  11111     1  180.0000771  3.5564000  2
  11101  11123  11107  11111     1  0.0000000  0.4184000  3
  11101  11123  11107  11106     1  180.0000771  0.4184000  2
  11101  11123  11107  11106     1  0.0000000  1.6024720  3
  11102  11105  11106  11107     1  180.0000771  0.8368000  1
  11102  11105  11106  11107     1  180.0000771  1.0460000  2
  11102  11105  11106  11107     1  0.0000000  0.7531200  3
  11102  11105  11106  11112     1  0.0000000  0.6508444  3
  11102  11101  11115  11121     1  0.0000000  0.6508444  3
  11102  11101  11123  11107     1  180.0000771  0.4184000  2
  11102  11101  11123  11107     1  0.0000000  1.6024720  3
  11105  11106  11107  11111     1  0.0000000  0.6508444  3
  11105  11106  11107  11123     1  0.0000000  0.6508444  3
  11105  11102  11101  11115     1  180.0000771  0.8368000  1
  11105  11102  11101  11115     1  180.0000771  1.0460000  2
  11105  11102  11101  11115     1  0.0000000  0.7531200  3
  11105  11102  11101  11123     1  0.0000000  0.6508444  3
  11106  11105  11102  11114     1  0.0000000  0.6508444  3
  11107  11123  11101  11115     1  180.0000771  0.4184000  2
  11107  11123  11101  11115     1  0.0000000  1.6024720  3
  11107  11106  11105  11113     1  0.0000000  0.6508444  3
  11111  11107  11106  11112     1  0.0000000  4.9162000  2
  11111  11107  11106  11112     1  0.0000000  0.6024960  3
  11112  11106  11107  11123     1  0.0000000  4.9162000  2
  11112  11106  11107  11123     1  0.0000000  0.6024960  3
  11112  11106  11105  11113     1  0.0000000  4.9162000  2
  11112  11106  11105  11113     1  0.0000000  0.6024960  3
  11113  11105  11102  11114     1  0.0000000  4.9162000  2
  11113  11105  11102  11114     1  0.0000000  0.6024960  3
  11114  11102  11101  11115     1  0.0000000  0.6508444  3
  11114  11102  11101  11123     1  0.0000000  4.9162000  2
  11114  11102  11101  11123     1  0.0000000  0.6024960  3
  11121  11115  11101  11123     1  0.0000000  4.9162000  2
  11121  11115  11101  11123     1  0.0000000  0.6024960  3
  11124  11125  11128  11129     1  180.0000771  0.8368000  1
  11124  11125  11128  11129     1  180.0000771  1.0460000  2
  11124  11125  11128  11129     1  0.0000000  0.7531200  3
  11124  11125  11128  11136     1  0.0000000  0.6508444  3
  11124  11146  11130  11129     1  180.0000771  0.4184000  2
  11124  11146  11130  11129     1  0.0000000  1.6024720  3
  11124  11146  11130  11134     1  180.0000771  5.6484000  1
  11124  11146  11130  11134     1  180.0000771  3.5564000  2
  11124  11146  11130  11134     1  0.0000000  0.4184000  3
  11125  11124  11138  11144     1  0.0000000  0.6508444  3
  11125  11124  11146  11130     1  180.0000771  0.4184000  2
  11125  11124  11146  11130     1  0.0000000  1.6024720  3
  11125  11128  11129  11130     1  180.0000771  0.8368000  1
  11125  11128  11129  11130     1  180.0000771  1.0460000  2
  11125  11128  11129  11130     1  0.0000000  0.7531200  3
  11125  11128  11129  11135     1  0.0000000  0.6508444  3
  11128  11125  11124  11138     1  180.0000771  0.8368000  1
  11128  11125  11124  11138     1  180.0000771  1.0460000  2
  11128  11125  11124  11138     1  0.0000000  0.7531200  3
  11128  11125  11124  11146     1  0.0000000  0.6508444  3
  11128  11129  11130  11134     1  0.0000000  0.6508444  3
  11128  11129  11130  11146     1  0.0000000  0.6508444  3
  11129  11128  11125  11137     1  0.0000000  0.6508444  3
  11130  11129  11128  11136     1  0.0000000  0.6508444  3
  11130  11146  11124  11138     1  180.0000771  0.4184000  2
  11130  11146  11124  11138     1  0.0000000  1.6024720  3
  11134  11130  11129  11135     1  0.0000000  4.9162000  2
  11134  11130  11129  11135     1  0.0000000  0.6024960  3
  11135  11129  11128  11136     1  0.0000000  4.9162000  2
  11135  11129  11128  11136     1  0.0000000  0.6024960  3
  11135  11129  11130  11146     1  0.0000000  4.9162000  2
  11135  11129  11130  11146     1  0.0000000  0.6024960  3
  11136  11128  11125  11137     1  0.0000000  4.9162000  2
  11136  11128  11125  11137     1  0.0000000  0.6024960  3
  11137  11125  11124  11138     1  0.0000000  0.6508444  3
  11137  11125  11124  11146     1  0.0000000  4.9162000  2
  11137  11125  11124  11146     1  0.0000000  0.6024960  3
  11144  11138  11124  11146     1  0.0000000  4.9162000  2
  11144  11138  11124  11146     1  0.0000000  0.6024960  3
  11147  11148  11151  11152     1  180.0000771  0.8368000  1
  11147  11148  11151  11152     1  180.0000771  1.0460000  2
  11147  11148  11151  11152     1  0.0000000  0.7531200  3
  11147  11148  11151  11159     1  0.0000000  0.6508444  3
  11147  11169  11153  11157     1  180.0000771  5.6484000  1
  11147  11169  11153  11157     1  180.0000771  3.5564000  2
  11147  11169  11153  11157     1  0.0000000  0.4184000  3
  11147  11169  11153  11152     1  180.0000771  0.4184000  2
  11147  11169  11153  11152     1  0.0000000  1.6024720  3
  11148  11151  11152  11153     1  180.0000771  0.8368000  1
  11148  11151  11152  11153     1  180.0000771  1.0460000  2
  11148  11151  11152  11153     1  0.0000000  0.7531200  3
  11148  11151  11152  11158     1  0.0000000  0.6508444  3
  11148  11147  11161  11167     1  0.0000000  0.6508444  3
  11148  11147  11169  11153     1  180.0000771  0.4184000  2
  11148  11147  11169  11153     1  0.0000000  1.6024720  3
  11151  11152  11153  11157     1  0.0000000  0.6508444  3
  11151  11152  11153  11169     1  0.0000000  0.6508444  3
  11151  11148  11147  11161     1  180.0000771  0.8368000  1
  11151  11148  11147  11161     1  180.0000771  1.0460000  2
  11151  11148  11147  11161     1  0.0000000  0.7531200  3
  11151  11148  11147  11169     1  0.0000000  0.6508444  3
  11152  11151  11148  11160     1  0.0000000  0.6508444  3
  11153  11169  11147  11161     1  180.0000771  0.4184000  2
  11153  11169  11147  11161     1  0.0000000  1.6024720  3
  11153  11152  11151  11159     1  0.0000000  0.6508444  3
  11157  11153  11152  11158     1  0.0000000  4.9162000  2
  11157  11153  11152  11158     1  0.0000000  0.6024960  3
  11158  11152  11153  11169     1  0.0000000  4.9162000  2
  11158  11152  11153  11169     1  0.0000000  0.6024960  3
  11158  11152  11151  11159     1  0.0000000  4.9162000  2
  11158  11152  11151  11159     1  0.0000000  0.6024960  3
  11159  11151  11148  11160     1  0.0000000  4.9162000  2
  11159  11151  11148  11160     1  0.0000000  0.6024960  3
  11160  11148  11147  11161     1  0.0000000  0.6508444  3
  11160  11148  11147  11169     1  0.0000000  4.9162000  2
  11160  11148  11147  11169     1  0.0000000  0.6024960  3
  11167  11161  11147  11169     1  0.0000000  4.9162000  2
  11167  11161  11147  11169     1  0.0000000  0.6024960  3
  11170  11171  11174  11175     1  180.0000771  0.8368000  1
  11170  11171  11174  11175     1  180.0000771  1.0460000  2
  11170  11171  11174  11175     1  0.0000000  0.7531200  3
  11170  11171  11174  11182     1  0.0000000  0.6508444  3
  11170  11192  11176  11175     1  180.0000771  0.4184000  2
  11170  11192  11176  11175     1  0.0000000  1.6024720  3
  11170  11192  11176  11180     1  180.0000771  5.6484000  1
  11170  11192  11176  11180     1  180.0000771  3.5564000  2
  11170  11192  11176  11180     1  0.0000000  0.4184000  3
  11171  11170  11184  11190     1  0.0000000  0.6508444  3
  11171  11170  11192  11176     1  180.0000771  0.4184000  2
  11171  11170  11192  11176     1  0.0000000  1.6024720  3
  11171  11174  11175  11176     1  180.0000771  0.8368000  1
  11171  11174  11175  11176     1  180.0000771  1.0460000  2
  11171  11174  11175  11176     1  0.0000000  0.7531200  3
  11171  11174  11175  11181     1  0.0000000  0.6508444  3
  11174  11171  11170  11184     1  180.0000771  0.8368000  1
  11174  11171  11170  11184     1  180.0000771  1.0460000  2
  11174  11171  11170  11184     1  0.0000000  0.7531200  3
  11174  11171  11170  11192     1  0.0000000  0.6508444  3
  11174  11175  11176  11180     1  0.0000000  0.6508444  3
  11174  11175  11176  11192     1  0.0000000  0.6508444  3
  11175  11174  11171  11183     1  0.0000000  0.6508444  3
  11176  11175  11174  11182     1  0.0000000  0.6508444  3
  11176  11192  11170  11184     1  180.0000771  0.4184000  2
  11176  11192  11170  11184     1  0.0000000  1.6024720  3
  11180  11176  11175  11181     1  0.0000000  4.9162000  2
  11180  11176  11175  11181     1  0.0000000  0.6024960  3
  11181  11175  11174  11182     1  0.0000000  4.9162000  2
  11181  11175  11174  11182     1  0.0000000  0.6024960  3
  11181  11175  11176  11192     1  0.0000000  4.9162000  2
  11181  11175  11176  11192     1  0.0000000  0.6024960  3
  11182  11174  11171  11183     1  0.0000000  4.9162000  2
  11182  11174  11171  11183     1  0.0000000  0.6024960  3
  11183  11171  11170  11184     1  0.0000000  0.6508444  3
  11183  11171  11170  11192     1  0.0000000  4.9162000  2
  11183  11171  11170  11192     1  0.0000000  0.6024960  3
  11190  11184  11170  11192     1  0.0000000  4.9162000  2
  11190  11184  11170  11192     1  0.0000000  0.6024960  3
  11193  11194  11197  11198     1  180.0000771  0.8368000  1
  11193  11194  11197  11198     1  180.0000771  1.0460000  2
  11193  11194  11197  11198     1  0.0000000  0.7531200  3
  11193  11194  11197  11205     1  0.0000000  0.6508444  3
  11193  11215  11199  11203     1  180.0000771  5.6484000  1
  11193  11215  11199  11203     1  180.0000771  3.5564000  2
  11193  11215  11199  11203     1  0.0000000  0.4184000  3
  11193  11215  11199  11198     1  180.0000771  0.4184000  2
  11193  11215  11199  11198     1  0.0000000  1.6024720  3
  11194  11197  11198  11199     1  180.0000771  0.8368000  1
  11194  11197  11198  11199     1  180.0000771  1.0460000  2
  11194  11197  11198  11199     1  0.0000000  0.7531200  3
  11194  11197  11198  11204     1  0.0000000  0.6508444  3
  11194  11193  11207  11213     1  0.0000000  0.6508444  3
  11194  11193  11215  11199     1  180.0000771  0.4184000  2
  11194  11193  11215  11199     1  0.0000000  1.6024720  3
  11197  11198  11199  11203     1  0.0000000  0.6508444  3
  11197  11198  11199  11215     1  0.0000000  0.6508444  3
  11197  11194  11193  11207     1  180.0000771  0.8368000  1
  11197  11194  11193  11207     1  180.0000771  1.0460000  2
  11197  11194  11193  11207     1  0.0000000  0.7531200  3
  11197  11194  11193  11215     1  0.0000000  0.6508444  3
  11198  11197  11194  11206     1  0.0000000  0.6508444  3
  11199  11215  11193  11207     1  180.0000771  0.4184000  2
  11199  11215  11193  11207     1  0.0000000  1.6024720  3
  11199  11198  11197  11205     1  0.0000000  0.6508444  3
  11203  11199  11198  11204     1  0.0000000  4.9162000  2
  11203  11199  11198  11204     1  0.0000000  0.6024960  3
  11204  11198  11199  11215     1  0.0000000  4.9162000  2
  11204  11198  11199  11215     1  0.0000000  0.6024960  3
  11204  11198  11197  11205     1  0.0000000  4.9162000  2
  11204  11198  11197  11205     1  0.0000000  0.6024960  3
  11205  11197  11194  11206     1  0.0000000  4.9162000  2
  11205  11197  11194  11206     1  0.0000000  0.6024960  3
  11206  11194  11193  11207     1  0.0000000  0.6508444  3
  11206  11194  11193  11215     1  0.0000000  4.9162000  2
  11206  11194  11193  11215     1  0.0000000  0.6024960  3
  11213  11207  11193  11215     1  0.0000000  4.9162000  2
  11213  11207  11193  11215     1  0.0000000  0.6024960  3
  11216  11217  11220  11221     1  180.0000771  0.8368000  1
  11216  11217  11220  11221     1  180.0000771  1.0460000  2
  11216  11217  11220  11221     1  0.0000000  0.7531200  3
  11216  11217  11220  11228     1  0.0000000  0.6508444  3
  11216  11238  11222  11221     1  180.0000771  0.4184000  2
  11216  11238  11222  11221     1  0.0000000  1.6024720  3
  11216  11238  11222  11226     1  180.0000771  5.6484000  1
  11216  11238  11222  11226     1  180.0000771  3.5564000  2
  11216  11238  11222  11226     1  0.0000000  0.4184000  3
  11217  11216  11230  11236     1  0.0000000  0.6508444  3
  11217  11216  11238  11222     1  180.0000771  0.4184000  2
  11217  11216  11238  11222     1  0.0000000  1.6024720  3
  11217  11220  11221  11222     1  180.0000771  0.8368000  1
  11217  11220  11221  11222     1  180.0000771  1.0460000  2
  11217  11220  11221  11222     1  0.0000000  0.7531200  3
  11217  11220  11221  11227     1  0.0000000  0.6508444  3
  11220  11217  11216  11230     1  180.0000771  0.8368000  1
  11220  11217  11216  11230     1  180.0000771  1.0460000  2
  11220  11217  11216  11230     1  0.0000000  0.7531200  3
  11220  11217  11216  11238     1  0.0000000  0.6508444  3
  11220  11221  11222  11226     1  0.0000000  0.6508444  3
  11220  11221  11222  11238     1  0.0000000  0.6508444  3
  11221  11220  11217  11229     1  0.0000000  0.6508444  3
  11222  11221  11220  11228     1  0.0000000  0.6508444  3
  11222  11238  11216  11230     1  180.0000771  0.4184000  2
  11222  11238  11216  11230     1  0.0000000  1.6024720  3
  11226  11222  11221  11227     1  0.0000000  4.9162000  2
  11226  11222  11221  11227     1  0.0000000  0.6024960  3
  11227  11221  11220  11228     1  0.0000000  4.9162000  2
  11227  11221  11220  11228     1  0.0000000  0.6024960  3
  11227  11221  11222  11238     1  0.0000000  4.9162000  2
  11227  11221  11222  11238     1  0.0000000  0.6024960  3
  11228  11220  11217  11229     1  0.0000000  4.9162000  2
  11228  11220  11217  11229     1  0.0000000  0.6024960  3
  11229  11217  11216  11230     1  0.0000000  0.6508444  3
  11229  11217  11216  11238     1  0.0000000  4.9162000  2
  11229  11217  11216  11238     1  0.0000000  0.6024960  3
  11236  11230  11216  11238     1  0.0000000  4.9162000  2
  11236  11230  11216  11238     1  0.0000000  0.6024960  3
  11239  11240  11243  11244     1  180.0000771  0.8368000  1
  11239  11240  11243  11244     1  180.0000771  1.0460000  2
  11239  11240  11243  11244     1  0.0000000  0.7531200  3
  11239  11240  11243  11251     1  0.0000000  0.6508444  3
  11239  11261  11245  11249     1  180.0000771  5.6484000  1
  11239  11261  11245  11249     1  180.0000771  3.5564000  2
  11239  11261  11245  11249     1  0.0000000  0.4184000  3
  11239  11261  11245  11244     1  180.0000771  0.4184000  2
  11239  11261  11245  11244     1  0.0000000  1.6024720  3
  11240  11243  11244  11245     1  180.0000771  0.8368000  1
  11240  11243  11244  11245     1  180.0000771  1.0460000  2
  11240  11243  11244  11245     1  0.0000000  0.7531200  3
  11240  11243  11244  11250     1  0.0000000  0.6508444  3
  11240  11239  11253  11259     1  0.0000000  0.6508444  3
  11240  11239  11261  11245     1  180.0000771  0.4184000  2
  11240  11239  11261  11245     1  0.0000000  1.6024720  3
  11243  11244  11245  11249     1  0.0000000  0.6508444  3
  11243  11244  11245  11261     1  0.0000000  0.6508444  3
  11243  11240  11239  11253     1  180.0000771  0.8368000  1
  11243  11240  11239  11253     1  180.0000771  1.0460000  2
  11243  11240  11239  11253     1  0.0000000  0.7531200  3
  11243  11240  11239  11261     1  0.0000000  0.6508444  3
  11244  11243  11240  11252     1  0.0000000  0.6508444  3
  11245  11261  11239  11253     1  180.0000771  0.4184000  2
  11245  11261  11239  11253     1  0.0000000  1.6024720  3
  11245  11244  11243  11251     1  0.0000000  0.6508444  3
  11249  11245  11244  11250     1  0.0000000  4.9162000  2
  11249  11245  11244  11250     1  0.0000000  0.6024960  3
  11250  11244  11245  11261     1  0.0000000  4.9162000  2
  11250  11244  11245  11261     1  0.0000000  0.6024960  3
  11250  11244  11243  11251     1  0.0000000  4.9162000  2
  11250  11244  11243  11251     1  0.0000000  0.6024960  3
  11251  11243  11240  11252     1  0.0000000  4.9162000  2
  11251  11243  11240  11252     1  0.0000000  0.6024960  3
  11252  11240  11239  11253     1  0.0000000  0.6508444  3
  11252  11240  11239  11261     1  0.0000000  4.9162000  2
  11252  11240  11239  11261     1  0.0000000  0.6024960  3
  11259  11253  11239  11261     1  0.0000000  4.9162000  2
  11259  11253  11239  11261     1  0.0000000  0.6024960  3
  11262  11263  11266  11267     1  180.0000771  0.8368000  1
  11262  11263  11266  11267     1  180.0000771  1.0460000  2
  11262  11263  11266  11267     1  0.0000000  0.7531200  3
  11262  11263  11266  11274     1  0.0000000  0.6508444  3
  11262  11284  11268  11267     1  180.0000771  0.4184000  2
  11262  11284  11268  11267     1  0.0000000  1.6024720  3
  11262  11284  11268  11272     1  180.0000771  5.6484000  1
  11262  11284  11268  11272     1  180.0000771  3.5564000  2
  11262  11284  11268  11272     1  0.0000000  0.4184000  3
  11263  11262  11276  11282     1  0.0000000  0.6508444  3
  11263  11262  11284  11268     1  180.0000771  0.4184000  2
  11263  11262  11284  11268     1  0.0000000  1.6024720  3
  11263  11266  11267  11268     1  180.0000771  0.8368000  1
  11263  11266  11267  11268     1  180.0000771  1.0460000  2
  11263  11266  11267  11268     1  0.0000000  0.7531200  3
  11263  11266  11267  11273     1  0.0000000  0.6508444  3
  11266  11263  11262  11276     1  180.0000771  0.8368000  1
  11266  11263  11262  11276     1  180.0000771  1.0460000  2
  11266  11263  11262  11276     1  0.0000000  0.7531200  3
  11266  11263  11262  11284     1  0.0000000  0.6508444  3
  11266  11267  11268  11272     1  0.0000000  0.6508444  3
  11266  11267  11268  11284     1  0.0000000  0.6508444  3
  11267  11266  11263  11275     1  0.0000000  0.6508444  3
  11268  11267  11266  11274     1  0.0000000  0.6508444  3
  11268  11284  11262  11276     1  180.0000771  0.4184000  2
  11268  11284  11262  11276     1  0.0000000  1.6024720  3
  11272  11268  11267  11273     1  0.0000000  4.9162000  2
  11272  11268  11267  11273     1  0.0000000  0.6024960  3
  11273  11267  11266  11274     1  0.0000000  4.9162000  2
  11273  11267  11266  11274     1  0.0000000  0.6024960  3
  11273  11267  11268  11284     1  0.0000000  4.9162000  2
  11273  11267  11268  11284     1  0.0000000  0.6024960  3
  11274  11266  11263  11275     1  0.0000000  4.9162000  2
  11274  11266  11263  11275     1  0.0000000  0.6024960  3
  11275  11263  11262  11276     1  0.0000000  0.6508444  3
  11275  11263  11262  11284     1  0.0000000  4.9162000  2
  11275  11263  11262  11284     1  0.0000000  0.6024960  3
  11282  11276  11262  11284     1  0.0000000  4.9162000  2
  11282  11276  11262  11284     1  0.0000000  0.6024960  3
  11285  11286  11289  11290     1  180.0000771  0.8368000  1
  11285  11286  11289  11290     1  180.0000771  1.0460000  2
  11285  11286  11289  11290     1  0.0000000  0.7531200  3
  11285  11286  11289  11297     1  0.0000000  0.6508444  3
  11285  11307  11291  11295     1  180.0000771  5.6484000  1
  11285  11307  11291  11295     1  180.0000771  3.5564000  2
  11285  11307  11291  11295     1  0.0000000  0.4184000  3
  11285  11307  11291  11290     1  180.0000771  0.4184000  2
  11285  11307  11291  11290     1  0.0000000  1.6024720  3
  11286  11289  11290  11291     1  180.0000771  0.8368000  1
  11286  11289  11290  11291     1  180.0000771  1.0460000  2
  11286  11289  11290  11291     1  0.0000000  0.7531200  3
  11286  11289  11290  11296     1  0.0000000  0.6508444  3
  11286  11285  11299  11305     1  0.0000000  0.6508444  3
  11286  11285  11307  11291     1  180.0000771  0.4184000  2
  11286  11285  11307  11291     1  0.0000000  1.6024720  3
  11289  11290  11291  11295     1  0.0000000  0.6508444  3
  11289  11290  11291  11307     1  0.0000000  0.6508444  3
  11289  11286  11285  11299     1  180.0000771  0.8368000  1
  11289  11286  11285  11299     1  180.0000771  1.0460000  2
  11289  11286  11285  11299     1  0.0000000  0.7531200  3
  11289  11286  11285  11307     1  0.0000000  0.6508444  3
  11290  11289  11286  11298     1  0.0000000  0.6508444  3
  11291  11307  11285  11299     1  180.0000771  0.4184000  2
  11291  11307  11285  11299     1  0.0000000  1.6024720  3
  11291  11290  11289  11297     1  0.0000000  0.6508444  3
  11295  11291  11290  11296     1  0.0000000  4.9162000  2
  11295  11291  11290  11296     1  0.0000000  0.6024960  3
  11296  11290  11291  11307     1  0.0000000  4.9162000  2
  11296  11290  11291  11307     1  0.0000000  0.6024960  3
  11296  11290  11289  11297     1  0.0000000  4.9162000  2
  11296  11290  11289  11297     1  0.0000000  0.6024960  3
  11297  11289  11286  11298     1  0.0000000  4.9162000  2
  11297  11289  11286  11298     1  0.0000000  0.6024960  3
  11298  11286  11285  11299     1  0.0000000  0.6508444  3
  11298  11286  11285  11307     1  0.0000000  4.9162000  2
  11298  11286  11285  11307     1  0.0000000  0.6024960  3
  11305  11299  11285  11307     1  0.0000000  4.9162000  2
  11305  11299  11285  11307     1  0.0000000  0.6024960  3
  11308  11309  11312  11313     1  180.0000771  0.8368000  1
  11308  11309  11312  11313     1  180.0000771  1.0460000  2
  11308  11309  11312  11313     1  0.0000000  0.7531200  3
  11308  11309  11312  11320     1  0.0000000  0.6508444  3
  11308  11330  11314  11313     1  180.0000771  0.4184000  2
  11308  11330  11314  11313     1  0.0000000  1.6024720  3
  11308  11330  11314  11318     1  180.0000771  5.6484000  1
  11308  11330  11314  11318     1  180.0000771  3.5564000  2
  11308  11330  11314  11318     1  0.0000000  0.4184000  3
  11309  11308  11322  11328     1  0.0000000  0.6508444  3
  11309  11308  11330  11314     1  180.0000771  0.4184000  2
  11309  11308  11330  11314     1  0.0000000  1.6024720  3
  11309  11312  11313  11314     1  180.0000771  0.8368000  1
  11309  11312  11313  11314     1  180.0000771  1.0460000  2
  11309  11312  11313  11314     1  0.0000000  0.7531200  3
  11309  11312  11313  11319     1  0.0000000  0.6508444  3
  11312  11309  11308  11322     1  180.0000771  0.8368000  1
  11312  11309  11308  11322     1  180.0000771  1.0460000  2
  11312  11309  11308  11322     1  0.0000000  0.7531200  3
  11312  11309  11308  11330     1  0.0000000  0.6508444  3
  11312  11313  11314  11318     1  0.0000000  0.6508444  3
  11312  11313  11314  11330     1  0.0000000  0.6508444  3
  11313  11312  11309  11321     1  0.0000000  0.6508444  3
  11314  11313  11312  11320     1  0.0000000  0.6508444  3
  11314  11330  11308  11322     1  180.0000771  0.4184000  2
  11314  11330  11308  11322     1  0.0000000  1.6024720  3
  11318  11314  11313  11319     1  0.0000000  4.9162000  2
  11318  11314  11313  11319     1  0.0000000  0.6024960  3
  11319  11313  11312  11320     1  0.0000000  4.9162000  2
  11319  11313  11312  11320     1  0.0000000  0.6024960  3
  11319  11313  11314  11330     1  0.0000000  4.9162000  2
  11319  11313  11314  11330     1  0.0000000  0.6024960  3
  11320  11312  11309  11321     1  0.0000000  4.9162000  2
  11320  11312  11309  11321     1  0.0000000  0.6024960  3
  11321  11309  11308  11322     1  0.0000000  0.6508444  3
  11321  11309  11308  11330     1  0.0000000  4.9162000  2
  11321  11309  11308  11330     1  0.0000000  0.6024960  3
  11328  11322  11308  11330     1  0.0000000  4.9162000  2
  11328  11322  11308  11330     1  0.0000000  0.6024960  3
  11331  11332  11335  11336     1  180.0000771  0.8368000  1
  11331  11332  11335  11336     1  180.0000771  1.0460000  2
  11331  11332  11335  11336     1  0.0000000  0.7531200  3
  11331  11332  11335  11343     1  0.0000000  0.6508444  3
  11331  11353  11337  11341     1  180.0000771  5.6484000  1
  11331  11353  11337  11341     1  180.0000771  3.5564000  2
  11331  11353  11337  11341     1  0.0000000  0.4184000  3
  11331  11353  11337  11336     1  180.0000771  0.4184000  2
  11331  11353  11337  11336     1  0.0000000  1.6024720  3
  11332  11335  11336  11337     1  180.0000771  0.8368000  1
  11332  11335  11336  11337     1  180.0000771  1.0460000  2
  11332  11335  11336  11337     1  0.0000000  0.7531200  3
  11332  11335  11336  11342     1  0.0000000  0.6508444  3
  11332  11331  11345  11351     1  0.0000000  0.6508444  3
  11332  11331  11353  11337     1  180.0000771  0.4184000  2
  11332  11331  11353  11337     1  0.0000000  1.6024720  3
  11335  11336  11337  11341     1  0.0000000  0.6508444  3
  11335  11336  11337  11353     1  0.0000000  0.6508444  3
  11335  11332  11331  11345     1  180.0000771  0.8368000  1
  11335  11332  11331  11345     1  180.0000771  1.0460000  2
  11335  11332  11331  11345     1  0.0000000  0.7531200  3
  11335  11332  11331  11353     1  0.0000000  0.6508444  3
  11336  11335  11332  11344     1  0.0000000  0.6508444  3
  11337  11353  11331  11345     1  180.0000771  0.4184000  2
  11337  11353  11331  11345     1  0.0000000  1.6024720  3
  11337  11336  11335  11343     1  0.0000000  0.6508444  3
  11341  11337  11336  11342     1  0.0000000  4.9162000  2
  11341  11337  11336  11342     1  0.0000000  0.6024960  3
  11342  11336  11337  11353     1  0.0000000  4.9162000  2
  11342  11336  11337  11353     1  0.0000000  0.6024960  3
  11342  11336  11335  11343     1  0.0000000  4.9162000  2
  11342  11336  11335  11343     1  0.0000000  0.6024960  3
  11343  11335  11332  11344     1  0.0000000  4.9162000  2
  11343  11335  11332  11344     1  0.0000000  0.6024960  3
  11344  11332  11331  11345     1  0.0000000  0.6508444  3
  11344  11332  11331  11353     1  0.0000000  4.9162000  2
  11344  11332  11331  11353     1  0.0000000  0.6024960  3
  11351  11345  11331  11353     1  0.0000000  4.9162000  2
  11351  11345  11331  11353     1  0.0000000  0.6024960  3
  11354  11355  11358  11359     1  180.0000771  0.8368000  1
  11354  11355  11358  11359     1  180.0000771  1.0460000  2
  11354  11355  11358  11359     1  0.0000000  0.7531200  3
  11354  11355  11358  11366     1  0.0000000  0.6508444  3
  11354  11376  11360  11359     1  180.0000771  0.4184000  2
  11354  11376  11360  11359     1  0.0000000  1.6024720  3
  11354  11376  11360  11364     1  180.0000771  5.6484000  1
  11354  11376  11360  11364     1  180.0000771  3.5564000  2
  11354  11376  11360  11364     1  0.0000000  0.4184000  3
  11355  11354  11368  11374     1  0.0000000  0.6508444  3
  11355  11354  11376  11360     1  180.0000771  0.4184000  2
  11355  11354  11376  11360     1  0.0000000  1.6024720  3
  11355  11358  11359  11360     1  180.0000771  0.8368000  1
  11355  11358  11359  11360     1  180.0000771  1.0460000  2
  11355  11358  11359  11360     1  0.0000000  0.7531200  3
  11355  11358  11359  11365     1  0.0000000  0.6508444  3
  11358  11355  11354  11368     1  180.0000771  0.8368000  1
  11358  11355  11354  11368     1  180.0000771  1.0460000  2
  11358  11355  11354  11368     1  0.0000000  0.7531200  3
  11358  11355  11354  11376     1  0.0000000  0.6508444  3
  11358  11359  11360  11364     1  0.0000000  0.6508444  3
  11358  11359  11360  11376     1  0.0000000  0.6508444  3
  11359  11358  11355  11367     1  0.0000000  0.6508444  3
  11360  11359  11358  11366     1  0.0000000  0.6508444  3
  11360  11376  11354  11368     1  180.0000771  0.4184000  2
  11360  11376  11354  11368     1  0.0000000  1.6024720  3
  11364  11360  11359  11365     1  0.0000000  4.9162000  2
  11364  11360  11359  11365     1  0.0000000  0.6024960  3
  11365  11359  11358  11366     1  0.0000000  4.9162000  2
  11365  11359  11358  11366     1  0.0000000  0.6024960  3
  11365  11359  11360  11376     1  0.0000000  4.9162000  2
  11365  11359  11360  11376     1  0.0000000  0.6024960  3
  11366  11358  11355  11367     1  0.0000000  4.9162000  2
  11366  11358  11355  11367     1  0.0000000  0.6024960  3
  11367  11355  11354  11368     1  0.0000000  0.6508444  3
  11367  11355  11354  11376     1  0.0000000  4.9162000  2
  11367  11355  11354  11376     1  0.0000000  0.6024960  3
  11374  11368  11354  11376     1  0.0000000  4.9162000  2
  11374  11368  11354  11376     1  0.0000000  0.6024960  3
  11377  11378  11381  11382     1  180.0000771  0.8368000  1
  11377  11378  11381  11382     1  180.0000771  1.0460000  2
  11377  11378  11381  11382     1  0.0000000  0.7531200  3
  11377  11378  11381  11389     1  0.0000000  0.6508444  3
  11377  11399  11383  11387     1  180.0000771  5.6484000  1
  11377  11399  11383  11387     1  180.0000771  3.5564000  2
  11377  11399  11383  11387     1  0.0000000  0.4184000  3
  11377  11399  11383  11382     1  180.0000771  0.4184000  2
  11377  11399  11383  11382     1  0.0000000  1.6024720  3
  11378  11381  11382  11383     1  180.0000771  0.8368000  1
  11378  11381  11382  11383     1  180.0000771  1.0460000  2
  11378  11381  11382  11383     1  0.0000000  0.7531200  3
  11378  11381  11382  11388     1  0.0000000  0.6508444  3
  11378  11377  11391  11397     1  0.0000000  0.6508444  3
  11378  11377  11399  11383     1  180.0000771  0.4184000  2
  11378  11377  11399  11383     1  0.0000000  1.6024720  3
  11381  11382  11383  11387     1  0.0000000  0.6508444  3
  11381  11382  11383  11399     1  0.0000000  0.6508444  3
  11381  11378  11377  11391     1  180.0000771  0.8368000  1
  11381  11378  11377  11391     1  180.0000771  1.0460000  2
  11381  11378  11377  11391     1  0.0000000  0.7531200  3
  11381  11378  11377  11399     1  0.0000000  0.6508444  3
  11382  11381  11378  11390     1  0.0000000  0.6508444  3
  11383  11399  11377  11391     1  180.0000771  0.4184000  2
  11383  11399  11377  11391     1  0.0000000  1.6024720  3
  11383  11382  11381  11389     1  0.0000000  0.6508444  3
  11387  11383  11382  11388     1  0.0000000  4.9162000  2
  11387  11383  11382  11388     1  0.0000000  0.6024960  3
  11388  11382  11383  11399     1  0.0000000  4.9162000  2
  11388  11382  11383  11399     1  0.0000000  0.6024960  3
  11388  11382  11381  11389     1  0.0000000  4.9162000  2
  11388  11382  11381  11389     1  0.0000000  0.6024960  3
  11389  11381  11378  11390     1  0.0000000  4.9162000  2
  11389  11381  11378  11390     1  0.0000000  0.6024960  3
  11390  11378  11377  11391     1  0.0000000  0.6508444  3
  11390  11378  11377  11399     1  0.0000000  4.9162000  2
  11390  11378  11377  11399     1  0.0000000  0.6024960  3
  11397  11391  11377  11399     1  0.0000000  4.9162000  2
  11397  11391  11377  11399     1  0.0000000  0.6024960  3
  11400  11401  11404  11405     1  180.0000771  0.8368000  1
  11400  11401  11404  11405     1  180.0000771  1.0460000  2
  11400  11401  11404  11405     1  0.0000000  0.7531200  3
  11400  11401  11404  11412     1  0.0000000  0.6508444  3
  11400  11422  11406  11405     1  180.0000771  0.4184000  2
  11400  11422  11406  11405     1  0.0000000  1.6024720  3
  11400  11422  11406  11410     1  180.0000771  5.6484000  1
  11400  11422  11406  11410     1  180.0000771  3.5564000  2
  11400  11422  11406  11410     1  0.0000000  0.4184000  3
  11401  11400  11414  11420     1  0.0000000  0.6508444  3
  11401  11400  11422  11406     1  180.0000771  0.4184000  2
  11401  11400  11422  11406     1  0.0000000  1.6024720  3
  11401  11404  11405  11406     1  180.0000771  0.8368000  1
  11401  11404  11405  11406     1  180.0000771  1.0460000  2
  11401  11404  11405  11406     1  0.0000000  0.7531200  3
  11401  11404  11405  11411     1  0.0000000  0.6508444  3
  11404  11401  11400  11414     1  180.0000771  0.8368000  1
  11404  11401  11400  11414     1  180.0000771  1.0460000  2
  11404  11401  11400  11414     1  0.0000000  0.7531200  3
  11404  11401  11400  11422     1  0.0000000  0.6508444  3
  11404  11405  11406  11410     1  0.0000000  0.6508444  3
  11404  11405  11406  11422     1  0.0000000  0.6508444  3
  11405  11404  11401  11413     1  0.0000000  0.6508444  3
  11406  11405  11404  11412     1  0.0000000  0.6508444  3
  11406  11422  11400  11414     1  180.0000771  0.4184000  2
  11406  11422  11400  11414     1  0.0000000  1.6024720  3
  11410  11406  11405  11411     1  0.0000000  4.9162000  2
  11410  11406  11405  11411     1  0.0000000  0.6024960  3
  11411  11405  11404  11412     1  0.0000000  4.9162000  2
  11411  11405  11404  11412     1  0.0000000  0.6024960  3
  11411  11405  11406  11422     1  0.0000000  4.9162000  2
  11411  11405  11406  11422     1  0.0000000  0.6024960  3
  11412  11404  11401  11413     1  0.0000000  4.9162000  2
  11412  11404  11401  11413     1  0.0000000  0.6024960  3
  11413  11401  11400  11414     1  0.0000000  0.6508444  3
  11413  11401  11400  11422     1  0.0000000  4.9162000  2
  11413  11401  11400  11422     1  0.0000000  0.6024960  3
  11420  11414  11400  11422     1  0.0000000  4.9162000  2
  11420  11414  11400  11422     1  0.0000000  0.6024960  3
  11423  11424  11427  11428     1  180.0000771  0.8368000  1
  11423  11424  11427  11428     1  180.0000771  1.0460000  2
  11423  11424  11427  11428     1  0.0000000  0.7531200  3
  11423  11424  11427  11435     1  0.0000000  0.6508444  3
  11423  11445  11429  11433     1  180.0000771  5.6484000  1
  11423  11445  11429  11433     1  180.0000771  3.5564000  2
  11423  11445  11429  11433     1  0.0000000  0.4184000  3
  11423  11445  11429  11428     1  180.0000771  0.4184000  2
  11423  11445  11429  11428     1  0.0000000  1.6024720  3
  11424  11427  11428  11429     1  180.0000771  0.8368000  1
  11424  11427  11428  11429     1  180.0000771  1.0460000  2
  11424  11427  11428  11429     1  0.0000000  0.7531200  3
  11424  11427  11428  11434     1  0.0000000  0.6508444  3
  11424  11423  11437  11443     1  0.0000000  0.6508444  3
  11424  11423  11445  11429     1  180.0000771  0.4184000  2
  11424  11423  11445  11429     1  0.0000000  1.6024720  3
  11427  11428  11429  11433     1  0.0000000  0.6508444  3
  11427  11428  11429  11445     1  0.0000000  0.6508444  3
  11427  11424  11423  11437     1  180.0000771  0.8368000  1
  11427  11424  11423  11437     1  180.0000771  1.0460000  2
  11427  11424  11423  11437     1  0.0000000  0.7531200  3
  11427  11424  11423  11445     1  0.0000000  0.6508444  3
  11428  11427  11424  11436     1  0.0000000  0.6508444  3
  11429  11445  11423  11437     1  180.0000771  0.4184000  2
  11429  11445  11423  11437     1  0.0000000  1.6024720  3
  11429  11428  11427  11435     1  0.0000000  0.6508444  3
  11433  11429  11428  11434     1  0.0000000  4.9162000  2
  11433  11429  11428  11434     1  0.0000000  0.6024960  3
  11434  11428  11429  11445     1  0.0000000  4.9162000  2
  11434  11428  11429  11445     1  0.0000000  0.6024960  3
  11434  11428  11427  11435     1  0.0000000  4.9162000  2
  11434  11428  11427  11435     1  0.0000000  0.6024960  3
  11435  11427  11424  11436     1  0.0000000  4.9162000  2
  11435  11427  11424  11436     1  0.0000000  0.6024960  3
  11436  11424  11423  11437     1  0.0000000  0.6508444  3
  11436  11424  11423  11445     1  0.0000000  4.9162000  2
  11436  11424  11423  11445     1  0.0000000  0.6024960  3
  11443  11437  11423  11445     1  0.0000000  4.9162000  2
  11443  11437  11423  11445     1  0.0000000  0.6024960  3
  11446  11447  11450  11451     1  180.0000771  0.8368000  1
  11446  11447  11450  11451     1  180.0000771  1.0460000  2
  11446  11447  11450  11451     1  0.0000000  0.7531200  3
  11446  11447  11450  11458     1  0.0000000  0.6508444  3
  11446  11468  11452  11451     1  180.0000771  0.4184000  2
  11446  11468  11452  11451     1  0.0000000  1.6024720  3
  11446  11468  11452  11456     1  180.0000771  5.6484000  1
  11446  11468  11452  11456     1  180.0000771  3.5564000  2
  11446  11468  11452  11456     1  0.0000000  0.4184000  3
  11447  11446  11460  11466     1  0.0000000  0.6508444  3
  11447  11446  11468  11452     1  180.0000771  0.4184000  2
  11447  11446  11468  11452     1  0.0000000  1.6024720  3
  11447  11450  11451  11452     1  180.0000771  0.8368000  1
  11447  11450  11451  11452     1  180.0000771  1.0460000  2
  11447  11450  11451  11452     1  0.0000000  0.7531200  3
  11447  11450  11451  11457     1  0.0000000  0.6508444  3
  11450  11447  11446  11460     1  180.0000771  0.8368000  1
  11450  11447  11446  11460     1  180.0000771  1.0460000  2
  11450  11447  11446  11460     1  0.0000000  0.7531200  3
  11450  11447  11446  11468     1  0.0000000  0.6508444  3
  11450  11451  11452  11456     1  0.0000000  0.6508444  3
  11450  11451  11452  11468     1  0.0000000  0.6508444  3
  11451  11450  11447  11459     1  0.0000000  0.6508444  3
  11452  11451  11450  11458     1  0.0000000  0.6508444  3
  11452  11468  11446  11460     1  180.0000771  0.4184000  2
  11452  11468  11446  11460     1  0.0000000  1.6024720  3
  11456  11452  11451  11457     1  0.0000000  4.9162000  2
  11456  11452  11451  11457     1  0.0000000  0.6024960  3
  11457  11451  11450  11458     1  0.0000000  4.9162000  2
  11457  11451  11450  11458     1  0.0000000  0.6024960  3
  11457  11451  11452  11468     1  0.0000000  4.9162000  2
  11457  11451  11452  11468     1  0.0000000  0.6024960  3
  11458  11450  11447  11459     1  0.0000000  4.9162000  2
  11458  11450  11447  11459     1  0.0000000  0.6024960  3
  11459  11447  11446  11460     1  0.0000000  0.6508444  3
  11459  11447  11446  11468     1  0.0000000  4.9162000  2
  11459  11447  11446  11468     1  0.0000000  0.6024960  3
  11466  11460  11446  11468     1  0.0000000  4.9162000  2
  11466  11460  11446  11468     1  0.0000000  0.6024960  3
  11469  11470  11473  11474     1  180.0000771  0.8368000  1
  11469  11470  11473  11474     1  180.0000771  1.0460000  2
  11469  11470  11473  11474     1  0.0000000  0.7531200  3
  11469  11470  11473  11481     1  0.0000000  0.6508444  3
  11469  11491  11475  11479     1  180.0000771  5.6484000  1
  11469  11491  11475  11479     1  180.0000771  3.5564000  2
  11469  11491  11475  11479     1  0.0000000  0.4184000  3
  11469  11491  11475  11474     1  180.0000771  0.4184000  2
  11469  11491  11475  11474     1  0.0000000  1.6024720  3
  11470  11473  11474  11475     1  180.0000771  0.8368000  1
  11470  11473  11474  11475     1  180.0000771  1.0460000  2
  11470  11473  11474  11475     1  0.0000000  0.7531200  3
  11470  11473  11474  11480     1  0.0000000  0.6508444  3
  11470  11469  11483  11489     1  0.0000000  0.6508444  3
  11470  11469  11491  11475     1  180.0000771  0.4184000  2
  11470  11469  11491  11475     1  0.0000000  1.6024720  3
  11473  11474  11475  11479     1  0.0000000  0.6508444  3
  11473  11474  11475  11491     1  0.0000000  0.6508444  3
  11473  11470  11469  11483     1  180.0000771  0.8368000  1
  11473  11470  11469  11483     1  180.0000771  1.0460000  2
  11473  11470  11469  11483     1  0.0000000  0.7531200  3
  11473  11470  11469  11491     1  0.0000000  0.6508444  3
  11474  11473  11470  11482     1  0.0000000  0.6508444  3
  11475  11491  11469  11483     1  180.0000771  0.4184000  2
  11475  11491  11469  11483     1  0.0000000  1.6024720  3
  11475  11474  11473  11481     1  0.0000000  0.6508444  3
  11479  11475  11474  11480     1  0.0000000  4.9162000  2
  11479  11475  11474  11480     1  0.0000000  0.6024960  3
  11480  11474  11475  11491     1  0.0000000  4.9162000  2
  11480  11474  11475  11491     1  0.0000000  0.6024960  3
  11480  11474  11473  11481     1  0.0000000  4.9162000  2
  11480  11474  11473  11481     1  0.0000000  0.6024960  3
  11481  11473  11470  11482     1  0.0000000  4.9162000  2
  11481  11473  11470  11482     1  0.0000000  0.6024960  3
  11482  11470  11469  11483     1  0.0000000  0.6508444  3
  11482  11470  11469  11491     1  0.0000000  4.9162000  2
  11482  11470  11469  11491     1  0.0000000  0.6024960  3
  11489  11483  11469  11491     1  0.0000000  4.9162000  2
  11489  11483  11469  11491     1  0.0000000  0.6024960  3
  11492  11493  11496  11497     1  180.0000771  0.8368000  1
  11492  11493  11496  11497     1  180.0000771  1.0460000  2
  11492  11493  11496  11497     1  0.0000000  0.7531200  3
  11492  11493  11496  11504     1  0.0000000  0.6508444  3
  11492  11514  11498  11497     1  180.0000771  0.4184000  2
  11492  11514  11498  11497     1  0.0000000  1.6024720  3
  11492  11514  11498  11502     1  180.0000771  5.6484000  1
  11492  11514  11498  11502     1  180.0000771  3.5564000  2
  11492  11514  11498  11502     1  0.0000000  0.4184000  3
  11493  11492  11506  11512     1  0.0000000  0.6508444  3
  11493  11492  11514  11498     1  180.0000771  0.4184000  2
  11493  11492  11514  11498     1  0.0000000  1.6024720  3
  11493  11496  11497  11498     1  180.0000771  0.8368000  1
  11493  11496  11497  11498     1  180.0000771  1.0460000  2
  11493  11496  11497  11498     1  0.0000000  0.7531200  3
  11493  11496  11497  11503     1  0.0000000  0.6508444  3
  11496  11493  11492  11506     1  180.0000771  0.8368000  1
  11496  11493  11492  11506     1  180.0000771  1.0460000  2
  11496  11493  11492  11506     1  0.0000000  0.7531200  3
  11496  11493  11492  11514     1  0.0000000  0.6508444  3
  11496  11497  11498  11502     1  0.0000000  0.6508444  3
  11496  11497  11498  11514     1  0.0000000  0.6508444  3
  11497  11496  11493  11505     1  0.0000000  0.6508444  3
  11498  11497  11496  11504     1  0.0000000  0.6508444  3
  11498  11514  11492  11506     1  180.0000771  0.4184000  2
  11498  11514  11492  11506     1  0.0000000  1.6024720  3
  11502  11498  11497  11503     1  0.0000000  4.9162000  2
  11502  11498  11497  11503     1  0.0000000  0.6024960  3
  11503  11497  11496  11504     1  0.0000000  4.9162000  2
  11503  11497  11496  11504     1  0.0000000  0.6024960  3
  11503  11497  11498  11514     1  0.0000000  4.9162000  2
  11503  11497  11498  11514     1  0.0000000  0.6024960  3
  11504  11496  11493  11505     1  0.0000000  4.9162000  2
  11504  11496  11493  11505     1  0.0000000  0.6024960  3
  11505  11493  11492  11506     1  0.0000000  0.6508444  3
  11505  11493  11492  11514     1  0.0000000  4.9162000  2
  11505  11493  11492  11514     1  0.0000000  0.6024960  3
  11512  11506  11492  11514     1  0.0000000  4.9162000  2
  11512  11506  11492  11514     1  0.0000000  0.6024960  3
  11515  11516  11519  11520     1  180.0000771  0.8368000  1
  11515  11516  11519  11520     1  180.0000771  1.0460000  2
  11515  11516  11519  11520     1  0.0000000  0.7531200  3
  11515  11516  11519  11527     1  0.0000000  0.6508444  3
  11515  11537  11521  11525     1  180.0000771  5.6484000  1
  11515  11537  11521  11525     1  180.0000771  3.5564000  2
  11515  11537  11521  11525     1  0.0000000  0.4184000  3
  11515  11537  11521  11520     1  180.0000771  0.4184000  2
  11515  11537  11521  11520     1  0.0000000  1.6024720  3
  11516  11519  11520  11521     1  180.0000771  0.8368000  1
  11516  11519  11520  11521     1  180.0000771  1.0460000  2
  11516  11519  11520  11521     1  0.0000000  0.7531200  3
  11516  11519  11520  11526     1  0.0000000  0.6508444  3
  11516  11515  11529  11535     1  0.0000000  0.6508444  3
  11516  11515  11537  11521     1  180.0000771  0.4184000  2
  11516  11515  11537  11521     1  0.0000000  1.6024720  3
  11519  11520  11521  11525     1  0.0000000  0.6508444  3
  11519  11520  11521  11537     1  0.0000000  0.6508444  3
  11519  11516  11515  11529     1  180.0000771  0.8368000  1
  11519  11516  11515  11529     1  180.0000771  1.0460000  2
  11519  11516  11515  11529     1  0.0000000  0.7531200  3
  11519  11516  11515  11537     1  0.0000000  0.6508444  3
  11520  11519  11516  11528     1  0.0000000  0.6508444  3
  11521  11537  11515  11529     1  180.0000771  0.4184000  2
  11521  11537  11515  11529     1  0.0000000  1.6024720  3
  11521  11520  11519  11527     1  0.0000000  0.6508444  3
  11525  11521  11520  11526     1  0.0000000  4.9162000  2
  11525  11521  11520  11526     1  0.0000000  0.6024960  3
  11526  11520  11521  11537     1  0.0000000  4.9162000  2
  11526  11520  11521  11537     1  0.0000000  0.6024960  3
  11526  11520  11519  11527     1  0.0000000  4.9162000  2
  11526  11520  11519  11527     1  0.0000000  0.6024960  3
  11527  11519  11516  11528     1  0.0000000  4.9162000  2
  11527  11519  11516  11528     1  0.0000000  0.6024960  3
  11528  11516  11515  11529     1  0.0000000  0.6508444  3
  11528  11516  11515  11537     1  0.0000000  4.9162000  2
  11528  11516  11515  11537     1  0.0000000  0.6024960  3
  11535  11529  11515  11537     1  0.0000000  4.9162000  2
  11535  11529  11515  11537     1  0.0000000  0.6024960  3
  11538  11539  11542  11543     1  180.0000771  0.8368000  1
  11538  11539  11542  11543     1  180.0000771  1.0460000  2
  11538  11539  11542  11543     1  0.0000000  0.7531200  3
  11538  11539  11542  11550     1  0.0000000  0.6508444  3
  11538  11560  11544  11543     1  180.0000771  0.4184000  2
  11538  11560  11544  11543     1  0.0000000  1.6024720  3
  11538  11560  11544  11548     1  180.0000771  5.6484000  1
  11538  11560  11544  11548     1  180.0000771  3.5564000  2
  11538  11560  11544  11548     1  0.0000000  0.4184000  3
  11539  11538  11552  11558     1  0.0000000  0.6508444  3
  11539  11538  11560  11544     1  180.0000771  0.4184000  2
  11539  11538  11560  11544     1  0.0000000  1.6024720  3
  11539  11542  11543  11544     1  180.0000771  0.8368000  1
  11539  11542  11543  11544     1  180.0000771  1.0460000  2
  11539  11542  11543  11544     1  0.0000000  0.7531200  3
  11539  11542  11543  11549     1  0.0000000  0.6508444  3
  11542  11539  11538  11552     1  180.0000771  0.8368000  1
  11542  11539  11538  11552     1  180.0000771  1.0460000  2
  11542  11539  11538  11552     1  0.0000000  0.7531200  3
  11542  11539  11538  11560     1  0.0000000  0.6508444  3
  11542  11543  11544  11548     1  0.0000000  0.6508444  3
  11542  11543  11544  11560     1  0.0000000  0.6508444  3
  11543  11542  11539  11551     1  0.0000000  0.6508444  3
  11544  11543  11542  11550     1  0.0000000  0.6508444  3
  11544  11560  11538  11552     1  180.0000771  0.4184000  2
  11544  11560  11538  11552     1  0.0000000  1.6024720  3
  11548  11544  11543  11549     1  0.0000000  4.9162000  2
  11548  11544  11543  11549     1  0.0000000  0.6024960  3
  11549  11543  11542  11550     1  0.0000000  4.9162000  2
  11549  11543  11542  11550     1  0.0000000  0.6024960  3
  11549  11543  11544  11560     1  0.0000000  4.9162000  2
  11549  11543  11544  11560     1  0.0000000  0.6024960  3
  11550  11542  11539  11551     1  0.0000000  4.9162000  2
  11550  11542  11539  11551     1  0.0000000  0.6024960  3
  11551  11539  11538  11552     1  0.0000000  0.6508444  3
  11551  11539  11538  11560     1  0.0000000  4.9162000  2
  11551  11539  11538  11560     1  0.0000000  0.6024960  3
  11558  11552  11538  11560     1  0.0000000  4.9162000  2
  11558  11552  11538  11560     1  0.0000000  0.6024960  3
  11561  11562  11565  11566     1  180.0000771  0.8368000  1
  11561  11562  11565  11566     1  180.0000771  1.0460000  2
  11561  11562  11565  11566     1  0.0000000  0.7531200  3
  11561  11562  11565  11573     1  0.0000000  0.6508444  3
  11561  11583  11567  11571     1  180.0000771  5.6484000  1
  11561  11583  11567  11571     1  180.0000771  3.5564000  2
  11561  11583  11567  11571     1  0.0000000  0.4184000  3
  11561  11583  11567  11566     1  180.0000771  0.4184000  2
  11561  11583  11567  11566     1  0.0000000  1.6024720  3
  11562  11565  11566  11567     1  180.0000771  0.8368000  1
  11562  11565  11566  11567     1  180.0000771  1.0460000  2
  11562  11565  11566  11567     1  0.0000000  0.7531200  3
  11562  11565  11566  11572     1  0.0000000  0.6508444  3
  11562  11561  11575  11581     1  0.0000000  0.6508444  3
  11562  11561  11583  11567     1  180.0000771  0.4184000  2
  11562  11561  11583  11567     1  0.0000000  1.6024720  3
  11565  11566  11567  11571     1  0.0000000  0.6508444  3
  11565  11566  11567  11583     1  0.0000000  0.6508444  3
  11565  11562  11561  11575     1  180.0000771  0.8368000  1
  11565  11562  11561  11575     1  180.0000771  1.0460000  2
  11565  11562  11561  11575     1  0.0000000  0.7531200  3
  11565  11562  11561  11583     1  0.0000000  0.6508444  3
  11566  11565  11562  11574     1  0.0000000  0.6508444  3
  11567  11583  11561  11575     1  180.0000771  0.4184000  2
  11567  11583  11561  11575     1  0.0000000  1.6024720  3
  11567  11566  11565  11573     1  0.0000000  0.6508444  3
  11571  11567  11566  11572     1  0.0000000  4.9162000  2
  11571  11567  11566  11572     1  0.0000000  0.6024960  3
  11572  11566  11567  11583     1  0.0000000  4.9162000  2
  11572  11566  11567  11583     1  0.0000000  0.6024960  3
  11572  11566  11565  11573     1  0.0000000  4.9162000  2
  11572  11566  11565  11573     1  0.0000000  0.6024960  3
  11573  11565  11562  11574     1  0.0000000  4.9162000  2
  11573  11565  11562  11574     1  0.0000000  0.6024960  3
  11574  11562  11561  11575     1  0.0000000  0.6508444  3
  11574  11562  11561  11583     1  0.0000000  4.9162000  2
  11574  11562  11561  11583     1  0.0000000  0.6024960  3
  11581  11575  11561  11583     1  0.0000000  4.9162000  2
  11581  11575  11561  11583     1  0.0000000  0.6024960  3
  11584  11585  11588  11589     1  180.0000771  0.8368000  1
  11584  11585  11588  11589     1  180.0000771  1.0460000  2
  11584  11585  11588  11589     1  0.0000000  0.7531200  3
  11584  11585  11588  11596     1  0.0000000  0.6508444  3
  11584  11606  11590  11589     1  180.0000771  0.4184000  2
  11584  11606  11590  11589     1  0.0000000  1.6024720  3
  11584  11606  11590  11594     1  180.0000771  5.6484000  1
  11584  11606  11590  11594     1  180.0000771  3.5564000  2
  11584  11606  11590  11594     1  0.0000000  0.4184000  3
  11585  11584  11598  11604     1  0.0000000  0.6508444  3
  11585  11584  11606  11590     1  180.0000771  0.4184000  2
  11585  11584  11606  11590     1  0.0000000  1.6024720  3
  11585  11588  11589  11590     1  180.0000771  0.8368000  1
  11585  11588  11589  11590     1  180.0000771  1.0460000  2
  11585  11588  11589  11590     1  0.0000000  0.7531200  3
  11585  11588  11589  11595     1  0.0000000  0.6508444  3
  11588  11585  11584  11598     1  180.0000771  0.8368000  1
  11588  11585  11584  11598     1  180.0000771  1.0460000  2
  11588  11585  11584  11598     1  0.0000000  0.7531200  3
  11588  11585  11584  11606     1  0.0000000  0.6508444  3
  11588  11589  11590  11594     1  0.0000000  0.6508444  3
  11588  11589  11590  11606     1  0.0000000  0.6508444  3
  11589  11588  11585  11597     1  0.0000000  0.6508444  3
  11590  11589  11588  11596     1  0.0000000  0.6508444  3
  11590  11606  11584  11598     1  180.0000771  0.4184000  2
  11590  11606  11584  11598     1  0.0000000  1.6024720  3
  11594  11590  11589  11595     1  0.0000000  4.9162000  2
  11594  11590  11589  11595     1  0.0000000  0.6024960  3
  11595  11589  11588  11596     1  0.0000000  4.9162000  2
  11595  11589  11588  11596     1  0.0000000  0.6024960  3
  11595  11589  11590  11606     1  0.0000000  4.9162000  2
  11595  11589  11590  11606     1  0.0000000  0.6024960  3
  11596  11588  11585  11597     1  0.0000000  4.9162000  2
  11596  11588  11585  11597     1  0.0000000  0.6024960  3
  11597  11585  11584  11598     1  0.0000000  0.6508444  3
  11597  11585  11584  11606     1  0.0000000  4.9162000  2
  11597  11585  11584  11606     1  0.0000000  0.6024960  3
  11604  11598  11584  11606     1  0.0000000  4.9162000  2
  11604  11598  11584  11606     1  0.0000000  0.6024960  3
  11607  11608  11611  11612     1  180.0000771  0.8368000  1
  11607  11608  11611  11612     1  180.0000771  1.0460000  2
  11607  11608  11611  11612     1  0.0000000  0.7531200  3
  11607  11608  11611  11619     1  0.0000000  0.6508444  3
  11607  11629  11613  11617     1  180.0000771  5.6484000  1
  11607  11629  11613  11617     1  180.0000771  3.5564000  2
  11607  11629  11613  11617     1  0.0000000  0.4184000  3
  11607  11629  11613  11612     1  180.0000771  0.4184000  2
  11607  11629  11613  11612     1  0.0000000  1.6024720  3
  11608  11611  11612  11613     1  180.0000771  0.8368000  1
  11608  11611  11612  11613     1  180.0000771  1.0460000  2
  11608  11611  11612  11613     1  0.0000000  0.7531200  3
  11608  11611  11612  11618     1  0.0000000  0.6508444  3
  11608  11607  11621  11627     1  0.0000000  0.6508444  3
  11608  11607  11629  11613     1  180.0000771  0.4184000  2
  11608  11607  11629  11613     1  0.0000000  1.6024720  3
  11611  11612  11613  11617     1  0.0000000  0.6508444  3
  11611  11612  11613  11629     1  0.0000000  0.6508444  3
  11611  11608  11607  11621     1  180.0000771  0.8368000  1
  11611  11608  11607  11621     1  180.0000771  1.0460000  2
  11611  11608  11607  11621     1  0.0000000  0.7531200  3
  11611  11608  11607  11629     1  0.0000000  0.6508444  3
  11612  11611  11608  11620     1  0.0000000  0.6508444  3
  11613  11629  11607  11621     1  180.0000771  0.4184000  2
  11613  11629  11607  11621     1  0.0000000  1.6024720  3
  11613  11612  11611  11619     1  0.0000000  0.6508444  3
  11617  11613  11612  11618     1  0.0000000  4.9162000  2
  11617  11613  11612  11618     1  0.0000000  0.6024960  3
  11618  11612  11613  11629     1  0.0000000  4.9162000  2
  11618  11612  11613  11629     1  0.0000000  0.6024960  3
  11618  11612  11611  11619     1  0.0000000  4.9162000  2
  11618  11612  11611  11619     1  0.0000000  0.6024960  3
  11619  11611  11608  11620     1  0.0000000  4.9162000  2
  11619  11611  11608  11620     1  0.0000000  0.6024960  3
  11620  11608  11607  11621     1  0.0000000  0.6508444  3
  11620  11608  11607  11629     1  0.0000000  4.9162000  2
  11620  11608  11607  11629     1  0.0000000  0.6024960  3
  11627  11621  11607  11629     1  0.0000000  4.9162000  2
  11627  11621  11607  11629     1  0.0000000  0.6024960  3
  11630  11631  11634  11635     1  180.0000771  0.8368000  1
  11630  11631  11634  11635     1  180.0000771  1.0460000  2
  11630  11631  11634  11635     1  0.0000000  0.7531200  3
  11630  11631  11634  11642     1  0.0000000  0.6508444  3
  11630  11652  11636  11635     1  180.0000771  0.4184000  2
  11630  11652  11636  11635     1  0.0000000  1.6024720  3
  11630  11652  11636  11640     1  180.0000771  5.6484000  1
  11630  11652  11636  11640     1  180.0000771  3.5564000  2
  11630  11652  11636  11640     1  0.0000000  0.4184000  3
  11631  11630  11644  11650     1  0.0000000  0.6508444  3
  11631  11630  11652  11636     1  180.0000771  0.4184000  2
  11631  11630  11652  11636     1  0.0000000  1.6024720  3
  11631  11634  11635  11636     1  180.0000771  0.8368000  1
  11631  11634  11635  11636     1  180.0000771  1.0460000  2
  11631  11634  11635  11636     1  0.0000000  0.7531200  3
  11631  11634  11635  11641     1  0.0000000  0.6508444  3
  11634  11631  11630  11644     1  180.0000771  0.8368000  1
  11634  11631  11630  11644     1  180.0000771  1.0460000  2
  11634  11631  11630  11644     1  0.0000000  0.7531200  3
  11634  11631  11630  11652     1  0.0000000  0.6508444  3
  11634  11635  11636  11640     1  0.0000000  0.6508444  3
  11634  11635  11636  11652     1  0.0000000  0.6508444  3
  11635  11634  11631  11643     1  0.0000000  0.6508444  3
  11636  11635  11634  11642     1  0.0000000  0.6508444  3
  11636  11652  11630  11644     1  180.0000771  0.4184000  2
  11636  11652  11630  11644     1  0.0000000  1.6024720  3
  11640  11636  11635  11641     1  0.0000000  4.9162000  2
  11640  11636  11635  11641     1  0.0000000  0.6024960  3
  11641  11635  11634  11642     1  0.0000000  4.9162000  2
  11641  11635  11634  11642     1  0.0000000  0.6024960  3
  11641  11635  11636  11652     1  0.0000000  4.9162000  2
  11641  11635  11636  11652     1  0.0000000  0.6024960  3
  11642  11634  11631  11643     1  0.0000000  4.9162000  2
  11642  11634  11631  11643     1  0.0000000  0.6024960  3
  11643  11631  11630  11644     1  0.0000000  0.6508444  3
  11643  11631  11630  11652     1  0.0000000  4.9162000  2
  11643  11631  11630  11652     1  0.0000000  0.6024960  3
  11650  11644  11630  11652     1  0.0000000  4.9162000  2
  11650  11644  11630  11652     1  0.0000000  0.6024960  3
  11653  11654  11657  11658     1  180.0000771  0.8368000  1
  11653  11654  11657  11658     1  180.0000771  1.0460000  2
  11653  11654  11657  11658     1  0.0000000  0.7531200  3
  11653  11654  11657  11665     1  0.0000000  0.6508444  3
  11653  11675  11659  11663     1  180.0000771  5.6484000  1
  11653  11675  11659  11663     1  180.0000771  3.5564000  2
  11653  11675  11659  11663     1  0.0000000  0.4184000  3
  11653  11675  11659  11658     1  180.0000771  0.4184000  2
  11653  11675  11659  11658     1  0.0000000  1.6024720  3
  11654  11657  11658  11659     1  180.0000771  0.8368000  1
  11654  11657  11658  11659     1  180.0000771  1.0460000  2
  11654  11657  11658  11659     1  0.0000000  0.7531200  3
  11654  11657  11658  11664     1  0.0000000  0.6508444  3
  11654  11653  11667  11673     1  0.0000000  0.6508444  3
  11654  11653  11675  11659     1  180.0000771  0.4184000  2
  11654  11653  11675  11659     1  0.0000000  1.6024720  3
  11657  11658  11659  11663     1  0.0000000  0.6508444  3
  11657  11658  11659  11675     1  0.0000000  0.6508444  3
  11657  11654  11653  11667     1  180.0000771  0.8368000  1
  11657  11654  11653  11667     1  180.0000771  1.0460000  2
  11657  11654  11653  11667     1  0.0000000  0.7531200  3
  11657  11654  11653  11675     1  0.0000000  0.6508444  3
  11658  11657  11654  11666     1  0.0000000  0.6508444  3
  11659  11675  11653  11667     1  180.0000771  0.4184000  2
  11659  11675  11653  11667     1  0.0000000  1.6024720  3
  11659  11658  11657  11665     1  0.0000000  0.6508444  3
  11663  11659  11658  11664     1  0.0000000  4.9162000  2
  11663  11659  11658  11664     1  0.0000000  0.6024960  3
  11664  11658  11659  11675     1  0.0000000  4.9162000  2
  11664  11658  11659  11675     1  0.0000000  0.6024960  3
  11664  11658  11657  11665     1  0.0000000  4.9162000  2
  11664  11658  11657  11665     1  0.0000000  0.6024960  3
  11665  11657  11654  11666     1  0.0000000  4.9162000  2
  11665  11657  11654  11666     1  0.0000000  0.6024960  3
  11666  11654  11653  11667     1  0.0000000  0.6508444  3
  11666  11654  11653  11675     1  0.0000000  4.9162000  2
  11666  11654  11653  11675     1  0.0000000  0.6024960  3
  11673  11667  11653  11675     1  0.0000000  4.9162000  2
  11673  11667  11653  11675     1  0.0000000  0.6024960  3
  11676  11677  11680  11681     1  180.0000771  0.8368000  1
  11676  11677  11680  11681     1  180.0000771  1.0460000  2
  11676  11677  11680  11681     1  0.0000000  0.7531200  3
  11676  11677  11680  11688     1  0.0000000  0.6508444  3
  11676  11698  11682  11681     1  180.0000771  0.4184000  2
  11676  11698  11682  11681     1  0.0000000  1.6024720  3
  11676  11698  11682  11686     1  180.0000771  5.6484000  1
  11676  11698  11682  11686     1  180.0000771  3.5564000  2
  11676  11698  11682  11686     1  0.0000000  0.4184000  3
  11677  11676  11690  11696     1  0.0000000  0.6508444  3
  11677  11676  11698  11682     1  180.0000771  0.4184000  2
  11677  11676  11698  11682     1  0.0000000  1.6024720  3
  11677  11680  11681  11682     1  180.0000771  0.8368000  1
  11677  11680  11681  11682     1  180.0000771  1.0460000  2
  11677  11680  11681  11682     1  0.0000000  0.7531200  3
  11677  11680  11681  11687     1  0.0000000  0.6508444  3
  11680  11677  11676  11690     1  180.0000771  0.8368000  1
  11680  11677  11676  11690     1  180.0000771  1.0460000  2
  11680  11677  11676  11690     1  0.0000000  0.7531200  3
  11680  11677  11676  11698     1  0.0000000  0.6508444  3
  11680  11681  11682  11686     1  0.0000000  0.6508444  3
  11680  11681  11682  11698     1  0.0000000  0.6508444  3
  11681  11680  11677  11689     1  0.0000000  0.6508444  3
  11682  11681  11680  11688     1  0.0000000  0.6508444  3
  11682  11698  11676  11690     1  180.0000771  0.4184000  2
  11682  11698  11676  11690     1  0.0000000  1.6024720  3
  11686  11682  11681  11687     1  0.0000000  4.9162000  2
  11686  11682  11681  11687     1  0.0000000  0.6024960  3
  11687  11681  11680  11688     1  0.0000000  4.9162000  2
  11687  11681  11680  11688     1  0.0000000  0.6024960  3
  11687  11681  11682  11698     1  0.0000000  4.9162000  2
  11687  11681  11682  11698     1  0.0000000  0.6024960  3
  11688  11680  11677  11689     1  0.0000000  4.9162000  2
  11688  11680  11677  11689     1  0.0000000  0.6024960  3
  11689  11677  11676  11690     1  0.0000000  0.6508444  3
  11689  11677  11676  11698     1  0.0000000  4.9162000  2
  11689  11677  11676  11698     1  0.0000000  0.6024960  3
  11696  11690  11676  11698     1  0.0000000  4.9162000  2
  11696  11690  11676  11698     1  0.0000000  0.6024960  3
  11699  11700  11703  11704     1  180.0000771  0.8368000  1
  11699  11700  11703  11704     1  180.0000771  1.0460000  2
  11699  11700  11703  11704     1  0.0000000  0.7531200  3
  11699  11700  11703  11711     1  0.0000000  0.6508444  3
  11699  11721  11705  11709     1  180.0000771  5.6484000  1
  11699  11721  11705  11709     1  180.0000771  3.5564000  2
  11699  11721  11705  11709     1  0.0000000  0.4184000  3
  11699  11721  11705  11704     1  180.0000771  0.4184000  2
  11699  11721  11705  11704     1  0.0000000  1.6024720  3
  11700  11703  11704  11705     1  180.0000771  0.8368000  1
  11700  11703  11704  11705     1  180.0000771  1.0460000  2
  11700  11703  11704  11705     1  0.0000000  0.7531200  3
  11700  11703  11704  11710     1  0.0000000  0.6508444  3
  11700  11699  11713  11719     1  0.0000000  0.6508444  3
  11700  11699  11721  11705     1  180.0000771  0.4184000  2
  11700  11699  11721  11705     1  0.0000000  1.6024720  3
  11703  11704  11705  11709     1  0.0000000  0.6508444  3
  11703  11704  11705  11721     1  0.0000000  0.6508444  3
  11703  11700  11699  11713     1  180.0000771  0.8368000  1
  11703  11700  11699  11713     1  180.0000771  1.0460000  2
  11703  11700  11699  11713     1  0.0000000  0.7531200  3
  11703  11700  11699  11721     1  0.0000000  0.6508444  3
  11704  11703  11700  11712     1  0.0000000  0.6508444  3
  11705  11721  11699  11713     1  180.0000771  0.4184000  2
  11705  11721  11699  11713     1  0.0000000  1.6024720  3
  11705  11704  11703  11711     1  0.0000000  0.6508444  3
  11709  11705  11704  11710     1  0.0000000  4.9162000  2
  11709  11705  11704  11710     1  0.0000000  0.6024960  3
  11710  11704  11705  11721     1  0.0000000  4.9162000  2
  11710  11704  11705  11721     1  0.0000000  0.6024960  3
  11710  11704  11703  11711     1  0.0000000  4.9162000  2
  11710  11704  11703  11711     1  0.0000000  0.6024960  3
  11711  11703  11700  11712     1  0.0000000  4.9162000  2
  11711  11703  11700  11712     1  0.0000000  0.6024960  3
  11712  11700  11699  11713     1  0.0000000  0.6508444  3
  11712  11700  11699  11721     1  0.0000000  4.9162000  2
  11712  11700  11699  11721     1  0.0000000  0.6024960  3
  11719  11713  11699  11721     1  0.0000000  4.9162000  2
  11719  11713  11699  11721     1  0.0000000  0.6024960  3
  11722  11723  11726  11727     1  180.0000771  0.8368000  1
  11722  11723  11726  11727     1  180.0000771  1.0460000  2
  11722  11723  11726  11727     1  0.0000000  0.7531200  3
  11722  11723  11726  11734     1  0.0000000  0.6508444  3
  11722  11744  11728  11727     1  180.0000771  0.4184000  2
  11722  11744  11728  11727     1  0.0000000  1.6024720  3
  11722  11744  11728  11732     1  180.0000771  5.6484000  1
  11722  11744  11728  11732     1  180.0000771  3.5564000  2
  11722  11744  11728  11732     1  0.0000000  0.4184000  3
  11723  11722  11736  11742     1  0.0000000  0.6508444  3
  11723  11722  11744  11728     1  180.0000771  0.4184000  2
  11723  11722  11744  11728     1  0.0000000  1.6024720  3
  11723  11726  11727  11728     1  180.0000771  0.8368000  1
  11723  11726  11727  11728     1  180.0000771  1.0460000  2
  11723  11726  11727  11728     1  0.0000000  0.7531200  3
  11723  11726  11727  11733     1  0.0000000  0.6508444  3
  11726  11723  11722  11736     1  180.0000771  0.8368000  1
  11726  11723  11722  11736     1  180.0000771  1.0460000  2
  11726  11723  11722  11736     1  0.0000000  0.7531200  3
  11726  11723  11722  11744     1  0.0000000  0.6508444  3
  11726  11727  11728  11732     1  0.0000000  0.6508444  3
  11726  11727  11728  11744     1  0.0000000  0.6508444  3
  11727  11726  11723  11735     1  0.0000000  0.6508444  3
  11728  11727  11726  11734     1  0.0000000  0.6508444  3
  11728  11744  11722  11736     1  180.0000771  0.4184000  2
  11728  11744  11722  11736     1  0.0000000  1.6024720  3
  11732  11728  11727  11733     1  0.0000000  4.9162000  2
  11732  11728  11727  11733     1  0.0000000  0.6024960  3
  11733  11727  11726  11734     1  0.0000000  4.9162000  2
  11733  11727  11726  11734     1  0.0000000  0.6024960  3
  11733  11727  11728  11744     1  0.0000000  4.9162000  2
  11733  11727  11728  11744     1  0.0000000  0.6024960  3
  11734  11726  11723  11735     1  0.0000000  4.9162000  2
  11734  11726  11723  11735     1  0.0000000  0.6024960  3
  11735  11723  11722  11736     1  0.0000000  0.6508444  3
  11735  11723  11722  11744     1  0.0000000  4.9162000  2
  11735  11723  11722  11744     1  0.0000000  0.6024960  3
  11742  11736  11722  11744     1  0.0000000  4.9162000  2
  11742  11736  11722  11744     1  0.0000000  0.6024960  3
  11745  11746  11749  11750     1  180.0000771  0.8368000  1
  11745  11746  11749  11750     1  180.0000771  1.0460000  2
  11745  11746  11749  11750     1  0.0000000  0.7531200  3
  11745  11746  11749  11757     1  0.0000000  0.6508444  3
  11745  11767  11751  11755     1  180.0000771  5.6484000  1
  11745  11767  11751  11755     1  180.0000771  3.5564000  2
  11745  11767  11751  11755     1  0.0000000  0.4184000  3
  11745  11767  11751  11750     1  180.0000771  0.4184000  2
  11745  11767  11751  11750     1  0.0000000  1.6024720  3
  11746  11749  11750  11751     1  180.0000771  0.8368000  1
  11746  11749  11750  11751     1  180.0000771  1.0460000  2
  11746  11749  11750  11751     1  0.0000000  0.7531200  3
  11746  11749  11750  11756     1  0.0000000  0.6508444  3
  11746  11745  11759  11765     1  0.0000000  0.6508444  3
  11746  11745  11767  11751     1  180.0000771  0.4184000  2
  11746  11745  11767  11751     1  0.0000000  1.6024720  3
  11749  11750  11751  11755     1  0.0000000  0.6508444  3
  11749  11750  11751  11767     1  0.0000000  0.6508444  3
  11749  11746  11745  11759     1  180.0000771  0.8368000  1
  11749  11746  11745  11759     1  180.0000771  1.0460000  2
  11749  11746  11745  11759     1  0.0000000  0.7531200  3
  11749  11746  11745  11767     1  0.0000000  0.6508444  3
  11750  11749  11746  11758     1  0.0000000  0.6508444  3
  11751  11767  11745  11759     1  180.0000771  0.4184000  2
  11751  11767  11745  11759     1  0.0000000  1.6024720  3
  11751  11750  11749  11757     1  0.0000000  0.6508444  3
  11755  11751  11750  11756     1  0.0000000  4.9162000  2
  11755  11751  11750  11756     1  0.0000000  0.6024960  3
  11756  11750  11751  11767     1  0.0000000  4.9162000  2
  11756  11750  11751  11767     1  0.0000000  0.6024960  3
  11756  11750  11749  11757     1  0.0000000  4.9162000  2
  11756  11750  11749  11757     1  0.0000000  0.6024960  3
  11757  11749  11746  11758     1  0.0000000  4.9162000  2
  11757  11749  11746  11758     1  0.0000000  0.6024960  3
  11758  11746  11745  11759     1  0.0000000  0.6508444  3
  11758  11746  11745  11767     1  0.0000000  4.9162000  2
  11758  11746  11745  11767     1  0.0000000  0.6024960  3
  11765  11759  11745  11767     1  0.0000000  4.9162000  2
  11765  11759  11745  11767     1  0.0000000  0.6024960  3
  11768  11769  11772  11773     1  180.0000771  0.8368000  1
  11768  11769  11772  11773     1  180.0000771  1.0460000  2
  11768  11769  11772  11773     1  0.0000000  0.7531200  3
  11768  11769  11772  11780     1  0.0000000  0.6508444  3
  11768  11790  11774  11773     1  180.0000771  0.4184000  2
  11768  11790  11774  11773     1  0.0000000  1.6024720  3
  11768  11790  11774  11778     1  180.0000771  5.6484000  1
  11768  11790  11774  11778     1  180.0000771  3.5564000  2
  11768  11790  11774  11778     1  0.0000000  0.4184000  3
  11769  11768  11782  11788     1  0.0000000  0.6508444  3
  11769  11768  11790  11774     1  180.0000771  0.4184000  2
  11769  11768  11790  11774     1  0.0000000  1.6024720  3
  11769  11772  11773  11774     1  180.0000771  0.8368000  1
  11769  11772  11773  11774     1  180.0000771  1.0460000  2
  11769  11772  11773  11774     1  0.0000000  0.7531200  3
  11769  11772  11773  11779     1  0.0000000  0.6508444  3
  11772  11769  11768  11782     1  180.0000771  0.8368000  1
  11772  11769  11768  11782     1  180.0000771  1.0460000  2
  11772  11769  11768  11782     1  0.0000000  0.7531200  3
  11772  11769  11768  11790     1  0.0000000  0.6508444  3
  11772  11773  11774  11778     1  0.0000000  0.6508444  3
  11772  11773  11774  11790     1  0.0000000  0.6508444  3
  11773  11772  11769  11781     1  0.0000000  0.6508444  3
  11774  11773  11772  11780     1  0.0000000  0.6508444  3
  11774  11790  11768  11782     1  180.0000771  0.4184000  2
  11774  11790  11768  11782     1  0.0000000  1.6024720  3
  11778  11774  11773  11779     1  0.0000000  4.9162000  2
  11778  11774  11773  11779     1  0.0000000  0.6024960  3
  11779  11773  11772  11780     1  0.0000000  4.9162000  2
  11779  11773  11772  11780     1  0.0000000  0.6024960  3
  11779  11773  11774  11790     1  0.0000000  4.9162000  2
  11779  11773  11774  11790     1  0.0000000  0.6024960  3
  11780  11772  11769  11781     1  0.0000000  4.9162000  2
  11780  11772  11769  11781     1  0.0000000  0.6024960  3
  11781  11769  11768  11782     1  0.0000000  0.6508444  3
  11781  11769  11768  11790     1  0.0000000  4.9162000  2
  11781  11769  11768  11790     1  0.0000000  0.6024960  3
  11788  11782  11768  11790     1  0.0000000  4.9162000  2
  11788  11782  11768  11790     1  0.0000000  0.6024960  3
  11791  11792  11795  11796     1  180.0000771  0.8368000  1
  11791  11792  11795  11796     1  180.0000771  1.0460000  2
  11791  11792  11795  11796     1  0.0000000  0.7531200  3
  11791  11792  11795  11803     1  0.0000000  0.6508444  3
  11791  11813  11797  11801     1  180.0000771  5.6484000  1
  11791  11813  11797  11801     1  180.0000771  3.5564000  2
  11791  11813  11797  11801     1  0.0000000  0.4184000  3
  11791  11813  11797  11796     1  180.0000771  0.4184000  2
  11791  11813  11797  11796     1  0.0000000  1.6024720  3
  11792  11795  11796  11797     1  180.0000771  0.8368000  1
  11792  11795  11796  11797     1  180.0000771  1.0460000  2
  11792  11795  11796  11797     1  0.0000000  0.7531200  3
  11792  11795  11796  11802     1  0.0000000  0.6508444  3
  11792  11791  11805  11811     1  0.0000000  0.6508444  3
  11792  11791  11813  11797     1  180.0000771  0.4184000  2
  11792  11791  11813  11797     1  0.0000000  1.6024720  3
  11795  11796  11797  11801     1  0.0000000  0.6508444  3
  11795  11796  11797  11813     1  0.0000000  0.6508444  3
  11795  11792  11791  11805     1  180.0000771  0.8368000  1
  11795  11792  11791  11805     1  180.0000771  1.0460000  2
  11795  11792  11791  11805     1  0.0000000  0.7531200  3
  11795  11792  11791  11813     1  0.0000000  0.6508444  3
  11796  11795  11792  11804     1  0.0000000  0.6508444  3
  11797  11813  11791  11805     1  180.0000771  0.4184000  2
  11797  11813  11791  11805     1  0.0000000  1.6024720  3
  11797  11796  11795  11803     1  0.0000000  0.6508444  3
  11801  11797  11796  11802     1  0.0000000  4.9162000  2
  11801  11797  11796  11802     1  0.0000000  0.6024960  3
  11802  11796  11797  11813     1  0.0000000  4.9162000  2
  11802  11796  11797  11813     1  0.0000000  0.6024960  3
  11802  11796  11795  11803     1  0.0000000  4.9162000  2
  11802  11796  11795  11803     1  0.0000000  0.6024960  3
  11803  11795  11792  11804     1  0.0000000  4.9162000  2
  11803  11795  11792  11804     1  0.0000000  0.6024960  3
  11804  11792  11791  11805     1  0.0000000  0.6508444  3
  11804  11792  11791  11813     1  0.0000000  4.9162000  2
  11804  11792  11791  11813     1  0.0000000  0.6024960  3
  11811  11805  11791  11813     1  0.0000000  4.9162000  2
  11811  11805  11791  11813     1  0.0000000  0.6024960  3
  11814  11815  11818  11819     1  180.0000771  0.8368000  1
  11814  11815  11818  11819     1  180.0000771  1.0460000  2
  11814  11815  11818  11819     1  0.0000000  0.7531200  3
  11814  11815  11818  11826     1  0.0000000  0.6508444  3
  11814  11836  11820  11819     1  180.0000771  0.4184000  2
  11814  11836  11820  11819     1  0.0000000  1.6024720  3
  11814  11836  11820  11824     1  180.0000771  5.6484000  1
  11814  11836  11820  11824     1  180.0000771  3.5564000  2
  11814  11836  11820  11824     1  0.0000000  0.4184000  3
  11815  11814  11828  11834     1  0.0000000  0.6508444  3
  11815  11814  11836  11820     1  180.0000771  0.4184000  2
  11815  11814  11836  11820     1  0.0000000  1.6024720  3
  11815  11818  11819  11820     1  180.0000771  0.8368000  1
  11815  11818  11819  11820     1  180.0000771  1.0460000  2
  11815  11818  11819  11820     1  0.0000000  0.7531200  3
  11815  11818  11819  11825     1  0.0000000  0.6508444  3
  11818  11815  11814  11828     1  180.0000771  0.8368000  1
  11818  11815  11814  11828     1  180.0000771  1.0460000  2
  11818  11815  11814  11828     1  0.0000000  0.7531200  3
  11818  11815  11814  11836     1  0.0000000  0.6508444  3
  11818  11819  11820  11824     1  0.0000000  0.6508444  3
  11818  11819  11820  11836     1  0.0000000  0.6508444  3
  11819  11818  11815  11827     1  0.0000000  0.6508444  3
  11820  11819  11818  11826     1  0.0000000  0.6508444  3
  11820  11836  11814  11828     1  180.0000771  0.4184000  2
  11820  11836  11814  11828     1  0.0000000  1.6024720  3
  11824  11820  11819  11825     1  0.0000000  4.9162000  2
  11824  11820  11819  11825     1  0.0000000  0.6024960  3
  11825  11819  11818  11826     1  0.0000000  4.9162000  2
  11825  11819  11818  11826     1  0.0000000  0.6024960  3
  11825  11819  11820  11836     1  0.0000000  4.9162000  2
  11825  11819  11820  11836     1  0.0000000  0.6024960  3
  11826  11818  11815  11827     1  0.0000000  4.9162000  2
  11826  11818  11815  11827     1  0.0000000  0.6024960  3
  11827  11815  11814  11828     1  0.0000000  0.6508444  3
  11827  11815  11814  11836     1  0.0000000  4.9162000  2
  11827  11815  11814  11836     1  0.0000000  0.6024960  3
  11834  11828  11814  11836     1  0.0000000  4.9162000  2
  11834  11828  11814  11836     1  0.0000000  0.6024960  3
  11837  11838  11841  11842     1  180.0000771  0.8368000  1
  11837  11838  11841  11842     1  180.0000771  1.0460000  2
  11837  11838  11841  11842     1  0.0000000  0.7531200  3
  11837  11838  11841  11849     1  0.0000000  0.6508444  3
  11837  11859  11843  11847     1  180.0000771  5.6484000  1
  11837  11859  11843  11847     1  180.0000771  3.5564000  2
  11837  11859  11843  11847     1  0.0000000  0.4184000  3
  11837  11859  11843  11842     1  180.0000771  0.4184000  2
  11837  11859  11843  11842     1  0.0000000  1.6024720  3
  11838  11841  11842  11843     1  180.0000771  0.8368000  1
  11838  11841  11842  11843     1  180.0000771  1.0460000  2
  11838  11841  11842  11843     1  0.0000000  0.7531200  3
  11838  11841  11842  11848     1  0.0000000  0.6508444  3
  11838  11837  11851  11857     1  0.0000000  0.6508444  3
  11838  11837  11859  11843     1  180.0000771  0.4184000  2
  11838  11837  11859  11843     1  0.0000000  1.6024720  3
  11841  11842  11843  11847     1  0.0000000  0.6508444  3
  11841  11842  11843  11859     1  0.0000000  0.6508444  3
  11841  11838  11837  11851     1  180.0000771  0.8368000  1
  11841  11838  11837  11851     1  180.0000771  1.0460000  2
  11841  11838  11837  11851     1  0.0000000  0.7531200  3
  11841  11838  11837  11859     1  0.0000000  0.6508444  3
  11842  11841  11838  11850     1  0.0000000  0.6508444  3
  11843  11859  11837  11851     1  180.0000771  0.4184000  2
  11843  11859  11837  11851     1  0.0000000  1.6024720  3
  11843  11842  11841  11849     1  0.0000000  0.6508444  3
  11847  11843  11842  11848     1  0.0000000  4.9162000  2
  11847  11843  11842  11848     1  0.0000000  0.6024960  3
  11848  11842  11843  11859     1  0.0000000  4.9162000  2
  11848  11842  11843  11859     1  0.0000000  0.6024960  3
  11848  11842  11841  11849     1  0.0000000  4.9162000  2
  11848  11842  11841  11849     1  0.0000000  0.6024960  3
  11849  11841  11838  11850     1  0.0000000  4.9162000  2
  11849  11841  11838  11850     1  0.0000000  0.6024960  3
  11850  11838  11837  11851     1  0.0000000  0.6508444  3
  11850  11838  11837  11859     1  0.0000000  4.9162000  2
  11850  11838  11837  11859     1  0.0000000  0.6024960  3
  11857  11851  11837  11859     1  0.0000000  4.9162000  2
  11857  11851  11837  11859     1  0.0000000  0.6024960  3
  11860  11861  11864  11865     1  180.0000771  0.8368000  1
  11860  11861  11864  11865     1  180.0000771  1.0460000  2
  11860  11861  11864  11865     1  0.0000000  0.7531200  3
  11860  11861  11864  11872     1  0.0000000  0.6508444  3
  11860  11882  11866  11865     1  180.0000771  0.4184000  2
  11860  11882  11866  11865     1  0.0000000  1.6024720  3
  11860  11882  11866  11870     1  180.0000771  5.6484000  1
  11860  11882  11866  11870     1  180.0000771  3.5564000  2
  11860  11882  11866  11870     1  0.0000000  0.4184000  3
  11861  11860  11874  11880     1  0.0000000  0.6508444  3
  11861  11860  11882  11866     1  180.0000771  0.4184000  2
  11861  11860  11882  11866     1  0.0000000  1.6024720  3
  11861  11864  11865  11866     1  180.0000771  0.8368000  1
  11861  11864  11865  11866     1  180.0000771  1.0460000  2
  11861  11864  11865  11866     1  0.0000000  0.7531200  3
  11861  11864  11865  11871     1  0.0000000  0.6508444  3
  11864  11861  11860  11874     1  180.0000771  0.8368000  1
  11864  11861  11860  11874     1  180.0000771  1.0460000  2
  11864  11861  11860  11874     1  0.0000000  0.7531200  3
  11864  11861  11860  11882     1  0.0000000  0.6508444  3
  11864  11865  11866  11870     1  0.0000000  0.6508444  3
  11864  11865  11866  11882     1  0.0000000  0.6508444  3
  11865  11864  11861  11873     1  0.0000000  0.6508444  3
  11866  11865  11864  11872     1  0.0000000  0.6508444  3
  11866  11882  11860  11874     1  180.0000771  0.4184000  2
  11866  11882  11860  11874     1  0.0000000  1.6024720  3
  11870  11866  11865  11871     1  0.0000000  4.9162000  2
  11870  11866  11865  11871     1  0.0000000  0.6024960  3
  11871  11865  11864  11872     1  0.0000000  4.9162000  2
  11871  11865  11864  11872     1  0.0000000  0.6024960  3
  11871  11865  11866  11882     1  0.0000000  4.9162000  2
  11871  11865  11866  11882     1  0.0000000  0.6024960  3
  11872  11864  11861  11873     1  0.0000000  4.9162000  2
  11872  11864  11861  11873     1  0.0000000  0.6024960  3
  11873  11861  11860  11874     1  0.0000000  0.6508444  3
  11873  11861  11860  11882     1  0.0000000  4.9162000  2
  11873  11861  11860  11882     1  0.0000000  0.6024960  3
  11880  11874  11860  11882     1  0.0000000  4.9162000  2
  11880  11874  11860  11882     1  0.0000000  0.6024960  3
  11883  11884  11887  11888     1  180.0000771  0.8368000  1
  11883  11884  11887  11888     1  180.0000771  1.0460000  2
  11883  11884  11887  11888     1  0.0000000  0.7531200  3
  11883  11884  11887  11895     1  0.0000000  0.6508444  3
  11883  11905  11889  11893     1  180.0000771  5.6484000  1
  11883  11905  11889  11893     1  180.0000771  3.5564000  2
  11883  11905  11889  11893     1  0.0000000  0.4184000  3
  11883  11905  11889  11888     1  180.0000771  0.4184000  2
  11883  11905  11889  11888     1  0.0000000  1.6024720  3
  11884  11887  11888  11889     1  180.0000771  0.8368000  1
  11884  11887  11888  11889     1  180.0000771  1.0460000  2
  11884  11887  11888  11889     1  0.0000000  0.7531200  3
  11884  11887  11888  11894     1  0.0000000  0.6508444  3
  11884  11883  11897  11903     1  0.0000000  0.6508444  3
  11884  11883  11905  11889     1  180.0000771  0.4184000  2
  11884  11883  11905  11889     1  0.0000000  1.6024720  3
  11887  11888  11889  11893     1  0.0000000  0.6508444  3
  11887  11888  11889  11905     1  0.0000000  0.6508444  3
  11887  11884  11883  11897     1  180.0000771  0.8368000  1
  11887  11884  11883  11897     1  180.0000771  1.0460000  2
  11887  11884  11883  11897     1  0.0000000  0.7531200  3
  11887  11884  11883  11905     1  0.0000000  0.6508444  3
  11888  11887  11884  11896     1  0.0000000  0.6508444  3
  11889  11905  11883  11897     1  180.0000771  0.4184000  2
  11889  11905  11883  11897     1  0.0000000  1.6024720  3
  11889  11888  11887  11895     1  0.0000000  0.6508444  3
  11893  11889  11888  11894     1  0.0000000  4.9162000  2
  11893  11889  11888  11894     1  0.0000000  0.6024960  3
  11894  11888  11889  11905     1  0.0000000  4.9162000  2
  11894  11888  11889  11905     1  0.0000000  0.6024960  3
  11894  11888  11887  11895     1  0.0000000  4.9162000  2
  11894  11888  11887  11895     1  0.0000000  0.6024960  3
  11895  11887  11884  11896     1  0.0000000  4.9162000  2
  11895  11887  11884  11896     1  0.0000000  0.6024960  3
  11896  11884  11883  11897     1  0.0000000  0.6508444  3
  11896  11884  11883  11905     1  0.0000000  4.9162000  2
  11896  11884  11883  11905     1  0.0000000  0.6024960  3
  11903  11897  11883  11905     1  0.0000000  4.9162000  2
  11903  11897  11883  11905     1  0.0000000  0.6024960  3
  11906  11907  11910  11911     1  180.0000771  0.8368000  1
  11906  11907  11910  11911     1  180.0000771  1.0460000  2
  11906  11907  11910  11911     1  0.0000000  0.7531200  3
  11906  11907  11910  11918     1  0.0000000  0.6508444  3
  11906  11928  11912  11911     1  180.0000771  0.4184000  2
  11906  11928  11912  11911     1  0.0000000  1.6024720  3
  11906  11928  11912  11916     1  180.0000771  5.6484000  1
  11906  11928  11912  11916     1  180.0000771  3.5564000  2
  11906  11928  11912  11916     1  0.0000000  0.4184000  3
  11907  11906  11920  11926     1  0.0000000  0.6508444  3
  11907  11906  11928  11912     1  180.0000771  0.4184000  2
  11907  11906  11928  11912     1  0.0000000  1.6024720  3
  11907  11910  11911  11912     1  180.0000771  0.8368000  1
  11907  11910  11911  11912     1  180.0000771  1.0460000  2
  11907  11910  11911  11912     1  0.0000000  0.7531200  3
  11907  11910  11911  11917     1  0.0000000  0.6508444  3
  11910  11907  11906  11920     1  180.0000771  0.8368000  1
  11910  11907  11906  11920     1  180.0000771  1.0460000  2
  11910  11907  11906  11920     1  0.0000000  0.7531200  3
  11910  11907  11906  11928     1  0.0000000  0.6508444  3
  11910  11911  11912  11916     1  0.0000000  0.6508444  3
  11910  11911  11912  11928     1  0.0000000  0.6508444  3
  11911  11910  11907  11919     1  0.0000000  0.6508444  3
  11912  11911  11910  11918     1  0.0000000  0.6508444  3
  11912  11928  11906  11920     1  180.0000771  0.4184000  2
  11912  11928  11906  11920     1  0.0000000  1.6024720  3
  11916  11912  11911  11917     1  0.0000000  4.9162000  2
  11916  11912  11911  11917     1  0.0000000  0.6024960  3
  11917  11911  11910  11918     1  0.0000000  4.9162000  2
  11917  11911  11910  11918     1  0.0000000  0.6024960  3
  11917  11911  11912  11928     1  0.0000000  4.9162000  2
  11917  11911  11912  11928     1  0.0000000  0.6024960  3
  11918  11910  11907  11919     1  0.0000000  4.9162000  2
  11918  11910  11907  11919     1  0.0000000  0.6024960  3
  11919  11907  11906  11920     1  0.0000000  0.6508444  3
  11919  11907  11906  11928     1  0.0000000  4.9162000  2
  11919  11907  11906  11928     1  0.0000000  0.6024960  3
  11926  11920  11906  11928     1  0.0000000  4.9162000  2
  11926  11920  11906  11928     1  0.0000000  0.6024960  3
  11929  11930  11933  11934     1  180.0000771  0.8368000  1
  11929  11930  11933  11934     1  180.0000771  1.0460000  2
  11929  11930  11933  11934     1  0.0000000  0.7531200  3
  11929  11930  11933  11941     1  0.0000000  0.6508444  3
  11929  11951  11935  11939     1  180.0000771  5.6484000  1
  11929  11951  11935  11939     1  180.0000771  3.5564000  2
  11929  11951  11935  11939     1  0.0000000  0.4184000  3
  11929  11951  11935  11934     1  180.0000771  0.4184000  2
  11929  11951  11935  11934     1  0.0000000  1.6024720  3
  11930  11933  11934  11935     1  180.0000771  0.8368000  1
  11930  11933  11934  11935     1  180.0000771  1.0460000  2
  11930  11933  11934  11935     1  0.0000000  0.7531200  3
  11930  11933  11934  11940     1  0.0000000  0.6508444  3
  11930  11929  11943  11949     1  0.0000000  0.6508444  3
  11930  11929  11951  11935     1  180.0000771  0.4184000  2
  11930  11929  11951  11935     1  0.0000000  1.6024720  3
  11933  11934  11935  11939     1  0.0000000  0.6508444  3
  11933  11934  11935  11951     1  0.0000000  0.6508444  3
  11933  11930  11929  11943     1  180.0000771  0.8368000  1
  11933  11930  11929  11943     1  180.0000771  1.0460000  2
  11933  11930  11929  11943     1  0.0000000  0.7531200  3
  11933  11930  11929  11951     1  0.0000000  0.6508444  3
  11934  11933  11930  11942     1  0.0000000  0.6508444  3
  11935  11951  11929  11943     1  180.0000771  0.4184000  2
  11935  11951  11929  11943     1  0.0000000  1.6024720  3
  11935  11934  11933  11941     1  0.0000000  0.6508444  3
  11939  11935  11934  11940     1  0.0000000  4.9162000  2
  11939  11935  11934  11940     1  0.0000000  0.6024960  3
  11940  11934  11935  11951     1  0.0000000  4.9162000  2
  11940  11934  11935  11951     1  0.0000000  0.6024960  3
  11940  11934  11933  11941     1  0.0000000  4.9162000  2
  11940  11934  11933  11941     1  0.0000000  0.6024960  3
  11941  11933  11930  11942     1  0.0000000  4.9162000  2
  11941  11933  11930  11942     1  0.0000000  0.6024960  3
  11942  11930  11929  11943     1  0.0000000  0.6508444  3
  11942  11930  11929  11951     1  0.0000000  4.9162000  2
  11942  11930  11929  11951     1  0.0000000  0.6024960  3
  11949  11943  11929  11951     1  0.0000000  4.9162000  2
  11949  11943  11929  11951     1  0.0000000  0.6024960  3
  11952  11953  11956  11957     1  180.0000771  0.8368000  1
  11952  11953  11956  11957     1  180.0000771  1.0460000  2
  11952  11953  11956  11957     1  0.0000000  0.7531200  3
  11952  11953  11956  11964     1  0.0000000  0.6508444  3
  11952  11974  11958  11957     1  180.0000771  0.4184000  2
  11952  11974  11958  11957     1  0.0000000  1.6024720  3
  11952  11974  11958  11962     1  180.0000771  5.6484000  1
  11952  11974  11958  11962     1  180.0000771  3.5564000  2
  11952  11974  11958  11962     1  0.0000000  0.4184000  3
  11953  11952  11966  11972     1  0.0000000  0.6508444  3
  11953  11952  11974  11958     1  180.0000771  0.4184000  2
  11953  11952  11974  11958     1  0.0000000  1.6024720  3
  11953  11956  11957  11958     1  180.0000771  0.8368000  1
  11953  11956  11957  11958     1  180.0000771  1.0460000  2
  11953  11956  11957  11958     1  0.0000000  0.7531200  3
  11953  11956  11957  11963     1  0.0000000  0.6508444  3
  11956  11953  11952  11966     1  180.0000771  0.8368000  1
  11956  11953  11952  11966     1  180.0000771  1.0460000  2
  11956  11953  11952  11966     1  0.0000000  0.7531200  3
  11956  11953  11952  11974     1  0.0000000  0.6508444  3
  11956  11957  11958  11962     1  0.0000000  0.6508444  3
  11956  11957  11958  11974     1  0.0000000  0.6508444  3
  11957  11956  11953  11965     1  0.0000000  0.6508444  3
  11958  11957  11956  11964     1  0.0000000  0.6508444  3
  11958  11974  11952  11966     1  180.0000771  0.4184000  2
  11958  11974  11952  11966     1  0.0000000  1.6024720  3
  11962  11958  11957  11963     1  0.0000000  4.9162000  2
  11962  11958  11957  11963     1  0.0000000  0.6024960  3
  11963  11957  11956  11964     1  0.0000000  4.9162000  2
  11963  11957  11956  11964     1  0.0000000  0.6024960  3
  11963  11957  11958  11974     1  0.0000000  4.9162000  2
  11963  11957  11958  11974     1  0.0000000  0.6024960  3
  11964  11956  11953  11965     1  0.0000000  4.9162000  2
  11964  11956  11953  11965     1  0.0000000  0.6024960  3
  11965  11953  11952  11966     1  0.0000000  0.6508444  3
  11965  11953  11952  11974     1  0.0000000  4.9162000  2
  11965  11953  11952  11974     1  0.0000000  0.6024960  3
  11972  11966  11952  11974     1  0.0000000  4.9162000  2
  11972  11966  11952  11974     1  0.0000000  0.6024960  3
  11975  11976  11979  11980     1  180.0000771  0.8368000  1
  11975  11976  11979  11980     1  180.0000771  1.0460000  2
  11975  11976  11979  11980     1  0.0000000  0.7531200  3
  11975  11976  11979  11987     1  0.0000000  0.6508444  3
  11975  11997  11981  11985     1  180.0000771  5.6484000  1
  11975  11997  11981  11985     1  180.0000771  3.5564000  2
  11975  11997  11981  11985     1  0.0000000  0.4184000  3
  11975  11997  11981  11980     1  180.0000771  0.4184000  2
  11975  11997  11981  11980     1  0.0000000  1.6024720  3
  11976  11979  11980  11981     1  180.0000771  0.8368000  1
  11976  11979  11980  11981     1  180.0000771  1.0460000  2
  11976  11979  11980  11981     1  0.0000000  0.7531200  3
  11976  11979  11980  11986     1  0.0000000  0.6508444  3
  11976  11975  11989  11995     1  0.0000000  0.6508444  3
  11976  11975  11997  11981     1  180.0000771  0.4184000  2
  11976  11975  11997  11981     1  0.0000000  1.6024720  3
  11979  11980  11981  11985     1  0.0000000  0.6508444  3
  11979  11980  11981  11997     1  0.0000000  0.6508444  3
  11979  11976  11975  11989     1  180.0000771  0.8368000  1
  11979  11976  11975  11989     1  180.0000771  1.0460000  2
  11979  11976  11975  11989     1  0.0000000  0.7531200  3
  11979  11976  11975  11997     1  0.0000000  0.6508444  3
  11980  11979  11976  11988     1  0.0000000  0.6508444  3
  11981  11997  11975  11989     1  180.0000771  0.4184000  2
  11981  11997  11975  11989     1  0.0000000  1.6024720  3
  11981  11980  11979  11987     1  0.0000000  0.6508444  3
  11985  11981  11980  11986     1  0.0000000  4.9162000  2
  11985  11981  11980  11986     1  0.0000000  0.6024960  3
  11986  11980  11981  11997     1  0.0000000  4.9162000  2
  11986  11980  11981  11997     1  0.0000000  0.6024960  3
  11986  11980  11979  11987     1  0.0000000  4.9162000  2
  11986  11980  11979  11987     1  0.0000000  0.6024960  3
  11987  11979  11976  11988     1  0.0000000  4.9162000  2
  11987  11979  11976  11988     1  0.0000000  0.6024960  3
  11988  11976  11975  11989     1  0.0000000  0.6508444  3
  11988  11976  11975  11997     1  0.0000000  4.9162000  2
  11988  11976  11975  11997     1  0.0000000  0.6024960  3
  11995  11989  11975  11997     1  0.0000000  4.9162000  2
  11995  11989  11975  11997     1  0.0000000  0.6024960  3
  11998  11999  12002  12003     1  180.0000771  0.8368000  1
  11998  11999  12002  12003     1  180.0000771  1.0460000  2
  11998  11999  12002  12003     1  0.0000000  0.7531200  3
  11998  11999  12002  12010     1  0.0000000  0.6508444  3
  11998  12020  12004  12003     1  180.0000771  0.4184000  2
  11998  12020  12004  12003     1  0.0000000  1.6024720  3
  11998  12020  12004  12008     1  180.0000771  5.6484000  1
  11998  12020  12004  12008     1  180.0000771  3.5564000  2
  11998  12020  12004  12008     1  0.0000000  0.4184000  3
  11999  11998  12012  12018     1  0.0000000  0.6508444  3
  11999  11998  12020  12004     1  180.0000771  0.4184000  2
  11999  11998  12020  12004     1  0.0000000  1.6024720  3
  11999  12002  12003  12004     1  180.0000771  0.8368000  1
  11999  12002  12003  12004     1  180.0000771  1.0460000  2
  11999  12002  12003  12004     1  0.0000000  0.7531200  3
  11999  12002  12003  12009     1  0.0000000  0.6508444  3
  12002  11999  11998  12012     1  180.0000771  0.8368000  1
  12002  11999  11998  12012     1  180.0000771  1.0460000  2
  12002  11999  11998  12012     1  0.0000000  0.7531200  3
  12002  11999  11998  12020     1  0.0000000  0.6508444  3
  12002  12003  12004  12008     1  0.0000000  0.6508444  3
  12002  12003  12004  12020     1  0.0000000  0.6508444  3
  12003  12002  11999  12011     1  0.0000000  0.6508444  3
  12004  12003  12002  12010     1  0.0000000  0.6508444  3
  12004  12020  11998  12012     1  180.0000771  0.4184000  2
  12004  12020  11998  12012     1  0.0000000  1.6024720  3
  12008  12004  12003  12009     1  0.0000000  4.9162000  2
  12008  12004  12003  12009     1  0.0000000  0.6024960  3
  12009  12003  12002  12010     1  0.0000000  4.9162000  2
  12009  12003  12002  12010     1  0.0000000  0.6024960  3
  12009  12003  12004  12020     1  0.0000000  4.9162000  2
  12009  12003  12004  12020     1  0.0000000  0.6024960  3
  12010  12002  11999  12011     1  0.0000000  4.9162000  2
  12010  12002  11999  12011     1  0.0000000  0.6024960  3
  12011  11999  11998  12012     1  0.0000000  0.6508444  3
  12011  11999  11998  12020     1  0.0000000  4.9162000  2
  12011  11999  11998  12020     1  0.0000000  0.6024960  3
  12018  12012  11998  12020     1  0.0000000  4.9162000  2
  12018  12012  11998  12020     1  0.0000000  0.6024960  3
  12021  12022  12025  12026     1  180.0000771  0.8368000  1
  12021  12022  12025  12026     1  180.0000771  1.0460000  2
  12021  12022  12025  12026     1  0.0000000  0.7531200  3
  12021  12022  12025  12033     1  0.0000000  0.6508444  3
  12021  12043  12027  12031     1  180.0000771  5.6484000  1
  12021  12043  12027  12031     1  180.0000771  3.5564000  2
  12021  12043  12027  12031     1  0.0000000  0.4184000  3
  12021  12043  12027  12026     1  180.0000771  0.4184000  2
  12021  12043  12027  12026     1  0.0000000  1.6024720  3
  12022  12025  12026  12027     1  180.0000771  0.8368000  1
  12022  12025  12026  12027     1  180.0000771  1.0460000  2
  12022  12025  12026  12027     1  0.0000000  0.7531200  3
  12022  12025  12026  12032     1  0.0000000  0.6508444  3
  12022  12021  12035  12041     1  0.0000000  0.6508444  3
  12022  12021  12043  12027     1  180.0000771  0.4184000  2
  12022  12021  12043  12027     1  0.0000000  1.6024720  3
  12025  12026  12027  12031     1  0.0000000  0.6508444  3
  12025  12026  12027  12043     1  0.0000000  0.6508444  3
  12025  12022  12021  12035     1  180.0000771  0.8368000  1
  12025  12022  12021  12035     1  180.0000771  1.0460000  2
  12025  12022  12021  12035     1  0.0000000  0.7531200  3
  12025  12022  12021  12043     1  0.0000000  0.6508444  3
  12026  12025  12022  12034     1  0.0000000  0.6508444  3
  12027  12043  12021  12035     1  180.0000771  0.4184000  2
  12027  12043  12021  12035     1  0.0000000  1.6024720  3
  12027  12026  12025  12033     1  0.0000000  0.6508444  3
  12031  12027  12026  12032     1  0.0000000  4.9162000  2
  12031  12027  12026  12032     1  0.0000000  0.6024960  3
  12032  12026  12027  12043     1  0.0000000  4.9162000  2
  12032  12026  12027  12043     1  0.0000000  0.6024960  3
  12032  12026  12025  12033     1  0.0000000  4.9162000  2
  12032  12026  12025  12033     1  0.0000000  0.6024960  3
  12033  12025  12022  12034     1  0.0000000  4.9162000  2
  12033  12025  12022  12034     1  0.0000000  0.6024960  3
  12034  12022  12021  12035     1  0.0000000  0.6508444  3
  12034  12022  12021  12043     1  0.0000000  4.9162000  2
  12034  12022  12021  12043     1  0.0000000  0.6024960  3
  12041  12035  12021  12043     1  0.0000000  4.9162000  2
  12041  12035  12021  12043     1  0.0000000  0.6024960  3
  12044  12045  12048  12049     1  180.0000771  0.8368000  1
  12044  12045  12048  12049     1  180.0000771  1.0460000  2
  12044  12045  12048  12049     1  0.0000000  0.7531200  3
  12044  12045  12048  12056     1  0.0000000  0.6508444  3
  12044  12066  12050  12049     1  180.0000771  0.4184000  2
  12044  12066  12050  12049     1  0.0000000  1.6024720  3
  12044  12066  12050  12054     1  180.0000771  5.6484000  1
  12044  12066  12050  12054     1  180.0000771  3.5564000  2
  12044  12066  12050  12054     1  0.0000000  0.4184000  3
  12045  12044  12058  12064     1  0.0000000  0.6508444  3
  12045  12044  12066  12050     1  180.0000771  0.4184000  2
  12045  12044  12066  12050     1  0.0000000  1.6024720  3
  12045  12048  12049  12050     1  180.0000771  0.8368000  1
  12045  12048  12049  12050     1  180.0000771  1.0460000  2
  12045  12048  12049  12050     1  0.0000000  0.7531200  3
  12045  12048  12049  12055     1  0.0000000  0.6508444  3
  12048  12045  12044  12058     1  180.0000771  0.8368000  1
  12048  12045  12044  12058     1  180.0000771  1.0460000  2
  12048  12045  12044  12058     1  0.0000000  0.7531200  3
  12048  12045  12044  12066     1  0.0000000  0.6508444  3
  12048  12049  12050  12054     1  0.0000000  0.6508444  3
  12048  12049  12050  12066     1  0.0000000  0.6508444  3
  12049  12048  12045  12057     1  0.0000000  0.6508444  3
  12050  12049  12048  12056     1  0.0000000  0.6508444  3
  12050  12066  12044  12058     1  180.0000771  0.4184000  2
  12050  12066  12044  12058     1  0.0000000  1.6024720  3
  12054  12050  12049  12055     1  0.0000000  4.9162000  2
  12054  12050  12049  12055     1  0.0000000  0.6024960  3
  12055  12049  12048  12056     1  0.0000000  4.9162000  2
  12055  12049  12048  12056     1  0.0000000  0.6024960  3
  12055  12049  12050  12066     1  0.0000000  4.9162000  2
  12055  12049  12050  12066     1  0.0000000  0.6024960  3
  12056  12048  12045  12057     1  0.0000000  4.9162000  2
  12056  12048  12045  12057     1  0.0000000  0.6024960  3
  12057  12045  12044  12058     1  0.0000000  0.6508444  3
  12057  12045  12044  12066     1  0.0000000  4.9162000  2
  12057  12045  12044  12066     1  0.0000000  0.6024960  3
  12064  12058  12044  12066     1  0.0000000  4.9162000  2
  12064  12058  12044  12066     1  0.0000000  0.6024960  3
  12067  12068  12071  12072     1  180.0000771  0.8368000  1
  12067  12068  12071  12072     1  180.0000771  1.0460000  2
  12067  12068  12071  12072     1  0.0000000  0.7531200  3
  12067  12068  12071  12079     1  0.0000000  0.6508444  3
  12067  12089  12073  12077     1  180.0000771  5.6484000  1
  12067  12089  12073  12077     1  180.0000771  3.5564000  2
  12067  12089  12073  12077     1  0.0000000  0.4184000  3
  12067  12089  12073  12072     1  180.0000771  0.4184000  2
  12067  12089  12073  12072     1  0.0000000  1.6024720  3
  12068  12071  12072  12073     1  180.0000771  0.8368000  1
  12068  12071  12072  12073     1  180.0000771  1.0460000  2
  12068  12071  12072  12073     1  0.0000000  0.7531200  3
  12068  12071  12072  12078     1  0.0000000  0.6508444  3
  12068  12067  12081  12087     1  0.0000000  0.6508444  3
  12068  12067  12089  12073     1  180.0000771  0.4184000  2
  12068  12067  12089  12073     1  0.0000000  1.6024720  3
  12071  12072  12073  12077     1  0.0000000  0.6508444  3
  12071  12072  12073  12089     1  0.0000000  0.6508444  3
  12071  12068  12067  12081     1  180.0000771  0.8368000  1
  12071  12068  12067  12081     1  180.0000771  1.0460000  2
  12071  12068  12067  12081     1  0.0000000  0.7531200  3
  12071  12068  12067  12089     1  0.0000000  0.6508444  3
  12072  12071  12068  12080     1  0.0000000  0.6508444  3
  12073  12089  12067  12081     1  180.0000771  0.4184000  2
  12073  12089  12067  12081     1  0.0000000  1.6024720  3
  12073  12072  12071  12079     1  0.0000000  0.6508444  3
  12077  12073  12072  12078     1  0.0000000  4.9162000  2
  12077  12073  12072  12078     1  0.0000000  0.6024960  3
  12078  12072  12073  12089     1  0.0000000  4.9162000  2
  12078  12072  12073  12089     1  0.0000000  0.6024960  3
  12078  12072  12071  12079     1  0.0000000  4.9162000  2
  12078  12072  12071  12079     1  0.0000000  0.6024960  3
  12079  12071  12068  12080     1  0.0000000  4.9162000  2
  12079  12071  12068  12080     1  0.0000000  0.6024960  3
  12080  12068  12067  12081     1  0.0000000  0.6508444  3
  12080  12068  12067  12089     1  0.0000000  4.9162000  2
  12080  12068  12067  12089     1  0.0000000  0.6024960  3
  12087  12081  12067  12089     1  0.0000000  4.9162000  2
  12087  12081  12067  12089     1  0.0000000  0.6024960  3
  12090  12091  12094  12095     1  180.0000771  0.8368000  1
  12090  12091  12094  12095     1  180.0000771  1.0460000  2
  12090  12091  12094  12095     1  0.0000000  0.7531200  3
  12090  12091  12094  12102     1  0.0000000  0.6508444  3
  12090  12112  12096  12095     1  180.0000771  0.4184000  2
  12090  12112  12096  12095     1  0.0000000  1.6024720  3
  12090  12112  12096  12100     1  180.0000771  5.6484000  1
  12090  12112  12096  12100     1  180.0000771  3.5564000  2
  12090  12112  12096  12100     1  0.0000000  0.4184000  3
  12091  12090  12104  12110     1  0.0000000  0.6508444  3
  12091  12090  12112  12096     1  180.0000771  0.4184000  2
  12091  12090  12112  12096     1  0.0000000  1.6024720  3
  12091  12094  12095  12096     1  180.0000771  0.8368000  1
  12091  12094  12095  12096     1  180.0000771  1.0460000  2
  12091  12094  12095  12096     1  0.0000000  0.7531200  3
  12091  12094  12095  12101     1  0.0000000  0.6508444  3
  12094  12091  12090  12104     1  180.0000771  0.8368000  1
  12094  12091  12090  12104     1  180.0000771  1.0460000  2
  12094  12091  12090  12104     1  0.0000000  0.7531200  3
  12094  12091  12090  12112     1  0.0000000  0.6508444  3
  12094  12095  12096  12100     1  0.0000000  0.6508444  3
  12094  12095  12096  12112     1  0.0000000  0.6508444  3
  12095  12094  12091  12103     1  0.0000000  0.6508444  3
  12096  12095  12094  12102     1  0.0000000  0.6508444  3
  12096  12112  12090  12104     1  180.0000771  0.4184000  2
  12096  12112  12090  12104     1  0.0000000  1.6024720  3
  12100  12096  12095  12101     1  0.0000000  4.9162000  2
  12100  12096  12095  12101     1  0.0000000  0.6024960  3
  12101  12095  12094  12102     1  0.0000000  4.9162000  2
  12101  12095  12094  12102     1  0.0000000  0.6024960  3
  12101  12095  12096  12112     1  0.0000000  4.9162000  2
  12101  12095  12096  12112     1  0.0000000  0.6024960  3
  12102  12094  12091  12103     1  0.0000000  4.9162000  2
  12102  12094  12091  12103     1  0.0000000  0.6024960  3
  12103  12091  12090  12104     1  0.0000000  0.6508444  3
  12103  12091  12090  12112     1  0.0000000  4.9162000  2
  12103  12091  12090  12112     1  0.0000000  0.6024960  3
  12110  12104  12090  12112     1  0.0000000  4.9162000  2
  12110  12104  12090  12112     1  0.0000000  0.6024960  3
  12113  12114  12117  12118     1  180.0000771  0.8368000  1
  12113  12114  12117  12118     1  180.0000771  1.0460000  2
  12113  12114  12117  12118     1  0.0000000  0.7531200  3
  12113  12114  12117  12125     1  0.0000000  0.6508444  3
  12113  12135  12119  12123     1  180.0000771  5.6484000  1
  12113  12135  12119  12123     1  180.0000771  3.5564000  2
  12113  12135  12119  12123     1  0.0000000  0.4184000  3
  12113  12135  12119  12118     1  180.0000771  0.4184000  2
  12113  12135  12119  12118     1  0.0000000  1.6024720  3
  12114  12117  12118  12119     1  180.0000771  0.8368000  1
  12114  12117  12118  12119     1  180.0000771  1.0460000  2
  12114  12117  12118  12119     1  0.0000000  0.7531200  3
  12114  12117  12118  12124     1  0.0000000  0.6508444  3
  12114  12113  12127  12133     1  0.0000000  0.6508444  3
  12114  12113  12135  12119     1  180.0000771  0.4184000  2
  12114  12113  12135  12119     1  0.0000000  1.6024720  3
  12117  12118  12119  12123     1  0.0000000  0.6508444  3
  12117  12118  12119  12135     1  0.0000000  0.6508444  3
  12117  12114  12113  12127     1  180.0000771  0.8368000  1
  12117  12114  12113  12127     1  180.0000771  1.0460000  2
  12117  12114  12113  12127     1  0.0000000  0.7531200  3
  12117  12114  12113  12135     1  0.0000000  0.6508444  3
  12118  12117  12114  12126     1  0.0000000  0.6508444  3
  12119  12135  12113  12127     1  180.0000771  0.4184000  2
  12119  12135  12113  12127     1  0.0000000  1.6024720  3
  12119  12118  12117  12125     1  0.0000000  0.6508444  3
  12123  12119  12118  12124     1  0.0000000  4.9162000  2
  12123  12119  12118  12124     1  0.0000000  0.6024960  3
  12124  12118  12119  12135     1  0.0000000  4.9162000  2
  12124  12118  12119  12135     1  0.0000000  0.6024960  3
  12124  12118  12117  12125     1  0.0000000  4.9162000  2
  12124  12118  12117  12125     1  0.0000000  0.6024960  3
  12125  12117  12114  12126     1  0.0000000  4.9162000  2
  12125  12117  12114  12126     1  0.0000000  0.6024960  3
  12126  12114  12113  12127     1  0.0000000  0.6508444  3
  12126  12114  12113  12135     1  0.0000000  4.9162000  2
  12126  12114  12113  12135     1  0.0000000  0.6024960  3
  12133  12127  12113  12135     1  0.0000000  4.9162000  2
  12133  12127  12113  12135     1  0.0000000  0.6024960  3
  12136  12137  12140  12141     1  180.0000771  0.8368000  1
  12136  12137  12140  12141     1  180.0000771  1.0460000  2
  12136  12137  12140  12141     1  0.0000000  0.7531200  3
  12136  12137  12140  12148     1  0.0000000  0.6508444  3
  12136  12158  12142  12141     1  180.0000771  0.4184000  2
  12136  12158  12142  12141     1  0.0000000  1.6024720  3
  12136  12158  12142  12146     1  180.0000771  5.6484000  1
  12136  12158  12142  12146     1  180.0000771  3.5564000  2
  12136  12158  12142  12146     1  0.0000000  0.4184000  3
  12137  12136  12150  12156     1  0.0000000  0.6508444  3
  12137  12136  12158  12142     1  180.0000771  0.4184000  2
  12137  12136  12158  12142     1  0.0000000  1.6024720  3
  12137  12140  12141  12142     1  180.0000771  0.8368000  1
  12137  12140  12141  12142     1  180.0000771  1.0460000  2
  12137  12140  12141  12142     1  0.0000000  0.7531200  3
  12137  12140  12141  12147     1  0.0000000  0.6508444  3
  12140  12137  12136  12150     1  180.0000771  0.8368000  1
  12140  12137  12136  12150     1  180.0000771  1.0460000  2
  12140  12137  12136  12150     1  0.0000000  0.7531200  3
  12140  12137  12136  12158     1  0.0000000  0.6508444  3
  12140  12141  12142  12146     1  0.0000000  0.6508444  3
  12140  12141  12142  12158     1  0.0000000  0.6508444  3
  12141  12140  12137  12149     1  0.0000000  0.6508444  3
  12142  12141  12140  12148     1  0.0000000  0.6508444  3
  12142  12158  12136  12150     1  180.0000771  0.4184000  2
  12142  12158  12136  12150     1  0.0000000  1.6024720  3
  12146  12142  12141  12147     1  0.0000000  4.9162000  2
  12146  12142  12141  12147     1  0.0000000  0.6024960  3
  12147  12141  12140  12148     1  0.0000000  4.9162000  2
  12147  12141  12140  12148     1  0.0000000  0.6024960  3
  12147  12141  12142  12158     1  0.0000000  4.9162000  2
  12147  12141  12142  12158     1  0.0000000  0.6024960  3
  12148  12140  12137  12149     1  0.0000000  4.9162000  2
  12148  12140  12137  12149     1  0.0000000  0.6024960  3
  12149  12137  12136  12150     1  0.0000000  0.6508444  3
  12149  12137  12136  12158     1  0.0000000  4.9162000  2
  12149  12137  12136  12158     1  0.0000000  0.6024960  3
  12156  12150  12136  12158     1  0.0000000  4.9162000  2
  12156  12150  12136  12158     1  0.0000000  0.6024960  3
  12159  12160  12163  12164     1  180.0000771  0.8368000  1
  12159  12160  12163  12164     1  180.0000771  1.0460000  2
  12159  12160  12163  12164     1  0.0000000  0.7531200  3
  12159  12160  12163  12171     1  0.0000000  0.6508444  3
  12159  12181  12165  12169     1  180.0000771  5.6484000  1
  12159  12181  12165  12169     1  180.0000771  3.5564000  2
  12159  12181  12165  12169     1  0.0000000  0.4184000  3
  12159  12181  12165  12164     1  180.0000771  0.4184000  2
  12159  12181  12165  12164     1  0.0000000  1.6024720  3
  12160  12163  12164  12165     1  180.0000771  0.8368000  1
  12160  12163  12164  12165     1  180.0000771  1.0460000  2
  12160  12163  12164  12165     1  0.0000000  0.7531200  3
  12160  12163  12164  12170     1  0.0000000  0.6508444  3
  12160  12159  12173  12179     1  0.0000000  0.6508444  3
  12160  12159  12181  12165     1  180.0000771  0.4184000  2
  12160  12159  12181  12165     1  0.0000000  1.6024720  3
  12163  12164  12165  12169     1  0.0000000  0.6508444  3
  12163  12164  12165  12181     1  0.0000000  0.6508444  3
  12163  12160  12159  12173     1  180.0000771  0.8368000  1
  12163  12160  12159  12173     1  180.0000771  1.0460000  2
  12163  12160  12159  12173     1  0.0000000  0.7531200  3
  12163  12160  12159  12181     1  0.0000000  0.6508444  3
  12164  12163  12160  12172     1  0.0000000  0.6508444  3
  12165  12181  12159  12173     1  180.0000771  0.4184000  2
  12165  12181  12159  12173     1  0.0000000  1.6024720  3
  12165  12164  12163  12171     1  0.0000000  0.6508444  3
  12169  12165  12164  12170     1  0.0000000  4.9162000  2
  12169  12165  12164  12170     1  0.0000000  0.6024960  3
  12170  12164  12165  12181     1  0.0000000  4.9162000  2
  12170  12164  12165  12181     1  0.0000000  0.6024960  3
  12170  12164  12163  12171     1  0.0000000  4.9162000  2
  12170  12164  12163  12171     1  0.0000000  0.6024960  3
  12171  12163  12160  12172     1  0.0000000  4.9162000  2
  12171  12163  12160  12172     1  0.0000000  0.6024960  3
  12172  12160  12159  12173     1  0.0000000  0.6508444  3
  12172  12160  12159  12181     1  0.0000000  4.9162000  2
  12172  12160  12159  12181     1  0.0000000  0.6024960  3
  12179  12173  12159  12181     1  0.0000000  4.9162000  2
  12179  12173  12159  12181     1  0.0000000  0.6024960  3
  12182  12183  12186  12187     1  180.0000771  0.8368000  1
  12182  12183  12186  12187     1  180.0000771  1.0460000  2
  12182  12183  12186  12187     1  0.0000000  0.7531200  3
  12182  12183  12186  12194     1  0.0000000  0.6508444  3
  12182  12204  12188  12187     1  180.0000771  0.4184000  2
  12182  12204  12188  12187     1  0.0000000  1.6024720  3
  12182  12204  12188  12192     1  180.0000771  5.6484000  1
  12182  12204  12188  12192     1  180.0000771  3.5564000  2
  12182  12204  12188  12192     1  0.0000000  0.4184000  3
  12183  12182  12196  12202     1  0.0000000  0.6508444  3
  12183  12182  12204  12188     1  180.0000771  0.4184000  2
  12183  12182  12204  12188     1  0.0000000  1.6024720  3
  12183  12186  12187  12188     1  180.0000771  0.8368000  1
  12183  12186  12187  12188     1  180.0000771  1.0460000  2
  12183  12186  12187  12188     1  0.0000000  0.7531200  3
  12183  12186  12187  12193     1  0.0000000  0.6508444  3
  12186  12183  12182  12196     1  180.0000771  0.8368000  1
  12186  12183  12182  12196     1  180.0000771  1.0460000  2
  12186  12183  12182  12196     1  0.0000000  0.7531200  3
  12186  12183  12182  12204     1  0.0000000  0.6508444  3
  12186  12187  12188  12192     1  0.0000000  0.6508444  3
  12186  12187  12188  12204     1  0.0000000  0.6508444  3
  12187  12186  12183  12195     1  0.0000000  0.6508444  3
  12188  12187  12186  12194     1  0.0000000  0.6508444  3
  12188  12204  12182  12196     1  180.0000771  0.4184000  2
  12188  12204  12182  12196     1  0.0000000  1.6024720  3
  12192  12188  12187  12193     1  0.0000000  4.9162000  2
  12192  12188  12187  12193     1  0.0000000  0.6024960  3
  12193  12187  12186  12194     1  0.0000000  4.9162000  2
  12193  12187  12186  12194     1  0.0000000  0.6024960  3
  12193  12187  12188  12204     1  0.0000000  4.9162000  2
  12193  12187  12188  12204     1  0.0000000  0.6024960  3
  12194  12186  12183  12195     1  0.0000000  4.9162000  2
  12194  12186  12183  12195     1  0.0000000  0.6024960  3
  12195  12183  12182  12196     1  0.0000000  0.6508444  3
  12195  12183  12182  12204     1  0.0000000  4.9162000  2
  12195  12183  12182  12204     1  0.0000000  0.6024960  3
  12202  12196  12182  12204     1  0.0000000  4.9162000  2
  12202  12196  12182  12204     1  0.0000000  0.6024960  3
  12205  12206  12209  12210     1  180.0000771  0.8368000  1
  12205  12206  12209  12210     1  180.0000771  1.0460000  2
  12205  12206  12209  12210     1  0.0000000  0.7531200  3
  12205  12206  12209  12217     1  0.0000000  0.6508444  3
  12205  12227  12211  12215     1  180.0000771  5.6484000  1
  12205  12227  12211  12215     1  180.0000771  3.5564000  2
  12205  12227  12211  12215     1  0.0000000  0.4184000  3
  12205  12227  12211  12210     1  180.0000771  0.4184000  2
  12205  12227  12211  12210     1  0.0000000  1.6024720  3
  12206  12209  12210  12211     1  180.0000771  0.8368000  1
  12206  12209  12210  12211     1  180.0000771  1.0460000  2
  12206  12209  12210  12211     1  0.0000000  0.7531200  3
  12206  12209  12210  12216     1  0.0000000  0.6508444  3
  12206  12205  12219  12225     1  0.0000000  0.6508444  3
  12206  12205  12227  12211     1  180.0000771  0.4184000  2
  12206  12205  12227  12211     1  0.0000000  1.6024720  3
  12209  12210  12211  12215     1  0.0000000  0.6508444  3
  12209  12210  12211  12227     1  0.0000000  0.6508444  3
  12209  12206  12205  12219     1  180.0000771  0.8368000  1
  12209  12206  12205  12219     1  180.0000771  1.0460000  2
  12209  12206  12205  12219     1  0.0000000  0.7531200  3
  12209  12206  12205  12227     1  0.0000000  0.6508444  3
  12210  12209  12206  12218     1  0.0000000  0.6508444  3
  12211  12227  12205  12219     1  180.0000771  0.4184000  2
  12211  12227  12205  12219     1  0.0000000  1.6024720  3
  12211  12210  12209  12217     1  0.0000000  0.6508444  3
  12215  12211  12210  12216     1  0.0000000  4.9162000  2
  12215  12211  12210  12216     1  0.0000000  0.6024960  3
  12216  12210  12211  12227     1  0.0000000  4.9162000  2
  12216  12210  12211  12227     1  0.0000000  0.6024960  3
  12216  12210  12209  12217     1  0.0000000  4.9162000  2
  12216  12210  12209  12217     1  0.0000000  0.6024960  3
  12217  12209  12206  12218     1  0.0000000  4.9162000  2
  12217  12209  12206  12218     1  0.0000000  0.6024960  3
  12218  12206  12205  12219     1  0.0000000  0.6508444  3
  12218  12206  12205  12227     1  0.0000000  4.9162000  2
  12218  12206  12205  12227     1  0.0000000  0.6024960  3
  12225  12219  12205  12227     1  0.0000000  4.9162000  2
  12225  12219  12205  12227     1  0.0000000  0.6024960  3
  12228  12229  12232  12233     1  180.0000771  0.8368000  1
  12228  12229  12232  12233     1  180.0000771  1.0460000  2
  12228  12229  12232  12233     1  0.0000000  0.7531200  3
  12228  12229  12232  12240     1  0.0000000  0.6508444  3
  12228  12250  12234  12233     1  180.0000771  0.4184000  2
  12228  12250  12234  12233     1  0.0000000  1.6024720  3
  12228  12250  12234  12238     1  180.0000771  5.6484000  1
  12228  12250  12234  12238     1  180.0000771  3.5564000  2
  12228  12250  12234  12238     1  0.0000000  0.4184000  3
  12229  12228  12242  12248     1  0.0000000  0.6508444  3
  12229  12228  12250  12234     1  180.0000771  0.4184000  2
  12229  12228  12250  12234     1  0.0000000  1.6024720  3
  12229  12232  12233  12234     1  180.0000771  0.8368000  1
  12229  12232  12233  12234     1  180.0000771  1.0460000  2
  12229  12232  12233  12234     1  0.0000000  0.7531200  3
  12229  12232  12233  12239     1  0.0000000  0.6508444  3
  12232  12229  12228  12242     1  180.0000771  0.8368000  1
  12232  12229  12228  12242     1  180.0000771  1.0460000  2
  12232  12229  12228  12242     1  0.0000000  0.7531200  3
  12232  12229  12228  12250     1  0.0000000  0.6508444  3
  12232  12233  12234  12238     1  0.0000000  0.6508444  3
  12232  12233  12234  12250     1  0.0000000  0.6508444  3
  12233  12232  12229  12241     1  0.0000000  0.6508444  3
  12234  12233  12232  12240     1  0.0000000  0.6508444  3
  12234  12250  12228  12242     1  180.0000771  0.4184000  2
  12234  12250  12228  12242     1  0.0000000  1.6024720  3
  12238  12234  12233  12239     1  0.0000000  4.9162000  2
  12238  12234  12233  12239     1  0.0000000  0.6024960  3
  12239  12233  12232  12240     1  0.0000000  4.9162000  2
  12239  12233  12232  12240     1  0.0000000  0.6024960  3
  12239  12233  12234  12250     1  0.0000000  4.9162000  2
  12239  12233  12234  12250     1  0.0000000  0.6024960  3
  12240  12232  12229  12241     1  0.0000000  4.9162000  2
  12240  12232  12229  12241     1  0.0000000  0.6024960  3
  12241  12229  12228  12242     1  0.0000000  0.6508444  3
  12241  12229  12228  12250     1  0.0000000  4.9162000  2
  12241  12229  12228  12250     1  0.0000000  0.6024960  3
  12248  12242  12228  12250     1  0.0000000  4.9162000  2
  12248  12242  12228  12250     1  0.0000000  0.6024960  3
  12251  12252  12255  12256     1  180.0000771  0.8368000  1
  12251  12252  12255  12256     1  180.0000771  1.0460000  2
  12251  12252  12255  12256     1  0.0000000  0.7531200  3
  12251  12252  12255  12263     1  0.0000000  0.6508444  3
  12251  12273  12257  12261     1  180.0000771  5.6484000  1
  12251  12273  12257  12261     1  180.0000771  3.5564000  2
  12251  12273  12257  12261     1  0.0000000  0.4184000  3
  12251  12273  12257  12256     1  180.0000771  0.4184000  2
  12251  12273  12257  12256     1  0.0000000  1.6024720  3
  12252  12255  12256  12257     1  180.0000771  0.8368000  1
  12252  12255  12256  12257     1  180.0000771  1.0460000  2
  12252  12255  12256  12257     1  0.0000000  0.7531200  3
  12252  12255  12256  12262     1  0.0000000  0.6508444  3
  12252  12251  12265  12271     1  0.0000000  0.6508444  3
  12252  12251  12273  12257     1  180.0000771  0.4184000  2
  12252  12251  12273  12257     1  0.0000000  1.6024720  3
  12255  12256  12257  12261     1  0.0000000  0.6508444  3
  12255  12256  12257  12273     1  0.0000000  0.6508444  3
  12255  12252  12251  12265     1  180.0000771  0.8368000  1
  12255  12252  12251  12265     1  180.0000771  1.0460000  2
  12255  12252  12251  12265     1  0.0000000  0.7531200  3
  12255  12252  12251  12273     1  0.0000000  0.6508444  3
  12256  12255  12252  12264     1  0.0000000  0.6508444  3
  12257  12273  12251  12265     1  180.0000771  0.4184000  2
  12257  12273  12251  12265     1  0.0000000  1.6024720  3
  12257  12256  12255  12263     1  0.0000000  0.6508444  3
  12261  12257  12256  12262     1  0.0000000  4.9162000  2
  12261  12257  12256  12262     1  0.0000000  0.6024960  3
  12262  12256  12257  12273     1  0.0000000  4.9162000  2
  12262  12256  12257  12273     1  0.0000000  0.6024960  3
  12262  12256  12255  12263     1  0.0000000  4.9162000  2
  12262  12256  12255  12263     1  0.0000000  0.6024960  3
  12263  12255  12252  12264     1  0.0000000  4.9162000  2
  12263  12255  12252  12264     1  0.0000000  0.6024960  3
  12264  12252  12251  12265     1  0.0000000  0.6508444  3
  12264  12252  12251  12273     1  0.0000000  4.9162000  2
  12264  12252  12251  12273     1  0.0000000  0.6024960  3
  12271  12265  12251  12273     1  0.0000000  4.9162000  2
  12271  12265  12251  12273     1  0.0000000  0.6024960  3
  12274  12275  12278  12279     1  180.0000771  0.8368000  1
  12274  12275  12278  12279     1  180.0000771  1.0460000  2
  12274  12275  12278  12279     1  0.0000000  0.7531200  3
  12274  12275  12278  12286     1  0.0000000  0.6508444  3
  12274  12296  12280  12279     1  180.0000771  0.4184000  2
  12274  12296  12280  12279     1  0.0000000  1.6024720  3
  12274  12296  12280  12284     1  180.0000771  5.6484000  1
  12274  12296  12280  12284     1  180.0000771  3.5564000  2
  12274  12296  12280  12284     1  0.0000000  0.4184000  3
  12275  12274  12288  12294     1  0.0000000  0.6508444  3
  12275  12274  12296  12280     1  180.0000771  0.4184000  2
  12275  12274  12296  12280     1  0.0000000  1.6024720  3
  12275  12278  12279  12280     1  180.0000771  0.8368000  1
  12275  12278  12279  12280     1  180.0000771  1.0460000  2
  12275  12278  12279  12280     1  0.0000000  0.7531200  3
  12275  12278  12279  12285     1  0.0000000  0.6508444  3
  12278  12275  12274  12288     1  180.0000771  0.8368000  1
  12278  12275  12274  12288     1  180.0000771  1.0460000  2
  12278  12275  12274  12288     1  0.0000000  0.7531200  3
  12278  12275  12274  12296     1  0.0000000  0.6508444  3
  12278  12279  12280  12284     1  0.0000000  0.6508444  3
  12278  12279  12280  12296     1  0.0000000  0.6508444  3
  12279  12278  12275  12287     1  0.0000000  0.6508444  3
  12280  12279  12278  12286     1  0.0000000  0.6508444  3
  12280  12296  12274  12288     1  180.0000771  0.4184000  2
  12280  12296  12274  12288     1  0.0000000  1.6024720  3
  12284  12280  12279  12285     1  0.0000000  4.9162000  2
  12284  12280  12279  12285     1  0.0000000  0.6024960  3
  12285  12279  12278  12286     1  0.0000000  4.9162000  2
  12285  12279  12278  12286     1  0.0000000  0.6024960  3
  12285  12279  12280  12296     1  0.0000000  4.9162000  2
  12285  12279  12280  12296     1  0.0000000  0.6024960  3
  12286  12278  12275  12287     1  0.0000000  4.9162000  2
  12286  12278  12275  12287     1  0.0000000  0.6024960  3
  12287  12275  12274  12288     1  0.0000000  0.6508444  3
  12287  12275  12274  12296     1  0.0000000  4.9162000  2
  12287  12275  12274  12296     1  0.0000000  0.6024960  3
  12294  12288  12274  12296     1  0.0000000  4.9162000  2
  12294  12288  12274  12296     1  0.0000000  0.6024960  3
  12297  12298  12301  12302     1  180.0000771  0.8368000  1
  12297  12298  12301  12302     1  180.0000771  1.0460000  2
  12297  12298  12301  12302     1  0.0000000  0.7531200  3
  12297  12298  12301  12309     1  0.0000000  0.6508444  3
  12297  12319  12303  12307     1  180.0000771  5.6484000  1
  12297  12319  12303  12307     1  180.0000771  3.5564000  2
  12297  12319  12303  12307     1  0.0000000  0.4184000  3
  12297  12319  12303  12302     1  180.0000771  0.4184000  2
  12297  12319  12303  12302     1  0.0000000  1.6024720  3
  12298  12301  12302  12303     1  180.0000771  0.8368000  1
  12298  12301  12302  12303     1  180.0000771  1.0460000  2
  12298  12301  12302  12303     1  0.0000000  0.7531200  3
  12298  12301  12302  12308     1  0.0000000  0.6508444  3
  12298  12297  12311  12317     1  0.0000000  0.6508444  3
  12298  12297  12319  12303     1  180.0000771  0.4184000  2
  12298  12297  12319  12303     1  0.0000000  1.6024720  3
  12301  12302  12303  12307     1  0.0000000  0.6508444  3
  12301  12302  12303  12319     1  0.0000000  0.6508444  3
  12301  12298  12297  12311     1  180.0000771  0.8368000  1
  12301  12298  12297  12311     1  180.0000771  1.0460000  2
  12301  12298  12297  12311     1  0.0000000  0.7531200  3
  12301  12298  12297  12319     1  0.0000000  0.6508444  3
  12302  12301  12298  12310     1  0.0000000  0.6508444  3
  12303  12319  12297  12311     1  180.0000771  0.4184000  2
  12303  12319  12297  12311     1  0.0000000  1.6024720  3
  12303  12302  12301  12309     1  0.0000000  0.6508444  3
  12307  12303  12302  12308     1  0.0000000  4.9162000  2
  12307  12303  12302  12308     1  0.0000000  0.6024960  3
  12308  12302  12303  12319     1  0.0000000  4.9162000  2
  12308  12302  12303  12319     1  0.0000000  0.6024960  3
  12308  12302  12301  12309     1  0.0000000  4.9162000  2
  12308  12302  12301  12309     1  0.0000000  0.6024960  3
  12309  12301  12298  12310     1  0.0000000  4.9162000  2
  12309  12301  12298  12310     1  0.0000000  0.6024960  3
  12310  12298  12297  12311     1  0.0000000  0.6508444  3
  12310  12298  12297  12319     1  0.0000000  4.9162000  2
  12310  12298  12297  12319     1  0.0000000  0.6024960  3
  12317  12311  12297  12319     1  0.0000000  4.9162000  2
  12317  12311  12297  12319     1  0.0000000  0.6024960  3
  12320  12321  12324  12325     1  180.0000771  0.8368000  1
  12320  12321  12324  12325     1  180.0000771  1.0460000  2
  12320  12321  12324  12325     1  0.0000000  0.7531200  3
  12320  12321  12324  12332     1  0.0000000  0.6508444  3
  12320  12342  12326  12325     1  180.0000771  0.4184000  2
  12320  12342  12326  12325     1  0.0000000  1.6024720  3
  12320  12342  12326  12330     1  180.0000771  5.6484000  1
  12320  12342  12326  12330     1  180.0000771  3.5564000  2
  12320  12342  12326  12330     1  0.0000000  0.4184000  3
  12321  12320  12334  12340     1  0.0000000  0.6508444  3
  12321  12320  12342  12326     1  180.0000771  0.4184000  2
  12321  12320  12342  12326     1  0.0000000  1.6024720  3
  12321  12324  12325  12326     1  180.0000771  0.8368000  1
  12321  12324  12325  12326     1  180.0000771  1.0460000  2
  12321  12324  12325  12326     1  0.0000000  0.7531200  3
  12321  12324  12325  12331     1  0.0000000  0.6508444  3
  12324  12321  12320  12334     1  180.0000771  0.8368000  1
  12324  12321  12320  12334     1  180.0000771  1.0460000  2
  12324  12321  12320  12334     1  0.0000000  0.7531200  3
  12324  12321  12320  12342     1  0.0000000  0.6508444  3
  12324  12325  12326  12330     1  0.0000000  0.6508444  3
  12324  12325  12326  12342     1  0.0000000  0.6508444  3
  12325  12324  12321  12333     1  0.0000000  0.6508444  3
  12326  12325  12324  12332     1  0.0000000  0.6508444  3
  12326  12342  12320  12334     1  180.0000771  0.4184000  2
  12326  12342  12320  12334     1  0.0000000  1.6024720  3
  12330  12326  12325  12331     1  0.0000000  4.9162000  2
  12330  12326  12325  12331     1  0.0000000  0.6024960  3
  12331  12325  12324  12332     1  0.0000000  4.9162000  2
  12331  12325  12324  12332     1  0.0000000  0.6024960  3
  12331  12325  12326  12342     1  0.0000000  4.9162000  2
  12331  12325  12326  12342     1  0.0000000  0.6024960  3
  12332  12324  12321  12333     1  0.0000000  4.9162000  2
  12332  12324  12321  12333     1  0.0000000  0.6024960  3
  12333  12321  12320  12334     1  0.0000000  0.6508444  3
  12333  12321  12320  12342     1  0.0000000  4.9162000  2
  12333  12321  12320  12342     1  0.0000000  0.6024960  3
  12340  12334  12320  12342     1  0.0000000  4.9162000  2
  12340  12334  12320  12342     1  0.0000000  0.6024960  3
  12343  12344  12347  12348     1  180.0000771  0.8368000  1
  12343  12344  12347  12348     1  180.0000771  1.0460000  2
  12343  12344  12347  12348     1  0.0000000  0.7531200  3
  12343  12344  12347  12355     1  0.0000000  0.6508444  3
  12343  12365  12349  12353     1  180.0000771  5.6484000  1
  12343  12365  12349  12353     1  180.0000771  3.5564000  2
  12343  12365  12349  12353     1  0.0000000  0.4184000  3
  12343  12365  12349  12348     1  180.0000771  0.4184000  2
  12343  12365  12349  12348     1  0.0000000  1.6024720  3
  12344  12347  12348  12349     1  180.0000771  0.8368000  1
  12344  12347  12348  12349     1  180.0000771  1.0460000  2
  12344  12347  12348  12349     1  0.0000000  0.7531200  3
  12344  12347  12348  12354     1  0.0000000  0.6508444  3
  12344  12343  12357  12363     1  0.0000000  0.6508444  3
  12344  12343  12365  12349     1  180.0000771  0.4184000  2
  12344  12343  12365  12349     1  0.0000000  1.6024720  3
  12347  12348  12349  12353     1  0.0000000  0.6508444  3
  12347  12348  12349  12365     1  0.0000000  0.6508444  3
  12347  12344  12343  12357     1  180.0000771  0.8368000  1
  12347  12344  12343  12357     1  180.0000771  1.0460000  2
  12347  12344  12343  12357     1  0.0000000  0.7531200  3
  12347  12344  12343  12365     1  0.0000000  0.6508444  3
  12348  12347  12344  12356     1  0.0000000  0.6508444  3
  12349  12365  12343  12357     1  180.0000771  0.4184000  2
  12349  12365  12343  12357     1  0.0000000  1.6024720  3
  12349  12348  12347  12355     1  0.0000000  0.6508444  3
  12353  12349  12348  12354     1  0.0000000  4.9162000  2
  12353  12349  12348  12354     1  0.0000000  0.6024960  3
  12354  12348  12349  12365     1  0.0000000  4.9162000  2
  12354  12348  12349  12365     1  0.0000000  0.6024960  3
  12354  12348  12347  12355     1  0.0000000  4.9162000  2
  12354  12348  12347  12355     1  0.0000000  0.6024960  3
  12355  12347  12344  12356     1  0.0000000  4.9162000  2
  12355  12347  12344  12356     1  0.0000000  0.6024960  3
  12356  12344  12343  12357     1  0.0000000  0.6508444  3
  12356  12344  12343  12365     1  0.0000000  4.9162000  2
  12356  12344  12343  12365     1  0.0000000  0.6024960  3
  12363  12357  12343  12365     1  0.0000000  4.9162000  2
  12363  12357  12343  12365     1  0.0000000  0.6024960  3
  12366  12367  12370  12371     1  180.0000771  0.8368000  1
  12366  12367  12370  12371     1  180.0000771  1.0460000  2
  12366  12367  12370  12371     1  0.0000000  0.7531200  3
  12366  12367  12370  12378     1  0.0000000  0.6508444  3
  12366  12388  12372  12371     1  180.0000771  0.4184000  2
  12366  12388  12372  12371     1  0.0000000  1.6024720  3
  12366  12388  12372  12376     1  180.0000771  5.6484000  1
  12366  12388  12372  12376     1  180.0000771  3.5564000  2
  12366  12388  12372  12376     1  0.0000000  0.4184000  3
  12367  12366  12380  12386     1  0.0000000  0.6508444  3
  12367  12366  12388  12372     1  180.0000771  0.4184000  2
  12367  12366  12388  12372     1  0.0000000  1.6024720  3
  12367  12370  12371  12372     1  180.0000771  0.8368000  1
  12367  12370  12371  12372     1  180.0000771  1.0460000  2
  12367  12370  12371  12372     1  0.0000000  0.7531200  3
  12367  12370  12371  12377     1  0.0000000  0.6508444  3
  12370  12367  12366  12380     1  180.0000771  0.8368000  1
  12370  12367  12366  12380     1  180.0000771  1.0460000  2
  12370  12367  12366  12380     1  0.0000000  0.7531200  3
  12370  12367  12366  12388     1  0.0000000  0.6508444  3
  12370  12371  12372  12376     1  0.0000000  0.6508444  3
  12370  12371  12372  12388     1  0.0000000  0.6508444  3
  12371  12370  12367  12379     1  0.0000000  0.6508444  3
  12372  12371  12370  12378     1  0.0000000  0.6508444  3
  12372  12388  12366  12380     1  180.0000771  0.4184000  2
  12372  12388  12366  12380     1  0.0000000  1.6024720  3
  12376  12372  12371  12377     1  0.0000000  4.9162000  2
  12376  12372  12371  12377     1  0.0000000  0.6024960  3
  12377  12371  12370  12378     1  0.0000000  4.9162000  2
  12377  12371  12370  12378     1  0.0000000  0.6024960  3
  12377  12371  12372  12388     1  0.0000000  4.9162000  2
  12377  12371  12372  12388     1  0.0000000  0.6024960  3
  12378  12370  12367  12379     1  0.0000000  4.9162000  2
  12378  12370  12367  12379     1  0.0000000  0.6024960  3
  12379  12367  12366  12380     1  0.0000000  0.6508444  3
  12379  12367  12366  12388     1  0.0000000  4.9162000  2
  12379  12367  12366  12388     1  0.0000000  0.6024960  3
  12386  12380  12366  12388     1  0.0000000  4.9162000  2
  12386  12380  12366  12388     1  0.0000000  0.6024960  3
  12389  12390  12393  12394     1  180.0000771  0.8368000  1
  12389  12390  12393  12394     1  180.0000771  1.0460000  2
  12389  12390  12393  12394     1  0.0000000  0.7531200  3
  12389  12390  12393  12401     1  0.0000000  0.6508444  3
  12389  12411  12395  12399     1  180.0000771  5.6484000  1
  12389  12411  12395  12399     1  180.0000771  3.5564000  2
  12389  12411  12395  12399     1  0.0000000  0.4184000  3
  12389  12411  12395  12394     1  180.0000771  0.4184000  2
  12389  12411  12395  12394     1  0.0000000  1.6024720  3
  12390  12393  12394  12395     1  180.0000771  0.8368000  1
  12390  12393  12394  12395     1  180.0000771  1.0460000  2
  12390  12393  12394  12395     1  0.0000000  0.7531200  3
  12390  12393  12394  12400     1  0.0000000  0.6508444  3
  12390  12389  12403  12409     1  0.0000000  0.6508444  3
  12390  12389  12411  12395     1  180.0000771  0.4184000  2
  12390  12389  12411  12395     1  0.0000000  1.6024720  3
  12393  12394  12395  12399     1  0.0000000  0.6508444  3
  12393  12394  12395  12411     1  0.0000000  0.6508444  3
  12393  12390  12389  12403     1  180.0000771  0.8368000  1
  12393  12390  12389  12403     1  180.0000771  1.0460000  2
  12393  12390  12389  12403     1  0.0000000  0.7531200  3
  12393  12390  12389  12411     1  0.0000000  0.6508444  3
  12394  12393  12390  12402     1  0.0000000  0.6508444  3
  12395  12411  12389  12403     1  180.0000771  0.4184000  2
  12395  12411  12389  12403     1  0.0000000  1.6024720  3
  12395  12394  12393  12401     1  0.0000000  0.6508444  3
  12399  12395  12394  12400     1  0.0000000  4.9162000  2
  12399  12395  12394  12400     1  0.0000000  0.6024960  3
  12400  12394  12395  12411     1  0.0000000  4.9162000  2
  12400  12394  12395  12411     1  0.0000000  0.6024960  3
  12400  12394  12393  12401     1  0.0000000  4.9162000  2
  12400  12394  12393  12401     1  0.0000000  0.6024960  3
  12401  12393  12390  12402     1  0.0000000  4.9162000  2
  12401  12393  12390  12402     1  0.0000000  0.6024960  3
  12402  12390  12389  12403     1  0.0000000  0.6508444  3
  12402  12390  12389  12411     1  0.0000000  4.9162000  2
  12402  12390  12389  12411     1  0.0000000  0.6024960  3
  12409  12403  12389  12411     1  0.0000000  4.9162000  2
  12409  12403  12389  12411     1  0.0000000  0.6024960  3
  12412  12413  12416  12417     1  180.0000771  0.8368000  1
  12412  12413  12416  12417     1  180.0000771  1.0460000  2
  12412  12413  12416  12417     1  0.0000000  0.7531200  3
  12412  12413  12416  12424     1  0.0000000  0.6508444  3
  12412  12434  12418  12417     1  180.0000771  0.4184000  2
  12412  12434  12418  12417     1  0.0000000  1.6024720  3
  12412  12434  12418  12422     1  180.0000771  5.6484000  1
  12412  12434  12418  12422     1  180.0000771  3.5564000  2
  12412  12434  12418  12422     1  0.0000000  0.4184000  3
  12413  12412  12426  12432     1  0.0000000  0.6508444  3
  12413  12412  12434  12418     1  180.0000771  0.4184000  2
  12413  12412  12434  12418     1  0.0000000  1.6024720  3
  12413  12416  12417  12418     1  180.0000771  0.8368000  1
  12413  12416  12417  12418     1  180.0000771  1.0460000  2
  12413  12416  12417  12418     1  0.0000000  0.7531200  3
  12413  12416  12417  12423     1  0.0000000  0.6508444  3
  12416  12413  12412  12426     1  180.0000771  0.8368000  1
  12416  12413  12412  12426     1  180.0000771  1.0460000  2
  12416  12413  12412  12426     1  0.0000000  0.7531200  3
  12416  12413  12412  12434     1  0.0000000  0.6508444  3
  12416  12417  12418  12422     1  0.0000000  0.6508444  3
  12416  12417  12418  12434     1  0.0000000  0.6508444  3
  12417  12416  12413  12425     1  0.0000000  0.6508444  3
  12418  12417  12416  12424     1  0.0000000  0.6508444  3
  12418  12434  12412  12426     1  180.0000771  0.4184000  2
  12418  12434  12412  12426     1  0.0000000  1.6024720  3
  12422  12418  12417  12423     1  0.0000000  4.9162000  2
  12422  12418  12417  12423     1  0.0000000  0.6024960  3
  12423  12417  12416  12424     1  0.0000000  4.9162000  2
  12423  12417  12416  12424     1  0.0000000  0.6024960  3
  12423  12417  12418  12434     1  0.0000000  4.9162000  2
  12423  12417  12418  12434     1  0.0000000  0.6024960  3
  12424  12416  12413  12425     1  0.0000000  4.9162000  2
  12424  12416  12413  12425     1  0.0000000  0.6024960  3
  12425  12413  12412  12426     1  0.0000000  0.6508444  3
  12425  12413  12412  12434     1  0.0000000  4.9162000  2
  12425  12413  12412  12434     1  0.0000000  0.6024960  3
  12432  12426  12412  12434     1  0.0000000  4.9162000  2
  12432  12426  12412  12434     1  0.0000000  0.6024960  3
  12435  12436  12439  12440     1  180.0000771  0.8368000  1
  12435  12436  12439  12440     1  180.0000771  1.0460000  2
  12435  12436  12439  12440     1  0.0000000  0.7531200  3
  12435  12436  12439  12447     1  0.0000000  0.6508444  3
  12435  12457  12441  12445     1  180.0000771  5.6484000  1
  12435  12457  12441  12445     1  180.0000771  3.5564000  2
  12435  12457  12441  12445     1  0.0000000  0.4184000  3
  12435  12457  12441  12440     1  180.0000771  0.4184000  2
  12435  12457  12441  12440     1  0.0000000  1.6024720  3
  12436  12439  12440  12441     1  180.0000771  0.8368000  1
  12436  12439  12440  12441     1  180.0000771  1.0460000  2
  12436  12439  12440  12441     1  0.0000000  0.7531200  3
  12436  12439  12440  12446     1  0.0000000  0.6508444  3
  12436  12435  12449  12455     1  0.0000000  0.6508444  3
  12436  12435  12457  12441     1  180.0000771  0.4184000  2
  12436  12435  12457  12441     1  0.0000000  1.6024720  3
  12439  12440  12441  12445     1  0.0000000  0.6508444  3
  12439  12440  12441  12457     1  0.0000000  0.6508444  3
  12439  12436  12435  12449     1  180.0000771  0.8368000  1
  12439  12436  12435  12449     1  180.0000771  1.0460000  2
  12439  12436  12435  12449     1  0.0000000  0.7531200  3
  12439  12436  12435  12457     1  0.0000000  0.6508444  3
  12440  12439  12436  12448     1  0.0000000  0.6508444  3
  12441  12457  12435  12449     1  180.0000771  0.4184000  2
  12441  12457  12435  12449     1  0.0000000  1.6024720  3
  12441  12440  12439  12447     1  0.0000000  0.6508444  3
  12445  12441  12440  12446     1  0.0000000  4.9162000  2
  12445  12441  12440  12446     1  0.0000000  0.6024960  3
  12446  12440  12441  12457     1  0.0000000  4.9162000  2
  12446  12440  12441  12457     1  0.0000000  0.6024960  3
  12446  12440  12439  12447     1  0.0000000  4.9162000  2
  12446  12440  12439  12447     1  0.0000000  0.6024960  3
  12447  12439  12436  12448     1  0.0000000  4.9162000  2
  12447  12439  12436  12448     1  0.0000000  0.6024960  3
  12448  12436  12435  12449     1  0.0000000  0.6508444  3
  12448  12436  12435  12457     1  0.0000000  4.9162000  2
  12448  12436  12435  12457     1  0.0000000  0.6024960  3
  12455  12449  12435  12457     1  0.0000000  4.9162000  2
  12455  12449  12435  12457     1  0.0000000  0.6024960  3
  12458  12459  12462  12463     1  180.0000771  0.8368000  1
  12458  12459  12462  12463     1  180.0000771  1.0460000  2
  12458  12459  12462  12463     1  0.0000000  0.7531200  3
  12458  12459  12462  12470     1  0.0000000  0.6508444  3
  12458  12480  12464  12463     1  180.0000771  0.4184000  2
  12458  12480  12464  12463     1  0.0000000  1.6024720  3
  12458  12480  12464  12468     1  180.0000771  5.6484000  1
  12458  12480  12464  12468     1  180.0000771  3.5564000  2
  12458  12480  12464  12468     1  0.0000000  0.4184000  3
  12459  12458  12472  12478     1  0.0000000  0.6508444  3
  12459  12458  12480  12464     1  180.0000771  0.4184000  2
  12459  12458  12480  12464     1  0.0000000  1.6024720  3
  12459  12462  12463  12464     1  180.0000771  0.8368000  1
  12459  12462  12463  12464     1  180.0000771  1.0460000  2
  12459  12462  12463  12464     1  0.0000000  0.7531200  3
  12459  12462  12463  12469     1  0.0000000  0.6508444  3
  12462  12459  12458  12472     1  180.0000771  0.8368000  1
  12462  12459  12458  12472     1  180.0000771  1.0460000  2
  12462  12459  12458  12472     1  0.0000000  0.7531200  3
  12462  12459  12458  12480     1  0.0000000  0.6508444  3
  12462  12463  12464  12468     1  0.0000000  0.6508444  3
  12462  12463  12464  12480     1  0.0000000  0.6508444  3
  12463  12462  12459  12471     1  0.0000000  0.6508444  3
  12464  12463  12462  12470     1  0.0000000  0.6508444  3
  12464  12480  12458  12472     1  180.0000771  0.4184000  2
  12464  12480  12458  12472     1  0.0000000  1.6024720  3
  12468  12464  12463  12469     1  0.0000000  4.9162000  2
  12468  12464  12463  12469     1  0.0000000  0.6024960  3
  12469  12463  12462  12470     1  0.0000000  4.9162000  2
  12469  12463  12462  12470     1  0.0000000  0.6024960  3
  12469  12463  12464  12480     1  0.0000000  4.9162000  2
  12469  12463  12464  12480     1  0.0000000  0.6024960  3
  12470  12462  12459  12471     1  0.0000000  4.9162000  2
  12470  12462  12459  12471     1  0.0000000  0.6024960  3
  12471  12459  12458  12472     1  0.0000000  0.6508444  3
  12471  12459  12458  12480     1  0.0000000  4.9162000  2
  12471  12459  12458  12480     1  0.0000000  0.6024960  3
  12478  12472  12458  12480     1  0.0000000  4.9162000  2
  12478  12472  12458  12480     1  0.0000000  0.6024960  3
  12481  12482  12485  12486     1  180.0000771  0.8368000  1
  12481  12482  12485  12486     1  180.0000771  1.0460000  2
  12481  12482  12485  12486     1  0.0000000  0.7531200  3
  12481  12482  12485  12493     1  0.0000000  0.6508444  3
  12481  12503  12487  12491     1  180.0000771  5.6484000  1
  12481  12503  12487  12491     1  180.0000771  3.5564000  2
  12481  12503  12487  12491     1  0.0000000  0.4184000  3
  12481  12503  12487  12486     1  180.0000771  0.4184000  2
  12481  12503  12487  12486     1  0.0000000  1.6024720  3
  12482  12485  12486  12487     1  180.0000771  0.8368000  1
  12482  12485  12486  12487     1  180.0000771  1.0460000  2
  12482  12485  12486  12487     1  0.0000000  0.7531200  3
  12482  12485  12486  12492     1  0.0000000  0.6508444  3
  12482  12481  12495  12501     1  0.0000000  0.6508444  3
  12482  12481  12503  12487     1  180.0000771  0.4184000  2
  12482  12481  12503  12487     1  0.0000000  1.6024720  3
  12485  12486  12487  12491     1  0.0000000  0.6508444  3
  12485  12486  12487  12503     1  0.0000000  0.6508444  3
  12485  12482  12481  12495     1  180.0000771  0.8368000  1
  12485  12482  12481  12495     1  180.0000771  1.0460000  2
  12485  12482  12481  12495     1  0.0000000  0.7531200  3
  12485  12482  12481  12503     1  0.0000000  0.6508444  3
  12486  12485  12482  12494     1  0.0000000  0.6508444  3
  12487  12503  12481  12495     1  180.0000771  0.4184000  2
  12487  12503  12481  12495     1  0.0000000  1.6024720  3
  12487  12486  12485  12493     1  0.0000000  0.6508444  3
  12491  12487  12486  12492     1  0.0000000  4.9162000  2
  12491  12487  12486  12492     1  0.0000000  0.6024960  3
  12492  12486  12487  12503     1  0.0000000  4.9162000  2
  12492  12486  12487  12503     1  0.0000000  0.6024960  3
  12492  12486  12485  12493     1  0.0000000  4.9162000  2
  12492  12486  12485  12493     1  0.0000000  0.6024960  3
  12493  12485  12482  12494     1  0.0000000  4.9162000  2
  12493  12485  12482  12494     1  0.0000000  0.6024960  3
  12494  12482  12481  12495     1  0.0000000  0.6508444  3
  12494  12482  12481  12503     1  0.0000000  4.9162000  2
  12494  12482  12481  12503     1  0.0000000  0.6024960  3
  12501  12495  12481  12503     1  0.0000000  4.9162000  2
  12501  12495  12481  12503     1  0.0000000  0.6024960  3
  12504  12505  12508  12509     1  180.0000771  0.8368000  1
  12504  12505  12508  12509     1  180.0000771  1.0460000  2
  12504  12505  12508  12509     1  0.0000000  0.7531200  3
  12504  12505  12508  12516     1  0.0000000  0.6508444  3
  12504  12526  12510  12509     1  180.0000771  0.4184000  2
  12504  12526  12510  12509     1  0.0000000  1.6024720  3
  12504  12526  12510  12514     1  180.0000771  5.6484000  1
  12504  12526  12510  12514     1  180.0000771  3.5564000  2
  12504  12526  12510  12514     1  0.0000000  0.4184000  3
  12505  12504  12518  12524     1  0.0000000  0.6508444  3
  12505  12504  12526  12510     1  180.0000771  0.4184000  2
  12505  12504  12526  12510     1  0.0000000  1.6024720  3
  12505  12508  12509  12510     1  180.0000771  0.8368000  1
  12505  12508  12509  12510     1  180.0000771  1.0460000  2
  12505  12508  12509  12510     1  0.0000000  0.7531200  3
  12505  12508  12509  12515     1  0.0000000  0.6508444  3
  12508  12505  12504  12518     1  180.0000771  0.8368000  1
  12508  12505  12504  12518     1  180.0000771  1.0460000  2
  12508  12505  12504  12518     1  0.0000000  0.7531200  3
  12508  12505  12504  12526     1  0.0000000  0.6508444  3
  12508  12509  12510  12514     1  0.0000000  0.6508444  3
  12508  12509  12510  12526     1  0.0000000  0.6508444  3
  12509  12508  12505  12517     1  0.0000000  0.6508444  3
  12510  12509  12508  12516     1  0.0000000  0.6508444  3
  12510  12526  12504  12518     1  180.0000771  0.4184000  2
  12510  12526  12504  12518     1  0.0000000  1.6024720  3
  12514  12510  12509  12515     1  0.0000000  4.9162000  2
  12514  12510  12509  12515     1  0.0000000  0.6024960  3
  12515  12509  12508  12516     1  0.0000000  4.9162000  2
  12515  12509  12508  12516     1  0.0000000  0.6024960  3
  12515  12509  12510  12526     1  0.0000000  4.9162000  2
  12515  12509  12510  12526     1  0.0000000  0.6024960  3
  12516  12508  12505  12517     1  0.0000000  4.9162000  2
  12516  12508  12505  12517     1  0.0000000  0.6024960  3
  12517  12505  12504  12518     1  0.0000000  0.6508444  3
  12517  12505  12504  12526     1  0.0000000  4.9162000  2
  12517  12505  12504  12526     1  0.0000000  0.6024960  3
  12524  12518  12504  12526     1  0.0000000  4.9162000  2
  12524  12518  12504  12526     1  0.0000000  0.6024960  3
  12527  12528  12531  12532     1  180.0000771  0.8368000  1
  12527  12528  12531  12532     1  180.0000771  1.0460000  2
  12527  12528  12531  12532     1  0.0000000  0.7531200  3
  12527  12528  12531  12539     1  0.0000000  0.6508444  3
  12527  12549  12533  12537     1  180.0000771  5.6484000  1
  12527  12549  12533  12537     1  180.0000771  3.5564000  2
  12527  12549  12533  12537     1  0.0000000  0.4184000  3
  12527  12549  12533  12532     1  180.0000771  0.4184000  2
  12527  12549  12533  12532     1  0.0000000  1.6024720  3
  12528  12531  12532  12533     1  180.0000771  0.8368000  1
  12528  12531  12532  12533     1  180.0000771  1.0460000  2
  12528  12531  12532  12533     1  0.0000000  0.7531200  3
  12528  12531  12532  12538     1  0.0000000  0.6508444  3
  12528  12527  12541  12547     1  0.0000000  0.6508444  3
  12528  12527  12549  12533     1  180.0000771  0.4184000  2
  12528  12527  12549  12533     1  0.0000000  1.6024720  3
  12531  12532  12533  12537     1  0.0000000  0.6508444  3
  12531  12532  12533  12549     1  0.0000000  0.6508444  3
  12531  12528  12527  12541     1  180.0000771  0.8368000  1
  12531  12528  12527  12541     1  180.0000771  1.0460000  2
  12531  12528  12527  12541     1  0.0000000  0.7531200  3
  12531  12528  12527  12549     1  0.0000000  0.6508444  3
  12532  12531  12528  12540     1  0.0000000  0.6508444  3
  12533  12549  12527  12541     1  180.0000771  0.4184000  2
  12533  12549  12527  12541     1  0.0000000  1.6024720  3
  12533  12532  12531  12539     1  0.0000000  0.6508444  3
  12537  12533  12532  12538     1  0.0000000  4.9162000  2
  12537  12533  12532  12538     1  0.0000000  0.6024960  3
  12538  12532  12533  12549     1  0.0000000  4.9162000  2
  12538  12532  12533  12549     1  0.0000000  0.6024960  3
  12538  12532  12531  12539     1  0.0000000  4.9162000  2
  12538  12532  12531  12539     1  0.0000000  0.6024960  3
  12539  12531  12528  12540     1  0.0000000  4.9162000  2
  12539  12531  12528  12540     1  0.0000000  0.6024960  3
  12540  12528  12527  12541     1  0.0000000  0.6508444  3
  12540  12528  12527  12549     1  0.0000000  4.9162000  2
  12540  12528  12527  12549     1  0.0000000  0.6024960  3
  12547  12541  12527  12549     1  0.0000000  4.9162000  2
  12547  12541  12527  12549     1  0.0000000  0.6024960  3
  12550  12551  12554  12555     1  180.0000771  0.8368000  1
  12550  12551  12554  12555     1  180.0000771  1.0460000  2
  12550  12551  12554  12555     1  0.0000000  0.7531200  3
  12550  12551  12554  12562     1  0.0000000  0.6508444  3
  12550  12572  12556  12555     1  180.0000771  0.4184000  2
  12550  12572  12556  12555     1  0.0000000  1.6024720  3
  12550  12572  12556  12560     1  180.0000771  5.6484000  1
  12550  12572  12556  12560     1  180.0000771  3.5564000  2
  12550  12572  12556  12560     1  0.0000000  0.4184000  3
  12551  12550  12564  12570     1  0.0000000  0.6508444  3
  12551  12550  12572  12556     1  180.0000771  0.4184000  2
  12551  12550  12572  12556     1  0.0000000  1.6024720  3
  12551  12554  12555  12556     1  180.0000771  0.8368000  1
  12551  12554  12555  12556     1  180.0000771  1.0460000  2
  12551  12554  12555  12556     1  0.0000000  0.7531200  3
  12551  12554  12555  12561     1  0.0000000  0.6508444  3
  12554  12551  12550  12564     1  180.0000771  0.8368000  1
  12554  12551  12550  12564     1  180.0000771  1.0460000  2
  12554  12551  12550  12564     1  0.0000000  0.7531200  3
  12554  12551  12550  12572     1  0.0000000  0.6508444  3
  12554  12555  12556  12560     1  0.0000000  0.6508444  3
  12554  12555  12556  12572     1  0.0000000  0.6508444  3
  12555  12554  12551  12563     1  0.0000000  0.6508444  3
  12556  12555  12554  12562     1  0.0000000  0.6508444  3
  12556  12572  12550  12564     1  180.0000771  0.4184000  2
  12556  12572  12550  12564     1  0.0000000  1.6024720  3
  12560  12556  12555  12561     1  0.0000000  4.9162000  2
  12560  12556  12555  12561     1  0.0000000  0.6024960  3
  12561  12555  12554  12562     1  0.0000000  4.9162000  2
  12561  12555  12554  12562     1  0.0000000  0.6024960  3
  12561  12555  12556  12572     1  0.0000000  4.9162000  2
  12561  12555  12556  12572     1  0.0000000  0.6024960  3
  12562  12554  12551  12563     1  0.0000000  4.9162000  2
  12562  12554  12551  12563     1  0.0000000  0.6024960  3
  12563  12551  12550  12564     1  0.0000000  0.6508444  3
  12563  12551  12550  12572     1  0.0000000  4.9162000  2
  12563  12551  12550  12572     1  0.0000000  0.6024960  3
  12570  12564  12550  12572     1  0.0000000  4.9162000  2
  12570  12564  12550  12572     1  0.0000000  0.6024960  3
  12573  12574  12577  12578     1  180.0000771  0.8368000  1
  12573  12574  12577  12578     1  180.0000771  1.0460000  2
  12573  12574  12577  12578     1  0.0000000  0.7531200  3
  12573  12574  12577  12585     1  0.0000000  0.6508444  3
  12573  12595  12579  12583     1  180.0000771  5.6484000  1
  12573  12595  12579  12583     1  180.0000771  3.5564000  2
  12573  12595  12579  12583     1  0.0000000  0.4184000  3
  12573  12595  12579  12578     1  180.0000771  0.4184000  2
  12573  12595  12579  12578     1  0.0000000  1.6024720  3
  12574  12577  12578  12579     1  180.0000771  0.8368000  1
  12574  12577  12578  12579     1  180.0000771  1.0460000  2
  12574  12577  12578  12579     1  0.0000000  0.7531200  3
  12574  12577  12578  12584     1  0.0000000  0.6508444  3
  12574  12573  12587  12593     1  0.0000000  0.6508444  3
  12574  12573  12595  12579     1  180.0000771  0.4184000  2
  12574  12573  12595  12579     1  0.0000000  1.6024720  3
  12577  12578  12579  12583     1  0.0000000  0.6508444  3
  12577  12578  12579  12595     1  0.0000000  0.6508444  3
  12577  12574  12573  12587     1  180.0000771  0.8368000  1
  12577  12574  12573  12587     1  180.0000771  1.0460000  2
  12577  12574  12573  12587     1  0.0000000  0.7531200  3
  12577  12574  12573  12595     1  0.0000000  0.6508444  3
  12578  12577  12574  12586     1  0.0000000  0.6508444  3
  12579  12595  12573  12587     1  180.0000771  0.4184000  2
  12579  12595  12573  12587     1  0.0000000  1.6024720  3
  12579  12578  12577  12585     1  0.0000000  0.6508444  3
  12583  12579  12578  12584     1  0.0000000  4.9162000  2
  12583  12579  12578  12584     1  0.0000000  0.6024960  3
  12584  12578  12579  12595     1  0.0000000  4.9162000  2
  12584  12578  12579  12595     1  0.0000000  0.6024960  3
  12584  12578  12577  12585     1  0.0000000  4.9162000  2
  12584  12578  12577  12585     1  0.0000000  0.6024960  3
  12585  12577  12574  12586     1  0.0000000  4.9162000  2
  12585  12577  12574  12586     1  0.0000000  0.6024960  3
  12586  12574  12573  12587     1  0.0000000  0.6508444  3
  12586  12574  12573  12595     1  0.0000000  4.9162000  2
  12586  12574  12573  12595     1  0.0000000  0.6024960  3
  12593  12587  12573  12595     1  0.0000000  4.9162000  2
  12593  12587  12573  12595     1  0.0000000  0.6024960  3
  12596  12597  12600  12601     1  180.0000771  0.8368000  1
  12596  12597  12600  12601     1  180.0000771  1.0460000  2
  12596  12597  12600  12601     1  0.0000000  0.7531200  3
  12596  12597  12600  12608     1  0.0000000  0.6508444  3
  12596  12618  12602  12601     1  180.0000771  0.4184000  2
  12596  12618  12602  12601     1  0.0000000  1.6024720  3
  12596  12618  12602  12606     1  180.0000771  5.6484000  1
  12596  12618  12602  12606     1  180.0000771  3.5564000  2
  12596  12618  12602  12606     1  0.0000000  0.4184000  3
  12597  12596  12610  12616     1  0.0000000  0.6508444  3
  12597  12596  12618  12602     1  180.0000771  0.4184000  2
  12597  12596  12618  12602     1  0.0000000  1.6024720  3
  12597  12600  12601  12602     1  180.0000771  0.8368000  1
  12597  12600  12601  12602     1  180.0000771  1.0460000  2
  12597  12600  12601  12602     1  0.0000000  0.7531200  3
  12597  12600  12601  12607     1  0.0000000  0.6508444  3
  12600  12597  12596  12610     1  180.0000771  0.8368000  1
  12600  12597  12596  12610     1  180.0000771  1.0460000  2
  12600  12597  12596  12610     1  0.0000000  0.7531200  3
  12600  12597  12596  12618     1  0.0000000  0.6508444  3
  12600  12601  12602  12606     1  0.0000000  0.6508444  3
  12600  12601  12602  12618     1  0.0000000  0.6508444  3
  12601  12600  12597  12609     1  0.0000000  0.6508444  3
  12602  12601  12600  12608     1  0.0000000  0.6508444  3
  12602  12618  12596  12610     1  180.0000771  0.4184000  2
  12602  12618  12596  12610     1  0.0000000  1.6024720  3
  12606  12602  12601  12607     1  0.0000000  4.9162000  2
  12606  12602  12601  12607     1  0.0000000  0.6024960  3
  12607  12601  12600  12608     1  0.0000000  4.9162000  2
  12607  12601  12600  12608     1  0.0000000  0.6024960  3
  12607  12601  12602  12618     1  0.0000000  4.9162000  2
  12607  12601  12602  12618     1  0.0000000  0.6024960  3
  12608  12600  12597  12609     1  0.0000000  4.9162000  2
  12608  12600  12597  12609     1  0.0000000  0.6024960  3
  12609  12597  12596  12610     1  0.0000000  0.6508444  3
  12609  12597  12596  12618     1  0.0000000  4.9162000  2
  12609  12597  12596  12618     1  0.0000000  0.6024960  3
  12616  12610  12596  12618     1  0.0000000  4.9162000  2
  12616  12610  12596  12618     1  0.0000000  0.6024960  3
  12619  12620  12623  12624     1  180.0000771  0.8368000  1
  12619  12620  12623  12624     1  180.0000771  1.0460000  2
  12619  12620  12623  12624     1  0.0000000  0.7531200  3
  12619  12620  12623  12631     1  0.0000000  0.6508444  3
  12619  12641  12625  12629     1  180.0000771  5.6484000  1
  12619  12641  12625  12629     1  180.0000771  3.5564000  2
  12619  12641  12625  12629     1  0.0000000  0.4184000  3
  12619  12641  12625  12624     1  180.0000771  0.4184000  2
  12619  12641  12625  12624     1  0.0000000  1.6024720  3
  12620  12623  12624  12625     1  180.0000771  0.8368000  1
  12620  12623  12624  12625     1  180.0000771  1.0460000  2
  12620  12623  12624  12625     1  0.0000000  0.7531200  3
  12620  12623  12624  12630     1  0.0000000  0.6508444  3
  12620  12619  12633  12639     1  0.0000000  0.6508444  3
  12620  12619  12641  12625     1  180.0000771  0.4184000  2
  12620  12619  12641  12625     1  0.0000000  1.6024720  3
  12623  12624  12625  12629     1  0.0000000  0.6508444  3
  12623  12624  12625  12641     1  0.0000000  0.6508444  3
  12623  12620  12619  12633     1  180.0000771  0.8368000  1
  12623  12620  12619  12633     1  180.0000771  1.0460000  2
  12623  12620  12619  12633     1  0.0000000  0.7531200  3
  12623  12620  12619  12641     1  0.0000000  0.6508444  3
  12624  12623  12620  12632     1  0.0000000  0.6508444  3
  12625  12641  12619  12633     1  180.0000771  0.4184000  2
  12625  12641  12619  12633     1  0.0000000  1.6024720  3
  12625  12624  12623  12631     1  0.0000000  0.6508444  3
  12629  12625  12624  12630     1  0.0000000  4.9162000  2
  12629  12625  12624  12630     1  0.0000000  0.6024960  3
  12630  12624  12625  12641     1  0.0000000  4.9162000  2
  12630  12624  12625  12641     1  0.0000000  0.6024960  3
  12630  12624  12623  12631     1  0.0000000  4.9162000  2
  12630  12624  12623  12631     1  0.0000000  0.6024960  3
  12631  12623  12620  12632     1  0.0000000  4.9162000  2
  12631  12623  12620  12632     1  0.0000000  0.6024960  3
  12632  12620  12619  12633     1  0.0000000  0.6508444  3
  12632  12620  12619  12641     1  0.0000000  4.9162000  2
  12632  12620  12619  12641     1  0.0000000  0.6024960  3
  12639  12633  12619  12641     1  0.0000000  4.9162000  2
  12639  12633  12619  12641     1  0.0000000  0.6024960  3
  12642  12643  12646  12647     1  180.0000771  0.8368000  1
  12642  12643  12646  12647     1  180.0000771  1.0460000  2
  12642  12643  12646  12647     1  0.0000000  0.7531200  3
  12642  12643  12646  12654     1  0.0000000  0.6508444  3
  12642  12664  12648  12647     1  180.0000771  0.4184000  2
  12642  12664  12648  12647     1  0.0000000  1.6024720  3
  12642  12664  12648  12652     1  180.0000771  5.6484000  1
  12642  12664  12648  12652     1  180.0000771  3.5564000  2
  12642  12664  12648  12652     1  0.0000000  0.4184000  3
  12643  12642  12656  12662     1  0.0000000  0.6508444  3
  12643  12642  12664  12648     1  180.0000771  0.4184000  2
  12643  12642  12664  12648     1  0.0000000  1.6024720  3
  12643  12646  12647  12648     1  180.0000771  0.8368000  1
  12643  12646  12647  12648     1  180.0000771  1.0460000  2
  12643  12646  12647  12648     1  0.0000000  0.7531200  3
  12643  12646  12647  12653     1  0.0000000  0.6508444  3
  12646  12643  12642  12656     1  180.0000771  0.8368000  1
  12646  12643  12642  12656     1  180.0000771  1.0460000  2
  12646  12643  12642  12656     1  0.0000000  0.7531200  3
  12646  12643  12642  12664     1  0.0000000  0.6508444  3
  12646  12647  12648  12652     1  0.0000000  0.6508444  3
  12646  12647  12648  12664     1  0.0000000  0.6508444  3
  12647  12646  12643  12655     1  0.0000000  0.6508444  3
  12648  12647  12646  12654     1  0.0000000  0.6508444  3
  12648  12664  12642  12656     1  180.0000771  0.4184000  2
  12648  12664  12642  12656     1  0.0000000  1.6024720  3
  12652  12648  12647  12653     1  0.0000000  4.9162000  2
  12652  12648  12647  12653     1  0.0000000  0.6024960  3
  12653  12647  12646  12654     1  0.0000000  4.9162000  2
  12653  12647  12646  12654     1  0.0000000  0.6024960  3
  12653  12647  12648  12664     1  0.0000000  4.9162000  2
  12653  12647  12648  12664     1  0.0000000  0.6024960  3
  12654  12646  12643  12655     1  0.0000000  4.9162000  2
  12654  12646  12643  12655     1  0.0000000  0.6024960  3
  12655  12643  12642  12656     1  0.0000000  0.6508444  3
  12655  12643  12642  12664     1  0.0000000  4.9162000  2
  12655  12643  12642  12664     1  0.0000000  0.6024960  3
  12662  12656  12642  12664     1  0.0000000  4.9162000  2
  12662  12656  12642  12664     1  0.0000000  0.6024960  3
  12665  12666  12669  12670     1  180.0000771  0.8368000  1
  12665  12666  12669  12670     1  180.0000771  1.0460000  2
  12665  12666  12669  12670     1  0.0000000  0.7531200  3
  12665  12666  12669  12677     1  0.0000000  0.6508444  3
  12665  12687  12671  12675     1  180.0000771  5.6484000  1
  12665  12687  12671  12675     1  180.0000771  3.5564000  2
  12665  12687  12671  12675     1  0.0000000  0.4184000  3
  12665  12687  12671  12670     1  180.0000771  0.4184000  2
  12665  12687  12671  12670     1  0.0000000  1.6024720  3
  12666  12669  12670  12671     1  180.0000771  0.8368000  1
  12666  12669  12670  12671     1  180.0000771  1.0460000  2
  12666  12669  12670  12671     1  0.0000000  0.7531200  3
  12666  12669  12670  12676     1  0.0000000  0.6508444  3
  12666  12665  12679  12685     1  0.0000000  0.6508444  3
  12666  12665  12687  12671     1  180.0000771  0.4184000  2
  12666  12665  12687  12671     1  0.0000000  1.6024720  3
  12669  12670  12671  12675     1  0.0000000  0.6508444  3
  12669  12670  12671  12687     1  0.0000000  0.6508444  3
  12669  12666  12665  12679     1  180.0000771  0.8368000  1
  12669  12666  12665  12679     1  180.0000771  1.0460000  2
  12669  12666  12665  12679     1  0.0000000  0.7531200  3
  12669  12666  12665  12687     1  0.0000000  0.6508444  3
  12670  12669  12666  12678     1  0.0000000  0.6508444  3
  12671  12687  12665  12679     1  180.0000771  0.4184000  2
  12671  12687  12665  12679     1  0.0000000  1.6024720  3
  12671  12670  12669  12677     1  0.0000000  0.6508444  3
  12675  12671  12670  12676     1  0.0000000  4.9162000  2
  12675  12671  12670  12676     1  0.0000000  0.6024960  3
  12676  12670  12671  12687     1  0.0000000  4.9162000  2
  12676  12670  12671  12687     1  0.0000000  0.6024960  3
  12676  12670  12669  12677     1  0.0000000  4.9162000  2
  12676  12670  12669  12677     1  0.0000000  0.6024960  3
  12677  12669  12666  12678     1  0.0000000  4.9162000  2
  12677  12669  12666  12678     1  0.0000000  0.6024960  3
  12678  12666  12665  12679     1  0.0000000  0.6508444  3
  12678  12666  12665  12687     1  0.0000000  4.9162000  2
  12678  12666  12665  12687     1  0.0000000  0.6024960  3
  12685  12679  12665  12687     1  0.0000000  4.9162000  2
  12685  12679  12665  12687     1  0.0000000  0.6024960  3
  12688  12689  12692  12693     1  180.0000771  0.8368000  1
  12688  12689  12692  12693     1  180.0000771  1.0460000  2
  12688  12689  12692  12693     1  0.0000000  0.7531200  3
  12688  12689  12692  12700     1  0.0000000  0.6508444  3
  12688  12710  12694  12693     1  180.0000771  0.4184000  2
  12688  12710  12694  12693     1  0.0000000  1.6024720  3
  12688  12710  12694  12698     1  180.0000771  5.6484000  1
  12688  12710  12694  12698     1  180.0000771  3.5564000  2
  12688  12710  12694  12698     1  0.0000000  0.4184000  3
  12689  12688  12702  12708     1  0.0000000  0.6508444  3
  12689  12688  12710  12694     1  180.0000771  0.4184000  2
  12689  12688  12710  12694     1  0.0000000  1.6024720  3
  12689  12692  12693  12694     1  180.0000771  0.8368000  1
  12689  12692  12693  12694     1  180.0000771  1.0460000  2
  12689  12692  12693  12694     1  0.0000000  0.7531200  3
  12689  12692  12693  12699     1  0.0000000  0.6508444  3
  12692  12689  12688  12702     1  180.0000771  0.8368000  1
  12692  12689  12688  12702     1  180.0000771  1.0460000  2
  12692  12689  12688  12702     1  0.0000000  0.7531200  3
  12692  12689  12688  12710     1  0.0000000  0.6508444  3
  12692  12693  12694  12698     1  0.0000000  0.6508444  3
  12692  12693  12694  12710     1  0.0000000  0.6508444  3
  12693  12692  12689  12701     1  0.0000000  0.6508444  3
  12694  12693  12692  12700     1  0.0000000  0.6508444  3
  12694  12710  12688  12702     1  180.0000771  0.4184000  2
  12694  12710  12688  12702     1  0.0000000  1.6024720  3
  12698  12694  12693  12699     1  0.0000000  4.9162000  2
  12698  12694  12693  12699     1  0.0000000  0.6024960  3
  12699  12693  12692  12700     1  0.0000000  4.9162000  2
  12699  12693  12692  12700     1  0.0000000  0.6024960  3
  12699  12693  12694  12710     1  0.0000000  4.9162000  2
  12699  12693  12694  12710     1  0.0000000  0.6024960  3
  12700  12692  12689  12701     1  0.0000000  4.9162000  2
  12700  12692  12689  12701     1  0.0000000  0.6024960  3
  12701  12689  12688  12702     1  0.0000000  0.6508444  3
  12701  12689  12688  12710     1  0.0000000  4.9162000  2
  12701  12689  12688  12710     1  0.0000000  0.6024960  3
  12708  12702  12688  12710     1  0.0000000  4.9162000  2
  12708  12702  12688  12710     1  0.0000000  0.6024960  3
  12711  12712  12715  12716     1  180.0000771  0.8368000  1
  12711  12712  12715  12716     1  180.0000771  1.0460000  2
  12711  12712  12715  12716     1  0.0000000  0.7531200  3
  12711  12712  12715  12723     1  0.0000000  0.6508444  3
  12711  12733  12717  12721     1  180.0000771  5.6484000  1
  12711  12733  12717  12721     1  180.0000771  3.5564000  2
  12711  12733  12717  12721     1  0.0000000  0.4184000  3
  12711  12733  12717  12716     1  180.0000771  0.4184000  2
  12711  12733  12717  12716     1  0.0000000  1.6024720  3
  12712  12715  12716  12717     1  180.0000771  0.8368000  1
  12712  12715  12716  12717     1  180.0000771  1.0460000  2
  12712  12715  12716  12717     1  0.0000000  0.7531200  3
  12712  12715  12716  12722     1  0.0000000  0.6508444  3
  12712  12711  12725  12731     1  0.0000000  0.6508444  3
  12712  12711  12733  12717     1  180.0000771  0.4184000  2
  12712  12711  12733  12717     1  0.0000000  1.6024720  3
  12715  12716  12717  12721     1  0.0000000  0.6508444  3
  12715  12716  12717  12733     1  0.0000000  0.6508444  3
  12715  12712  12711  12725     1  180.0000771  0.8368000  1
  12715  12712  12711  12725     1  180.0000771  1.0460000  2
  12715  12712  12711  12725     1  0.0000000  0.7531200  3
  12715  12712  12711  12733     1  0.0000000  0.6508444  3
  12716  12715  12712  12724     1  0.0000000  0.6508444  3
  12717  12733  12711  12725     1  180.0000771  0.4184000  2
  12717  12733  12711  12725     1  0.0000000  1.6024720  3
  12717  12716  12715  12723     1  0.0000000  0.6508444  3
  12721  12717  12716  12722     1  0.0000000  4.9162000  2
  12721  12717  12716  12722     1  0.0000000  0.6024960  3
  12722  12716  12717  12733     1  0.0000000  4.9162000  2
  12722  12716  12717  12733     1  0.0000000  0.6024960  3
  12722  12716  12715  12723     1  0.0000000  4.9162000  2
  12722  12716  12715  12723     1  0.0000000  0.6024960  3
  12723  12715  12712  12724     1  0.0000000  4.9162000  2
  12723  12715  12712  12724     1  0.0000000  0.6024960  3
  12724  12712  12711  12725     1  0.0000000  0.6508444  3
  12724  12712  12711  12733     1  0.0000000  4.9162000  2
  12724  12712  12711  12733     1  0.0000000  0.6024960  3
  12731  12725  12711  12733     1  0.0000000  4.9162000  2
  12731  12725  12711  12733     1  0.0000000  0.6024960  3
  12734  12735  12738  12739     1  180.0000771  0.8368000  1
  12734  12735  12738  12739     1  180.0000771  1.0460000  2
  12734  12735  12738  12739     1  0.0000000  0.7531200  3
  12734  12735  12738  12746     1  0.0000000  0.6508444  3
  12734  12756  12740  12739     1  180.0000771  0.4184000  2
  12734  12756  12740  12739     1  0.0000000  1.6024720  3
  12734  12756  12740  12744     1  180.0000771  5.6484000  1
  12734  12756  12740  12744     1  180.0000771  3.5564000  2
  12734  12756  12740  12744     1  0.0000000  0.4184000  3
  12735  12734  12748  12754     1  0.0000000  0.6508444  3
  12735  12734  12756  12740     1  180.0000771  0.4184000  2
  12735  12734  12756  12740     1  0.0000000  1.6024720  3
  12735  12738  12739  12740     1  180.0000771  0.8368000  1
  12735  12738  12739  12740     1  180.0000771  1.0460000  2
  12735  12738  12739  12740     1  0.0000000  0.7531200  3
  12735  12738  12739  12745     1  0.0000000  0.6508444  3
  12738  12735  12734  12748     1  180.0000771  0.8368000  1
  12738  12735  12734  12748     1  180.0000771  1.0460000  2
  12738  12735  12734  12748     1  0.0000000  0.7531200  3
  12738  12735  12734  12756     1  0.0000000  0.6508444  3
  12738  12739  12740  12744     1  0.0000000  0.6508444  3
  12738  12739  12740  12756     1  0.0000000  0.6508444  3
  12739  12738  12735  12747     1  0.0000000  0.6508444  3
  12740  12739  12738  12746     1  0.0000000  0.6508444  3
  12740  12756  12734  12748     1  180.0000771  0.4184000  2
  12740  12756  12734  12748     1  0.0000000  1.6024720  3
  12744  12740  12739  12745     1  0.0000000  4.9162000  2
  12744  12740  12739  12745     1  0.0000000  0.6024960  3
  12745  12739  12738  12746     1  0.0000000  4.9162000  2
  12745  12739  12738  12746     1  0.0000000  0.6024960  3
  12745  12739  12740  12756     1  0.0000000  4.9162000  2
  12745  12739  12740  12756     1  0.0000000  0.6024960  3
  12746  12738  12735  12747     1  0.0000000  4.9162000  2
  12746  12738  12735  12747     1  0.0000000  0.6024960  3
  12747  12735  12734  12748     1  0.0000000  0.6508444  3
  12747  12735  12734  12756     1  0.0000000  4.9162000  2
  12747  12735  12734  12756     1  0.0000000  0.6024960  3
  12754  12748  12734  12756     1  0.0000000  4.9162000  2
  12754  12748  12734  12756     1  0.0000000  0.6024960  3
  12757  12758  12761  12762     1  180.0000771  0.8368000  1
  12757  12758  12761  12762     1  180.0000771  1.0460000  2
  12757  12758  12761  12762     1  0.0000000  0.7531200  3
  12757  12758  12761  12769     1  0.0000000  0.6508444  3
  12757  12779  12763  12767     1  180.0000771  5.6484000  1
  12757  12779  12763  12767     1  180.0000771  3.5564000  2
  12757  12779  12763  12767     1  0.0000000  0.4184000  3
  12757  12779  12763  12762     1  180.0000771  0.4184000  2
  12757  12779  12763  12762     1  0.0000000  1.6024720  3
  12758  12761  12762  12763     1  180.0000771  0.8368000  1
  12758  12761  12762  12763     1  180.0000771  1.0460000  2
  12758  12761  12762  12763     1  0.0000000  0.7531200  3
  12758  12761  12762  12768     1  0.0000000  0.6508444  3
  12758  12757  12771  12777     1  0.0000000  0.6508444  3
  12758  12757  12779  12763     1  180.0000771  0.4184000  2
  12758  12757  12779  12763     1  0.0000000  1.6024720  3
  12761  12762  12763  12767     1  0.0000000  0.6508444  3
  12761  12762  12763  12779     1  0.0000000  0.6508444  3
  12761  12758  12757  12771     1  180.0000771  0.8368000  1
  12761  12758  12757  12771     1  180.0000771  1.0460000  2
  12761  12758  12757  12771     1  0.0000000  0.7531200  3
  12761  12758  12757  12779     1  0.0000000  0.6508444  3
  12762  12761  12758  12770     1  0.0000000  0.6508444  3
  12763  12779  12757  12771     1  180.0000771  0.4184000  2
  12763  12779  12757  12771     1  0.0000000  1.6024720  3
  12763  12762  12761  12769     1  0.0000000  0.6508444  3
  12767  12763  12762  12768     1  0.0000000  4.9162000  2
  12767  12763  12762  12768     1  0.0000000  0.6024960  3
  12768  12762  12763  12779     1  0.0000000  4.9162000  2
  12768  12762  12763  12779     1  0.0000000  0.6024960  3
  12768  12762  12761  12769     1  0.0000000  4.9162000  2
  12768  12762  12761  12769     1  0.0000000  0.6024960  3
  12769  12761  12758  12770     1  0.0000000  4.9162000  2
  12769  12761  12758  12770     1  0.0000000  0.6024960  3
  12770  12758  12757  12771     1  0.0000000  0.6508444  3
  12770  12758  12757  12779     1  0.0000000  4.9162000  2
  12770  12758  12757  12779     1  0.0000000  0.6024960  3
  12777  12771  12757  12779     1  0.0000000  4.9162000  2
  12777  12771  12757  12779     1  0.0000000  0.6024960  3
  12780  12781  12784  12785     1  180.0000771  0.8368000  1
  12780  12781  12784  12785     1  180.0000771  1.0460000  2
  12780  12781  12784  12785     1  0.0000000  0.7531200  3
  12780  12781  12784  12792     1  0.0000000  0.6508444  3
  12780  12802  12786  12785     1  180.0000771  0.4184000  2
  12780  12802  12786  12785     1  0.0000000  1.6024720  3
  12780  12802  12786  12790     1  180.0000771  5.6484000  1
  12780  12802  12786  12790     1  180.0000771  3.5564000  2
  12780  12802  12786  12790     1  0.0000000  0.4184000  3
  12781  12780  12794  12800     1  0.0000000  0.6508444  3
  12781  12780  12802  12786     1  180.0000771  0.4184000  2
  12781  12780  12802  12786     1  0.0000000  1.6024720  3
  12781  12784  12785  12786     1  180.0000771  0.8368000  1
  12781  12784  12785  12786     1  180.0000771  1.0460000  2
  12781  12784  12785  12786     1  0.0000000  0.7531200  3
  12781  12784  12785  12791     1  0.0000000  0.6508444  3
  12784  12781  12780  12794     1  180.0000771  0.8368000  1
  12784  12781  12780  12794     1  180.0000771  1.0460000  2
  12784  12781  12780  12794     1  0.0000000  0.7531200  3
  12784  12781  12780  12802     1  0.0000000  0.6508444  3
  12784  12785  12786  12790     1  0.0000000  0.6508444  3
  12784  12785  12786  12802     1  0.0000000  0.6508444  3
  12785  12784  12781  12793     1  0.0000000  0.6508444  3
  12786  12785  12784  12792     1  0.0000000  0.6508444  3
  12786  12802  12780  12794     1  180.0000771  0.4184000  2
  12786  12802  12780  12794     1  0.0000000  1.6024720  3
  12790  12786  12785  12791     1  0.0000000  4.9162000  2
  12790  12786  12785  12791     1  0.0000000  0.6024960  3
  12791  12785  12784  12792     1  0.0000000  4.9162000  2
  12791  12785  12784  12792     1  0.0000000  0.6024960  3
  12791  12785  12786  12802     1  0.0000000  4.9162000  2
  12791  12785  12786  12802     1  0.0000000  0.6024960  3
  12792  12784  12781  12793     1  0.0000000  4.9162000  2
  12792  12784  12781  12793     1  0.0000000  0.6024960  3
  12793  12781  12780  12794     1  0.0000000  0.6508444  3
  12793  12781  12780  12802     1  0.0000000  4.9162000  2
  12793  12781  12780  12802     1  0.0000000  0.6024960  3
  12800  12794  12780  12802     1  0.0000000  4.9162000  2
  12800  12794  12780  12802     1  0.0000000  0.6024960  3
  12803  12804  12807  12808     1  180.0000771  0.8368000  1
  12803  12804  12807  12808     1  180.0000771  1.0460000  2
  12803  12804  12807  12808     1  0.0000000  0.7531200  3
  12803  12804  12807  12815     1  0.0000000  0.6508444  3
  12803  12825  12809  12813     1  180.0000771  5.6484000  1
  12803  12825  12809  12813     1  180.0000771  3.5564000  2
  12803  12825  12809  12813     1  0.0000000  0.4184000  3
  12803  12825  12809  12808     1  180.0000771  0.4184000  2
  12803  12825  12809  12808     1  0.0000000  1.6024720  3
  12804  12807  12808  12809     1  180.0000771  0.8368000  1
  12804  12807  12808  12809     1  180.0000771  1.0460000  2
  12804  12807  12808  12809     1  0.0000000  0.7531200  3
  12804  12807  12808  12814     1  0.0000000  0.6508444  3
  12804  12803  12817  12823     1  0.0000000  0.6508444  3
  12804  12803  12825  12809     1  180.0000771  0.4184000  2
  12804  12803  12825  12809     1  0.0000000  1.6024720  3
  12807  12808  12809  12813     1  0.0000000  0.6508444  3
  12807  12808  12809  12825     1  0.0000000  0.6508444  3
  12807  12804  12803  12817     1  180.0000771  0.8368000  1
  12807  12804  12803  12817     1  180.0000771  1.0460000  2
  12807  12804  12803  12817     1  0.0000000  0.7531200  3
  12807  12804  12803  12825     1  0.0000000  0.6508444  3
  12808  12807  12804  12816     1  0.0000000  0.6508444  3
  12809  12825  12803  12817     1  180.0000771  0.4184000  2
  12809  12825  12803  12817     1  0.0000000  1.6024720  3
  12809  12808  12807  12815     1  0.0000000  0.6508444  3
  12813  12809  12808  12814     1  0.0000000  4.9162000  2
  12813  12809  12808  12814     1  0.0000000  0.6024960  3
  12814  12808  12809  12825     1  0.0000000  4.9162000  2
  12814  12808  12809  12825     1  0.0000000  0.6024960  3
  12814  12808  12807  12815     1  0.0000000  4.9162000  2
  12814  12808  12807  12815     1  0.0000000  0.6024960  3
  12815  12807  12804  12816     1  0.0000000  4.9162000  2
  12815  12807  12804  12816     1  0.0000000  0.6024960  3
  12816  12804  12803  12817     1  0.0000000  0.6508444  3
  12816  12804  12803  12825     1  0.0000000  4.9162000  2
  12816  12804  12803  12825     1  0.0000000  0.6024960  3
  12823  12817  12803  12825     1  0.0000000  4.9162000  2
  12823  12817  12803  12825     1  0.0000000  0.6024960  3
  12826  12827  12830  12831     1  180.0000771  0.8368000  1
  12826  12827  12830  12831     1  180.0000771  1.0460000  2
  12826  12827  12830  12831     1  0.0000000  0.7531200  3
  12826  12827  12830  12838     1  0.0000000  0.6508444  3
  12826  12848  12832  12831     1  180.0000771  0.4184000  2
  12826  12848  12832  12831     1  0.0000000  1.6024720  3
  12826  12848  12832  12836     1  180.0000771  5.6484000  1
  12826  12848  12832  12836     1  180.0000771  3.5564000  2
  12826  12848  12832  12836     1  0.0000000  0.4184000  3
  12827  12826  12840  12846     1  0.0000000  0.6508444  3
  12827  12826  12848  12832     1  180.0000771  0.4184000  2
  12827  12826  12848  12832     1  0.0000000  1.6024720  3
  12827  12830  12831  12832     1  180.0000771  0.8368000  1
  12827  12830  12831  12832     1  180.0000771  1.0460000  2
  12827  12830  12831  12832     1  0.0000000  0.7531200  3
  12827  12830  12831  12837     1  0.0000000  0.6508444  3
  12830  12827  12826  12840     1  180.0000771  0.8368000  1
  12830  12827  12826  12840     1  180.0000771  1.0460000  2
  12830  12827  12826  12840     1  0.0000000  0.7531200  3
  12830  12827  12826  12848     1  0.0000000  0.6508444  3
  12830  12831  12832  12836     1  0.0000000  0.6508444  3
  12830  12831  12832  12848     1  0.0000000  0.6508444  3
  12831  12830  12827  12839     1  0.0000000  0.6508444  3
  12832  12831  12830  12838     1  0.0000000  0.6508444  3
  12832  12848  12826  12840     1  180.0000771  0.4184000  2
  12832  12848  12826  12840     1  0.0000000  1.6024720  3
  12836  12832  12831  12837     1  0.0000000  4.9162000  2
  12836  12832  12831  12837     1  0.0000000  0.6024960  3
  12837  12831  12830  12838     1  0.0000000  4.9162000  2
  12837  12831  12830  12838     1  0.0000000  0.6024960  3
  12837  12831  12832  12848     1  0.0000000  4.9162000  2
  12837  12831  12832  12848     1  0.0000000  0.6024960  3
  12838  12830  12827  12839     1  0.0000000  4.9162000  2
  12838  12830  12827  12839     1  0.0000000  0.6024960  3
  12839  12827  12826  12840     1  0.0000000  0.6508444  3
  12839  12827  12826  12848     1  0.0000000  4.9162000  2
  12839  12827  12826  12848     1  0.0000000  0.6024960  3
  12846  12840  12826  12848     1  0.0000000  4.9162000  2
  12846  12840  12826  12848     1  0.0000000  0.6024960  3
  12849  12850  12853  12854     1  180.0000771  0.8368000  1
  12849  12850  12853  12854     1  180.0000771  1.0460000  2
  12849  12850  12853  12854     1  0.0000000  0.7531200  3
  12849  12850  12853  12861     1  0.0000000  0.6508444  3
  12849  12871  12855  12859     1  180.0000771  5.6484000  1
  12849  12871  12855  12859     1  180.0000771  3.5564000  2
  12849  12871  12855  12859     1  0.0000000  0.4184000  3
  12849  12871  12855  12854     1  180.0000771  0.4184000  2
  12849  12871  12855  12854     1  0.0000000  1.6024720  3
  12850  12853  12854  12855     1  180.0000771  0.8368000  1
  12850  12853  12854  12855     1  180.0000771  1.0460000  2
  12850  12853  12854  12855     1  0.0000000  0.7531200  3
  12850  12853  12854  12860     1  0.0000000  0.6508444  3
  12850  12849  12863  12869     1  0.0000000  0.6508444  3
  12850  12849  12871  12855     1  180.0000771  0.4184000  2
  12850  12849  12871  12855     1  0.0000000  1.6024720  3
  12853  12854  12855  12859     1  0.0000000  0.6508444  3
  12853  12854  12855  12871     1  0.0000000  0.6508444  3
  12853  12850  12849  12863     1  180.0000771  0.8368000  1
  12853  12850  12849  12863     1  180.0000771  1.0460000  2
  12853  12850  12849  12863     1  0.0000000  0.7531200  3
  12853  12850  12849  12871     1  0.0000000  0.6508444  3
  12854  12853  12850  12862     1  0.0000000  0.6508444  3
  12855  12871  12849  12863     1  180.0000771  0.4184000  2
  12855  12871  12849  12863     1  0.0000000  1.6024720  3
  12855  12854  12853  12861     1  0.0000000  0.6508444  3
  12859  12855  12854  12860     1  0.0000000  4.9162000  2
  12859  12855  12854  12860     1  0.0000000  0.6024960  3
  12860  12854  12855  12871     1  0.0000000  4.9162000  2
  12860  12854  12855  12871     1  0.0000000  0.6024960  3
  12860  12854  12853  12861     1  0.0000000  4.9162000  2
  12860  12854  12853  12861     1  0.0000000  0.6024960  3
  12861  12853  12850  12862     1  0.0000000  4.9162000  2
  12861  12853  12850  12862     1  0.0000000  0.6024960  3
  12862  12850  12849  12863     1  0.0000000  0.6508444  3
  12862  12850  12849  12871     1  0.0000000  4.9162000  2
  12862  12850  12849  12871     1  0.0000000  0.6024960  3
  12869  12863  12849  12871     1  0.0000000  4.9162000  2
  12869  12863  12849  12871     1  0.0000000  0.6024960  3
  12872  12873  12876  12877     1  180.0000771  0.8368000  1
  12872  12873  12876  12877     1  180.0000771  1.0460000  2
  12872  12873  12876  12877     1  0.0000000  0.7531200  3
  12872  12873  12876  12884     1  0.0000000  0.6508444  3
  12872  12894  12878  12877     1  180.0000771  0.4184000  2
  12872  12894  12878  12877     1  0.0000000  1.6024720  3
  12872  12894  12878  12882     1  180.0000771  5.6484000  1
  12872  12894  12878  12882     1  180.0000771  3.5564000  2
  12872  12894  12878  12882     1  0.0000000  0.4184000  3
  12873  12872  12886  12892     1  0.0000000  0.6508444  3
  12873  12872  12894  12878     1  180.0000771  0.4184000  2
  12873  12872  12894  12878     1  0.0000000  1.6024720  3
  12873  12876  12877  12878     1  180.0000771  0.8368000  1
  12873  12876  12877  12878     1  180.0000771  1.0460000  2
  12873  12876  12877  12878     1  0.0000000  0.7531200  3
  12873  12876  12877  12883     1  0.0000000  0.6508444  3
  12876  12873  12872  12886     1  180.0000771  0.8368000  1
  12876  12873  12872  12886     1  180.0000771  1.0460000  2
  12876  12873  12872  12886     1  0.0000000  0.7531200  3
  12876  12873  12872  12894     1  0.0000000  0.6508444  3
  12876  12877  12878  12882     1  0.0000000  0.6508444  3
  12876  12877  12878  12894     1  0.0000000  0.6508444  3
  12877  12876  12873  12885     1  0.0000000  0.6508444  3
  12878  12877  12876  12884     1  0.0000000  0.6508444  3
  12878  12894  12872  12886     1  180.0000771  0.4184000  2
  12878  12894  12872  12886     1  0.0000000  1.6024720  3
  12882  12878  12877  12883     1  0.0000000  4.9162000  2
  12882  12878  12877  12883     1  0.0000000  0.6024960  3
  12883  12877  12876  12884     1  0.0000000  4.9162000  2
  12883  12877  12876  12884     1  0.0000000  0.6024960  3
  12883  12877  12878  12894     1  0.0000000  4.9162000  2
  12883  12877  12878  12894     1  0.0000000  0.6024960  3
  12884  12876  12873  12885     1  0.0000000  4.9162000  2
  12884  12876  12873  12885     1  0.0000000  0.6024960  3
  12885  12873  12872  12886     1  0.0000000  0.6508444  3
  12885  12873  12872  12894     1  0.0000000  4.9162000  2
  12885  12873  12872  12894     1  0.0000000  0.6024960  3
  12892  12886  12872  12894     1  0.0000000  4.9162000  2
  12892  12886  12872  12894     1  0.0000000  0.6024960  3
  12895  12896  12899  12900     1  180.0000771  0.8368000  1
  12895  12896  12899  12900     1  180.0000771  1.0460000  2
  12895  12896  12899  12900     1  0.0000000  0.7531200  3
  12895  12896  12899  12907     1  0.0000000  0.6508444  3
  12895  12917  12901  12905     1  180.0000771  5.6484000  1
  12895  12917  12901  12905     1  180.0000771  3.5564000  2
  12895  12917  12901  12905     1  0.0000000  0.4184000  3
  12895  12917  12901  12900     1  180.0000771  0.4184000  2
  12895  12917  12901  12900     1  0.0000000  1.6024720  3
  12896  12899  12900  12901     1  180.0000771  0.8368000  1
  12896  12899  12900  12901     1  180.0000771  1.0460000  2
  12896  12899  12900  12901     1  0.0000000  0.7531200  3
  12896  12899  12900  12906     1  0.0000000  0.6508444  3
  12896  12895  12909  12915     1  0.0000000  0.6508444  3
  12896  12895  12917  12901     1  180.0000771  0.4184000  2
  12896  12895  12917  12901     1  0.0000000  1.6024720  3
  12899  12900  12901  12905     1  0.0000000  0.6508444  3
  12899  12900  12901  12917     1  0.0000000  0.6508444  3
  12899  12896  12895  12909     1  180.0000771  0.8368000  1
  12899  12896  12895  12909     1  180.0000771  1.0460000  2
  12899  12896  12895  12909     1  0.0000000  0.7531200  3
  12899  12896  12895  12917     1  0.0000000  0.6508444  3
  12900  12899  12896  12908     1  0.0000000  0.6508444  3
  12901  12917  12895  12909     1  180.0000771  0.4184000  2
  12901  12917  12895  12909     1  0.0000000  1.6024720  3
  12901  12900  12899  12907     1  0.0000000  0.6508444  3
  12905  12901  12900  12906     1  0.0000000  4.9162000  2
  12905  12901  12900  12906     1  0.0000000  0.6024960  3
  12906  12900  12901  12917     1  0.0000000  4.9162000  2
  12906  12900  12901  12917     1  0.0000000  0.6024960  3
  12906  12900  12899  12907     1  0.0000000  4.9162000  2
  12906  12900  12899  12907     1  0.0000000  0.6024960  3
  12907  12899  12896  12908     1  0.0000000  4.9162000  2
  12907  12899  12896  12908     1  0.0000000  0.6024960  3
  12908  12896  12895  12909     1  0.0000000  0.6508444  3
  12908  12896  12895  12917     1  0.0000000  4.9162000  2
  12908  12896  12895  12917     1  0.0000000  0.6024960  3
  12915  12909  12895  12917     1  0.0000000  4.9162000  2
  12915  12909  12895  12917     1  0.0000000  0.6024960  3
  12918  12919  12922  12923     1  180.0000771  0.8368000  1
  12918  12919  12922  12923     1  180.0000771  1.0460000  2
  12918  12919  12922  12923     1  0.0000000  0.7531200  3
  12918  12919  12922  12930     1  0.0000000  0.6508444  3
  12918  12940  12924  12923     1  180.0000771  0.4184000  2
  12918  12940  12924  12923     1  0.0000000  1.6024720  3
  12918  12940  12924  12928     1  180.0000771  5.6484000  1
  12918  12940  12924  12928     1  180.0000771  3.5564000  2
  12918  12940  12924  12928     1  0.0000000  0.4184000  3
  12919  12918  12932  12938     1  0.0000000  0.6508444  3
  12919  12918  12940  12924     1  180.0000771  0.4184000  2
  12919  12918  12940  12924     1  0.0000000  1.6024720  3
  12919  12922  12923  12924     1  180.0000771  0.8368000  1
  12919  12922  12923  12924     1  180.0000771  1.0460000  2
  12919  12922  12923  12924     1  0.0000000  0.7531200  3
  12919  12922  12923  12929     1  0.0000000  0.6508444  3
  12922  12919  12918  12932     1  180.0000771  0.8368000  1
  12922  12919  12918  12932     1  180.0000771  1.0460000  2
  12922  12919  12918  12932     1  0.0000000  0.7531200  3
  12922  12919  12918  12940     1  0.0000000  0.6508444  3
  12922  12923  12924  12928     1  0.0000000  0.6508444  3
  12922  12923  12924  12940     1  0.0000000  0.6508444  3
  12923  12922  12919  12931     1  0.0000000  0.6508444  3
  12924  12923  12922  12930     1  0.0000000  0.6508444  3
  12924  12940  12918  12932     1  180.0000771  0.4184000  2
  12924  12940  12918  12932     1  0.0000000  1.6024720  3
  12928  12924  12923  12929     1  0.0000000  4.9162000  2
  12928  12924  12923  12929     1  0.0000000  0.6024960  3
  12929  12923  12922  12930     1  0.0000000  4.9162000  2
  12929  12923  12922  12930     1  0.0000000  0.6024960  3
  12929  12923  12924  12940     1  0.0000000  4.9162000  2
  12929  12923  12924  12940     1  0.0000000  0.6024960  3
  12930  12922  12919  12931     1  0.0000000  4.9162000  2
  12930  12922  12919  12931     1  0.0000000  0.6024960  3
  12931  12919  12918  12932     1  0.0000000  0.6508444  3
  12931  12919  12918  12940     1  0.0000000  4.9162000  2
  12931  12919  12918  12940     1  0.0000000  0.6024960  3
  12938  12932  12918  12940     1  0.0000000  4.9162000  2
  12938  12932  12918  12940     1  0.0000000  0.6024960  3
  12941  12942  12945  12946     1  180.0000771  0.8368000  1
  12941  12942  12945  12946     1  180.0000771  1.0460000  2
  12941  12942  12945  12946     1  0.0000000  0.7531200  3
  12941  12942  12945  12953     1  0.0000000  0.6508444  3
  12941  12963  12947  12951     1  180.0000771  5.6484000  1
  12941  12963  12947  12951     1  180.0000771  3.5564000  2
  12941  12963  12947  12951     1  0.0000000  0.4184000  3
  12941  12963  12947  12946     1  180.0000771  0.4184000  2
  12941  12963  12947  12946     1  0.0000000  1.6024720  3
  12942  12945  12946  12947     1  180.0000771  0.8368000  1
  12942  12945  12946  12947     1  180.0000771  1.0460000  2
  12942  12945  12946  12947     1  0.0000000  0.7531200  3
  12942  12945  12946  12952     1  0.0000000  0.6508444  3
  12942  12941  12955  12961     1  0.0000000  0.6508444  3
  12942  12941  12963  12947     1  180.0000771  0.4184000  2
  12942  12941  12963  12947     1  0.0000000  1.6024720  3
  12945  12946  12947  12951     1  0.0000000  0.6508444  3
  12945  12946  12947  12963     1  0.0000000  0.6508444  3
  12945  12942  12941  12955     1  180.0000771  0.8368000  1
  12945  12942  12941  12955     1  180.0000771  1.0460000  2
  12945  12942  12941  12955     1  0.0000000  0.7531200  3
  12945  12942  12941  12963     1  0.0000000  0.6508444  3
  12946  12945  12942  12954     1  0.0000000  0.6508444  3
  12947  12963  12941  12955     1  180.0000771  0.4184000  2
  12947  12963  12941  12955     1  0.0000000  1.6024720  3
  12947  12946  12945  12953     1  0.0000000  0.6508444  3
  12951  12947  12946  12952     1  0.0000000  4.9162000  2
  12951  12947  12946  12952     1  0.0000000  0.6024960  3
  12952  12946  12947  12963     1  0.0000000  4.9162000  2
  12952  12946  12947  12963     1  0.0000000  0.6024960  3
  12952  12946  12945  12953     1  0.0000000  4.9162000  2
  12952  12946  12945  12953     1  0.0000000  0.6024960  3
  12953  12945  12942  12954     1  0.0000000  4.9162000  2
  12953  12945  12942  12954     1  0.0000000  0.6024960  3
  12954  12942  12941  12955     1  0.0000000  0.6508444  3
  12954  12942  12941  12963     1  0.0000000  4.9162000  2
  12954  12942  12941  12963     1  0.0000000  0.6024960  3
  12961  12955  12941  12963     1  0.0000000  4.9162000  2
  12961  12955  12941  12963     1  0.0000000  0.6024960  3
  12964  12965  12968  12969     1  180.0000771  0.8368000  1
  12964  12965  12968  12969     1  180.0000771  1.0460000  2
  12964  12965  12968  12969     1  0.0000000  0.7531200  3
  12964  12965  12968  12976     1  0.0000000  0.6508444  3
  12964  12986  12970  12969     1  180.0000771  0.4184000  2
  12964  12986  12970  12969     1  0.0000000  1.6024720  3
  12964  12986  12970  12974     1  180.0000771  5.6484000  1
  12964  12986  12970  12974     1  180.0000771  3.5564000  2
  12964  12986  12970  12974     1  0.0000000  0.4184000  3
  12965  12964  12978  12984     1  0.0000000  0.6508444  3
  12965  12964  12986  12970     1  180.0000771  0.4184000  2
  12965  12964  12986  12970     1  0.0000000  1.6024720  3
  12965  12968  12969  12970     1  180.0000771  0.8368000  1
  12965  12968  12969  12970     1  180.0000771  1.0460000  2
  12965  12968  12969  12970     1  0.0000000  0.7531200  3
  12965  12968  12969  12975     1  0.0000000  0.6508444  3
  12968  12965  12964  12978     1  180.0000771  0.8368000  1
  12968  12965  12964  12978     1  180.0000771  1.0460000  2
  12968  12965  12964  12978     1  0.0000000  0.7531200  3
  12968  12965  12964  12986     1  0.0000000  0.6508444  3
  12968  12969  12970  12974     1  0.0000000  0.6508444  3
  12968  12969  12970  12986     1  0.0000000  0.6508444  3
  12969  12968  12965  12977     1  0.0000000  0.6508444  3
  12970  12969  12968  12976     1  0.0000000  0.6508444  3
  12970  12986  12964  12978     1  180.0000771  0.4184000  2
  12970  12986  12964  12978     1  0.0000000  1.6024720  3
  12974  12970  12969  12975     1  0.0000000  4.9162000  2
  12974  12970  12969  12975     1  0.0000000  0.6024960  3
  12975  12969  12968  12976     1  0.0000000  4.9162000  2
  12975  12969  12968  12976     1  0.0000000  0.6024960  3
  12975  12969  12970  12986     1  0.0000000  4.9162000  2
  12975  12969  12970  12986     1  0.0000000  0.6024960  3
  12976  12968  12965  12977     1  0.0000000  4.9162000  2
  12976  12968  12965  12977     1  0.0000000  0.6024960  3
  12977  12965  12964  12978     1  0.0000000  0.6508444  3
  12977  12965  12964  12986     1  0.0000000  4.9162000  2
  12977  12965  12964  12986     1  0.0000000  0.6024960  3
  12984  12978  12964  12986     1  0.0000000  4.9162000  2
  12984  12978  12964  12986     1  0.0000000  0.6024960  3
  12987  12988  12991  12992     1  180.0000771  0.8368000  1
  12987  12988  12991  12992     1  180.0000771  1.0460000  2
  12987  12988  12991  12992     1  0.0000000  0.7531200  3
  12987  12988  12991  12999     1  0.0000000  0.6508444  3
  12987  13009  12993  12997     1  180.0000771  5.6484000  1
  12987  13009  12993  12997     1  180.0000771  3.5564000  2
  12987  13009  12993  12997     1  0.0000000  0.4184000  3
  12987  13009  12993  12992     1  180.0000771  0.4184000  2
  12987  13009  12993  12992     1  0.0000000  1.6024720  3
  12988  12991  12992  12993     1  180.0000771  0.8368000  1
  12988  12991  12992  12993     1  180.0000771  1.0460000  2
  12988  12991  12992  12993     1  0.0000000  0.7531200  3
  12988  12991  12992  12998     1  0.0000000  0.6508444  3
  12988  12987  13001  13007     1  0.0000000  0.6508444  3
  12988  12987  13009  12993     1  180.0000771  0.4184000  2
  12988  12987  13009  12993     1  0.0000000  1.6024720  3
  12991  12992  12993  12997     1  0.0000000  0.6508444  3
  12991  12992  12993  13009     1  0.0000000  0.6508444  3
  12991  12988  12987  13001     1  180.0000771  0.8368000  1
  12991  12988  12987  13001     1  180.0000771  1.0460000  2
  12991  12988  12987  13001     1  0.0000000  0.7531200  3
  12991  12988  12987  13009     1  0.0000000  0.6508444  3
  12992  12991  12988  13000     1  0.0000000  0.6508444  3
  12993  13009  12987  13001     1  180.0000771  0.4184000  2
  12993  13009  12987  13001     1  0.0000000  1.6024720  3
  12993  12992  12991  12999     1  0.0000000  0.6508444  3
  12997  12993  12992  12998     1  0.0000000  4.9162000  2
  12997  12993  12992  12998     1  0.0000000  0.6024960  3
  12998  12992  12993  13009     1  0.0000000  4.9162000  2
  12998  12992  12993  13009     1  0.0000000  0.6024960  3
  12998  12992  12991  12999     1  0.0000000  4.9162000  2
  12998  12992  12991  12999     1  0.0000000  0.6024960  3
  12999  12991  12988  13000     1  0.0000000  4.9162000  2
  12999  12991  12988  13000     1  0.0000000  0.6024960  3
  13000  12988  12987  13001     1  0.0000000  0.6508444  3
  13000  12988  12987  13009     1  0.0000000  4.9162000  2
  13000  12988  12987  13009     1  0.0000000  0.6024960  3
  13007  13001  12987  13009     1  0.0000000  4.9162000  2
  13007  13001  12987  13009     1  0.0000000  0.6024960  3
  13010  13011  13014  13015     1  180.0000771  0.8368000  1
  13010  13011  13014  13015     1  180.0000771  1.0460000  2
  13010  13011  13014  13015     1  0.0000000  0.7531200  3
  13010  13011  13014  13022     1  0.0000000  0.6508444  3
  13010  13032  13016  13015     1  180.0000771  0.4184000  2
  13010  13032  13016  13015     1  0.0000000  1.6024720  3
  13010  13032  13016  13020     1  180.0000771  5.6484000  1
  13010  13032  13016  13020     1  180.0000771  3.5564000  2
  13010  13032  13016  13020     1  0.0000000  0.4184000  3
  13011  13010  13024  13030     1  0.0000000  0.6508444  3
  13011  13010  13032  13016     1  180.0000771  0.4184000  2
  13011  13010  13032  13016     1  0.0000000  1.6024720  3
  13011  13014  13015  13016     1  180.0000771  0.8368000  1
  13011  13014  13015  13016     1  180.0000771  1.0460000  2
  13011  13014  13015  13016     1  0.0000000  0.7531200  3
  13011  13014  13015  13021     1  0.0000000  0.6508444  3
  13014  13011  13010  13024     1  180.0000771  0.8368000  1
  13014  13011  13010  13024     1  180.0000771  1.0460000  2
  13014  13011  13010  13024     1  0.0000000  0.7531200  3
  13014  13011  13010  13032     1  0.0000000  0.6508444  3
  13014  13015  13016  13020     1  0.0000000  0.6508444  3
  13014  13015  13016  13032     1  0.0000000  0.6508444  3
  13015  13014  13011  13023     1  0.0000000  0.6508444  3
  13016  13015  13014  13022     1  0.0000000  0.6508444  3
  13016  13032  13010  13024     1  180.0000771  0.4184000  2
  13016  13032  13010  13024     1  0.0000000  1.6024720  3
  13020  13016  13015  13021     1  0.0000000  4.9162000  2
  13020  13016  13015  13021     1  0.0000000  0.6024960  3
  13021  13015  13014  13022     1  0.0000000  4.9162000  2
  13021  13015  13014  13022     1  0.0000000  0.6024960  3
  13021  13015  13016  13032     1  0.0000000  4.9162000  2
  13021  13015  13016  13032     1  0.0000000  0.6024960  3
  13022  13014  13011  13023     1  0.0000000  4.9162000  2
  13022  13014  13011  13023     1  0.0000000  0.6024960  3
  13023  13011  13010  13024     1  0.0000000  0.6508444  3
  13023  13011  13010  13032     1  0.0000000  4.9162000  2
  13023  13011  13010  13032     1  0.0000000  0.6024960  3
  13030  13024  13010  13032     1  0.0000000  4.9162000  2
  13030  13024  13010  13032     1  0.0000000  0.6024960  3
  13033  13034  13037  13038     1  180.0000771  0.8368000  1
  13033  13034  13037  13038     1  180.0000771  1.0460000  2
  13033  13034  13037  13038     1  0.0000000  0.7531200  3
  13033  13034  13037  13045     1  0.0000000  0.6508444  3
  13033  13055  13039  13043     1  180.0000771  5.6484000  1
  13033  13055  13039  13043     1  180.0000771  3.5564000  2
  13033  13055  13039  13043     1  0.0000000  0.4184000  3
  13033  13055  13039  13038     1  180.0000771  0.4184000  2
  13033  13055  13039  13038     1  0.0000000  1.6024720  3
  13034  13037  13038  13039     1  180.0000771  0.8368000  1
  13034  13037  13038  13039     1  180.0000771  1.0460000  2
  13034  13037  13038  13039     1  0.0000000  0.7531200  3
  13034  13037  13038  13044     1  0.0000000  0.6508444  3
  13034  13033  13047  13053     1  0.0000000  0.6508444  3
  13034  13033  13055  13039     1  180.0000771  0.4184000  2
  13034  13033  13055  13039     1  0.0000000  1.6024720  3
  13037  13038  13039  13043     1  0.0000000  0.6508444  3
  13037  13038  13039  13055     1  0.0000000  0.6508444  3
  13037  13034  13033  13047     1  180.0000771  0.8368000  1
  13037  13034  13033  13047     1  180.0000771  1.0460000  2
  13037  13034  13033  13047     1  0.0000000  0.7531200  3
  13037  13034  13033  13055     1  0.0000000  0.6508444  3
  13038  13037  13034  13046     1  0.0000000  0.6508444  3
  13039  13055  13033  13047     1  180.0000771  0.4184000  2
  13039  13055  13033  13047     1  0.0000000  1.6024720  3
  13039  13038  13037  13045     1  0.0000000  0.6508444  3
  13043  13039  13038  13044     1  0.0000000  4.9162000  2
  13043  13039  13038  13044     1  0.0000000  0.6024960  3
  13044  13038  13039  13055     1  0.0000000  4.9162000  2
  13044  13038  13039  13055     1  0.0000000  0.6024960  3
  13044  13038  13037  13045     1  0.0000000  4.9162000  2
  13044  13038  13037  13045     1  0.0000000  0.6024960  3
  13045  13037  13034  13046     1  0.0000000  4.9162000  2
  13045  13037  13034  13046     1  0.0000000  0.6024960  3
  13046  13034  13033  13047     1  0.0000000  0.6508444  3
  13046  13034  13033  13055     1  0.0000000  4.9162000  2
  13046  13034  13033  13055     1  0.0000000  0.6024960  3
  13053  13047  13033  13055     1  0.0000000  4.9162000  2
  13053  13047  13033  13055     1  0.0000000  0.6024960  3
  13056  13057  13060  13061     1  180.0000771  0.8368000  1
  13056  13057  13060  13061     1  180.0000771  1.0460000  2
  13056  13057  13060  13061     1  0.0000000  0.7531200  3
  13056  13057  13060  13068     1  0.0000000  0.6508444  3
  13056  13078  13062  13061     1  180.0000771  0.4184000  2
  13056  13078  13062  13061     1  0.0000000  1.6024720  3
  13056  13078  13062  13066     1  180.0000771  5.6484000  1
  13056  13078  13062  13066     1  180.0000771  3.5564000  2
  13056  13078  13062  13066     1  0.0000000  0.4184000  3
  13057  13056  13070  13076     1  0.0000000  0.6508444  3
  13057  13056  13078  13062     1  180.0000771  0.4184000  2
  13057  13056  13078  13062     1  0.0000000  1.6024720  3
  13057  13060  13061  13062     1  180.0000771  0.8368000  1
  13057  13060  13061  13062     1  180.0000771  1.0460000  2
  13057  13060  13061  13062     1  0.0000000  0.7531200  3
  13057  13060  13061  13067     1  0.0000000  0.6508444  3
  13060  13057  13056  13070     1  180.0000771  0.8368000  1
  13060  13057  13056  13070     1  180.0000771  1.0460000  2
  13060  13057  13056  13070     1  0.0000000  0.7531200  3
  13060  13057  13056  13078     1  0.0000000  0.6508444  3
  13060  13061  13062  13066     1  0.0000000  0.6508444  3
  13060  13061  13062  13078     1  0.0000000  0.6508444  3
  13061  13060  13057  13069     1  0.0000000  0.6508444  3
  13062  13061  13060  13068     1  0.0000000  0.6508444  3
  13062  13078  13056  13070     1  180.0000771  0.4184000  2
  13062  13078  13056  13070     1  0.0000000  1.6024720  3
  13066  13062  13061  13067     1  0.0000000  4.9162000  2
  13066  13062  13061  13067     1  0.0000000  0.6024960  3
  13067  13061  13060  13068     1  0.0000000  4.9162000  2
  13067  13061  13060  13068     1  0.0000000  0.6024960  3
  13067  13061  13062  13078     1  0.0000000  4.9162000  2
  13067  13061  13062  13078     1  0.0000000  0.6024960  3
  13068  13060  13057  13069     1  0.0000000  4.9162000  2
  13068  13060  13057  13069     1  0.0000000  0.6024960  3
  13069  13057  13056  13070     1  0.0000000  0.6508444  3
  13069  13057  13056  13078     1  0.0000000  4.9162000  2
  13069  13057  13056  13078     1  0.0000000  0.6024960  3
  13076  13070  13056  13078     1  0.0000000  4.9162000  2
  13076  13070  13056  13078     1  0.0000000  0.6024960  3
  13079  13080  13083  13084     1  180.0000771  0.8368000  1
  13079  13080  13083  13084     1  180.0000771  1.0460000  2
  13079  13080  13083  13084     1  0.0000000  0.7531200  3
  13079  13080  13083  13091     1  0.0000000  0.6508444  3
  13079  13101  13085  13089     1  180.0000771  5.6484000  1
  13079  13101  13085  13089     1  180.0000771  3.5564000  2
  13079  13101  13085  13089     1  0.0000000  0.4184000  3
  13079  13101  13085  13084     1  180.0000771  0.4184000  2
  13079  13101  13085  13084     1  0.0000000  1.6024720  3
  13080  13083  13084  13085     1  180.0000771  0.8368000  1
  13080  13083  13084  13085     1  180.0000771  1.0460000  2
  13080  13083  13084  13085     1  0.0000000  0.7531200  3
  13080  13083  13084  13090     1  0.0000000  0.6508444  3
  13080  13079  13093  13099     1  0.0000000  0.6508444  3
  13080  13079  13101  13085     1  180.0000771  0.4184000  2
  13080  13079  13101  13085     1  0.0000000  1.6024720  3
  13083  13084  13085  13089     1  0.0000000  0.6508444  3
  13083  13084  13085  13101     1  0.0000000  0.6508444  3
  13083  13080  13079  13093     1  180.0000771  0.8368000  1
  13083  13080  13079  13093     1  180.0000771  1.0460000  2
  13083  13080  13079  13093     1  0.0000000  0.7531200  3
  13083  13080  13079  13101     1  0.0000000  0.6508444  3
  13084  13083  13080  13092     1  0.0000000  0.6508444  3
  13085  13101  13079  13093     1  180.0000771  0.4184000  2
  13085  13101  13079  13093     1  0.0000000  1.6024720  3
  13085  13084  13083  13091     1  0.0000000  0.6508444  3
  13089  13085  13084  13090     1  0.0000000  4.9162000  2
  13089  13085  13084  13090     1  0.0000000  0.6024960  3
  13090  13084  13085  13101     1  0.0000000  4.9162000  2
  13090  13084  13085  13101     1  0.0000000  0.6024960  3
  13090  13084  13083  13091     1  0.0000000  4.9162000  2
  13090  13084  13083  13091     1  0.0000000  0.6024960  3
  13091  13083  13080  13092     1  0.0000000  4.9162000  2
  13091  13083  13080  13092     1  0.0000000  0.6024960  3
  13092  13080  13079  13093     1  0.0000000  0.6508444  3
  13092  13080  13079  13101     1  0.0000000  4.9162000  2
  13092  13080  13079  13101     1  0.0000000  0.6024960  3
  13099  13093  13079  13101     1  0.0000000  4.9162000  2
  13099  13093  13079  13101     1  0.0000000  0.6024960  3
  13102  13103  13106  13107     1  180.0000771  0.8368000  1
  13102  13103  13106  13107     1  180.0000771  1.0460000  2
  13102  13103  13106  13107     1  0.0000000  0.7531200  3
  13102  13103  13106  13114     1  0.0000000  0.6508444  3
  13102  13124  13108  13107     1  180.0000771  0.4184000  2
  13102  13124  13108  13107     1  0.0000000  1.6024720  3
  13102  13124  13108  13112     1  180.0000771  5.6484000  1
  13102  13124  13108  13112     1  180.0000771  3.5564000  2
  13102  13124  13108  13112     1  0.0000000  0.4184000  3
  13103  13102  13116  13122     1  0.0000000  0.6508444  3
  13103  13102  13124  13108     1  180.0000771  0.4184000  2
  13103  13102  13124  13108     1  0.0000000  1.6024720  3
  13103  13106  13107  13108     1  180.0000771  0.8368000  1
  13103  13106  13107  13108     1  180.0000771  1.0460000  2
  13103  13106  13107  13108     1  0.0000000  0.7531200  3
  13103  13106  13107  13113     1  0.0000000  0.6508444  3
  13106  13103  13102  13116     1  180.0000771  0.8368000  1
  13106  13103  13102  13116     1  180.0000771  1.0460000  2
  13106  13103  13102  13116     1  0.0000000  0.7531200  3
  13106  13103  13102  13124     1  0.0000000  0.6508444  3
  13106  13107  13108  13112     1  0.0000000  0.6508444  3
  13106  13107  13108  13124     1  0.0000000  0.6508444  3
  13107  13106  13103  13115     1  0.0000000  0.6508444  3
  13108  13107  13106  13114     1  0.0000000  0.6508444  3
  13108  13124  13102  13116     1  180.0000771  0.4184000  2
  13108  13124  13102  13116     1  0.0000000  1.6024720  3
  13112  13108  13107  13113     1  0.0000000  4.9162000  2
  13112  13108  13107  13113     1  0.0000000  0.6024960  3
  13113  13107  13106  13114     1  0.0000000  4.9162000  2
  13113  13107  13106  13114     1  0.0000000  0.6024960  3
  13113  13107  13108  13124     1  0.0000000  4.9162000  2
  13113  13107  13108  13124     1  0.0000000  0.6024960  3
  13114  13106  13103  13115     1  0.0000000  4.9162000  2
  13114  13106  13103  13115     1  0.0000000  0.6024960  3
  13115  13103  13102  13116     1  0.0000000  0.6508444  3
  13115  13103  13102  13124     1  0.0000000  4.9162000  2
  13115  13103  13102  13124     1  0.0000000  0.6024960  3
  13122  13116  13102  13124     1  0.0000000  4.9162000  2
  13122  13116  13102  13124     1  0.0000000  0.6024960  3
  13125  13126  13129  13130     1  180.0000771  0.8368000  1
  13125  13126  13129  13130     1  180.0000771  1.0460000  2
  13125  13126  13129  13130     1  0.0000000  0.7531200  3
  13125  13126  13129  13137     1  0.0000000  0.6508444  3
  13125  13147  13131  13135     1  180.0000771  5.6484000  1
  13125  13147  13131  13135     1  180.0000771  3.5564000  2
  13125  13147  13131  13135     1  0.0000000  0.4184000  3
  13125  13147  13131  13130     1  180.0000771  0.4184000  2
  13125  13147  13131  13130     1  0.0000000  1.6024720  3
  13126  13129  13130  13131     1  180.0000771  0.8368000  1
  13126  13129  13130  13131     1  180.0000771  1.0460000  2
  13126  13129  13130  13131     1  0.0000000  0.7531200  3
  13126  13129  13130  13136     1  0.0000000  0.6508444  3
  13126  13125  13139  13145     1  0.0000000  0.6508444  3
  13126  13125  13147  13131     1  180.0000771  0.4184000  2
  13126  13125  13147  13131     1  0.0000000  1.6024720  3
  13129  13130  13131  13135     1  0.0000000  0.6508444  3
  13129  13130  13131  13147     1  0.0000000  0.6508444  3
  13129  13126  13125  13139     1  180.0000771  0.8368000  1
  13129  13126  13125  13139     1  180.0000771  1.0460000  2
  13129  13126  13125  13139     1  0.0000000  0.7531200  3
  13129  13126  13125  13147     1  0.0000000  0.6508444  3
  13130  13129  13126  13138     1  0.0000000  0.6508444  3
  13131  13147  13125  13139     1  180.0000771  0.4184000  2
  13131  13147  13125  13139     1  0.0000000  1.6024720  3
  13131  13130  13129  13137     1  0.0000000  0.6508444  3
  13135  13131  13130  13136     1  0.0000000  4.9162000  2
  13135  13131  13130  13136     1  0.0000000  0.6024960  3
  13136  13130  13131  13147     1  0.0000000  4.9162000  2
  13136  13130  13131  13147     1  0.0000000  0.6024960  3
  13136  13130  13129  13137     1  0.0000000  4.9162000  2
  13136  13130  13129  13137     1  0.0000000  0.6024960  3
  13137  13129  13126  13138     1  0.0000000  4.9162000  2
  13137  13129  13126  13138     1  0.0000000  0.6024960  3
  13138  13126  13125  13139     1  0.0000000  0.6508444  3
  13138  13126  13125  13147     1  0.0000000  4.9162000  2
  13138  13126  13125  13147     1  0.0000000  0.6024960  3
  13145  13139  13125  13147     1  0.0000000  4.9162000  2
  13145  13139  13125  13147     1  0.0000000  0.6024960  3
  13148  13149  13152  13153     1  180.0000771  0.8368000  1
  13148  13149  13152  13153     1  180.0000771  1.0460000  2
  13148  13149  13152  13153     1  0.0000000  0.7531200  3
  13148  13149  13152  13160     1  0.0000000  0.6508444  3
  13148  13170  13154  13153     1  180.0000771  0.4184000  2
  13148  13170  13154  13153     1  0.0000000  1.6024720  3
  13148  13170  13154  13158     1  180.0000771  5.6484000  1
  13148  13170  13154  13158     1  180.0000771  3.5564000  2
  13148  13170  13154  13158     1  0.0000000  0.4184000  3
  13149  13148  13162  13168     1  0.0000000  0.6508444  3
  13149  13148  13170  13154     1  180.0000771  0.4184000  2
  13149  13148  13170  13154     1  0.0000000  1.6024720  3
  13149  13152  13153  13154     1  180.0000771  0.8368000  1
  13149  13152  13153  13154     1  180.0000771  1.0460000  2
  13149  13152  13153  13154     1  0.0000000  0.7531200  3
  13149  13152  13153  13159     1  0.0000000  0.6508444  3
  13152  13149  13148  13162     1  180.0000771  0.8368000  1
  13152  13149  13148  13162     1  180.0000771  1.0460000  2
  13152  13149  13148  13162     1  0.0000000  0.7531200  3
  13152  13149  13148  13170     1  0.0000000  0.6508444  3
  13152  13153  13154  13158     1  0.0000000  0.6508444  3
  13152  13153  13154  13170     1  0.0000000  0.6508444  3
  13153  13152  13149  13161     1  0.0000000  0.6508444  3
  13154  13153  13152  13160     1  0.0000000  0.6508444  3
  13154  13170  13148  13162     1  180.0000771  0.4184000  2
  13154  13170  13148  13162     1  0.0000000  1.6024720  3
  13158  13154  13153  13159     1  0.0000000  4.9162000  2
  13158  13154  13153  13159     1  0.0000000  0.6024960  3
  13159  13153  13152  13160     1  0.0000000  4.9162000  2
  13159  13153  13152  13160     1  0.0000000  0.6024960  3
  13159  13153  13154  13170     1  0.0000000  4.9162000  2
  13159  13153  13154  13170     1  0.0000000  0.6024960  3
  13160  13152  13149  13161     1  0.0000000  4.9162000  2
  13160  13152  13149  13161     1  0.0000000  0.6024960  3
  13161  13149  13148  13162     1  0.0000000  0.6508444  3
  13161  13149  13148  13170     1  0.0000000  4.9162000  2
  13161  13149  13148  13170     1  0.0000000  0.6024960  3
  13168  13162  13148  13170     1  0.0000000  4.9162000  2
  13168  13162  13148  13170     1  0.0000000  0.6024960  3
  13171  13172  13175  13176     1  180.0000771  0.8368000  1
  13171  13172  13175  13176     1  180.0000771  1.0460000  2
  13171  13172  13175  13176     1  0.0000000  0.7531200  3
  13171  13172  13175  13183     1  0.0000000  0.6508444  3
  13171  13193  13177  13181     1  180.0000771  5.6484000  1
  13171  13193  13177  13181     1  180.0000771  3.5564000  2
  13171  13193  13177  13181     1  0.0000000  0.4184000  3
  13171  13193  13177  13176     1  180.0000771  0.4184000  2
  13171  13193  13177  13176     1  0.0000000  1.6024720  3
  13172  13175  13176  13177     1  180.0000771  0.8368000  1
  13172  13175  13176  13177     1  180.0000771  1.0460000  2
  13172  13175  13176  13177     1  0.0000000  0.7531200  3
  13172  13175  13176  13182     1  0.0000000  0.6508444  3
  13172  13171  13185  13191     1  0.0000000  0.6508444  3
  13172  13171  13193  13177     1  180.0000771  0.4184000  2
  13172  13171  13193  13177     1  0.0000000  1.6024720  3
  13175  13176  13177  13181     1  0.0000000  0.6508444  3
  13175  13176  13177  13193     1  0.0000000  0.6508444  3
  13175  13172  13171  13185     1  180.0000771  0.8368000  1
  13175  13172  13171  13185     1  180.0000771  1.0460000  2
  13175  13172  13171  13185     1  0.0000000  0.7531200  3
  13175  13172  13171  13193     1  0.0000000  0.6508444  3
  13176  13175  13172  13184     1  0.0000000  0.6508444  3
  13177  13193  13171  13185     1  180.0000771  0.4184000  2
  13177  13193  13171  13185     1  0.0000000  1.6024720  3
  13177  13176  13175  13183     1  0.0000000  0.6508444  3
  13181  13177  13176  13182     1  0.0000000  4.9162000  2
  13181  13177  13176  13182     1  0.0000000  0.6024960  3
  13182  13176  13177  13193     1  0.0000000  4.9162000  2
  13182  13176  13177  13193     1  0.0000000  0.6024960  3
  13182  13176  13175  13183     1  0.0000000  4.9162000  2
  13182  13176  13175  13183     1  0.0000000  0.6024960  3
  13183  13175  13172  13184     1  0.0000000  4.9162000  2
  13183  13175  13172  13184     1  0.0000000  0.6024960  3
  13184  13172  13171  13185     1  0.0000000  0.6508444  3
  13184  13172  13171  13193     1  0.0000000  4.9162000  2
  13184  13172  13171  13193     1  0.0000000  0.6024960  3
  13191  13185  13171  13193     1  0.0000000  4.9162000  2
  13191  13185  13171  13193     1  0.0000000  0.6024960  3
  13194  13195  13198  13199     1  180.0000771  0.8368000  1
  13194  13195  13198  13199     1  180.0000771  1.0460000  2
  13194  13195  13198  13199     1  0.0000000  0.7531200  3
  13194  13195  13198  13206     1  0.0000000  0.6508444  3
  13194  13216  13200  13199     1  180.0000771  0.4184000  2
  13194  13216  13200  13199     1  0.0000000  1.6024720  3
  13194  13216  13200  13204     1  180.0000771  5.6484000  1
  13194  13216  13200  13204     1  180.0000771  3.5564000  2
  13194  13216  13200  13204     1  0.0000000  0.4184000  3
  13195  13194  13208  13214     1  0.0000000  0.6508444  3
  13195  13194  13216  13200     1  180.0000771  0.4184000  2
  13195  13194  13216  13200     1  0.0000000  1.6024720  3
  13195  13198  13199  13200     1  180.0000771  0.8368000  1
  13195  13198  13199  13200     1  180.0000771  1.0460000  2
  13195  13198  13199  13200     1  0.0000000  0.7531200  3
  13195  13198  13199  13205     1  0.0000000  0.6508444  3
  13198  13195  13194  13208     1  180.0000771  0.8368000  1
  13198  13195  13194  13208     1  180.0000771  1.0460000  2
  13198  13195  13194  13208     1  0.0000000  0.7531200  3
  13198  13195  13194  13216     1  0.0000000  0.6508444  3
  13198  13199  13200  13204     1  0.0000000  0.6508444  3
  13198  13199  13200  13216     1  0.0000000  0.6508444  3
  13199  13198  13195  13207     1  0.0000000  0.6508444  3
  13200  13199  13198  13206     1  0.0000000  0.6508444  3
  13200  13216  13194  13208     1  180.0000771  0.4184000  2
  13200  13216  13194  13208     1  0.0000000  1.6024720  3
  13204  13200  13199  13205     1  0.0000000  4.9162000  2
  13204  13200  13199  13205     1  0.0000000  0.6024960  3
  13205  13199  13198  13206     1  0.0000000  4.9162000  2
  13205  13199  13198  13206     1  0.0000000  0.6024960  3
  13205  13199  13200  13216     1  0.0000000  4.9162000  2
  13205  13199  13200  13216     1  0.0000000  0.6024960  3
  13206  13198  13195  13207     1  0.0000000  4.9162000  2
  13206  13198  13195  13207     1  0.0000000  0.6024960  3
  13207  13195  13194  13208     1  0.0000000  0.6508444  3
  13207  13195  13194  13216     1  0.0000000  4.9162000  2
  13207  13195  13194  13216     1  0.0000000  0.6024960  3
  13214  13208  13194  13216     1  0.0000000  4.9162000  2
  13214  13208  13194  13216     1  0.0000000  0.6024960  3
  13217  13218  13221  13222     1  180.0000771  0.8368000  1
  13217  13218  13221  13222     1  180.0000771  1.0460000  2
  13217  13218  13221  13222     1  0.0000000  0.7531200  3
  13217  13218  13221  13229     1  0.0000000  0.6508444  3
  13217  13239  13223  13227     1  180.0000771  5.6484000  1
  13217  13239  13223  13227     1  180.0000771  3.5564000  2
  13217  13239  13223  13227     1  0.0000000  0.4184000  3
  13217  13239  13223  13222     1  180.0000771  0.4184000  2
  13217  13239  13223  13222     1  0.0000000  1.6024720  3
  13218  13221  13222  13223     1  180.0000771  0.8368000  1
  13218  13221  13222  13223     1  180.0000771  1.0460000  2
  13218  13221  13222  13223     1  0.0000000  0.7531200  3
  13218  13221  13222  13228     1  0.0000000  0.6508444  3
  13218  13217  13231  13237     1  0.0000000  0.6508444  3
  13218  13217  13239  13223     1  180.0000771  0.4184000  2
  13218  13217  13239  13223     1  0.0000000  1.6024720  3
  13221  13222  13223  13227     1  0.0000000  0.6508444  3
  13221  13222  13223  13239     1  0.0000000  0.6508444  3
  13221  13218  13217  13231     1  180.0000771  0.8368000  1
  13221  13218  13217  13231     1  180.0000771  1.0460000  2
  13221  13218  13217  13231     1  0.0000000  0.7531200  3
  13221  13218  13217  13239     1  0.0000000  0.6508444  3
  13222  13221  13218  13230     1  0.0000000  0.6508444  3
  13223  13239  13217  13231     1  180.0000771  0.4184000  2
  13223  13239  13217  13231     1  0.0000000  1.6024720  3
  13223  13222  13221  13229     1  0.0000000  0.6508444  3
  13227  13223  13222  13228     1  0.0000000  4.9162000  2
  13227  13223  13222  13228     1  0.0000000  0.6024960  3
  13228  13222  13223  13239     1  0.0000000  4.9162000  2
  13228  13222  13223  13239     1  0.0000000  0.6024960  3
  13228  13222  13221  13229     1  0.0000000  4.9162000  2
  13228  13222  13221  13229     1  0.0000000  0.6024960  3
  13229  13221  13218  13230     1  0.0000000  4.9162000  2
  13229  13221  13218  13230     1  0.0000000  0.6024960  3
  13230  13218  13217  13231     1  0.0000000  0.6508444  3
  13230  13218  13217  13239     1  0.0000000  4.9162000  2
  13230  13218  13217  13239     1  0.0000000  0.6024960  3
  13237  13231  13217  13239     1  0.0000000  4.9162000  2
  13237  13231  13217  13239     1  0.0000000  0.6024960  3
  13240  13241  13244  13245     1  180.0000771  0.8368000  1
  13240  13241  13244  13245     1  180.0000771  1.0460000  2
  13240  13241  13244  13245     1  0.0000000  0.7531200  3
  13240  13241  13244  13252     1  0.0000000  0.6508444  3
  13240  13262  13246  13245     1  180.0000771  0.4184000  2
  13240  13262  13246  13245     1  0.0000000  1.6024720  3
  13240  13262  13246  13250     1  180.0000771  5.6484000  1
  13240  13262  13246  13250     1  180.0000771  3.5564000  2
  13240  13262  13246  13250     1  0.0000000  0.4184000  3
  13241  13240  13254  13260     1  0.0000000  0.6508444  3
  13241  13240  13262  13246     1  180.0000771  0.4184000  2
  13241  13240  13262  13246     1  0.0000000  1.6024720  3
  13241  13244  13245  13246     1  180.0000771  0.8368000  1
  13241  13244  13245  13246     1  180.0000771  1.0460000  2
  13241  13244  13245  13246     1  0.0000000  0.7531200  3
  13241  13244  13245  13251     1  0.0000000  0.6508444  3
  13244  13241  13240  13254     1  180.0000771  0.8368000  1
  13244  13241  13240  13254     1  180.0000771  1.0460000  2
  13244  13241  13240  13254     1  0.0000000  0.7531200  3
  13244  13241  13240  13262     1  0.0000000  0.6508444  3
  13244  13245  13246  13250     1  0.0000000  0.6508444  3
  13244  13245  13246  13262     1  0.0000000  0.6508444  3
  13245  13244  13241  13253     1  0.0000000  0.6508444  3
  13246  13245  13244  13252     1  0.0000000  0.6508444  3
  13246  13262  13240  13254     1  180.0000771  0.4184000  2
  13246  13262  13240  13254     1  0.0000000  1.6024720  3
  13250  13246  13245  13251     1  0.0000000  4.9162000  2
  13250  13246  13245  13251     1  0.0000000  0.6024960  3
  13251  13245  13244  13252     1  0.0000000  4.9162000  2
  13251  13245  13244  13252     1  0.0000000  0.6024960  3
  13251  13245  13246  13262     1  0.0000000  4.9162000  2
  13251  13245  13246  13262     1  0.0000000  0.6024960  3
  13252  13244  13241  13253     1  0.0000000  4.9162000  2
  13252  13244  13241  13253     1  0.0000000  0.6024960  3
  13253  13241  13240  13254     1  0.0000000  0.6508444  3
  13253  13241  13240  13262     1  0.0000000  4.9162000  2
  13253  13241  13240  13262     1  0.0000000  0.6024960  3
  13260  13254  13240  13262     1  0.0000000  4.9162000  2
  13260  13254  13240  13262     1  0.0000000  0.6024960  3
  13263  13264  13267  13268     1  180.0000771  0.8368000  1
  13263  13264  13267  13268     1  180.0000771  1.0460000  2
  13263  13264  13267  13268     1  0.0000000  0.7531200  3
  13263  13264  13267  13275     1  0.0000000  0.6508444  3
  13263  13285  13269  13273     1  180.0000771  5.6484000  1
  13263  13285  13269  13273     1  180.0000771  3.5564000  2
  13263  13285  13269  13273     1  0.0000000  0.4184000  3
  13263  13285  13269  13268     1  180.0000771  0.4184000  2
  13263  13285  13269  13268     1  0.0000000  1.6024720  3
  13264  13267  13268  13269     1  180.0000771  0.8368000  1
  13264  13267  13268  13269     1  180.0000771  1.0460000  2
  13264  13267  13268  13269     1  0.0000000  0.7531200  3
  13264  13267  13268  13274     1  0.0000000  0.6508444  3
  13264  13263  13277  13283     1  0.0000000  0.6508444  3
  13264  13263  13285  13269     1  180.0000771  0.4184000  2
  13264  13263  13285  13269     1  0.0000000  1.6024720  3
  13267  13268  13269  13273     1  0.0000000  0.6508444  3
  13267  13268  13269  13285     1  0.0000000  0.6508444  3
  13267  13264  13263  13277     1  180.0000771  0.8368000  1
  13267  13264  13263  13277     1  180.0000771  1.0460000  2
  13267  13264  13263  13277     1  0.0000000  0.7531200  3
  13267  13264  13263  13285     1  0.0000000  0.6508444  3
  13268  13267  13264  13276     1  0.0000000  0.6508444  3
  13269  13285  13263  13277     1  180.0000771  0.4184000  2
  13269  13285  13263  13277     1  0.0000000  1.6024720  3
  13269  13268  13267  13275     1  0.0000000  0.6508444  3
  13273  13269  13268  13274     1  0.0000000  4.9162000  2
  13273  13269  13268  13274     1  0.0000000  0.6024960  3
  13274  13268  13269  13285     1  0.0000000  4.9162000  2
  13274  13268  13269  13285     1  0.0000000  0.6024960  3
  13274  13268  13267  13275     1  0.0000000  4.9162000  2
  13274  13268  13267  13275     1  0.0000000  0.6024960  3
  13275  13267  13264  13276     1  0.0000000  4.9162000  2
  13275  13267  13264  13276     1  0.0000000  0.6024960  3
  13276  13264  13263  13277     1  0.0000000  0.6508444  3
  13276  13264  13263  13285     1  0.0000000  4.9162000  2
  13276  13264  13263  13285     1  0.0000000  0.6024960  3
  13283  13277  13263  13285     1  0.0000000  4.9162000  2
  13283  13277  13263  13285     1  0.0000000  0.6024960  3
  13286  13287  13290  13291     1  180.0000771  0.8368000  1
  13286  13287  13290  13291     1  180.0000771  1.0460000  2
  13286  13287  13290  13291     1  0.0000000  0.7531200  3
  13286  13287  13290  13298     1  0.0000000  0.6508444  3
  13286  13308  13292  13291     1  180.0000771  0.4184000  2
  13286  13308  13292  13291     1  0.0000000  1.6024720  3
  13286  13308  13292  13296     1  180.0000771  5.6484000  1
  13286  13308  13292  13296     1  180.0000771  3.5564000  2
  13286  13308  13292  13296     1  0.0000000  0.4184000  3
  13287  13286  13300  13306     1  0.0000000  0.6508444  3
  13287  13286  13308  13292     1  180.0000771  0.4184000  2
  13287  13286  13308  13292     1  0.0000000  1.6024720  3
  13287  13290  13291  13292     1  180.0000771  0.8368000  1
  13287  13290  13291  13292     1  180.0000771  1.0460000  2
  13287  13290  13291  13292     1  0.0000000  0.7531200  3
  13287  13290  13291  13297     1  0.0000000  0.6508444  3
  13290  13287  13286  13300     1  180.0000771  0.8368000  1
  13290  13287  13286  13300     1  180.0000771  1.0460000  2
  13290  13287  13286  13300     1  0.0000000  0.7531200  3
  13290  13287  13286  13308     1  0.0000000  0.6508444  3
  13290  13291  13292  13296     1  0.0000000  0.6508444  3
  13290  13291  13292  13308     1  0.0000000  0.6508444  3
  13291  13290  13287  13299     1  0.0000000  0.6508444  3
  13292  13291  13290  13298     1  0.0000000  0.6508444  3
  13292  13308  13286  13300     1  180.0000771  0.4184000  2
  13292  13308  13286  13300     1  0.0000000  1.6024720  3
  13296  13292  13291  13297     1  0.0000000  4.9162000  2
  13296  13292  13291  13297     1  0.0000000  0.6024960  3
  13297  13291  13290  13298     1  0.0000000  4.9162000  2
  13297  13291  13290  13298     1  0.0000000  0.6024960  3
  13297  13291  13292  13308     1  0.0000000  4.9162000  2
  13297  13291  13292  13308     1  0.0000000  0.6024960  3
  13298  13290  13287  13299     1  0.0000000  4.9162000  2
  13298  13290  13287  13299     1  0.0000000  0.6024960  3
  13299  13287  13286  13300     1  0.0000000  0.6508444  3
  13299  13287  13286  13308     1  0.0000000  4.9162000  2
  13299  13287  13286  13308     1  0.0000000  0.6024960  3
  13306  13300  13286  13308     1  0.0000000  4.9162000  2
  13306  13300  13286  13308     1  0.0000000  0.6024960  3
  13309  13310  13313  13314     1  180.0000771  0.8368000  1
  13309  13310  13313  13314     1  180.0000771  1.0460000  2
  13309  13310  13313  13314     1  0.0000000  0.7531200  3
  13309  13310  13313  13321     1  0.0000000  0.6508444  3
  13309  13331  13315  13319     1  180.0000771  5.6484000  1
  13309  13331  13315  13319     1  180.0000771  3.5564000  2
  13309  13331  13315  13319     1  0.0000000  0.4184000  3
  13309  13331  13315  13314     1  180.0000771  0.4184000  2
  13309  13331  13315  13314     1  0.0000000  1.6024720  3
  13310  13313  13314  13315     1  180.0000771  0.8368000  1
  13310  13313  13314  13315     1  180.0000771  1.0460000  2
  13310  13313  13314  13315     1  0.0000000  0.7531200  3
  13310  13313  13314  13320     1  0.0000000  0.6508444  3
  13310  13309  13323  13329     1  0.0000000  0.6508444  3
  13310  13309  13331  13315     1  180.0000771  0.4184000  2
  13310  13309  13331  13315     1  0.0000000  1.6024720  3
  13313  13314  13315  13319     1  0.0000000  0.6508444  3
  13313  13314  13315  13331     1  0.0000000  0.6508444  3
  13313  13310  13309  13323     1  180.0000771  0.8368000  1
  13313  13310  13309  13323     1  180.0000771  1.0460000  2
  13313  13310  13309  13323     1  0.0000000  0.7531200  3
  13313  13310  13309  13331     1  0.0000000  0.6508444  3
  13314  13313  13310  13322     1  0.0000000  0.6508444  3
  13315  13331  13309  13323     1  180.0000771  0.4184000  2
  13315  13331  13309  13323     1  0.0000000  1.6024720  3
  13315  13314  13313  13321     1  0.0000000  0.6508444  3
  13319  13315  13314  13320     1  0.0000000  4.9162000  2
  13319  13315  13314  13320     1  0.0000000  0.6024960  3
  13320  13314  13315  13331     1  0.0000000  4.9162000  2
  13320  13314  13315  13331     1  0.0000000  0.6024960  3
  13320  13314  13313  13321     1  0.0000000  4.9162000  2
  13320  13314  13313  13321     1  0.0000000  0.6024960  3
  13321  13313  13310  13322     1  0.0000000  4.9162000  2
  13321  13313  13310  13322     1  0.0000000  0.6024960  3
  13322  13310  13309  13323     1  0.0000000  0.6508444  3
  13322  13310  13309  13331     1  0.0000000  4.9162000  2
  13322  13310  13309  13331     1  0.0000000  0.6024960  3
  13329  13323  13309  13331     1  0.0000000  4.9162000  2
  13329  13323  13309  13331     1  0.0000000  0.6024960  3
  13332  13333  13336  13337     1  180.0000771  0.8368000  1
  13332  13333  13336  13337     1  180.0000771  1.0460000  2
  13332  13333  13336  13337     1  0.0000000  0.7531200  3
  13332  13333  13336  13344     1  0.0000000  0.6508444  3
  13332  13354  13338  13337     1  180.0000771  0.4184000  2
  13332  13354  13338  13337     1  0.0000000  1.6024720  3
  13332  13354  13338  13342     1  180.0000771  5.6484000  1
  13332  13354  13338  13342     1  180.0000771  3.5564000  2
  13332  13354  13338  13342     1  0.0000000  0.4184000  3
  13333  13332  13346  13352     1  0.0000000  0.6508444  3
  13333  13332  13354  13338     1  180.0000771  0.4184000  2
  13333  13332  13354  13338     1  0.0000000  1.6024720  3
  13333  13336  13337  13338     1  180.0000771  0.8368000  1
  13333  13336  13337  13338     1  180.0000771  1.0460000  2
  13333  13336  13337  13338     1  0.0000000  0.7531200  3
  13333  13336  13337  13343     1  0.0000000  0.6508444  3
  13336  13333  13332  13346     1  180.0000771  0.8368000  1
  13336  13333  13332  13346     1  180.0000771  1.0460000  2
  13336  13333  13332  13346     1  0.0000000  0.7531200  3
  13336  13333  13332  13354     1  0.0000000  0.6508444  3
  13336  13337  13338  13342     1  0.0000000  0.6508444  3
  13336  13337  13338  13354     1  0.0000000  0.6508444  3
  13337  13336  13333  13345     1  0.0000000  0.6508444  3
  13338  13337  13336  13344     1  0.0000000  0.6508444  3
  13338  13354  13332  13346     1  180.0000771  0.4184000  2
  13338  13354  13332  13346     1  0.0000000  1.6024720  3
  13342  13338  13337  13343     1  0.0000000  4.9162000  2
  13342  13338  13337  13343     1  0.0000000  0.6024960  3
  13343  13337  13336  13344     1  0.0000000  4.9162000  2
  13343  13337  13336  13344     1  0.0000000  0.6024960  3
  13343  13337  13338  13354     1  0.0000000  4.9162000  2
  13343  13337  13338  13354     1  0.0000000  0.6024960  3
  13344  13336  13333  13345     1  0.0000000  4.9162000  2
  13344  13336  13333  13345     1  0.0000000  0.6024960  3
  13345  13333  13332  13346     1  0.0000000  0.6508444  3
  13345  13333  13332  13354     1  0.0000000  4.9162000  2
  13345  13333  13332  13354     1  0.0000000  0.6024960  3
  13352  13346  13332  13354     1  0.0000000  4.9162000  2
  13352  13346  13332  13354     1  0.0000000  0.6024960  3
  13355  13356  13359  13360     1  180.0000771  0.8368000  1
  13355  13356  13359  13360     1  180.0000771  1.0460000  2
  13355  13356  13359  13360     1  0.0000000  0.7531200  3
  13355  13356  13359  13367     1  0.0000000  0.6508444  3
  13355  13377  13361  13365     1  180.0000771  5.6484000  1
  13355  13377  13361  13365     1  180.0000771  3.5564000  2
  13355  13377  13361  13365     1  0.0000000  0.4184000  3
  13355  13377  13361  13360     1  180.0000771  0.4184000  2
  13355  13377  13361  13360     1  0.0000000  1.6024720  3
  13356  13359  13360  13361     1  180.0000771  0.8368000  1
  13356  13359  13360  13361     1  180.0000771  1.0460000  2
  13356  13359  13360  13361     1  0.0000000  0.7531200  3
  13356  13359  13360  13366     1  0.0000000  0.6508444  3
  13356  13355  13369  13375     1  0.0000000  0.6508444  3
  13356  13355  13377  13361     1  180.0000771  0.4184000  2
  13356  13355  13377  13361     1  0.0000000  1.6024720  3
  13359  13360  13361  13365     1  0.0000000  0.6508444  3
  13359  13360  13361  13377     1  0.0000000  0.6508444  3
  13359  13356  13355  13369     1  180.0000771  0.8368000  1
  13359  13356  13355  13369     1  180.0000771  1.0460000  2
  13359  13356  13355  13369     1  0.0000000  0.7531200  3
  13359  13356  13355  13377     1  0.0000000  0.6508444  3
  13360  13359  13356  13368     1  0.0000000  0.6508444  3
  13361  13377  13355  13369     1  180.0000771  0.4184000  2
  13361  13377  13355  13369     1  0.0000000  1.6024720  3
  13361  13360  13359  13367     1  0.0000000  0.6508444  3
  13365  13361  13360  13366     1  0.0000000  4.9162000  2
  13365  13361  13360  13366     1  0.0000000  0.6024960  3
  13366  13360  13361  13377     1  0.0000000  4.9162000  2
  13366  13360  13361  13377     1  0.0000000  0.6024960  3
  13366  13360  13359  13367     1  0.0000000  4.9162000  2
  13366  13360  13359  13367     1  0.0000000  0.6024960  3
  13367  13359  13356  13368     1  0.0000000  4.9162000  2
  13367  13359  13356  13368     1  0.0000000  0.6024960  3
  13368  13356  13355  13369     1  0.0000000  0.6508444  3
  13368  13356  13355  13377     1  0.0000000  4.9162000  2
  13368  13356  13355  13377     1  0.0000000  0.6024960  3
  13375  13369  13355  13377     1  0.0000000  4.9162000  2
  13375  13369  13355  13377     1  0.0000000  0.6024960  3
  13378  13379  13382  13383     1  180.0000771  0.8368000  1
  13378  13379  13382  13383     1  180.0000771  1.0460000  2
  13378  13379  13382  13383     1  0.0000000  0.7531200  3
  13378  13379  13382  13390     1  0.0000000  0.6508444  3
  13378  13400  13384  13383     1  180.0000771  0.4184000  2
  13378  13400  13384  13383     1  0.0000000  1.6024720  3
  13378  13400  13384  13388     1  180.0000771  5.6484000  1
  13378  13400  13384  13388     1  180.0000771  3.5564000  2
  13378  13400  13384  13388     1  0.0000000  0.4184000  3
  13379  13378  13392  13398     1  0.0000000  0.6508444  3
  13379  13378  13400  13384     1  180.0000771  0.4184000  2
  13379  13378  13400  13384     1  0.0000000  1.6024720  3
  13379  13382  13383  13384     1  180.0000771  0.8368000  1
  13379  13382  13383  13384     1  180.0000771  1.0460000  2
  13379  13382  13383  13384     1  0.0000000  0.7531200  3
  13379  13382  13383  13389     1  0.0000000  0.6508444  3
  13382  13379  13378  13392     1  180.0000771  0.8368000  1
  13382  13379  13378  13392     1  180.0000771  1.0460000  2
  13382  13379  13378  13392     1  0.0000000  0.7531200  3
  13382  13379  13378  13400     1  0.0000000  0.6508444  3
  13382  13383  13384  13388     1  0.0000000  0.6508444  3
  13382  13383  13384  13400     1  0.0000000  0.6508444  3
  13383  13382  13379  13391     1  0.0000000  0.6508444  3
  13384  13383  13382  13390     1  0.0000000  0.6508444  3
  13384  13400  13378  13392     1  180.0000771  0.4184000  2
  13384  13400  13378  13392     1  0.0000000  1.6024720  3
  13388  13384  13383  13389     1  0.0000000  4.9162000  2
  13388  13384  13383  13389     1  0.0000000  0.6024960  3
  13389  13383  13382  13390     1  0.0000000  4.9162000  2
  13389  13383  13382  13390     1  0.0000000  0.6024960  3
  13389  13383  13384  13400     1  0.0000000  4.9162000  2
  13389  13383  13384  13400     1  0.0000000  0.6024960  3
  13390  13382  13379  13391     1  0.0000000  4.9162000  2
  13390  13382  13379  13391     1  0.0000000  0.6024960  3
  13391  13379  13378  13392     1  0.0000000  0.6508444  3
  13391  13379  13378  13400     1  0.0000000  4.9162000  2
  13391  13379  13378  13400     1  0.0000000  0.6024960  3
  13398  13392  13378  13400     1  0.0000000  4.9162000  2
  13398  13392  13378  13400     1  0.0000000  0.6024960  3
  13401  13402  13405  13406     1  180.0000771  0.8368000  1
  13401  13402  13405  13406     1  180.0000771  1.0460000  2
  13401  13402  13405  13406     1  0.0000000  0.7531200  3
  13401  13402  13405  13413     1  0.0000000  0.6508444  3
  13401  13423  13407  13411     1  180.0000771  5.6484000  1
  13401  13423  13407  13411     1  180.0000771  3.5564000  2
  13401  13423  13407  13411     1  0.0000000  0.4184000  3
  13401  13423  13407  13406     1  180.0000771  0.4184000  2
  13401  13423  13407  13406     1  0.0000000  1.6024720  3
  13402  13405  13406  13407     1  180.0000771  0.8368000  1
  13402  13405  13406  13407     1  180.0000771  1.0460000  2
  13402  13405  13406  13407     1  0.0000000  0.7531200  3
  13402  13405  13406  13412     1  0.0000000  0.6508444  3
  13402  13401  13415  13421     1  0.0000000  0.6508444  3
  13402  13401  13423  13407     1  180.0000771  0.4184000  2
  13402  13401  13423  13407     1  0.0000000  1.6024720  3
  13405  13406  13407  13411     1  0.0000000  0.6508444  3
  13405  13406  13407  13423     1  0.0000000  0.6508444  3
  13405  13402  13401  13415     1  180.0000771  0.8368000  1
  13405  13402  13401  13415     1  180.0000771  1.0460000  2
  13405  13402  13401  13415     1  0.0000000  0.7531200  3
  13405  13402  13401  13423     1  0.0000000  0.6508444  3
  13406  13405  13402  13414     1  0.0000000  0.6508444  3
  13407  13423  13401  13415     1  180.0000771  0.4184000  2
  13407  13423  13401  13415     1  0.0000000  1.6024720  3
  13407  13406  13405  13413     1  0.0000000  0.6508444  3
  13411  13407  13406  13412     1  0.0000000  4.9162000  2
  13411  13407  13406  13412     1  0.0000000  0.6024960  3
  13412  13406  13407  13423     1  0.0000000  4.9162000  2
  13412  13406  13407  13423     1  0.0000000  0.6024960  3
  13412  13406  13405  13413     1  0.0000000  4.9162000  2
  13412  13406  13405  13413     1  0.0000000  0.6024960  3
  13413  13405  13402  13414     1  0.0000000  4.9162000  2
  13413  13405  13402  13414     1  0.0000000  0.6024960  3
  13414  13402  13401  13415     1  0.0000000  0.6508444  3
  13414  13402  13401  13423     1  0.0000000  4.9162000  2
  13414  13402  13401  13423     1  0.0000000  0.6024960  3
  13421  13415  13401  13423     1  0.0000000  4.9162000  2
  13421  13415  13401  13423     1  0.0000000  0.6024960  3
  13424  13425  13428  13429     1  180.0000771  0.8368000  1
  13424  13425  13428  13429     1  180.0000771  1.0460000  2
  13424  13425  13428  13429     1  0.0000000  0.7531200  3
  13424  13425  13428  13436     1  0.0000000  0.6508444  3
  13424  13446  13430  13429     1  180.0000771  0.4184000  2
  13424  13446  13430  13429     1  0.0000000  1.6024720  3
  13424  13446  13430  13434     1  180.0000771  5.6484000  1
  13424  13446  13430  13434     1  180.0000771  3.5564000  2
  13424  13446  13430  13434     1  0.0000000  0.4184000  3
  13425  13424  13438  13444     1  0.0000000  0.6508444  3
  13425  13424  13446  13430     1  180.0000771  0.4184000  2
  13425  13424  13446  13430     1  0.0000000  1.6024720  3
  13425  13428  13429  13430     1  180.0000771  0.8368000  1
  13425  13428  13429  13430     1  180.0000771  1.0460000  2
  13425  13428  13429  13430     1  0.0000000  0.7531200  3
  13425  13428  13429  13435     1  0.0000000  0.6508444  3
  13428  13425  13424  13438     1  180.0000771  0.8368000  1
  13428  13425  13424  13438     1  180.0000771  1.0460000  2
  13428  13425  13424  13438     1  0.0000000  0.7531200  3
  13428  13425  13424  13446     1  0.0000000  0.6508444  3
  13428  13429  13430  13434     1  0.0000000  0.6508444  3
  13428  13429  13430  13446     1  0.0000000  0.6508444  3
  13429  13428  13425  13437     1  0.0000000  0.6508444  3
  13430  13429  13428  13436     1  0.0000000  0.6508444  3
  13430  13446  13424  13438     1  180.0000771  0.4184000  2
  13430  13446  13424  13438     1  0.0000000  1.6024720  3
  13434  13430  13429  13435     1  0.0000000  4.9162000  2
  13434  13430  13429  13435     1  0.0000000  0.6024960  3
  13435  13429  13428  13436     1  0.0000000  4.9162000  2
  13435  13429  13428  13436     1  0.0000000  0.6024960  3
  13435  13429  13430  13446     1  0.0000000  4.9162000  2
  13435  13429  13430  13446     1  0.0000000  0.6024960  3
  13436  13428  13425  13437     1  0.0000000  4.9162000  2
  13436  13428  13425  13437     1  0.0000000  0.6024960  3
  13437  13425  13424  13438     1  0.0000000  0.6508444  3
  13437  13425  13424  13446     1  0.0000000  4.9162000  2
  13437  13425  13424  13446     1  0.0000000  0.6024960  3
  13444  13438  13424  13446     1  0.0000000  4.9162000  2
  13444  13438  13424  13446     1  0.0000000  0.6024960  3
  13447  13448  13451  13452     1  180.0000771  0.8368000  1
  13447  13448  13451  13452     1  180.0000771  1.0460000  2
  13447  13448  13451  13452     1  0.0000000  0.7531200  3
  13447  13448  13451  13459     1  0.0000000  0.6508444  3
  13447  13469  13453  13457     1  180.0000771  5.6484000  1
  13447  13469  13453  13457     1  180.0000771  3.5564000  2
  13447  13469  13453  13457     1  0.0000000  0.4184000  3
  13447  13469  13453  13452     1  180.0000771  0.4184000  2
  13447  13469  13453  13452     1  0.0000000  1.6024720  3
  13448  13451  13452  13453     1  180.0000771  0.8368000  1
  13448  13451  13452  13453     1  180.0000771  1.0460000  2
  13448  13451  13452  13453     1  0.0000000  0.7531200  3
  13448  13451  13452  13458     1  0.0000000  0.6508444  3
  13448  13447  13461  13467     1  0.0000000  0.6508444  3
  13448  13447  13469  13453     1  180.0000771  0.4184000  2
  13448  13447  13469  13453     1  0.0000000  1.6024720  3
  13451  13452  13453  13457     1  0.0000000  0.6508444  3
  13451  13452  13453  13469     1  0.0000000  0.6508444  3
  13451  13448  13447  13461     1  180.0000771  0.8368000  1
  13451  13448  13447  13461     1  180.0000771  1.0460000  2
  13451  13448  13447  13461     1  0.0000000  0.7531200  3
  13451  13448  13447  13469     1  0.0000000  0.6508444  3
  13452  13451  13448  13460     1  0.0000000  0.6508444  3
  13453  13469  13447  13461     1  180.0000771  0.4184000  2
  13453  13469  13447  13461     1  0.0000000  1.6024720  3
  13453  13452  13451  13459     1  0.0000000  0.6508444  3
  13457  13453  13452  13458     1  0.0000000  4.9162000  2
  13457  13453  13452  13458     1  0.0000000  0.6024960  3
  13458  13452  13453  13469     1  0.0000000  4.9162000  2
  13458  13452  13453  13469     1  0.0000000  0.6024960  3
  13458  13452  13451  13459     1  0.0000000  4.9162000  2
  13458  13452  13451  13459     1  0.0000000  0.6024960  3
  13459  13451  13448  13460     1  0.0000000  4.9162000  2
  13459  13451  13448  13460     1  0.0000000  0.6024960  3
  13460  13448  13447  13461     1  0.0000000  0.6508444  3
  13460  13448  13447  13469     1  0.0000000  4.9162000  2
  13460  13448  13447  13469     1  0.0000000  0.6024960  3
  13467  13461  13447  13469     1  0.0000000  4.9162000  2
  13467  13461  13447  13469     1  0.0000000  0.6024960  3
  13470  13471  13474  13475     1  180.0000771  0.8368000  1
  13470  13471  13474  13475     1  180.0000771  1.0460000  2
  13470  13471  13474  13475     1  0.0000000  0.7531200  3
  13470  13471  13474  13482     1  0.0000000  0.6508444  3
  13470  13492  13476  13475     1  180.0000771  0.4184000  2
  13470  13492  13476  13475     1  0.0000000  1.6024720  3
  13470  13492  13476  13480     1  180.0000771  5.6484000  1
  13470  13492  13476  13480     1  180.0000771  3.5564000  2
  13470  13492  13476  13480     1  0.0000000  0.4184000  3
  13471  13470  13484  13490     1  0.0000000  0.6508444  3
  13471  13470  13492  13476     1  180.0000771  0.4184000  2
  13471  13470  13492  13476     1  0.0000000  1.6024720  3
  13471  13474  13475  13476     1  180.0000771  0.8368000  1
  13471  13474  13475  13476     1  180.0000771  1.0460000  2
  13471  13474  13475  13476     1  0.0000000  0.7531200  3
  13471  13474  13475  13481     1  0.0000000  0.6508444  3
  13474  13471  13470  13484     1  180.0000771  0.8368000  1
  13474  13471  13470  13484     1  180.0000771  1.0460000  2
  13474  13471  13470  13484     1  0.0000000  0.7531200  3
  13474  13471  13470  13492     1  0.0000000  0.6508444  3
  13474  13475  13476  13480     1  0.0000000  0.6508444  3
  13474  13475  13476  13492     1  0.0000000  0.6508444  3
  13475  13474  13471  13483     1  0.0000000  0.6508444  3
  13476  13475  13474  13482     1  0.0000000  0.6508444  3
  13476  13492  13470  13484     1  180.0000771  0.4184000  2
  13476  13492  13470  13484     1  0.0000000  1.6024720  3
  13480  13476  13475  13481     1  0.0000000  4.9162000  2
  13480  13476  13475  13481     1  0.0000000  0.6024960  3
  13481  13475  13474  13482     1  0.0000000  4.9162000  2
  13481  13475  13474  13482     1  0.0000000  0.6024960  3
  13481  13475  13476  13492     1  0.0000000  4.9162000  2
  13481  13475  13476  13492     1  0.0000000  0.6024960  3
  13482  13474  13471  13483     1  0.0000000  4.9162000  2
  13482  13474  13471  13483     1  0.0000000  0.6024960  3
  13483  13471  13470  13484     1  0.0000000  0.6508444  3
  13483  13471  13470  13492     1  0.0000000  4.9162000  2
  13483  13471  13470  13492     1  0.0000000  0.6024960  3
  13490  13484  13470  13492     1  0.0000000  4.9162000  2
  13490  13484  13470  13492     1  0.0000000  0.6024960  3
  13493  13494  13497  13498     1  180.0000771  0.8368000  1
  13493  13494  13497  13498     1  180.0000771  1.0460000  2
  13493  13494  13497  13498     1  0.0000000  0.7531200  3
  13493  13494  13497  13505     1  0.0000000  0.6508444  3
  13493  13515  13499  13503     1  180.0000771  5.6484000  1
  13493  13515  13499  13503     1  180.0000771  3.5564000  2
  13493  13515  13499  13503     1  0.0000000  0.4184000  3
  13493  13515  13499  13498     1  180.0000771  0.4184000  2
  13493  13515  13499  13498     1  0.0000000  1.6024720  3
  13494  13497  13498  13499     1  180.0000771  0.8368000  1
  13494  13497  13498  13499     1  180.0000771  1.0460000  2
  13494  13497  13498  13499     1  0.0000000  0.7531200  3
  13494  13497  13498  13504     1  0.0000000  0.6508444  3
  13494  13493  13507  13513     1  0.0000000  0.6508444  3
  13494  13493  13515  13499     1  180.0000771  0.4184000  2
  13494  13493  13515  13499     1  0.0000000  1.6024720  3
  13497  13498  13499  13503     1  0.0000000  0.6508444  3
  13497  13498  13499  13515     1  0.0000000  0.6508444  3
  13497  13494  13493  13507     1  180.0000771  0.8368000  1
  13497  13494  13493  13507     1  180.0000771  1.0460000  2
  13497  13494  13493  13507     1  0.0000000  0.7531200  3
  13497  13494  13493  13515     1  0.0000000  0.6508444  3
  13498  13497  13494  13506     1  0.0000000  0.6508444  3
  13499  13515  13493  13507     1  180.0000771  0.4184000  2
  13499  13515  13493  13507     1  0.0000000  1.6024720  3
  13499  13498  13497  13505     1  0.0000000  0.6508444  3
  13503  13499  13498  13504     1  0.0000000  4.9162000  2
  13503  13499  13498  13504     1  0.0000000  0.6024960  3
  13504  13498  13499  13515     1  0.0000000  4.9162000  2
  13504  13498  13499  13515     1  0.0000000  0.6024960  3
  13504  13498  13497  13505     1  0.0000000  4.9162000  2
  13504  13498  13497  13505     1  0.0000000  0.6024960  3
  13505  13497  13494  13506     1  0.0000000  4.9162000  2
  13505  13497  13494  13506     1  0.0000000  0.6024960  3
  13506  13494  13493  13507     1  0.0000000  0.6508444  3
  13506  13494  13493  13515     1  0.0000000  4.9162000  2
  13506  13494  13493  13515     1  0.0000000  0.6024960  3
  13513  13507  13493  13515     1  0.0000000  4.9162000  2
  13513  13507  13493  13515     1  0.0000000  0.6024960  3
  13516  13517  13520  13521     1  180.0000771  0.8368000  1
  13516  13517  13520  13521     1  180.0000771  1.0460000  2
  13516  13517  13520  13521     1  0.0000000  0.7531200  3
  13516  13517  13520  13528     1  0.0000000  0.6508444  3
  13516  13538  13522  13521     1  180.0000771  0.4184000  2
  13516  13538  13522  13521     1  0.0000000  1.6024720  3
  13516  13538  13522  13526     1  180.0000771  5.6484000  1
  13516  13538  13522  13526     1  180.0000771  3.5564000  2
  13516  13538  13522  13526     1  0.0000000  0.4184000  3
  13517  13516  13530  13536     1  0.0000000  0.6508444  3
  13517  13516  13538  13522     1  180.0000771  0.4184000  2
  13517  13516  13538  13522     1  0.0000000  1.6024720  3
  13517  13520  13521  13522     1  180.0000771  0.8368000  1
  13517  13520  13521  13522     1  180.0000771  1.0460000  2
  13517  13520  13521  13522     1  0.0000000  0.7531200  3
  13517  13520  13521  13527     1  0.0000000  0.6508444  3
  13520  13517  13516  13530     1  180.0000771  0.8368000  1
  13520  13517  13516  13530     1  180.0000771  1.0460000  2
  13520  13517  13516  13530     1  0.0000000  0.7531200  3
  13520  13517  13516  13538     1  0.0000000  0.6508444  3
  13520  13521  13522  13526     1  0.0000000  0.6508444  3
  13520  13521  13522  13538     1  0.0000000  0.6508444  3
  13521  13520  13517  13529     1  0.0000000  0.6508444  3
  13522  13521  13520  13528     1  0.0000000  0.6508444  3
  13522  13538  13516  13530     1  180.0000771  0.4184000  2
  13522  13538  13516  13530     1  0.0000000  1.6024720  3
  13526  13522  13521  13527     1  0.0000000  4.9162000  2
  13526  13522  13521  13527     1  0.0000000  0.6024960  3
  13527  13521  13520  13528     1  0.0000000  4.9162000  2
  13527  13521  13520  13528     1  0.0000000  0.6024960  3
  13527  13521  13522  13538     1  0.0000000  4.9162000  2
  13527  13521  13522  13538     1  0.0000000  0.6024960  3
  13528  13520  13517  13529     1  0.0000000  4.9162000  2
  13528  13520  13517  13529     1  0.0000000  0.6024960  3
  13529  13517  13516  13530     1  0.0000000  0.6508444  3
  13529  13517  13516  13538     1  0.0000000  4.9162000  2
  13529  13517  13516  13538     1  0.0000000  0.6024960  3
  13536  13530  13516  13538     1  0.0000000  4.9162000  2
  13536  13530  13516  13538     1  0.0000000  0.6024960  3
  13539  13540  13543  13544     1  180.0000771  0.8368000  1
  13539  13540  13543  13544     1  180.0000771  1.0460000  2
  13539  13540  13543  13544     1  0.0000000  0.7531200  3
  13539  13540  13543  13551     1  0.0000000  0.6508444  3
  13539  13561  13545  13549     1  180.0000771  5.6484000  1
  13539  13561  13545  13549     1  180.0000771  3.5564000  2
  13539  13561  13545  13549     1  0.0000000  0.4184000  3
  13539  13561  13545  13544     1  180.0000771  0.4184000  2
  13539  13561  13545  13544     1  0.0000000  1.6024720  3
  13540  13543  13544  13545     1  180.0000771  0.8368000  1
  13540  13543  13544  13545     1  180.0000771  1.0460000  2
  13540  13543  13544  13545     1  0.0000000  0.7531200  3
  13540  13543  13544  13550     1  0.0000000  0.6508444  3
  13540  13539  13553  13559     1  0.0000000  0.6508444  3
  13540  13539  13561  13545     1  180.0000771  0.4184000  2
  13540  13539  13561  13545     1  0.0000000  1.6024720  3
  13543  13544  13545  13549     1  0.0000000  0.6508444  3
  13543  13544  13545  13561     1  0.0000000  0.6508444  3
  13543  13540  13539  13553     1  180.0000771  0.8368000  1
  13543  13540  13539  13553     1  180.0000771  1.0460000  2
  13543  13540  13539  13553     1  0.0000000  0.7531200  3
  13543  13540  13539  13561     1  0.0000000  0.6508444  3
  13544  13543  13540  13552     1  0.0000000  0.6508444  3
  13545  13561  13539  13553     1  180.0000771  0.4184000  2
  13545  13561  13539  13553     1  0.0000000  1.6024720  3
  13545  13544  13543  13551     1  0.0000000  0.6508444  3
  13549  13545  13544  13550     1  0.0000000  4.9162000  2
  13549  13545  13544  13550     1  0.0000000  0.6024960  3
  13550  13544  13545  13561     1  0.0000000  4.9162000  2
  13550  13544  13545  13561     1  0.0000000  0.6024960  3
  13550  13544  13543  13551     1  0.0000000  4.9162000  2
  13550  13544  13543  13551     1  0.0000000  0.6024960  3
  13551  13543  13540  13552     1  0.0000000  4.9162000  2
  13551  13543  13540  13552     1  0.0000000  0.6024960  3
  13552  13540  13539  13553     1  0.0000000  0.6508444  3
  13552  13540  13539  13561     1  0.0000000  4.9162000  2
  13552  13540  13539  13561     1  0.0000000  0.6024960  3
  13559  13553  13539  13561     1  0.0000000  4.9162000  2
  13559  13553  13539  13561     1  0.0000000  0.6024960  3
  13562  13563  13566  13567     1  180.0000771  0.8368000  1
  13562  13563  13566  13567     1  180.0000771  1.0460000  2
  13562  13563  13566  13567     1  0.0000000  0.7531200  3
  13562  13563  13566  13574     1  0.0000000  0.6508444  3
  13562  13584  13568  13567     1  180.0000771  0.4184000  2
  13562  13584  13568  13567     1  0.0000000  1.6024720  3
  13562  13584  13568  13572     1  180.0000771  5.6484000  1
  13562  13584  13568  13572     1  180.0000771  3.5564000  2
  13562  13584  13568  13572     1  0.0000000  0.4184000  3
  13563  13562  13576  13582     1  0.0000000  0.6508444  3
  13563  13562  13584  13568     1  180.0000771  0.4184000  2
  13563  13562  13584  13568     1  0.0000000  1.6024720  3
  13563  13566  13567  13568     1  180.0000771  0.8368000  1
  13563  13566  13567  13568     1  180.0000771  1.0460000  2
  13563  13566  13567  13568     1  0.0000000  0.7531200  3
  13563  13566  13567  13573     1  0.0000000  0.6508444  3
  13566  13563  13562  13576     1  180.0000771  0.8368000  1
  13566  13563  13562  13576     1  180.0000771  1.0460000  2
  13566  13563  13562  13576     1  0.0000000  0.7531200  3
  13566  13563  13562  13584     1  0.0000000  0.6508444  3
  13566  13567  13568  13572     1  0.0000000  0.6508444  3
  13566  13567  13568  13584     1  0.0000000  0.6508444  3
  13567  13566  13563  13575     1  0.0000000  0.6508444  3
  13568  13567  13566  13574     1  0.0000000  0.6508444  3
  13568  13584  13562  13576     1  180.0000771  0.4184000  2
  13568  13584  13562  13576     1  0.0000000  1.6024720  3
  13572  13568  13567  13573     1  0.0000000  4.9162000  2
  13572  13568  13567  13573     1  0.0000000  0.6024960  3
  13573  13567  13566  13574     1  0.0000000  4.9162000  2
  13573  13567  13566  13574     1  0.0000000  0.6024960  3
  13573  13567  13568  13584     1  0.0000000  4.9162000  2
  13573  13567  13568  13584     1  0.0000000  0.6024960  3
  13574  13566  13563  13575     1  0.0000000  4.9162000  2
  13574  13566  13563  13575     1  0.0000000  0.6024960  3
  13575  13563  13562  13576     1  0.0000000  0.6508444  3
  13575  13563  13562  13584     1  0.0000000  4.9162000  2
  13575  13563  13562  13584     1  0.0000000  0.6024960  3
  13582  13576  13562  13584     1  0.0000000  4.9162000  2
  13582  13576  13562  13584     1  0.0000000  0.6024960  3
  13585  13586  13589  13590     1  180.0000771  0.8368000  1
  13585  13586  13589  13590     1  180.0000771  1.0460000  2
  13585  13586  13589  13590     1  0.0000000  0.7531200  3
  13585  13586  13589  13597     1  0.0000000  0.6508444  3
  13585  13607  13591  13595     1  180.0000771  5.6484000  1
  13585  13607  13591  13595     1  180.0000771  3.5564000  2
  13585  13607  13591  13595     1  0.0000000  0.4184000  3
  13585  13607  13591  13590     1  180.0000771  0.4184000  2
  13585  13607  13591  13590     1  0.0000000  1.6024720  3
  13586  13589  13590  13591     1  180.0000771  0.8368000  1
  13586  13589  13590  13591     1  180.0000771  1.0460000  2
  13586  13589  13590  13591     1  0.0000000  0.7531200  3
  13586  13589  13590  13596     1  0.0000000  0.6508444  3
  13586  13585  13599  13605     1  0.0000000  0.6508444  3
  13586  13585  13607  13591     1  180.0000771  0.4184000  2
  13586  13585  13607  13591     1  0.0000000  1.6024720  3
  13589  13590  13591  13595     1  0.0000000  0.6508444  3
  13589  13590  13591  13607     1  0.0000000  0.6508444  3
  13589  13586  13585  13599     1  180.0000771  0.8368000  1
  13589  13586  13585  13599     1  180.0000771  1.0460000  2
  13589  13586  13585  13599     1  0.0000000  0.7531200  3
  13589  13586  13585  13607     1  0.0000000  0.6508444  3
  13590  13589  13586  13598     1  0.0000000  0.6508444  3
  13591  13607  13585  13599     1  180.0000771  0.4184000  2
  13591  13607  13585  13599     1  0.0000000  1.6024720  3
  13591  13590  13589  13597     1  0.0000000  0.6508444  3
  13595  13591  13590  13596     1  0.0000000  4.9162000  2
  13595  13591  13590  13596     1  0.0000000  0.6024960  3
  13596  13590  13591  13607     1  0.0000000  4.9162000  2
  13596  13590  13591  13607     1  0.0000000  0.6024960  3
  13596  13590  13589  13597     1  0.0000000  4.9162000  2
  13596  13590  13589  13597     1  0.0000000  0.6024960  3
  13597  13589  13586  13598     1  0.0000000  4.9162000  2
  13597  13589  13586  13598     1  0.0000000  0.6024960  3
  13598  13586  13585  13599     1  0.0000000  0.6508444  3
  13598  13586  13585  13607     1  0.0000000  4.9162000  2
  13598  13586  13585  13607     1  0.0000000  0.6024960  3
  13605  13599  13585  13607     1  0.0000000  4.9162000  2
  13605  13599  13585  13607     1  0.0000000  0.6024960  3
  13608  13609  13612  13613     1  180.0000771  0.8368000  1
  13608  13609  13612  13613     1  180.0000771  1.0460000  2
  13608  13609  13612  13613     1  0.0000000  0.7531200  3
  13608  13609  13612  13620     1  0.0000000  0.6508444  3
  13608  13630  13614  13613     1  180.0000771  0.4184000  2
  13608  13630  13614  13613     1  0.0000000  1.6024720  3
  13608  13630  13614  13618     1  180.0000771  5.6484000  1
  13608  13630  13614  13618     1  180.0000771  3.5564000  2
  13608  13630  13614  13618     1  0.0000000  0.4184000  3
  13609  13608  13622  13628     1  0.0000000  0.6508444  3
  13609  13608  13630  13614     1  180.0000771  0.4184000  2
  13609  13608  13630  13614     1  0.0000000  1.6024720  3
  13609  13612  13613  13614     1  180.0000771  0.8368000  1
  13609  13612  13613  13614     1  180.0000771  1.0460000  2
  13609  13612  13613  13614     1  0.0000000  0.7531200  3
  13609  13612  13613  13619     1  0.0000000  0.6508444  3
  13612  13609  13608  13622     1  180.0000771  0.8368000  1
  13612  13609  13608  13622     1  180.0000771  1.0460000  2
  13612  13609  13608  13622     1  0.0000000  0.7531200  3
  13612  13609  13608  13630     1  0.0000000  0.6508444  3
  13612  13613  13614  13618     1  0.0000000  0.6508444  3
  13612  13613  13614  13630     1  0.0000000  0.6508444  3
  13613  13612  13609  13621     1  0.0000000  0.6508444  3
  13614  13613  13612  13620     1  0.0000000  0.6508444  3
  13614  13630  13608  13622     1  180.0000771  0.4184000  2
  13614  13630  13608  13622     1  0.0000000  1.6024720  3
  13618  13614  13613  13619     1  0.0000000  4.9162000  2
  13618  13614  13613  13619     1  0.0000000  0.6024960  3
  13619  13613  13612  13620     1  0.0000000  4.9162000  2
  13619  13613  13612  13620     1  0.0000000  0.6024960  3
  13619  13613  13614  13630     1  0.0000000  4.9162000  2
  13619  13613  13614  13630     1  0.0000000  0.6024960  3
  13620  13612  13609  13621     1  0.0000000  4.9162000  2
  13620  13612  13609  13621     1  0.0000000  0.6024960  3
  13621  13609  13608  13622     1  0.0000000  0.6508444  3
  13621  13609  13608  13630     1  0.0000000  4.9162000  2
  13621  13609  13608  13630     1  0.0000000  0.6024960  3
  13628  13622  13608  13630     1  0.0000000  4.9162000  2
  13628  13622  13608  13630     1  0.0000000  0.6024960  3
  13631  13632  13635  13636     1  180.0000771  0.8368000  1
  13631  13632  13635  13636     1  180.0000771  1.0460000  2
  13631  13632  13635  13636     1  0.0000000  0.7531200  3
  13631  13632  13635  13643     1  0.0000000  0.6508444  3
  13631  13653  13637  13641     1  180.0000771  5.6484000  1
  13631  13653  13637  13641     1  180.0000771  3.5564000  2
  13631  13653  13637  13641     1  0.0000000  0.4184000  3
  13631  13653  13637  13636     1  180.0000771  0.4184000  2
  13631  13653  13637  13636     1  0.0000000  1.6024720  3
  13632  13635  13636  13637     1  180.0000771  0.8368000  1
  13632  13635  13636  13637     1  180.0000771  1.0460000  2
  13632  13635  13636  13637     1  0.0000000  0.7531200  3
  13632  13635  13636  13642     1  0.0000000  0.6508444  3
  13632  13631  13645  13651     1  0.0000000  0.6508444  3
  13632  13631  13653  13637     1  180.0000771  0.4184000  2
  13632  13631  13653  13637     1  0.0000000  1.6024720  3
  13635  13636  13637  13641     1  0.0000000  0.6508444  3
  13635  13636  13637  13653     1  0.0000000  0.6508444  3
  13635  13632  13631  13645     1  180.0000771  0.8368000  1
  13635  13632  13631  13645     1  180.0000771  1.0460000  2
  13635  13632  13631  13645     1  0.0000000  0.7531200  3
  13635  13632  13631  13653     1  0.0000000  0.6508444  3
  13636  13635  13632  13644     1  0.0000000  0.6508444  3
  13637  13653  13631  13645     1  180.0000771  0.4184000  2
  13637  13653  13631  13645     1  0.0000000  1.6024720  3
  13637  13636  13635  13643     1  0.0000000  0.6508444  3
  13641  13637  13636  13642     1  0.0000000  4.9162000  2
  13641  13637  13636  13642     1  0.0000000  0.6024960  3
  13642  13636  13637  13653     1  0.0000000  4.9162000  2
  13642  13636  13637  13653     1  0.0000000  0.6024960  3
  13642  13636  13635  13643     1  0.0000000  4.9162000  2
  13642  13636  13635  13643     1  0.0000000  0.6024960  3
  13643  13635  13632  13644     1  0.0000000  4.9162000  2
  13643  13635  13632  13644     1  0.0000000  0.6024960  3
  13644  13632  13631  13645     1  0.0000000  0.6508444  3
  13644  13632  13631  13653     1  0.0000000  4.9162000  2
  13644  13632  13631  13653     1  0.0000000  0.6024960  3
  13651  13645  13631  13653     1  0.0000000  4.9162000  2
  13651  13645  13631  13653     1  0.0000000  0.6024960  3
  13654  13655  13658  13659     1  180.0000771  0.8368000  1
  13654  13655  13658  13659     1  180.0000771  1.0460000  2
  13654  13655  13658  13659     1  0.0000000  0.7531200  3
  13654  13655  13658  13666     1  0.0000000  0.6508444  3
  13654  13676  13660  13659     1  180.0000771  0.4184000  2
  13654  13676  13660  13659     1  0.0000000  1.6024720  3
  13654  13676  13660  13664     1  180.0000771  5.6484000  1
  13654  13676  13660  13664     1  180.0000771  3.5564000  2
  13654  13676  13660  13664     1  0.0000000  0.4184000  3
  13655  13654  13668  13674     1  0.0000000  0.6508444  3
  13655  13654  13676  13660     1  180.0000771  0.4184000  2
  13655  13654  13676  13660     1  0.0000000  1.6024720  3
  13655  13658  13659  13660     1  180.0000771  0.8368000  1
  13655  13658  13659  13660     1  180.0000771  1.0460000  2
  13655  13658  13659  13660     1  0.0000000  0.7531200  3
  13655  13658  13659  13665     1  0.0000000  0.6508444  3
  13658  13655  13654  13668     1  180.0000771  0.8368000  1
  13658  13655  13654  13668     1  180.0000771  1.0460000  2
  13658  13655  13654  13668     1  0.0000000  0.7531200  3
  13658  13655  13654  13676     1  0.0000000  0.6508444  3
  13658  13659  13660  13664     1  0.0000000  0.6508444  3
  13658  13659  13660  13676     1  0.0000000  0.6508444  3
  13659  13658  13655  13667     1  0.0000000  0.6508444  3
  13660  13659  13658  13666     1  0.0000000  0.6508444  3
  13660  13676  13654  13668     1  180.0000771  0.4184000  2
  13660  13676  13654  13668     1  0.0000000  1.6024720  3
  13664  13660  13659  13665     1  0.0000000  4.9162000  2
  13664  13660  13659  13665     1  0.0000000  0.6024960  3
  13665  13659  13658  13666     1  0.0000000  4.9162000  2
  13665  13659  13658  13666     1  0.0000000  0.6024960  3
  13665  13659  13660  13676     1  0.0000000  4.9162000  2
  13665  13659  13660  13676     1  0.0000000  0.6024960  3
  13666  13658  13655  13667     1  0.0000000  4.9162000  2
  13666  13658  13655  13667     1  0.0000000  0.6024960  3
  13667  13655  13654  13668     1  0.0000000  0.6508444  3
  13667  13655  13654  13676     1  0.0000000  4.9162000  2
  13667  13655  13654  13676     1  0.0000000  0.6024960  3
  13674  13668  13654  13676     1  0.0000000  4.9162000  2
  13674  13668  13654  13676     1  0.0000000  0.6024960  3
  13677  13678  13681  13682     1  180.0000771  0.8368000  1
  13677  13678  13681  13682     1  180.0000771  1.0460000  2
  13677  13678  13681  13682     1  0.0000000  0.7531200  3
  13677  13678  13681  13689     1  0.0000000  0.6508444  3
  13677  13699  13683  13687     1  180.0000771  5.6484000  1
  13677  13699  13683  13687     1  180.0000771  3.5564000  2
  13677  13699  13683  13687     1  0.0000000  0.4184000  3
  13677  13699  13683  13682     1  180.0000771  0.4184000  2
  13677  13699  13683  13682     1  0.0000000  1.6024720  3
  13678  13681  13682  13683     1  180.0000771  0.8368000  1
  13678  13681  13682  13683     1  180.0000771  1.0460000  2
  13678  13681  13682  13683     1  0.0000000  0.7531200  3
  13678  13681  13682  13688     1  0.0000000  0.6508444  3
  13678  13677  13691  13697     1  0.0000000  0.6508444  3
  13678  13677  13699  13683     1  180.0000771  0.4184000  2
  13678  13677  13699  13683     1  0.0000000  1.6024720  3
  13681  13682  13683  13687     1  0.0000000  0.6508444  3
  13681  13682  13683  13699     1  0.0000000  0.6508444  3
  13681  13678  13677  13691     1  180.0000771  0.8368000  1
  13681  13678  13677  13691     1  180.0000771  1.0460000  2
  13681  13678  13677  13691     1  0.0000000  0.7531200  3
  13681  13678  13677  13699     1  0.0000000  0.6508444  3
  13682  13681  13678  13690     1  0.0000000  0.6508444  3
  13683  13699  13677  13691     1  180.0000771  0.4184000  2
  13683  13699  13677  13691     1  0.0000000  1.6024720  3
  13683  13682  13681  13689     1  0.0000000  0.6508444  3
  13687  13683  13682  13688     1  0.0000000  4.9162000  2
  13687  13683  13682  13688     1  0.0000000  0.6024960  3
  13688  13682  13683  13699     1  0.0000000  4.9162000  2
  13688  13682  13683  13699     1  0.0000000  0.6024960  3
  13688  13682  13681  13689     1  0.0000000  4.9162000  2
  13688  13682  13681  13689     1  0.0000000  0.6024960  3
  13689  13681  13678  13690     1  0.0000000  4.9162000  2
  13689  13681  13678  13690     1  0.0000000  0.6024960  3
  13690  13678  13677  13691     1  0.0000000  0.6508444  3
  13690  13678  13677  13699     1  0.0000000  4.9162000  2
  13690  13678  13677  13699     1  0.0000000  0.6024960  3
  13697  13691  13677  13699     1  0.0000000  4.9162000  2
  13697  13691  13677  13699     1  0.0000000  0.6024960  3
  13700  13701  13704  13705     1  180.0000771  0.8368000  1
  13700  13701  13704  13705     1  180.0000771  1.0460000  2
  13700  13701  13704  13705     1  0.0000000  0.7531200  3
  13700  13701  13704  13712     1  0.0000000  0.6508444  3
  13700  13722  13706  13705     1  180.0000771  0.4184000  2
  13700  13722  13706  13705     1  0.0000000  1.6024720  3
  13700  13722  13706  13710     1  180.0000771  5.6484000  1
  13700  13722  13706  13710     1  180.0000771  3.5564000  2
  13700  13722  13706  13710     1  0.0000000  0.4184000  3
  13701  13700  13714  13720     1  0.0000000  0.6508444  3
  13701  13700  13722  13706     1  180.0000771  0.4184000  2
  13701  13700  13722  13706     1  0.0000000  1.6024720  3
  13701  13704  13705  13706     1  180.0000771  0.8368000  1
  13701  13704  13705  13706     1  180.0000771  1.0460000  2
  13701  13704  13705  13706     1  0.0000000  0.7531200  3
  13701  13704  13705  13711     1  0.0000000  0.6508444  3
  13704  13701  13700  13714     1  180.0000771  0.8368000  1
  13704  13701  13700  13714     1  180.0000771  1.0460000  2
  13704  13701  13700  13714     1  0.0000000  0.7531200  3
  13704  13701  13700  13722     1  0.0000000  0.6508444  3
  13704  13705  13706  13710     1  0.0000000  0.6508444  3
  13704  13705  13706  13722     1  0.0000000  0.6508444  3
  13705  13704  13701  13713     1  0.0000000  0.6508444  3
  13706  13705  13704  13712     1  0.0000000  0.6508444  3
  13706  13722  13700  13714     1  180.0000771  0.4184000  2
  13706  13722  13700  13714     1  0.0000000  1.6024720  3
  13710  13706  13705  13711     1  0.0000000  4.9162000  2
  13710  13706  13705  13711     1  0.0000000  0.6024960  3
  13711  13705  13704  13712     1  0.0000000  4.9162000  2
  13711  13705  13704  13712     1  0.0000000  0.6024960  3
  13711  13705  13706  13722     1  0.0000000  4.9162000  2
  13711  13705  13706  13722     1  0.0000000  0.6024960  3
  13712  13704  13701  13713     1  0.0000000  4.9162000  2
  13712  13704  13701  13713     1  0.0000000  0.6024960  3
  13713  13701  13700  13714     1  0.0000000  0.6508444  3
  13713  13701  13700  13722     1  0.0000000  4.9162000  2
  13713  13701  13700  13722     1  0.0000000  0.6024960  3
  13720  13714  13700  13722     1  0.0000000  4.9162000  2
  13720  13714  13700  13722     1  0.0000000  0.6024960  3
  13723  13724  13727  13728     1  180.0000771  0.8368000  1
  13723  13724  13727  13728     1  180.0000771  1.0460000  2
  13723  13724  13727  13728     1  0.0000000  0.7531200  3
  13723  13724  13727  13735     1  0.0000000  0.6508444  3
  13723  13745  13729  13733     1  180.0000771  5.6484000  1
  13723  13745  13729  13733     1  180.0000771  3.5564000  2
  13723  13745  13729  13733     1  0.0000000  0.4184000  3
  13723  13745  13729  13728     1  180.0000771  0.4184000  2
  13723  13745  13729  13728     1  0.0000000  1.6024720  3
  13724  13727  13728  13729     1  180.0000771  0.8368000  1
  13724  13727  13728  13729     1  180.0000771  1.0460000  2
  13724  13727  13728  13729     1  0.0000000  0.7531200  3
  13724  13727  13728  13734     1  0.0000000  0.6508444  3
  13724  13723  13737  13743     1  0.0000000  0.6508444  3
  13724  13723  13745  13729     1  180.0000771  0.4184000  2
  13724  13723  13745  13729     1  0.0000000  1.6024720  3
  13727  13728  13729  13733     1  0.0000000  0.6508444  3
  13727  13728  13729  13745     1  0.0000000  0.6508444  3
  13727  13724  13723  13737     1  180.0000771  0.8368000  1
  13727  13724  13723  13737     1  180.0000771  1.0460000  2
  13727  13724  13723  13737     1  0.0000000  0.7531200  3
  13727  13724  13723  13745     1  0.0000000  0.6508444  3
  13728  13727  13724  13736     1  0.0000000  0.6508444  3
  13729  13745  13723  13737     1  180.0000771  0.4184000  2
  13729  13745  13723  13737     1  0.0000000  1.6024720  3
  13729  13728  13727  13735     1  0.0000000  0.6508444  3
  13733  13729  13728  13734     1  0.0000000  4.9162000  2
  13733  13729  13728  13734     1  0.0000000  0.6024960  3
  13734  13728  13729  13745     1  0.0000000  4.9162000  2
  13734  13728  13729  13745     1  0.0000000  0.6024960  3
  13734  13728  13727  13735     1  0.0000000  4.9162000  2
  13734  13728  13727  13735     1  0.0000000  0.6024960  3
  13735  13727  13724  13736     1  0.0000000  4.9162000  2
  13735  13727  13724  13736     1  0.0000000  0.6024960  3
  13736  13724  13723  13737     1  0.0000000  0.6508444  3
  13736  13724  13723  13745     1  0.0000000  4.9162000  2
  13736  13724  13723  13745     1  0.0000000  0.6024960  3
  13743  13737  13723  13745     1  0.0000000  4.9162000  2
  13743  13737  13723  13745     1  0.0000000  0.6024960  3
  13746  13747  13750  13751     1  180.0000771  0.8368000  1
  13746  13747  13750  13751     1  180.0000771  1.0460000  2
  13746  13747  13750  13751     1  0.0000000  0.7531200  3
  13746  13747  13750  13758     1  0.0000000  0.6508444  3
  13746  13768  13752  13751     1  180.0000771  0.4184000  2
  13746  13768  13752  13751     1  0.0000000  1.6024720  3
  13746  13768  13752  13756     1  180.0000771  5.6484000  1
  13746  13768  13752  13756     1  180.0000771  3.5564000  2
  13746  13768  13752  13756     1  0.0000000  0.4184000  3
  13747  13746  13760  13766     1  0.0000000  0.6508444  3
  13747  13746  13768  13752     1  180.0000771  0.4184000  2
  13747  13746  13768  13752     1  0.0000000  1.6024720  3
  13747  13750  13751  13752     1  180.0000771  0.8368000  1
  13747  13750  13751  13752     1  180.0000771  1.0460000  2
  13747  13750  13751  13752     1  0.0000000  0.7531200  3
  13747  13750  13751  13757     1  0.0000000  0.6508444  3
  13750  13747  13746  13760     1  180.0000771  0.8368000  1
  13750  13747  13746  13760     1  180.0000771  1.0460000  2
  13750  13747  13746  13760     1  0.0000000  0.7531200  3
  13750  13747  13746  13768     1  0.0000000  0.6508444  3
  13750  13751  13752  13756     1  0.0000000  0.6508444  3
  13750  13751  13752  13768     1  0.0000000  0.6508444  3
  13751  13750  13747  13759     1  0.0000000  0.6508444  3
  13752  13751  13750  13758     1  0.0000000  0.6508444  3
  13752  13768  13746  13760     1  180.0000771  0.4184000  2
  13752  13768  13746  13760     1  0.0000000  1.6024720  3
  13756  13752  13751  13757     1  0.0000000  4.9162000  2
  13756  13752  13751  13757     1  0.0000000  0.6024960  3
  13757  13751  13750  13758     1  0.0000000  4.9162000  2
  13757  13751  13750  13758     1  0.0000000  0.6024960  3
  13757  13751  13752  13768     1  0.0000000  4.9162000  2
  13757  13751  13752  13768     1  0.0000000  0.6024960  3
  13758  13750  13747  13759     1  0.0000000  4.9162000  2
  13758  13750  13747  13759     1  0.0000000  0.6024960  3
  13759  13747  13746  13760     1  0.0000000  0.6508444  3
  13759  13747  13746  13768     1  0.0000000  4.9162000  2
  13759  13747  13746  13768     1  0.0000000  0.6024960  3
  13766  13760  13746  13768     1  0.0000000  4.9162000  2
  13766  13760  13746  13768     1  0.0000000  0.6024960  3
  13769  13770  13773  13774     1  180.0000771  0.8368000  1
  13769  13770  13773  13774     1  180.0000771  1.0460000  2
  13769  13770  13773  13774     1  0.0000000  0.7531200  3
  13769  13770  13773  13781     1  0.0000000  0.6508444  3
  13769  13791  13775  13779     1  180.0000771  5.6484000  1
  13769  13791  13775  13779     1  180.0000771  3.5564000  2
  13769  13791  13775  13779     1  0.0000000  0.4184000  3
  13769  13791  13775  13774     1  180.0000771  0.4184000  2
  13769  13791  13775  13774     1  0.0000000  1.6024720  3
  13770  13773  13774  13775     1  180.0000771  0.8368000  1
  13770  13773  13774  13775     1  180.0000771  1.0460000  2
  13770  13773  13774  13775     1  0.0000000  0.7531200  3
  13770  13773  13774  13780     1  0.0000000  0.6508444  3
  13770  13769  13783  13789     1  0.0000000  0.6508444  3
  13770  13769  13791  13775     1  180.0000771  0.4184000  2
  13770  13769  13791  13775     1  0.0000000  1.6024720  3
  13773  13774  13775  13779     1  0.0000000  0.6508444  3
  13773  13774  13775  13791     1  0.0000000  0.6508444  3
  13773  13770  13769  13783     1  180.0000771  0.8368000  1
  13773  13770  13769  13783     1  180.0000771  1.0460000  2
  13773  13770  13769  13783     1  0.0000000  0.7531200  3
  13773  13770  13769  13791     1  0.0000000  0.6508444  3
  13774  13773  13770  13782     1  0.0000000  0.6508444  3
  13775  13791  13769  13783     1  180.0000771  0.4184000  2
  13775  13791  13769  13783     1  0.0000000  1.6024720  3
  13775  13774  13773  13781     1  0.0000000  0.6508444  3
  13779  13775  13774  13780     1  0.0000000  4.9162000  2
  13779  13775  13774  13780     1  0.0000000  0.6024960  3
  13780  13774  13775  13791     1  0.0000000  4.9162000  2
  13780  13774  13775  13791     1  0.0000000  0.6024960  3
  13780  13774  13773  13781     1  0.0000000  4.9162000  2
  13780  13774  13773  13781     1  0.0000000  0.6024960  3
  13781  13773  13770  13782     1  0.0000000  4.9162000  2
  13781  13773  13770  13782     1  0.0000000  0.6024960  3
  13782  13770  13769  13783     1  0.0000000  0.6508444  3
  13782  13770  13769  13791     1  0.0000000  4.9162000  2
  13782  13770  13769  13791     1  0.0000000  0.6024960  3
  13789  13783  13769  13791     1  0.0000000  4.9162000  2
  13789  13783  13769  13791     1  0.0000000  0.6024960  3
  13792  13793  13796  13797     1  180.0000771  0.8368000  1
  13792  13793  13796  13797     1  180.0000771  1.0460000  2
  13792  13793  13796  13797     1  0.0000000  0.7531200  3
  13792  13793  13796  13804     1  0.0000000  0.6508444  3
  13792  13814  13798  13797     1  180.0000771  0.4184000  2
  13792  13814  13798  13797     1  0.0000000  1.6024720  3
  13792  13814  13798  13802     1  180.0000771  5.6484000  1
  13792  13814  13798  13802     1  180.0000771  3.5564000  2
  13792  13814  13798  13802     1  0.0000000  0.4184000  3
  13793  13792  13806  13812     1  0.0000000  0.6508444  3
  13793  13792  13814  13798     1  180.0000771  0.4184000  2
  13793  13792  13814  13798     1  0.0000000  1.6024720  3
  13793  13796  13797  13798     1  180.0000771  0.8368000  1
  13793  13796  13797  13798     1  180.0000771  1.0460000  2
  13793  13796  13797  13798     1  0.0000000  0.7531200  3
  13793  13796  13797  13803     1  0.0000000  0.6508444  3
  13796  13793  13792  13806     1  180.0000771  0.8368000  1
  13796  13793  13792  13806     1  180.0000771  1.0460000  2
  13796  13793  13792  13806     1  0.0000000  0.7531200  3
  13796  13793  13792  13814     1  0.0000000  0.6508444  3
  13796  13797  13798  13802     1  0.0000000  0.6508444  3
  13796  13797  13798  13814     1  0.0000000  0.6508444  3
  13797  13796  13793  13805     1  0.0000000  0.6508444  3
  13798  13797  13796  13804     1  0.0000000  0.6508444  3
  13798  13814  13792  13806     1  180.0000771  0.4184000  2
  13798  13814  13792  13806     1  0.0000000  1.6024720  3
  13802  13798  13797  13803     1  0.0000000  4.9162000  2
  13802  13798  13797  13803     1  0.0000000  0.6024960  3
  13803  13797  13796  13804     1  0.0000000  4.9162000  2
  13803  13797  13796  13804     1  0.0000000  0.6024960  3
  13803  13797  13798  13814     1  0.0000000  4.9162000  2
  13803  13797  13798  13814     1  0.0000000  0.6024960  3
  13804  13796  13793  13805     1  0.0000000  4.9162000  2
  13804  13796  13793  13805     1  0.0000000  0.6024960  3
  13805  13793  13792  13806     1  0.0000000  0.6508444  3
  13805  13793  13792  13814     1  0.0000000  4.9162000  2
  13805  13793  13792  13814     1  0.0000000  0.6024960  3
  13812  13806  13792  13814     1  0.0000000  4.9162000  2
  13812  13806  13792  13814     1  0.0000000  0.6024960  3
  13815  13816  13819  13820     1  180.0000771  0.8368000  1
  13815  13816  13819  13820     1  180.0000771  1.0460000  2
  13815  13816  13819  13820     1  0.0000000  0.7531200  3
  13815  13816  13819  13827     1  0.0000000  0.6508444  3
  13815  13837  13821  13825     1  180.0000771  5.6484000  1
  13815  13837  13821  13825     1  180.0000771  3.5564000  2
  13815  13837  13821  13825     1  0.0000000  0.4184000  3
  13815  13837  13821  13820     1  180.0000771  0.4184000  2
  13815  13837  13821  13820     1  0.0000000  1.6024720  3
  13816  13819  13820  13821     1  180.0000771  0.8368000  1
  13816  13819  13820  13821     1  180.0000771  1.0460000  2
  13816  13819  13820  13821     1  0.0000000  0.7531200  3
  13816  13819  13820  13826     1  0.0000000  0.6508444  3
  13816  13815  13829  13835     1  0.0000000  0.6508444  3
  13816  13815  13837  13821     1  180.0000771  0.4184000  2
  13816  13815  13837  13821     1  0.0000000  1.6024720  3
  13819  13820  13821  13825     1  0.0000000  0.6508444  3
  13819  13820  13821  13837     1  0.0000000  0.6508444  3
  13819  13816  13815  13829     1  180.0000771  0.8368000  1
  13819  13816  13815  13829     1  180.0000771  1.0460000  2
  13819  13816  13815  13829     1  0.0000000  0.7531200  3
  13819  13816  13815  13837     1  0.0000000  0.6508444  3
  13820  13819  13816  13828     1  0.0000000  0.6508444  3
  13821  13837  13815  13829     1  180.0000771  0.4184000  2
  13821  13837  13815  13829     1  0.0000000  1.6024720  3
  13821  13820  13819  13827     1  0.0000000  0.6508444  3
  13825  13821  13820  13826     1  0.0000000  4.9162000  2
  13825  13821  13820  13826     1  0.0000000  0.6024960  3
  13826  13820  13821  13837     1  0.0000000  4.9162000  2
  13826  13820  13821  13837     1  0.0000000  0.6024960  3
  13826  13820  13819  13827     1  0.0000000  4.9162000  2
  13826  13820  13819  13827     1  0.0000000  0.6024960  3
  13827  13819  13816  13828     1  0.0000000  4.9162000  2
  13827  13819  13816  13828     1  0.0000000  0.6024960  3
  13828  13816  13815  13829     1  0.0000000  0.6508444  3
  13828  13816  13815  13837     1  0.0000000  4.9162000  2
  13828  13816  13815  13837     1  0.0000000  0.6024960  3
  13835  13829  13815  13837     1  0.0000000  4.9162000  2
  13835  13829  13815  13837     1  0.0000000  0.6024960  3
  13838  13839  13842  13843     1  180.0000771  0.8368000  1
  13838  13839  13842  13843     1  180.0000771  1.0460000  2
  13838  13839  13842  13843     1  0.0000000  0.7531200  3
  13838  13839  13842  13850     1  0.0000000  0.6508444  3
  13838  13860  13844  13843     1  180.0000771  0.4184000  2
  13838  13860  13844  13843     1  0.0000000  1.6024720  3
  13838  13860  13844  13848     1  180.0000771  5.6484000  1
  13838  13860  13844  13848     1  180.0000771  3.5564000  2
  13838  13860  13844  13848     1  0.0000000  0.4184000  3
  13839  13838  13852  13858     1  0.0000000  0.6508444  3
  13839  13838  13860  13844     1  180.0000771  0.4184000  2
  13839  13838  13860  13844     1  0.0000000  1.6024720  3
  13839  13842  13843  13844     1  180.0000771  0.8368000  1
  13839  13842  13843  13844     1  180.0000771  1.0460000  2
  13839  13842  13843  13844     1  0.0000000  0.7531200  3
  13839  13842  13843  13849     1  0.0000000  0.6508444  3
  13842  13839  13838  13852     1  180.0000771  0.8368000  1
  13842  13839  13838  13852     1  180.0000771  1.0460000  2
  13842  13839  13838  13852     1  0.0000000  0.7531200  3
  13842  13839  13838  13860     1  0.0000000  0.6508444  3
  13842  13843  13844  13848     1  0.0000000  0.6508444  3
  13842  13843  13844  13860     1  0.0000000  0.6508444  3
  13843  13842  13839  13851     1  0.0000000  0.6508444  3
  13844  13843  13842  13850     1  0.0000000  0.6508444  3
  13844  13860  13838  13852     1  180.0000771  0.4184000  2
  13844  13860  13838  13852     1  0.0000000  1.6024720  3
  13848  13844  13843  13849     1  0.0000000  4.9162000  2
  13848  13844  13843  13849     1  0.0000000  0.6024960  3
  13849  13843  13842  13850     1  0.0000000  4.9162000  2
  13849  13843  13842  13850     1  0.0000000  0.6024960  3
  13849  13843  13844  13860     1  0.0000000  4.9162000  2
  13849  13843  13844  13860     1  0.0000000  0.6024960  3
  13850  13842  13839  13851     1  0.0000000  4.9162000  2
  13850  13842  13839  13851     1  0.0000000  0.6024960  3
  13851  13839  13838  13852     1  0.0000000  0.6508444  3
  13851  13839  13838  13860     1  0.0000000  4.9162000  2
  13851  13839  13838  13860     1  0.0000000  0.6024960  3
  13858  13852  13838  13860     1  0.0000000  4.9162000  2
  13858  13852  13838  13860     1  0.0000000  0.6024960  3
  13861  13862  13865  13866     1  180.0000771  0.8368000  1
  13861  13862  13865  13866     1  180.0000771  1.0460000  2
  13861  13862  13865  13866     1  0.0000000  0.7531200  3
  13861  13862  13865  13873     1  0.0000000  0.6508444  3
  13861  13883  13867  13871     1  180.0000771  5.6484000  1
  13861  13883  13867  13871     1  180.0000771  3.5564000  2
  13861  13883  13867  13871     1  0.0000000  0.4184000  3
  13861  13883  13867  13866     1  180.0000771  0.4184000  2
  13861  13883  13867  13866     1  0.0000000  1.6024720  3
  13862  13865  13866  13867     1  180.0000771  0.8368000  1
  13862  13865  13866  13867     1  180.0000771  1.0460000  2
  13862  13865  13866  13867     1  0.0000000  0.7531200  3
  13862  13865  13866  13872     1  0.0000000  0.6508444  3
  13862  13861  13875  13881     1  0.0000000  0.6508444  3
  13862  13861  13883  13867     1  180.0000771  0.4184000  2
  13862  13861  13883  13867     1  0.0000000  1.6024720  3
  13865  13866  13867  13871     1  0.0000000  0.6508444  3
  13865  13866  13867  13883     1  0.0000000  0.6508444  3
  13865  13862  13861  13875     1  180.0000771  0.8368000  1
  13865  13862  13861  13875     1  180.0000771  1.0460000  2
  13865  13862  13861  13875     1  0.0000000  0.7531200  3
  13865  13862  13861  13883     1  0.0000000  0.6508444  3
  13866  13865  13862  13874     1  0.0000000  0.6508444  3
  13867  13883  13861  13875     1  180.0000771  0.4184000  2
  13867  13883  13861  13875     1  0.0000000  1.6024720  3
  13867  13866  13865  13873     1  0.0000000  0.6508444  3
  13871  13867  13866  13872     1  0.0000000  4.9162000  2
  13871  13867  13866  13872     1  0.0000000  0.6024960  3
  13872  13866  13867  13883     1  0.0000000  4.9162000  2
  13872  13866  13867  13883     1  0.0000000  0.6024960  3
  13872  13866  13865  13873     1  0.0000000  4.9162000  2
  13872  13866  13865  13873     1  0.0000000  0.6024960  3
  13873  13865  13862  13874     1  0.0000000  4.9162000  2
  13873  13865  13862  13874     1  0.0000000  0.6024960  3
  13874  13862  13861  13875     1  0.0000000  0.6508444  3
  13874  13862  13861  13883     1  0.0000000  4.9162000  2
  13874  13862  13861  13883     1  0.0000000  0.6024960  3
  13881  13875  13861  13883     1  0.0000000  4.9162000  2
  13881  13875  13861  13883     1  0.0000000  0.6024960  3
  13884  13885  13888  13889     1  180.0000771  0.8368000  1
  13884  13885  13888  13889     1  180.0000771  1.0460000  2
  13884  13885  13888  13889     1  0.0000000  0.7531200  3
  13884  13885  13888  13896     1  0.0000000  0.6508444  3
  13884  13906  13890  13889     1  180.0000771  0.4184000  2
  13884  13906  13890  13889     1  0.0000000  1.6024720  3
  13884  13906  13890  13894     1  180.0000771  5.6484000  1
  13884  13906  13890  13894     1  180.0000771  3.5564000  2
  13884  13906  13890  13894     1  0.0000000  0.4184000  3
  13885  13884  13898  13904     1  0.0000000  0.6508444  3
  13885  13884  13906  13890     1  180.0000771  0.4184000  2
  13885  13884  13906  13890     1  0.0000000  1.6024720  3
  13885  13888  13889  13890     1  180.0000771  0.8368000  1
  13885  13888  13889  13890     1  180.0000771  1.0460000  2
  13885  13888  13889  13890     1  0.0000000  0.7531200  3
  13885  13888  13889  13895     1  0.0000000  0.6508444  3
  13888  13885  13884  13898     1  180.0000771  0.8368000  1
  13888  13885  13884  13898     1  180.0000771  1.0460000  2
  13888  13885  13884  13898     1  0.0000000  0.7531200  3
  13888  13885  13884  13906     1  0.0000000  0.6508444  3
  13888  13889  13890  13894     1  0.0000000  0.6508444  3
  13888  13889  13890  13906     1  0.0000000  0.6508444  3
  13889  13888  13885  13897     1  0.0000000  0.6508444  3
  13890  13889  13888  13896     1  0.0000000  0.6508444  3
  13890  13906  13884  13898     1  180.0000771  0.4184000  2
  13890  13906  13884  13898     1  0.0000000  1.6024720  3
  13894  13890  13889  13895     1  0.0000000  4.9162000  2
  13894  13890  13889  13895     1  0.0000000  0.6024960  3
  13895  13889  13888  13896     1  0.0000000  4.9162000  2
  13895  13889  13888  13896     1  0.0000000  0.6024960  3
  13895  13889  13890  13906     1  0.0000000  4.9162000  2
  13895  13889  13890  13906     1  0.0000000  0.6024960  3
  13896  13888  13885  13897     1  0.0000000  4.9162000  2
  13896  13888  13885  13897     1  0.0000000  0.6024960  3
  13897  13885  13884  13898     1  0.0000000  0.6508444  3
  13897  13885  13884  13906     1  0.0000000  4.9162000  2
  13897  13885  13884  13906     1  0.0000000  0.6024960  3
  13904  13898  13884  13906     1  0.0000000  4.9162000  2
  13904  13898  13884  13906     1  0.0000000  0.6024960  3
  13907  13908  13911  13912     1  180.0000771  0.8368000  1
  13907  13908  13911  13912     1  180.0000771  1.0460000  2
  13907  13908  13911  13912     1  0.0000000  0.7531200  3
  13907  13908  13911  13919     1  0.0000000  0.6508444  3
  13907  13929  13913  13917     1  180.0000771  5.6484000  1
  13907  13929  13913  13917     1  180.0000771  3.5564000  2
  13907  13929  13913  13917     1  0.0000000  0.4184000  3
  13907  13929  13913  13912     1  180.0000771  0.4184000  2
  13907  13929  13913  13912     1  0.0000000  1.6024720  3
  13908  13911  13912  13913     1  180.0000771  0.8368000  1
  13908  13911  13912  13913     1  180.0000771  1.0460000  2
  13908  13911  13912  13913     1  0.0000000  0.7531200  3
  13908  13911  13912  13918     1  0.0000000  0.6508444  3
  13908  13907  13921  13927     1  0.0000000  0.6508444  3
  13908  13907  13929  13913     1  180.0000771  0.4184000  2
  13908  13907  13929  13913     1  0.0000000  1.6024720  3
  13911  13912  13913  13917     1  0.0000000  0.6508444  3
  13911  13912  13913  13929     1  0.0000000  0.6508444  3
  13911  13908  13907  13921     1  180.0000771  0.8368000  1
  13911  13908  13907  13921     1  180.0000771  1.0460000  2
  13911  13908  13907  13921     1  0.0000000  0.7531200  3
  13911  13908  13907  13929     1  0.0000000  0.6508444  3
  13912  13911  13908  13920     1  0.0000000  0.6508444  3
  13913  13929  13907  13921     1  180.0000771  0.4184000  2
  13913  13929  13907  13921     1  0.0000000  1.6024720  3
  13913  13912  13911  13919     1  0.0000000  0.6508444  3
  13917  13913  13912  13918     1  0.0000000  4.9162000  2
  13917  13913  13912  13918     1  0.0000000  0.6024960  3
  13918  13912  13913  13929     1  0.0000000  4.9162000  2
  13918  13912  13913  13929     1  0.0000000  0.6024960  3
  13918  13912  13911  13919     1  0.0000000  4.9162000  2
  13918  13912  13911  13919     1  0.0000000  0.6024960  3
  13919  13911  13908  13920     1  0.0000000  4.9162000  2
  13919  13911  13908  13920     1  0.0000000  0.6024960  3
  13920  13908  13907  13921     1  0.0000000  0.6508444  3
  13920  13908  13907  13929     1  0.0000000  4.9162000  2
  13920  13908  13907  13929     1  0.0000000  0.6024960  3
  13927  13921  13907  13929     1  0.0000000  4.9162000  2
  13927  13921  13907  13929     1  0.0000000  0.6024960  3
  13930  13931  13934  13935     1  180.0000771  0.8368000  1
  13930  13931  13934  13935     1  180.0000771  1.0460000  2
  13930  13931  13934  13935     1  0.0000000  0.7531200  3
  13930  13931  13934  13942     1  0.0000000  0.6508444  3
  13930  13952  13936  13935     1  180.0000771  0.4184000  2
  13930  13952  13936  13935     1  0.0000000  1.6024720  3
  13930  13952  13936  13940     1  180.0000771  5.6484000  1
  13930  13952  13936  13940     1  180.0000771  3.5564000  2
  13930  13952  13936  13940     1  0.0000000  0.4184000  3
  13931  13930  13944  13950     1  0.0000000  0.6508444  3
  13931  13930  13952  13936     1  180.0000771  0.4184000  2
  13931  13930  13952  13936     1  0.0000000  1.6024720  3
  13931  13934  13935  13936     1  180.0000771  0.8368000  1
  13931  13934  13935  13936     1  180.0000771  1.0460000  2
  13931  13934  13935  13936     1  0.0000000  0.7531200  3
  13931  13934  13935  13941     1  0.0000000  0.6508444  3
  13934  13931  13930  13944     1  180.0000771  0.8368000  1
  13934  13931  13930  13944     1  180.0000771  1.0460000  2
  13934  13931  13930  13944     1  0.0000000  0.7531200  3
  13934  13931  13930  13952     1  0.0000000  0.6508444  3
  13934  13935  13936  13940     1  0.0000000  0.6508444  3
  13934  13935  13936  13952     1  0.0000000  0.6508444  3
  13935  13934  13931  13943     1  0.0000000  0.6508444  3
  13936  13935  13934  13942     1  0.0000000  0.6508444  3
  13936  13952  13930  13944     1  180.0000771  0.4184000  2
  13936  13952  13930  13944     1  0.0000000  1.6024720  3
  13940  13936  13935  13941     1  0.0000000  4.9162000  2
  13940  13936  13935  13941     1  0.0000000  0.6024960  3
  13941  13935  13934  13942     1  0.0000000  4.9162000  2
  13941  13935  13934  13942     1  0.0000000  0.6024960  3
  13941  13935  13936  13952     1  0.0000000  4.9162000  2
  13941  13935  13936  13952     1  0.0000000  0.6024960  3
  13942  13934  13931  13943     1  0.0000000  4.9162000  2
  13942  13934  13931  13943     1  0.0000000  0.6024960  3
  13943  13931  13930  13944     1  0.0000000  0.6508444  3
  13943  13931  13930  13952     1  0.0000000  4.9162000  2
  13943  13931  13930  13952     1  0.0000000  0.6024960  3
  13950  13944  13930  13952     1  0.0000000  4.9162000  2
  13950  13944  13930  13952     1  0.0000000  0.6024960  3
  13953  13954  13957  13958     1  180.0000771  0.8368000  1
  13953  13954  13957  13958     1  180.0000771  1.0460000  2
  13953  13954  13957  13958     1  0.0000000  0.7531200  3
  13953  13954  13957  13965     1  0.0000000  0.6508444  3
  13953  13975  13959  13963     1  180.0000771  5.6484000  1
  13953  13975  13959  13963     1  180.0000771  3.5564000  2
  13953  13975  13959  13963     1  0.0000000  0.4184000  3
  13953  13975  13959  13958     1  180.0000771  0.4184000  2
  13953  13975  13959  13958     1  0.0000000  1.6024720  3
  13954  13957  13958  13959     1  180.0000771  0.8368000  1
  13954  13957  13958  13959     1  180.0000771  1.0460000  2
  13954  13957  13958  13959     1  0.0000000  0.7531200  3
  13954  13957  13958  13964     1  0.0000000  0.6508444  3
  13954  13953  13967  13973     1  0.0000000  0.6508444  3
  13954  13953  13975  13959     1  180.0000771  0.4184000  2
  13954  13953  13975  13959     1  0.0000000  1.6024720  3
  13957  13958  13959  13963     1  0.0000000  0.6508444  3
  13957  13958  13959  13975     1  0.0000000  0.6508444  3
  13957  13954  13953  13967     1  180.0000771  0.8368000  1
  13957  13954  13953  13967     1  180.0000771  1.0460000  2
  13957  13954  13953  13967     1  0.0000000  0.7531200  3
  13957  13954  13953  13975     1  0.0000000  0.6508444  3
  13958  13957  13954  13966     1  0.0000000  0.6508444  3
  13959  13975  13953  13967     1  180.0000771  0.4184000  2
  13959  13975  13953  13967     1  0.0000000  1.6024720  3
  13959  13958  13957  13965     1  0.0000000  0.6508444  3
  13963  13959  13958  13964     1  0.0000000  4.9162000  2
  13963  13959  13958  13964     1  0.0000000  0.6024960  3
  13964  13958  13959  13975     1  0.0000000  4.9162000  2
  13964  13958  13959  13975     1  0.0000000  0.6024960  3
  13964  13958  13957  13965     1  0.0000000  4.9162000  2
  13964  13958  13957  13965     1  0.0000000  0.6024960  3
  13965  13957  13954  13966     1  0.0000000  4.9162000  2
  13965  13957  13954  13966     1  0.0000000  0.6024960  3
  13966  13954  13953  13967     1  0.0000000  0.6508444  3
  13966  13954  13953  13975     1  0.0000000  4.9162000  2
  13966  13954  13953  13975     1  0.0000000  0.6024960  3
  13973  13967  13953  13975     1  0.0000000  4.9162000  2
  13973  13967  13953  13975     1  0.0000000  0.6024960  3
  13976  13977  13980  13981     1  180.0000771  0.8368000  1
  13976  13977  13980  13981     1  180.0000771  1.0460000  2
  13976  13977  13980  13981     1  0.0000000  0.7531200  3
  13976  13977  13980  13988     1  0.0000000  0.6508444  3
  13976  13998  13982  13981     1  180.0000771  0.4184000  2
  13976  13998  13982  13981     1  0.0000000  1.6024720  3
  13976  13998  13982  13986     1  180.0000771  5.6484000  1
  13976  13998  13982  13986     1  180.0000771  3.5564000  2
  13976  13998  13982  13986     1  0.0000000  0.4184000  3
  13977  13976  13990  13996     1  0.0000000  0.6508444  3
  13977  13976  13998  13982     1  180.0000771  0.4184000  2
  13977  13976  13998  13982     1  0.0000000  1.6024720  3
  13977  13980  13981  13982     1  180.0000771  0.8368000  1
  13977  13980  13981  13982     1  180.0000771  1.0460000  2
  13977  13980  13981  13982     1  0.0000000  0.7531200  3
  13977  13980  13981  13987     1  0.0000000  0.6508444  3
  13980  13977  13976  13990     1  180.0000771  0.8368000  1
  13980  13977  13976  13990     1  180.0000771  1.0460000  2
  13980  13977  13976  13990     1  0.0000000  0.7531200  3
  13980  13977  13976  13998     1  0.0000000  0.6508444  3
  13980  13981  13982  13986     1  0.0000000  0.6508444  3
  13980  13981  13982  13998     1  0.0000000  0.6508444  3
  13981  13980  13977  13989     1  0.0000000  0.6508444  3
  13982  13981  13980  13988     1  0.0000000  0.6508444  3
  13982  13998  13976  13990     1  180.0000771  0.4184000  2
  13982  13998  13976  13990     1  0.0000000  1.6024720  3
  13986  13982  13981  13987     1  0.0000000  4.9162000  2
  13986  13982  13981  13987     1  0.0000000  0.6024960  3
  13987  13981  13980  13988     1  0.0000000  4.9162000  2
  13987  13981  13980  13988     1  0.0000000  0.6024960  3
  13987  13981  13982  13998     1  0.0000000  4.9162000  2
  13987  13981  13982  13998     1  0.0000000  0.6024960  3
  13988  13980  13977  13989     1  0.0000000  4.9162000  2
  13988  13980  13977  13989     1  0.0000000  0.6024960  3
  13989  13977  13976  13990     1  0.0000000  0.6508444  3
  13989  13977  13976  13998     1  0.0000000  4.9162000  2
  13989  13977  13976  13998     1  0.0000000  0.6024960  3
  13996  13990  13976  13998     1  0.0000000  4.9162000  2
  13996  13990  13976  13998     1  0.0000000  0.6024960  3
  13999  14000  14003  14004     1  180.0000771  0.8368000  1
  13999  14000  14003  14004     1  180.0000771  1.0460000  2
  13999  14000  14003  14004     1  0.0000000  0.7531200  3
  13999  14000  14003  14011     1  0.0000000  0.6508444  3
  13999  14021  14005  14009     1  180.0000771  5.6484000  1
  13999  14021  14005  14009     1  180.0000771  3.5564000  2
  13999  14021  14005  14009     1  0.0000000  0.4184000  3
  13999  14021  14005  14004     1  180.0000771  0.4184000  2
  13999  14021  14005  14004     1  0.0000000  1.6024720  3
  14000  14003  14004  14005     1  180.0000771  0.8368000  1
  14000  14003  14004  14005     1  180.0000771  1.0460000  2
  14000  14003  14004  14005     1  0.0000000  0.7531200  3
  14000  14003  14004  14010     1  0.0000000  0.6508444  3
  14000  13999  14013  14019     1  0.0000000  0.6508444  3
  14000  13999  14021  14005     1  180.0000771  0.4184000  2
  14000  13999  14021  14005     1  0.0000000  1.6024720  3
  14003  14004  14005  14009     1  0.0000000  0.6508444  3
  14003  14004  14005  14021     1  0.0000000  0.6508444  3
  14003  14000  13999  14013     1  180.0000771  0.8368000  1
  14003  14000  13999  14013     1  180.0000771  1.0460000  2
  14003  14000  13999  14013     1  0.0000000  0.7531200  3
  14003  14000  13999  14021     1  0.0000000  0.6508444  3
  14004  14003  14000  14012     1  0.0000000  0.6508444  3
  14005  14021  13999  14013     1  180.0000771  0.4184000  2
  14005  14021  13999  14013     1  0.0000000  1.6024720  3
  14005  14004  14003  14011     1  0.0000000  0.6508444  3
  14009  14005  14004  14010     1  0.0000000  4.9162000  2
  14009  14005  14004  14010     1  0.0000000  0.6024960  3
  14010  14004  14005  14021     1  0.0000000  4.9162000  2
  14010  14004  14005  14021     1  0.0000000  0.6024960  3
  14010  14004  14003  14011     1  0.0000000  4.9162000  2
  14010  14004  14003  14011     1  0.0000000  0.6024960  3
  14011  14003  14000  14012     1  0.0000000  4.9162000  2
  14011  14003  14000  14012     1  0.0000000  0.6024960  3
  14012  14000  13999  14013     1  0.0000000  0.6508444  3
  14012  14000  13999  14021     1  0.0000000  4.9162000  2
  14012  14000  13999  14021     1  0.0000000  0.6024960  3
  14019  14013  13999  14021     1  0.0000000  4.9162000  2
  14019  14013  13999  14021     1  0.0000000  0.6024960  3
  14022  14023  14026  14027     1  180.0000771  0.8368000  1
  14022  14023  14026  14027     1  180.0000771  1.0460000  2
  14022  14023  14026  14027     1  0.0000000  0.7531200  3
  14022  14023  14026  14034     1  0.0000000  0.6508444  3
  14022  14044  14028  14027     1  180.0000771  0.4184000  2
  14022  14044  14028  14027     1  0.0000000  1.6024720  3
  14022  14044  14028  14032     1  180.0000771  5.6484000  1
  14022  14044  14028  14032     1  180.0000771  3.5564000  2
  14022  14044  14028  14032     1  0.0000000  0.4184000  3
  14023  14022  14036  14042     1  0.0000000  0.6508444  3
  14023  14022  14044  14028     1  180.0000771  0.4184000  2
  14023  14022  14044  14028     1  0.0000000  1.6024720  3
  14023  14026  14027  14028     1  180.0000771  0.8368000  1
  14023  14026  14027  14028     1  180.0000771  1.0460000  2
  14023  14026  14027  14028     1  0.0000000  0.7531200  3
  14023  14026  14027  14033     1  0.0000000  0.6508444  3
  14026  14023  14022  14036     1  180.0000771  0.8368000  1
  14026  14023  14022  14036     1  180.0000771  1.0460000  2
  14026  14023  14022  14036     1  0.0000000  0.7531200  3
  14026  14023  14022  14044     1  0.0000000  0.6508444  3
  14026  14027  14028  14032     1  0.0000000  0.6508444  3
  14026  14027  14028  14044     1  0.0000000  0.6508444  3
  14027  14026  14023  14035     1  0.0000000  0.6508444  3
  14028  14027  14026  14034     1  0.0000000  0.6508444  3
  14028  14044  14022  14036     1  180.0000771  0.4184000  2
  14028  14044  14022  14036     1  0.0000000  1.6024720  3
  14032  14028  14027  14033     1  0.0000000  4.9162000  2
  14032  14028  14027  14033     1  0.0000000  0.6024960  3
  14033  14027  14026  14034     1  0.0000000  4.9162000  2
  14033  14027  14026  14034     1  0.0000000  0.6024960  3
  14033  14027  14028  14044     1  0.0000000  4.9162000  2
  14033  14027  14028  14044     1  0.0000000  0.6024960  3
  14034  14026  14023  14035     1  0.0000000  4.9162000  2
  14034  14026  14023  14035     1  0.0000000  0.6024960  3
  14035  14023  14022  14036     1  0.0000000  0.6508444  3
  14035  14023  14022  14044     1  0.0000000  4.9162000  2
  14035  14023  14022  14044     1  0.0000000  0.6024960  3
  14042  14036  14022  14044     1  0.0000000  4.9162000  2
  14042  14036  14022  14044     1  0.0000000  0.6024960  3
  14045  14046  14049  14050     1  180.0000771  0.8368000  1
  14045  14046  14049  14050     1  180.0000771  1.0460000  2
  14045  14046  14049  14050     1  0.0000000  0.7531200  3
  14045  14046  14049  14057     1  0.0000000  0.6508444  3
  14045  14067  14051  14055     1  180.0000771  5.6484000  1
  14045  14067  14051  14055     1  180.0000771  3.5564000  2
  14045  14067  14051  14055     1  0.0000000  0.4184000  3
  14045  14067  14051  14050     1  180.0000771  0.4184000  2
  14045  14067  14051  14050     1  0.0000000  1.6024720  3
  14046  14049  14050  14051     1  180.0000771  0.8368000  1
  14046  14049  14050  14051     1  180.0000771  1.0460000  2
  14046  14049  14050  14051     1  0.0000000  0.7531200  3
  14046  14049  14050  14056     1  0.0000000  0.6508444  3
  14046  14045  14059  14065     1  0.0000000  0.6508444  3
  14046  14045  14067  14051     1  180.0000771  0.4184000  2
  14046  14045  14067  14051     1  0.0000000  1.6024720  3
  14049  14050  14051  14055     1  0.0000000  0.6508444  3
  14049  14050  14051  14067     1  0.0000000  0.6508444  3
  14049  14046  14045  14059     1  180.0000771  0.8368000  1
  14049  14046  14045  14059     1  180.0000771  1.0460000  2
  14049  14046  14045  14059     1  0.0000000  0.7531200  3
  14049  14046  14045  14067     1  0.0000000  0.6508444  3
  14050  14049  14046  14058     1  0.0000000  0.6508444  3
  14051  14067  14045  14059     1  180.0000771  0.4184000  2
  14051  14067  14045  14059     1  0.0000000  1.6024720  3
  14051  14050  14049  14057     1  0.0000000  0.6508444  3
  14055  14051  14050  14056     1  0.0000000  4.9162000  2
  14055  14051  14050  14056     1  0.0000000  0.6024960  3
  14056  14050  14051  14067     1  0.0000000  4.9162000  2
  14056  14050  14051  14067     1  0.0000000  0.6024960  3
  14056  14050  14049  14057     1  0.0000000  4.9162000  2
  14056  14050  14049  14057     1  0.0000000  0.6024960  3
  14057  14049  14046  14058     1  0.0000000  4.9162000  2
  14057  14049  14046  14058     1  0.0000000  0.6024960  3
  14058  14046  14045  14059     1  0.0000000  0.6508444  3
  14058  14046  14045  14067     1  0.0000000  4.9162000  2
  14058  14046  14045  14067     1  0.0000000  0.6024960  3
  14065  14059  14045  14067     1  0.0000000  4.9162000  2
  14065  14059  14045  14067     1  0.0000000  0.6024960  3
  14068  14069  14072  14073     1  180.0000771  0.8368000  1
  14068  14069  14072  14073     1  180.0000771  1.0460000  2
  14068  14069  14072  14073     1  0.0000000  0.7531200  3
  14068  14069  14072  14080     1  0.0000000  0.6508444  3
  14068  14090  14074  14073     1  180.0000771  0.4184000  2
  14068  14090  14074  14073     1  0.0000000  1.6024720  3
  14068  14090  14074  14078     1  180.0000771  5.6484000  1
  14068  14090  14074  14078     1  180.0000771  3.5564000  2
  14068  14090  14074  14078     1  0.0000000  0.4184000  3
  14069  14068  14082  14088     1  0.0000000  0.6508444  3
  14069  14068  14090  14074     1  180.0000771  0.4184000  2
  14069  14068  14090  14074     1  0.0000000  1.6024720  3
  14069  14072  14073  14074     1  180.0000771  0.8368000  1
  14069  14072  14073  14074     1  180.0000771  1.0460000  2
  14069  14072  14073  14074     1  0.0000000  0.7531200  3
  14069  14072  14073  14079     1  0.0000000  0.6508444  3
  14072  14069  14068  14082     1  180.0000771  0.8368000  1
  14072  14069  14068  14082     1  180.0000771  1.0460000  2
  14072  14069  14068  14082     1  0.0000000  0.7531200  3
  14072  14069  14068  14090     1  0.0000000  0.6508444  3
  14072  14073  14074  14078     1  0.0000000  0.6508444  3
  14072  14073  14074  14090     1  0.0000000  0.6508444  3
  14073  14072  14069  14081     1  0.0000000  0.6508444  3
  14074  14073  14072  14080     1  0.0000000  0.6508444  3
  14074  14090  14068  14082     1  180.0000771  0.4184000  2
  14074  14090  14068  14082     1  0.0000000  1.6024720  3
  14078  14074  14073  14079     1  0.0000000  4.9162000  2
  14078  14074  14073  14079     1  0.0000000  0.6024960  3
  14079  14073  14072  14080     1  0.0000000  4.9162000  2
  14079  14073  14072  14080     1  0.0000000  0.6024960  3
  14079  14073  14074  14090     1  0.0000000  4.9162000  2
  14079  14073  14074  14090     1  0.0000000  0.6024960  3
  14080  14072  14069  14081     1  0.0000000  4.9162000  2
  14080  14072  14069  14081     1  0.0000000  0.6024960  3
  14081  14069  14068  14082     1  0.0000000  0.6508444  3
  14081  14069  14068  14090     1  0.0000000  4.9162000  2
  14081  14069  14068  14090     1  0.0000000  0.6024960  3
  14088  14082  14068  14090     1  0.0000000  4.9162000  2
  14088  14082  14068  14090     1  0.0000000  0.6024960  3
  14091  14092  14095  14096     1  180.0000771  0.8368000  1
  14091  14092  14095  14096     1  180.0000771  1.0460000  2
  14091  14092  14095  14096     1  0.0000000  0.7531200  3
  14091  14092  14095  14103     1  0.0000000  0.6508444  3
  14091  14113  14097  14101     1  180.0000771  5.6484000  1
  14091  14113  14097  14101     1  180.0000771  3.5564000  2
  14091  14113  14097  14101     1  0.0000000  0.4184000  3
  14091  14113  14097  14096     1  180.0000771  0.4184000  2
  14091  14113  14097  14096     1  0.0000000  1.6024720  3
  14092  14095  14096  14097     1  180.0000771  0.8368000  1
  14092  14095  14096  14097     1  180.0000771  1.0460000  2
  14092  14095  14096  14097     1  0.0000000  0.7531200  3
  14092  14095  14096  14102     1  0.0000000  0.6508444  3
  14092  14091  14105  14111     1  0.0000000  0.6508444  3
  14092  14091  14113  14097     1  180.0000771  0.4184000  2
  14092  14091  14113  14097     1  0.0000000  1.6024720  3
  14095  14096  14097  14101     1  0.0000000  0.6508444  3
  14095  14096  14097  14113     1  0.0000000  0.6508444  3
  14095  14092  14091  14105     1  180.0000771  0.8368000  1
  14095  14092  14091  14105     1  180.0000771  1.0460000  2
  14095  14092  14091  14105     1  0.0000000  0.7531200  3
  14095  14092  14091  14113     1  0.0000000  0.6508444  3
  14096  14095  14092  14104     1  0.0000000  0.6508444  3
  14097  14113  14091  14105     1  180.0000771  0.4184000  2
  14097  14113  14091  14105     1  0.0000000  1.6024720  3
  14097  14096  14095  14103     1  0.0000000  0.6508444  3
  14101  14097  14096  14102     1  0.0000000  4.9162000  2
  14101  14097  14096  14102     1  0.0000000  0.6024960  3
  14102  14096  14097  14113     1  0.0000000  4.9162000  2
  14102  14096  14097  14113     1  0.0000000  0.6024960  3
  14102  14096  14095  14103     1  0.0000000  4.9162000  2
  14102  14096  14095  14103     1  0.0000000  0.6024960  3
  14103  14095  14092  14104     1  0.0000000  4.9162000  2
  14103  14095  14092  14104     1  0.0000000  0.6024960  3
  14104  14092  14091  14105     1  0.0000000  0.6508444  3
  14104  14092  14091  14113     1  0.0000000  4.9162000  2
  14104  14092  14091  14113     1  0.0000000  0.6024960  3
  14111  14105  14091  14113     1  0.0000000  4.9162000  2
  14111  14105  14091  14113     1  0.0000000  0.6024960  3
  14114  14115  14118  14119     1  180.0000771  0.8368000  1
  14114  14115  14118  14119     1  180.0000771  1.0460000  2
  14114  14115  14118  14119     1  0.0000000  0.7531200  3
  14114  14115  14118  14126     1  0.0000000  0.6508444  3
  14114  14136  14120  14119     1  180.0000771  0.4184000  2
  14114  14136  14120  14119     1  0.0000000  1.6024720  3
  14114  14136  14120  14124     1  180.0000771  5.6484000  1
  14114  14136  14120  14124     1  180.0000771  3.5564000  2
  14114  14136  14120  14124     1  0.0000000  0.4184000  3
  14115  14114  14128  14134     1  0.0000000  0.6508444  3
  14115  14114  14136  14120     1  180.0000771  0.4184000  2
  14115  14114  14136  14120     1  0.0000000  1.6024720  3
  14115  14118  14119  14120     1  180.0000771  0.8368000  1
  14115  14118  14119  14120     1  180.0000771  1.0460000  2
  14115  14118  14119  14120     1  0.0000000  0.7531200  3
  14115  14118  14119  14125     1  0.0000000  0.6508444  3
  14118  14115  14114  14128     1  180.0000771  0.8368000  1
  14118  14115  14114  14128     1  180.0000771  1.0460000  2
  14118  14115  14114  14128     1  0.0000000  0.7531200  3
  14118  14115  14114  14136     1  0.0000000  0.6508444  3
  14118  14119  14120  14124     1  0.0000000  0.6508444  3
  14118  14119  14120  14136     1  0.0000000  0.6508444  3
  14119  14118  14115  14127     1  0.0000000  0.6508444  3
  14120  14119  14118  14126     1  0.0000000  0.6508444  3
  14120  14136  14114  14128     1  180.0000771  0.4184000  2
  14120  14136  14114  14128     1  0.0000000  1.6024720  3
  14124  14120  14119  14125     1  0.0000000  4.9162000  2
  14124  14120  14119  14125     1  0.0000000  0.6024960  3
  14125  14119  14118  14126     1  0.0000000  4.9162000  2
  14125  14119  14118  14126     1  0.0000000  0.6024960  3
  14125  14119  14120  14136     1  0.0000000  4.9162000  2
  14125  14119  14120  14136     1  0.0000000  0.6024960  3
  14126  14118  14115  14127     1  0.0000000  4.9162000  2
  14126  14118  14115  14127     1  0.0000000  0.6024960  3
  14127  14115  14114  14128     1  0.0000000  0.6508444  3
  14127  14115  14114  14136     1  0.0000000  4.9162000  2
  14127  14115  14114  14136     1  0.0000000  0.6024960  3
  14134  14128  14114  14136     1  0.0000000  4.9162000  2
  14134  14128  14114  14136     1  0.0000000  0.6024960  3
  14137  14138  14141  14142     1  180.0000771  0.8368000  1
  14137  14138  14141  14142     1  180.0000771  1.0460000  2
  14137  14138  14141  14142     1  0.0000000  0.7531200  3
  14137  14138  14141  14149     1  0.0000000  0.6508444  3
  14137  14159  14143  14147     1  180.0000771  5.6484000  1
  14137  14159  14143  14147     1  180.0000771  3.5564000  2
  14137  14159  14143  14147     1  0.0000000  0.4184000  3
  14137  14159  14143  14142     1  180.0000771  0.4184000  2
  14137  14159  14143  14142     1  0.0000000  1.6024720  3
  14138  14141  14142  14143     1  180.0000771  0.8368000  1
  14138  14141  14142  14143     1  180.0000771  1.0460000  2
  14138  14141  14142  14143     1  0.0000000  0.7531200  3
  14138  14141  14142  14148     1  0.0000000  0.6508444  3
  14138  14137  14151  14157     1  0.0000000  0.6508444  3
  14138  14137  14159  14143     1  180.0000771  0.4184000  2
  14138  14137  14159  14143     1  0.0000000  1.6024720  3
  14141  14142  14143  14147     1  0.0000000  0.6508444  3
  14141  14142  14143  14159     1  0.0000000  0.6508444  3
  14141  14138  14137  14151     1  180.0000771  0.8368000  1
  14141  14138  14137  14151     1  180.0000771  1.0460000  2
  14141  14138  14137  14151     1  0.0000000  0.7531200  3
  14141  14138  14137  14159     1  0.0000000  0.6508444  3
  14142  14141  14138  14150     1  0.0000000  0.6508444  3
  14143  14159  14137  14151     1  180.0000771  0.4184000  2
  14143  14159  14137  14151     1  0.0000000  1.6024720  3
  14143  14142  14141  14149     1  0.0000000  0.6508444  3
  14147  14143  14142  14148     1  0.0000000  4.9162000  2
  14147  14143  14142  14148     1  0.0000000  0.6024960  3
  14148  14142  14143  14159     1  0.0000000  4.9162000  2
  14148  14142  14143  14159     1  0.0000000  0.6024960  3
  14148  14142  14141  14149     1  0.0000000  4.9162000  2
  14148  14142  14141  14149     1  0.0000000  0.6024960  3
  14149  14141  14138  14150     1  0.0000000  4.9162000  2
  14149  14141  14138  14150     1  0.0000000  0.6024960  3
  14150  14138  14137  14151     1  0.0000000  0.6508444  3
  14150  14138  14137  14159     1  0.0000000  4.9162000  2
  14150  14138  14137  14159     1  0.0000000  0.6024960  3
  14157  14151  14137  14159     1  0.0000000  4.9162000  2
  14157  14151  14137  14159     1  0.0000000  0.6024960  3
  14160  14161  14164  14165     1  180.0000771  0.8368000  1
  14160  14161  14164  14165     1  180.0000771  1.0460000  2
  14160  14161  14164  14165     1  0.0000000  0.7531200  3
  14160  14161  14164  14172     1  0.0000000  0.6508444  3
  14160  14182  14166  14165     1  180.0000771  0.4184000  2
  14160  14182  14166  14165     1  0.0000000  1.6024720  3
  14160  14182  14166  14170     1  180.0000771  5.6484000  1
  14160  14182  14166  14170     1  180.0000771  3.5564000  2
  14160  14182  14166  14170     1  0.0000000  0.4184000  3
  14161  14160  14174  14180     1  0.0000000  0.6508444  3
  14161  14160  14182  14166     1  180.0000771  0.4184000  2
  14161  14160  14182  14166     1  0.0000000  1.6024720  3
  14161  14164  14165  14166     1  180.0000771  0.8368000  1
  14161  14164  14165  14166     1  180.0000771  1.0460000  2
  14161  14164  14165  14166     1  0.0000000  0.7531200  3
  14161  14164  14165  14171     1  0.0000000  0.6508444  3
  14164  14161  14160  14174     1  180.0000771  0.8368000  1
  14164  14161  14160  14174     1  180.0000771  1.0460000  2
  14164  14161  14160  14174     1  0.0000000  0.7531200  3
  14164  14161  14160  14182     1  0.0000000  0.6508444  3
  14164  14165  14166  14170     1  0.0000000  0.6508444  3
  14164  14165  14166  14182     1  0.0000000  0.6508444  3
  14165  14164  14161  14173     1  0.0000000  0.6508444  3
  14166  14165  14164  14172     1  0.0000000  0.6508444  3
  14166  14182  14160  14174     1  180.0000771  0.4184000  2
  14166  14182  14160  14174     1  0.0000000  1.6024720  3
  14170  14166  14165  14171     1  0.0000000  4.9162000  2
  14170  14166  14165  14171     1  0.0000000  0.6024960  3
  14171  14165  14164  14172     1  0.0000000  4.9162000  2
  14171  14165  14164  14172     1  0.0000000  0.6024960  3
  14171  14165  14166  14182     1  0.0000000  4.9162000  2
  14171  14165  14166  14182     1  0.0000000  0.6024960  3
  14172  14164  14161  14173     1  0.0000000  4.9162000  2
  14172  14164  14161  14173     1  0.0000000  0.6024960  3
  14173  14161  14160  14174     1  0.0000000  0.6508444  3
  14173  14161  14160  14182     1  0.0000000  4.9162000  2
  14173  14161  14160  14182     1  0.0000000  0.6024960  3
  14180  14174  14160  14182     1  0.0000000  4.9162000  2
  14180  14174  14160  14182     1  0.0000000  0.6024960  3
  14183  14184  14187  14188     1  180.0000771  0.8368000  1
  14183  14184  14187  14188     1  180.0000771  1.0460000  2
  14183  14184  14187  14188     1  0.0000000  0.7531200  3
  14183  14184  14187  14195     1  0.0000000  0.6508444  3
  14183  14205  14189  14193     1  180.0000771  5.6484000  1
  14183  14205  14189  14193     1  180.0000771  3.5564000  2
  14183  14205  14189  14193     1  0.0000000  0.4184000  3
  14183  14205  14189  14188     1  180.0000771  0.4184000  2
  14183  14205  14189  14188     1  0.0000000  1.6024720  3
  14184  14187  14188  14189     1  180.0000771  0.8368000  1
  14184  14187  14188  14189     1  180.0000771  1.0460000  2
  14184  14187  14188  14189     1  0.0000000  0.7531200  3
  14184  14187  14188  14194     1  0.0000000  0.6508444  3
  14184  14183  14197  14203     1  0.0000000  0.6508444  3
  14184  14183  14205  14189     1  180.0000771  0.4184000  2
  14184  14183  14205  14189     1  0.0000000  1.6024720  3
  14187  14188  14189  14193     1  0.0000000  0.6508444  3
  14187  14188  14189  14205     1  0.0000000  0.6508444  3
  14187  14184  14183  14197     1  180.0000771  0.8368000  1
  14187  14184  14183  14197     1  180.0000771  1.0460000  2
  14187  14184  14183  14197     1  0.0000000  0.7531200  3
  14187  14184  14183  14205     1  0.0000000  0.6508444  3
  14188  14187  14184  14196     1  0.0000000  0.6508444  3
  14189  14205  14183  14197     1  180.0000771  0.4184000  2
  14189  14205  14183  14197     1  0.0000000  1.6024720  3
  14189  14188  14187  14195     1  0.0000000  0.6508444  3
  14193  14189  14188  14194     1  0.0000000  4.9162000  2
  14193  14189  14188  14194     1  0.0000000  0.6024960  3
  14194  14188  14189  14205     1  0.0000000  4.9162000  2
  14194  14188  14189  14205     1  0.0000000  0.6024960  3
  14194  14188  14187  14195     1  0.0000000  4.9162000  2
  14194  14188  14187  14195     1  0.0000000  0.6024960  3
  14195  14187  14184  14196     1  0.0000000  4.9162000  2
  14195  14187  14184  14196     1  0.0000000  0.6024960  3
  14196  14184  14183  14197     1  0.0000000  0.6508444  3
  14196  14184  14183  14205     1  0.0000000  4.9162000  2
  14196  14184  14183  14205     1  0.0000000  0.6024960  3
  14203  14197  14183  14205     1  0.0000000  4.9162000  2
  14203  14197  14183  14205     1  0.0000000  0.6024960  3
  14206  14207  14210  14211     1  180.0000771  0.8368000  1
  14206  14207  14210  14211     1  180.0000771  1.0460000  2
  14206  14207  14210  14211     1  0.0000000  0.7531200  3
  14206  14207  14210  14218     1  0.0000000  0.6508444  3
  14206  14228  14212  14211     1  180.0000771  0.4184000  2
  14206  14228  14212  14211     1  0.0000000  1.6024720  3
  14206  14228  14212  14216     1  180.0000771  5.6484000  1
  14206  14228  14212  14216     1  180.0000771  3.5564000  2
  14206  14228  14212  14216     1  0.0000000  0.4184000  3
  14207  14206  14220  14226     1  0.0000000  0.6508444  3
  14207  14206  14228  14212     1  180.0000771  0.4184000  2
  14207  14206  14228  14212     1  0.0000000  1.6024720  3
  14207  14210  14211  14212     1  180.0000771  0.8368000  1
  14207  14210  14211  14212     1  180.0000771  1.0460000  2
  14207  14210  14211  14212     1  0.0000000  0.7531200  3
  14207  14210  14211  14217     1  0.0000000  0.6508444  3
  14210  14207  14206  14220     1  180.0000771  0.8368000  1
  14210  14207  14206  14220     1  180.0000771  1.0460000  2
  14210  14207  14206  14220     1  0.0000000  0.7531200  3
  14210  14207  14206  14228     1  0.0000000  0.6508444  3
  14210  14211  14212  14216     1  0.0000000  0.6508444  3
  14210  14211  14212  14228     1  0.0000000  0.6508444  3
  14211  14210  14207  14219     1  0.0000000  0.6508444  3
  14212  14211  14210  14218     1  0.0000000  0.6508444  3
  14212  14228  14206  14220     1  180.0000771  0.4184000  2
  14212  14228  14206  14220     1  0.0000000  1.6024720  3
  14216  14212  14211  14217     1  0.0000000  4.9162000  2
  14216  14212  14211  14217     1  0.0000000  0.6024960  3
  14217  14211  14210  14218     1  0.0000000  4.9162000  2
  14217  14211  14210  14218     1  0.0000000  0.6024960  3
  14217  14211  14212  14228     1  0.0000000  4.9162000  2
  14217  14211  14212  14228     1  0.0000000  0.6024960  3
  14218  14210  14207  14219     1  0.0000000  4.9162000  2
  14218  14210  14207  14219     1  0.0000000  0.6024960  3
  14219  14207  14206  14220     1  0.0000000  0.6508444  3
  14219  14207  14206  14228     1  0.0000000  4.9162000  2
  14219  14207  14206  14228     1  0.0000000  0.6024960  3
  14226  14220  14206  14228     1  0.0000000  4.9162000  2
  14226  14220  14206  14228     1  0.0000000  0.6024960  3
  14229  14230  14233  14234     1  180.0000771  0.8368000  1
  14229  14230  14233  14234     1  180.0000771  1.0460000  2
  14229  14230  14233  14234     1  0.0000000  0.7531200  3
  14229  14230  14233  14241     1  0.0000000  0.6508444  3
  14229  14251  14235  14239     1  180.0000771  5.6484000  1
  14229  14251  14235  14239     1  180.0000771  3.5564000  2
  14229  14251  14235  14239     1  0.0000000  0.4184000  3
  14229  14251  14235  14234     1  180.0000771  0.4184000  2
  14229  14251  14235  14234     1  0.0000000  1.6024720  3
  14230  14233  14234  14235     1  180.0000771  0.8368000  1
  14230  14233  14234  14235     1  180.0000771  1.0460000  2
  14230  14233  14234  14235     1  0.0000000  0.7531200  3
  14230  14233  14234  14240     1  0.0000000  0.6508444  3
  14230  14229  14243  14249     1  0.0000000  0.6508444  3
  14230  14229  14251  14235     1  180.0000771  0.4184000  2
  14230  14229  14251  14235     1  0.0000000  1.6024720  3
  14233  14234  14235  14239     1  0.0000000  0.6508444  3
  14233  14234  14235  14251     1  0.0000000  0.6508444  3
  14233  14230  14229  14243     1  180.0000771  0.8368000  1
  14233  14230  14229  14243     1  180.0000771  1.0460000  2
  14233  14230  14229  14243     1  0.0000000  0.7531200  3
  14233  14230  14229  14251     1  0.0000000  0.6508444  3
  14234  14233  14230  14242     1  0.0000000  0.6508444  3
  14235  14251  14229  14243     1  180.0000771  0.4184000  2
  14235  14251  14229  14243     1  0.0000000  1.6024720  3
  14235  14234  14233  14241     1  0.0000000  0.6508444  3
  14239  14235  14234  14240     1  0.0000000  4.9162000  2
  14239  14235  14234  14240     1  0.0000000  0.6024960  3
  14240  14234  14235  14251     1  0.0000000  4.9162000  2
  14240  14234  14235  14251     1  0.0000000  0.6024960  3
  14240  14234  14233  14241     1  0.0000000  4.9162000  2
  14240  14234  14233  14241     1  0.0000000  0.6024960  3
  14241  14233  14230  14242     1  0.0000000  4.9162000  2
  14241  14233  14230  14242     1  0.0000000  0.6024960  3
  14242  14230  14229  14243     1  0.0000000  0.6508444  3
  14242  14230  14229  14251     1  0.0000000  4.9162000  2
  14242  14230  14229  14251     1  0.0000000  0.6024960  3
  14249  14243  14229  14251     1  0.0000000  4.9162000  2
  14249  14243  14229  14251     1  0.0000000  0.6024960  3
  14252  14253  14256  14257     1  180.0000771  0.8368000  1
  14252  14253  14256  14257     1  180.0000771  1.0460000  2
  14252  14253  14256  14257     1  0.0000000  0.7531200  3
  14252  14253  14256  14264     1  0.0000000  0.6508444  3
  14252  14274  14258  14257     1  180.0000771  0.4184000  2
  14252  14274  14258  14257     1  0.0000000  1.6024720  3
  14252  14274  14258  14262     1  180.0000771  5.6484000  1
  14252  14274  14258  14262     1  180.0000771  3.5564000  2
  14252  14274  14258  14262     1  0.0000000  0.4184000  3
  14253  14252  14266  14272     1  0.0000000  0.6508444  3
  14253  14252  14274  14258     1  180.0000771  0.4184000  2
  14253  14252  14274  14258     1  0.0000000  1.6024720  3
  14253  14256  14257  14258     1  180.0000771  0.8368000  1
  14253  14256  14257  14258     1  180.0000771  1.0460000  2
  14253  14256  14257  14258     1  0.0000000  0.7531200  3
  14253  14256  14257  14263     1  0.0000000  0.6508444  3
  14256  14253  14252  14266     1  180.0000771  0.8368000  1
  14256  14253  14252  14266     1  180.0000771  1.0460000  2
  14256  14253  14252  14266     1  0.0000000  0.7531200  3
  14256  14253  14252  14274     1  0.0000000  0.6508444  3
  14256  14257  14258  14262     1  0.0000000  0.6508444  3
  14256  14257  14258  14274     1  0.0000000  0.6508444  3
  14257  14256  14253  14265     1  0.0000000  0.6508444  3
  14258  14257  14256  14264     1  0.0000000  0.6508444  3
  14258  14274  14252  14266     1  180.0000771  0.4184000  2
  14258  14274  14252  14266     1  0.0000000  1.6024720  3
  14262  14258  14257  14263     1  0.0000000  4.9162000  2
  14262  14258  14257  14263     1  0.0000000  0.6024960  3
  14263  14257  14256  14264     1  0.0000000  4.9162000  2
  14263  14257  14256  14264     1  0.0000000  0.6024960  3
  14263  14257  14258  14274     1  0.0000000  4.9162000  2
  14263  14257  14258  14274     1  0.0000000  0.6024960  3
  14264  14256  14253  14265     1  0.0000000  4.9162000  2
  14264  14256  14253  14265     1  0.0000000  0.6024960  3
  14265  14253  14252  14266     1  0.0000000  0.6508444  3
  14265  14253  14252  14274     1  0.0000000  4.9162000  2
  14265  14253  14252  14274     1  0.0000000  0.6024960  3
  14272  14266  14252  14274     1  0.0000000  4.9162000  2
  14272  14266  14252  14274     1  0.0000000  0.6024960  3
  14275  14276  14279  14280     1  180.0000771  0.8368000  1
  14275  14276  14279  14280     1  180.0000771  1.0460000  2
  14275  14276  14279  14280     1  0.0000000  0.7531200  3
  14275  14276  14279  14287     1  0.0000000  0.6508444  3
  14275  14297  14281  14285     1  180.0000771  5.6484000  1
  14275  14297  14281  14285     1  180.0000771  3.5564000  2
  14275  14297  14281  14285     1  0.0000000  0.4184000  3
  14275  14297  14281  14280     1  180.0000771  0.4184000  2
  14275  14297  14281  14280     1  0.0000000  1.6024720  3
  14276  14279  14280  14281     1  180.0000771  0.8368000  1
  14276  14279  14280  14281     1  180.0000771  1.0460000  2
  14276  14279  14280  14281     1  0.0000000  0.7531200  3
  14276  14279  14280  14286     1  0.0000000  0.6508444  3
  14276  14275  14289  14295     1  0.0000000  0.6508444  3
  14276  14275  14297  14281     1  180.0000771  0.4184000  2
  14276  14275  14297  14281     1  0.0000000  1.6024720  3
  14279  14280  14281  14285     1  0.0000000  0.6508444  3
  14279  14280  14281  14297     1  0.0000000  0.6508444  3
  14279  14276  14275  14289     1  180.0000771  0.8368000  1
  14279  14276  14275  14289     1  180.0000771  1.0460000  2
  14279  14276  14275  14289     1  0.0000000  0.7531200  3
  14279  14276  14275  14297     1  0.0000000  0.6508444  3
  14280  14279  14276  14288     1  0.0000000  0.6508444  3
  14281  14297  14275  14289     1  180.0000771  0.4184000  2
  14281  14297  14275  14289     1  0.0000000  1.6024720  3
  14281  14280  14279  14287     1  0.0000000  0.6508444  3
  14285  14281  14280  14286     1  0.0000000  4.9162000  2
  14285  14281  14280  14286     1  0.0000000  0.6024960  3
  14286  14280  14281  14297     1  0.0000000  4.9162000  2
  14286  14280  14281  14297     1  0.0000000  0.6024960  3
  14286  14280  14279  14287     1  0.0000000  4.9162000  2
  14286  14280  14279  14287     1  0.0000000  0.6024960  3
  14287  14279  14276  14288     1  0.0000000  4.9162000  2
  14287  14279  14276  14288     1  0.0000000  0.6024960  3
  14288  14276  14275  14289     1  0.0000000  0.6508444  3
  14288  14276  14275  14297     1  0.0000000  4.9162000  2
  14288  14276  14275  14297     1  0.0000000  0.6024960  3
  14295  14289  14275  14297     1  0.0000000  4.9162000  2
  14295  14289  14275  14297     1  0.0000000  0.6024960  3
  14298  14299  14302  14303     1  180.0000771  0.8368000  1
  14298  14299  14302  14303     1  180.0000771  1.0460000  2
  14298  14299  14302  14303     1  0.0000000  0.7531200  3
  14298  14299  14302  14310     1  0.0000000  0.6508444  3
  14298  14320  14304  14303     1  180.0000771  0.4184000  2
  14298  14320  14304  14303     1  0.0000000  1.6024720  3
  14298  14320  14304  14308     1  180.0000771  5.6484000  1
  14298  14320  14304  14308     1  180.0000771  3.5564000  2
  14298  14320  14304  14308     1  0.0000000  0.4184000  3
  14299  14298  14312  14318     1  0.0000000  0.6508444  3
  14299  14298  14320  14304     1  180.0000771  0.4184000  2
  14299  14298  14320  14304     1  0.0000000  1.6024720  3
  14299  14302  14303  14304     1  180.0000771  0.8368000  1
  14299  14302  14303  14304     1  180.0000771  1.0460000  2
  14299  14302  14303  14304     1  0.0000000  0.7531200  3
  14299  14302  14303  14309     1  0.0000000  0.6508444  3
  14302  14299  14298  14312     1  180.0000771  0.8368000  1
  14302  14299  14298  14312     1  180.0000771  1.0460000  2
  14302  14299  14298  14312     1  0.0000000  0.7531200  3
  14302  14299  14298  14320     1  0.0000000  0.6508444  3
  14302  14303  14304  14308     1  0.0000000  0.6508444  3
  14302  14303  14304  14320     1  0.0000000  0.6508444  3
  14303  14302  14299  14311     1  0.0000000  0.6508444  3
  14304  14303  14302  14310     1  0.0000000  0.6508444  3
  14304  14320  14298  14312     1  180.0000771  0.4184000  2
  14304  14320  14298  14312     1  0.0000000  1.6024720  3
  14308  14304  14303  14309     1  0.0000000  4.9162000  2
  14308  14304  14303  14309     1  0.0000000  0.6024960  3
  14309  14303  14302  14310     1  0.0000000  4.9162000  2
  14309  14303  14302  14310     1  0.0000000  0.6024960  3
  14309  14303  14304  14320     1  0.0000000  4.9162000  2
  14309  14303  14304  14320     1  0.0000000  0.6024960  3
  14310  14302  14299  14311     1  0.0000000  4.9162000  2
  14310  14302  14299  14311     1  0.0000000  0.6024960  3
  14311  14299  14298  14312     1  0.0000000  0.6508444  3
  14311  14299  14298  14320     1  0.0000000  4.9162000  2
  14311  14299  14298  14320     1  0.0000000  0.6024960  3
  14318  14312  14298  14320     1  0.0000000  4.9162000  2
  14318  14312  14298  14320     1  0.0000000  0.6024960  3
  14321  14322  14325  14326     1  180.0000771  0.8368000  1
  14321  14322  14325  14326     1  180.0000771  1.0460000  2
  14321  14322  14325  14326     1  0.0000000  0.7531200  3
  14321  14322  14325  14333     1  0.0000000  0.6508444  3
  14321  14343  14327  14331     1  180.0000771  5.6484000  1
  14321  14343  14327  14331     1  180.0000771  3.5564000  2
  14321  14343  14327  14331     1  0.0000000  0.4184000  3
  14321  14343  14327  14326     1  180.0000771  0.4184000  2
  14321  14343  14327  14326     1  0.0000000  1.6024720  3
  14322  14325  14326  14327     1  180.0000771  0.8368000  1
  14322  14325  14326  14327     1  180.0000771  1.0460000  2
  14322  14325  14326  14327     1  0.0000000  0.7531200  3
  14322  14325  14326  14332     1  0.0000000  0.6508444  3
  14322  14321  14335  14341     1  0.0000000  0.6508444  3
  14322  14321  14343  14327     1  180.0000771  0.4184000  2
  14322  14321  14343  14327     1  0.0000000  1.6024720  3
  14325  14326  14327  14331     1  0.0000000  0.6508444  3
  14325  14326  14327  14343     1  0.0000000  0.6508444  3
  14325  14322  14321  14335     1  180.0000771  0.8368000  1
  14325  14322  14321  14335     1  180.0000771  1.0460000  2
  14325  14322  14321  14335     1  0.0000000  0.7531200  3
  14325  14322  14321  14343     1  0.0000000  0.6508444  3
  14326  14325  14322  14334     1  0.0000000  0.6508444  3
  14327  14343  14321  14335     1  180.0000771  0.4184000  2
  14327  14343  14321  14335     1  0.0000000  1.6024720  3
  14327  14326  14325  14333     1  0.0000000  0.6508444  3
  14331  14327  14326  14332     1  0.0000000  4.9162000  2
  14331  14327  14326  14332     1  0.0000000  0.6024960  3
  14332  14326  14327  14343     1  0.0000000  4.9162000  2
  14332  14326  14327  14343     1  0.0000000  0.6024960  3
  14332  14326  14325  14333     1  0.0000000  4.9162000  2
  14332  14326  14325  14333     1  0.0000000  0.6024960  3
  14333  14325  14322  14334     1  0.0000000  4.9162000  2
  14333  14325  14322  14334     1  0.0000000  0.6024960  3
  14334  14322  14321  14335     1  0.0000000  0.6508444  3
  14334  14322  14321  14343     1  0.0000000  4.9162000  2
  14334  14322  14321  14343     1  0.0000000  0.6024960  3
  14341  14335  14321  14343     1  0.0000000  4.9162000  2
  14341  14335  14321  14343     1  0.0000000  0.6024960  3
  14344  14345  14348  14349     1  180.0000771  0.8368000  1
  14344  14345  14348  14349     1  180.0000771  1.0460000  2
  14344  14345  14348  14349     1  0.0000000  0.7531200  3
  14344  14345  14348  14356     1  0.0000000  0.6508444  3
  14344  14366  14350  14349     1  180.0000771  0.4184000  2
  14344  14366  14350  14349     1  0.0000000  1.6024720  3
  14344  14366  14350  14354     1  180.0000771  5.6484000  1
  14344  14366  14350  14354     1  180.0000771  3.5564000  2
  14344  14366  14350  14354     1  0.0000000  0.4184000  3
  14345  14344  14358  14364     1  0.0000000  0.6508444  3
  14345  14344  14366  14350     1  180.0000771  0.4184000  2
  14345  14344  14366  14350     1  0.0000000  1.6024720  3
  14345  14348  14349  14350     1  180.0000771  0.8368000  1
  14345  14348  14349  14350     1  180.0000771  1.0460000  2
  14345  14348  14349  14350     1  0.0000000  0.7531200  3
  14345  14348  14349  14355     1  0.0000000  0.6508444  3
  14348  14345  14344  14358     1  180.0000771  0.8368000  1
  14348  14345  14344  14358     1  180.0000771  1.0460000  2
  14348  14345  14344  14358     1  0.0000000  0.7531200  3
  14348  14345  14344  14366     1  0.0000000  0.6508444  3
  14348  14349  14350  14354     1  0.0000000  0.6508444  3
  14348  14349  14350  14366     1  0.0000000  0.6508444  3
  14349  14348  14345  14357     1  0.0000000  0.6508444  3
  14350  14349  14348  14356     1  0.0000000  0.6508444  3
  14350  14366  14344  14358     1  180.0000771  0.4184000  2
  14350  14366  14344  14358     1  0.0000000  1.6024720  3
  14354  14350  14349  14355     1  0.0000000  4.9162000  2
  14354  14350  14349  14355     1  0.0000000  0.6024960  3
  14355  14349  14348  14356     1  0.0000000  4.9162000  2
  14355  14349  14348  14356     1  0.0000000  0.6024960  3
  14355  14349  14350  14366     1  0.0000000  4.9162000  2
  14355  14349  14350  14366     1  0.0000000  0.6024960  3
  14356  14348  14345  14357     1  0.0000000  4.9162000  2
  14356  14348  14345  14357     1  0.0000000  0.6024960  3
  14357  14345  14344  14358     1  0.0000000  0.6508444  3
  14357  14345  14344  14366     1  0.0000000  4.9162000  2
  14357  14345  14344  14366     1  0.0000000  0.6024960  3
  14364  14358  14344  14366     1  0.0000000  4.9162000  2
  14364  14358  14344  14366     1  0.0000000  0.6024960  3
  14367  14368  14371  14372     1  180.0000771  0.8368000  1
  14367  14368  14371  14372     1  180.0000771  1.0460000  2
  14367  14368  14371  14372     1  0.0000000  0.7531200  3
  14367  14368  14371  14379     1  0.0000000  0.6508444  3
  14367  14389  14373  14377     1  180.0000771  5.6484000  1
  14367  14389  14373  14377     1  180.0000771  3.5564000  2
  14367  14389  14373  14377     1  0.0000000  0.4184000  3
  14367  14389  14373  14372     1  180.0000771  0.4184000  2
  14367  14389  14373  14372     1  0.0000000  1.6024720  3
  14368  14371  14372  14373     1  180.0000771  0.8368000  1
  14368  14371  14372  14373     1  180.0000771  1.0460000  2
  14368  14371  14372  14373     1  0.0000000  0.7531200  3
  14368  14371  14372  14378     1  0.0000000  0.6508444  3
  14368  14367  14381  14387     1  0.0000000  0.6508444  3
  14368  14367  14389  14373     1  180.0000771  0.4184000  2
  14368  14367  14389  14373     1  0.0000000  1.6024720  3
  14371  14372  14373  14377     1  0.0000000  0.6508444  3
  14371  14372  14373  14389     1  0.0000000  0.6508444  3
  14371  14368  14367  14381     1  180.0000771  0.8368000  1
  14371  14368  14367  14381     1  180.0000771  1.0460000  2
  14371  14368  14367  14381     1  0.0000000  0.7531200  3
  14371  14368  14367  14389     1  0.0000000  0.6508444  3
  14372  14371  14368  14380     1  0.0000000  0.6508444  3
  14373  14389  14367  14381     1  180.0000771  0.4184000  2
  14373  14389  14367  14381     1  0.0000000  1.6024720  3
  14373  14372  14371  14379     1  0.0000000  0.6508444  3
  14377  14373  14372  14378     1  0.0000000  4.9162000  2
  14377  14373  14372  14378     1  0.0000000  0.6024960  3
  14378  14372  14373  14389     1  0.0000000  4.9162000  2
  14378  14372  14373  14389     1  0.0000000  0.6024960  3
  14378  14372  14371  14379     1  0.0000000  4.9162000  2
  14378  14372  14371  14379     1  0.0000000  0.6024960  3
  14379  14371  14368  14380     1  0.0000000  4.9162000  2
  14379  14371  14368  14380     1  0.0000000  0.6024960  3
  14380  14368  14367  14381     1  0.0000000  0.6508444  3
  14380  14368  14367  14389     1  0.0000000  4.9162000  2
  14380  14368  14367  14389     1  0.0000000  0.6024960  3
  14387  14381  14367  14389     1  0.0000000  4.9162000  2
  14387  14381  14367  14389     1  0.0000000  0.6024960  3
  14390  14391  14394  14395     1  180.0000771  0.8368000  1
  14390  14391  14394  14395     1  180.0000771  1.0460000  2
  14390  14391  14394  14395     1  0.0000000  0.7531200  3
  14390  14391  14394  14402     1  0.0000000  0.6508444  3
  14390  14412  14396  14395     1  180.0000771  0.4184000  2
  14390  14412  14396  14395     1  0.0000000  1.6024720  3
  14390  14412  14396  14400     1  180.0000771  5.6484000  1
  14390  14412  14396  14400     1  180.0000771  3.5564000  2
  14390  14412  14396  14400     1  0.0000000  0.4184000  3
  14391  14390  14404  14410     1  0.0000000  0.6508444  3
  14391  14390  14412  14396     1  180.0000771  0.4184000  2
  14391  14390  14412  14396     1  0.0000000  1.6024720  3
  14391  14394  14395  14396     1  180.0000771  0.8368000  1
  14391  14394  14395  14396     1  180.0000771  1.0460000  2
  14391  14394  14395  14396     1  0.0000000  0.7531200  3
  14391  14394  14395  14401     1  0.0000000  0.6508444  3
  14394  14391  14390  14404     1  180.0000771  0.8368000  1
  14394  14391  14390  14404     1  180.0000771  1.0460000  2
  14394  14391  14390  14404     1  0.0000000  0.7531200  3
  14394  14391  14390  14412     1  0.0000000  0.6508444  3
  14394  14395  14396  14400     1  0.0000000  0.6508444  3
  14394  14395  14396  14412     1  0.0000000  0.6508444  3
  14395  14394  14391  14403     1  0.0000000  0.6508444  3
  14396  14395  14394  14402     1  0.0000000  0.6508444  3
  14396  14412  14390  14404     1  180.0000771  0.4184000  2
  14396  14412  14390  14404     1  0.0000000  1.6024720  3
  14400  14396  14395  14401     1  0.0000000  4.9162000  2
  14400  14396  14395  14401     1  0.0000000  0.6024960  3
  14401  14395  14394  14402     1  0.0000000  4.9162000  2
  14401  14395  14394  14402     1  0.0000000  0.6024960  3
  14401  14395  14396  14412     1  0.0000000  4.9162000  2
  14401  14395  14396  14412     1  0.0000000  0.6024960  3
  14402  14394  14391  14403     1  0.0000000  4.9162000  2
  14402  14394  14391  14403     1  0.0000000  0.6024960  3
  14403  14391  14390  14404     1  0.0000000  0.6508444  3
  14403  14391  14390  14412     1  0.0000000  4.9162000  2
  14403  14391  14390  14412     1  0.0000000  0.6024960  3
  14410  14404  14390  14412     1  0.0000000  4.9162000  2
  14410  14404  14390  14412     1  0.0000000  0.6024960  3
  14413  14414  14417  14418     1  180.0000771  0.8368000  1
  14413  14414  14417  14418     1  180.0000771  1.0460000  2
  14413  14414  14417  14418     1  0.0000000  0.7531200  3
  14413  14414  14417  14425     1  0.0000000  0.6508444  3
  14413  14435  14419  14423     1  180.0000771  5.6484000  1
  14413  14435  14419  14423     1  180.0000771  3.5564000  2
  14413  14435  14419  14423     1  0.0000000  0.4184000  3
  14413  14435  14419  14418     1  180.0000771  0.4184000  2
  14413  14435  14419  14418     1  0.0000000  1.6024720  3
  14414  14417  14418  14419     1  180.0000771  0.8368000  1
  14414  14417  14418  14419     1  180.0000771  1.0460000  2
  14414  14417  14418  14419     1  0.0000000  0.7531200  3
  14414  14417  14418  14424     1  0.0000000  0.6508444  3
  14414  14413  14427  14433     1  0.0000000  0.6508444  3
  14414  14413  14435  14419     1  180.0000771  0.4184000  2
  14414  14413  14435  14419     1  0.0000000  1.6024720  3
  14417  14418  14419  14423     1  0.0000000  0.6508444  3
  14417  14418  14419  14435     1  0.0000000  0.6508444  3
  14417  14414  14413  14427     1  180.0000771  0.8368000  1
  14417  14414  14413  14427     1  180.0000771  1.0460000  2
  14417  14414  14413  14427     1  0.0000000  0.7531200  3
  14417  14414  14413  14435     1  0.0000000  0.6508444  3
  14418  14417  14414  14426     1  0.0000000  0.6508444  3
  14419  14435  14413  14427     1  180.0000771  0.4184000  2
  14419  14435  14413  14427     1  0.0000000  1.6024720  3
  14419  14418  14417  14425     1  0.0000000  0.6508444  3
  14423  14419  14418  14424     1  0.0000000  4.9162000  2
  14423  14419  14418  14424     1  0.0000000  0.6024960  3
  14424  14418  14419  14435     1  0.0000000  4.9162000  2
  14424  14418  14419  14435     1  0.0000000  0.6024960  3
  14424  14418  14417  14425     1  0.0000000  4.9162000  2
  14424  14418  14417  14425     1  0.0000000  0.6024960  3
  14425  14417  14414  14426     1  0.0000000  4.9162000  2
  14425  14417  14414  14426     1  0.0000000  0.6024960  3
  14426  14414  14413  14427     1  0.0000000  0.6508444  3
  14426  14414  14413  14435     1  0.0000000  4.9162000  2
  14426  14414  14413  14435     1  0.0000000  0.6024960  3
  14433  14427  14413  14435     1  0.0000000  4.9162000  2
  14433  14427  14413  14435     1  0.0000000  0.6024960  3
  14436  14437  14440  14441     1  180.0000771  0.8368000  1
  14436  14437  14440  14441     1  180.0000771  1.0460000  2
  14436  14437  14440  14441     1  0.0000000  0.7531200  3
  14436  14437  14440  14448     1  0.0000000  0.6508444  3
  14436  14458  14442  14441     1  180.0000771  0.4184000  2
  14436  14458  14442  14441     1  0.0000000  1.6024720  3
  14436  14458  14442  14446     1  180.0000771  5.6484000  1
  14436  14458  14442  14446     1  180.0000771  3.5564000  2
  14436  14458  14442  14446     1  0.0000000  0.4184000  3
  14437  14436  14450  14456     1  0.0000000  0.6508444  3
  14437  14436  14458  14442     1  180.0000771  0.4184000  2
  14437  14436  14458  14442     1  0.0000000  1.6024720  3
  14437  14440  14441  14442     1  180.0000771  0.8368000  1
  14437  14440  14441  14442     1  180.0000771  1.0460000  2
  14437  14440  14441  14442     1  0.0000000  0.7531200  3
  14437  14440  14441  14447     1  0.0000000  0.6508444  3
  14440  14437  14436  14450     1  180.0000771  0.8368000  1
  14440  14437  14436  14450     1  180.0000771  1.0460000  2
  14440  14437  14436  14450     1  0.0000000  0.7531200  3
  14440  14437  14436  14458     1  0.0000000  0.6508444  3
  14440  14441  14442  14446     1  0.0000000  0.6508444  3
  14440  14441  14442  14458     1  0.0000000  0.6508444  3
  14441  14440  14437  14449     1  0.0000000  0.6508444  3
  14442  14441  14440  14448     1  0.0000000  0.6508444  3
  14442  14458  14436  14450     1  180.0000771  0.4184000  2
  14442  14458  14436  14450     1  0.0000000  1.6024720  3
  14446  14442  14441  14447     1  0.0000000  4.9162000  2
  14446  14442  14441  14447     1  0.0000000  0.6024960  3
  14447  14441  14440  14448     1  0.0000000  4.9162000  2
  14447  14441  14440  14448     1  0.0000000  0.6024960  3
  14447  14441  14442  14458     1  0.0000000  4.9162000  2
  14447  14441  14442  14458     1  0.0000000  0.6024960  3
  14448  14440  14437  14449     1  0.0000000  4.9162000  2
  14448  14440  14437  14449     1  0.0000000  0.6024960  3
  14449  14437  14436  14450     1  0.0000000  0.6508444  3
  14449  14437  14436  14458     1  0.0000000  4.9162000  2
  14449  14437  14436  14458     1  0.0000000  0.6024960  3
  14456  14450  14436  14458     1  0.0000000  4.9162000  2
  14456  14450  14436  14458     1  0.0000000  0.6024960  3
  14459  14460  14463  14464     1  180.0000771  0.8368000  1
  14459  14460  14463  14464     1  180.0000771  1.0460000  2
  14459  14460  14463  14464     1  0.0000000  0.7531200  3
  14459  14460  14463  14471     1  0.0000000  0.6508444  3
  14459  14481  14465  14469     1  180.0000771  5.6484000  1
  14459  14481  14465  14469     1  180.0000771  3.5564000  2
  14459  14481  14465  14469     1  0.0000000  0.4184000  3
  14459  14481  14465  14464     1  180.0000771  0.4184000  2
  14459  14481  14465  14464     1  0.0000000  1.6024720  3
  14460  14463  14464  14465     1  180.0000771  0.8368000  1
  14460  14463  14464  14465     1  180.0000771  1.0460000  2
  14460  14463  14464  14465     1  0.0000000  0.7531200  3
  14460  14463  14464  14470     1  0.0000000  0.6508444  3
  14460  14459  14473  14479     1  0.0000000  0.6508444  3
  14460  14459  14481  14465     1  180.0000771  0.4184000  2
  14460  14459  14481  14465     1  0.0000000  1.6024720  3
  14463  14464  14465  14469     1  0.0000000  0.6508444  3
  14463  14464  14465  14481     1  0.0000000  0.6508444  3
  14463  14460  14459  14473     1  180.0000771  0.8368000  1
  14463  14460  14459  14473     1  180.0000771  1.0460000  2
  14463  14460  14459  14473     1  0.0000000  0.7531200  3
  14463  14460  14459  14481     1  0.0000000  0.6508444  3
  14464  14463  14460  14472     1  0.0000000  0.6508444  3
  14465  14481  14459  14473     1  180.0000771  0.4184000  2
  14465  14481  14459  14473     1  0.0000000  1.6024720  3
  14465  14464  14463  14471     1  0.0000000  0.6508444  3
  14469  14465  14464  14470     1  0.0000000  4.9162000  2
  14469  14465  14464  14470     1  0.0000000  0.6024960  3
  14470  14464  14465  14481     1  0.0000000  4.9162000  2
  14470  14464  14465  14481     1  0.0000000  0.6024960  3
  14470  14464  14463  14471     1  0.0000000  4.9162000  2
  14470  14464  14463  14471     1  0.0000000  0.6024960  3
  14471  14463  14460  14472     1  0.0000000  4.9162000  2
  14471  14463  14460  14472     1  0.0000000  0.6024960  3
  14472  14460  14459  14473     1  0.0000000  0.6508444  3
  14472  14460  14459  14481     1  0.0000000  4.9162000  2
  14472  14460  14459  14481     1  0.0000000  0.6024960  3
  14479  14473  14459  14481     1  0.0000000  4.9162000  2
  14479  14473  14459  14481     1  0.0000000  0.6024960  3
  14482  14483  14486  14487     1  180.0000771  0.8368000  1
  14482  14483  14486  14487     1  180.0000771  1.0460000  2
  14482  14483  14486  14487     1  0.0000000  0.7531200  3
  14482  14483  14486  14494     1  0.0000000  0.6508444  3
  14482  14504  14488  14487     1  180.0000771  0.4184000  2
  14482  14504  14488  14487     1  0.0000000  1.6024720  3
  14482  14504  14488  14492     1  180.0000771  5.6484000  1
  14482  14504  14488  14492     1  180.0000771  3.5564000  2
  14482  14504  14488  14492     1  0.0000000  0.4184000  3
  14483  14482  14496  14502     1  0.0000000  0.6508444  3
  14483  14482  14504  14488     1  180.0000771  0.4184000  2
  14483  14482  14504  14488     1  0.0000000  1.6024720  3
  14483  14486  14487  14488     1  180.0000771  0.8368000  1
  14483  14486  14487  14488     1  180.0000771  1.0460000  2
  14483  14486  14487  14488     1  0.0000000  0.7531200  3
  14483  14486  14487  14493     1  0.0000000  0.6508444  3
  14486  14483  14482  14496     1  180.0000771  0.8368000  1
  14486  14483  14482  14496     1  180.0000771  1.0460000  2
  14486  14483  14482  14496     1  0.0000000  0.7531200  3
  14486  14483  14482  14504     1  0.0000000  0.6508444  3
  14486  14487  14488  14492     1  0.0000000  0.6508444  3
  14486  14487  14488  14504     1  0.0000000  0.6508444  3
  14487  14486  14483  14495     1  0.0000000  0.6508444  3
  14488  14487  14486  14494     1  0.0000000  0.6508444  3
  14488  14504  14482  14496     1  180.0000771  0.4184000  2
  14488  14504  14482  14496     1  0.0000000  1.6024720  3
  14492  14488  14487  14493     1  0.0000000  4.9162000  2
  14492  14488  14487  14493     1  0.0000000  0.6024960  3
  14493  14487  14486  14494     1  0.0000000  4.9162000  2
  14493  14487  14486  14494     1  0.0000000  0.6024960  3
  14493  14487  14488  14504     1  0.0000000  4.9162000  2
  14493  14487  14488  14504     1  0.0000000  0.6024960  3
  14494  14486  14483  14495     1  0.0000000  4.9162000  2
  14494  14486  14483  14495     1  0.0000000  0.6024960  3
  14495  14483  14482  14496     1  0.0000000  0.6508444  3
  14495  14483  14482  14504     1  0.0000000  4.9162000  2
  14495  14483  14482  14504     1  0.0000000  0.6024960  3
  14502  14496  14482  14504     1  0.0000000  4.9162000  2
  14502  14496  14482  14504     1  0.0000000  0.6024960  3
  14505  14506  14509  14510     1  180.0000771  0.8368000  1
  14505  14506  14509  14510     1  180.0000771  1.0460000  2
  14505  14506  14509  14510     1  0.0000000  0.7531200  3
  14505  14506  14509  14517     1  0.0000000  0.6508444  3
  14505  14527  14511  14515     1  180.0000771  5.6484000  1
  14505  14527  14511  14515     1  180.0000771  3.5564000  2
  14505  14527  14511  14515     1  0.0000000  0.4184000  3
  14505  14527  14511  14510     1  180.0000771  0.4184000  2
  14505  14527  14511  14510     1  0.0000000  1.6024720  3
  14506  14509  14510  14511     1  180.0000771  0.8368000  1
  14506  14509  14510  14511     1  180.0000771  1.0460000  2
  14506  14509  14510  14511     1  0.0000000  0.7531200  3
  14506  14509  14510  14516     1  0.0000000  0.6508444  3
  14506  14505  14519  14525     1  0.0000000  0.6508444  3
  14506  14505  14527  14511     1  180.0000771  0.4184000  2
  14506  14505  14527  14511     1  0.0000000  1.6024720  3
  14509  14510  14511  14515     1  0.0000000  0.6508444  3
  14509  14510  14511  14527     1  0.0000000  0.6508444  3
  14509  14506  14505  14519     1  180.0000771  0.8368000  1
  14509  14506  14505  14519     1  180.0000771  1.0460000  2
  14509  14506  14505  14519     1  0.0000000  0.7531200  3
  14509  14506  14505  14527     1  0.0000000  0.6508444  3
  14510  14509  14506  14518     1  0.0000000  0.6508444  3
  14511  14527  14505  14519     1  180.0000771  0.4184000  2
  14511  14527  14505  14519     1  0.0000000  1.6024720  3
  14511  14510  14509  14517     1  0.0000000  0.6508444  3
  14515  14511  14510  14516     1  0.0000000  4.9162000  2
  14515  14511  14510  14516     1  0.0000000  0.6024960  3
  14516  14510  14511  14527     1  0.0000000  4.9162000  2
  14516  14510  14511  14527     1  0.0000000  0.6024960  3
  14516  14510  14509  14517     1  0.0000000  4.9162000  2
  14516  14510  14509  14517     1  0.0000000  0.6024960  3
  14517  14509  14506  14518     1  0.0000000  4.9162000  2
  14517  14509  14506  14518     1  0.0000000  0.6024960  3
  14518  14506  14505  14519     1  0.0000000  0.6508444  3
  14518  14506  14505  14527     1  0.0000000  4.9162000  2
  14518  14506  14505  14527     1  0.0000000  0.6024960  3
  14525  14519  14505  14527     1  0.0000000  4.9162000  2
  14525  14519  14505  14527     1  0.0000000  0.6024960  3
  14528  14529  14532  14533     1  180.0000771  0.8368000  1
  14528  14529  14532  14533     1  180.0000771  1.0460000  2
  14528  14529  14532  14533     1  0.0000000  0.7531200  3
  14528  14529  14532  14540     1  0.0000000  0.6508444  3
  14528  14550  14534  14533     1  180.0000771  0.4184000  2
  14528  14550  14534  14533     1  0.0000000  1.6024720  3
  14528  14550  14534  14538     1  180.0000771  5.6484000  1
  14528  14550  14534  14538     1  180.0000771  3.5564000  2
  14528  14550  14534  14538     1  0.0000000  0.4184000  3
  14529  14528  14542  14548     1  0.0000000  0.6508444  3
  14529  14528  14550  14534     1  180.0000771  0.4184000  2
  14529  14528  14550  14534     1  0.0000000  1.6024720  3
  14529  14532  14533  14534     1  180.0000771  0.8368000  1
  14529  14532  14533  14534     1  180.0000771  1.0460000  2
  14529  14532  14533  14534     1  0.0000000  0.7531200  3
  14529  14532  14533  14539     1  0.0000000  0.6508444  3
  14532  14529  14528  14542     1  180.0000771  0.8368000  1
  14532  14529  14528  14542     1  180.0000771  1.0460000  2
  14532  14529  14528  14542     1  0.0000000  0.7531200  3
  14532  14529  14528  14550     1  0.0000000  0.6508444  3
  14532  14533  14534  14538     1  0.0000000  0.6508444  3
  14532  14533  14534  14550     1  0.0000000  0.6508444  3
  14533  14532  14529  14541     1  0.0000000  0.6508444  3
  14534  14533  14532  14540     1  0.0000000  0.6508444  3
  14534  14550  14528  14542     1  180.0000771  0.4184000  2
  14534  14550  14528  14542     1  0.0000000  1.6024720  3
  14538  14534  14533  14539     1  0.0000000  4.9162000  2
  14538  14534  14533  14539     1  0.0000000  0.6024960  3
  14539  14533  14532  14540     1  0.0000000  4.9162000  2
  14539  14533  14532  14540     1  0.0000000  0.6024960  3
  14539  14533  14534  14550     1  0.0000000  4.9162000  2
  14539  14533  14534  14550     1  0.0000000  0.6024960  3
  14540  14532  14529  14541     1  0.0000000  4.9162000  2
  14540  14532  14529  14541     1  0.0000000  0.6024960  3
  14541  14529  14528  14542     1  0.0000000  0.6508444  3
  14541  14529  14528  14550     1  0.0000000  4.9162000  2
  14541  14529  14528  14550     1  0.0000000  0.6024960  3
  14548  14542  14528  14550     1  0.0000000  4.9162000  2
  14548  14542  14528  14550     1  0.0000000  0.6024960  3
  14551  14552  14555  14556     1  180.0000771  0.8368000  1
  14551  14552  14555  14556     1  180.0000771  1.0460000  2
  14551  14552  14555  14556     1  0.0000000  0.7531200  3
  14551  14552  14555  14563     1  0.0000000  0.6508444  3
  14551  14573  14557  14561     1  180.0000771  5.6484000  1
  14551  14573  14557  14561     1  180.0000771  3.5564000  2
  14551  14573  14557  14561     1  0.0000000  0.4184000  3
  14551  14573  14557  14556     1  180.0000771  0.4184000  2
  14551  14573  14557  14556     1  0.0000000  1.6024720  3
  14552  14555  14556  14557     1  180.0000771  0.8368000  1
  14552  14555  14556  14557     1  180.0000771  1.0460000  2
  14552  14555  14556  14557     1  0.0000000  0.7531200  3
  14552  14555  14556  14562     1  0.0000000  0.6508444  3
  14552  14551  14565  14571     1  0.0000000  0.6508444  3
  14552  14551  14573  14557     1  180.0000771  0.4184000  2
  14552  14551  14573  14557     1  0.0000000  1.6024720  3
  14555  14556  14557  14561     1  0.0000000  0.6508444  3
  14555  14556  14557  14573     1  0.0000000  0.6508444  3
  14555  14552  14551  14565     1  180.0000771  0.8368000  1
  14555  14552  14551  14565     1  180.0000771  1.0460000  2
  14555  14552  14551  14565     1  0.0000000  0.7531200  3
  14555  14552  14551  14573     1  0.0000000  0.6508444  3
  14556  14555  14552  14564     1  0.0000000  0.6508444  3
  14557  14573  14551  14565     1  180.0000771  0.4184000  2
  14557  14573  14551  14565     1  0.0000000  1.6024720  3
  14557  14556  14555  14563     1  0.0000000  0.6508444  3
  14561  14557  14556  14562     1  0.0000000  4.9162000  2
  14561  14557  14556  14562     1  0.0000000  0.6024960  3
  14562  14556  14557  14573     1  0.0000000  4.9162000  2
  14562  14556  14557  14573     1  0.0000000  0.6024960  3
  14562  14556  14555  14563     1  0.0000000  4.9162000  2
  14562  14556  14555  14563     1  0.0000000  0.6024960  3
  14563  14555  14552  14564     1  0.0000000  4.9162000  2
  14563  14555  14552  14564     1  0.0000000  0.6024960  3
  14564  14552  14551  14565     1  0.0000000  0.6508444  3
  14564  14552  14551  14573     1  0.0000000  4.9162000  2
  14564  14552  14551  14573     1  0.0000000  0.6024960  3
  14571  14565  14551  14573     1  0.0000000  4.9162000  2
  14571  14565  14551  14573     1  0.0000000  0.6024960  3
  14574  14575  14578  14579     1  180.0000771  0.8368000  1
  14574  14575  14578  14579     1  180.0000771  1.0460000  2
  14574  14575  14578  14579     1  0.0000000  0.7531200  3
  14574  14575  14578  14586     1  0.0000000  0.6508444  3
  14574  14596  14580  14579     1  180.0000771  0.4184000  2
  14574  14596  14580  14579     1  0.0000000  1.6024720  3
  14574  14596  14580  14584     1  180.0000771  5.6484000  1
  14574  14596  14580  14584     1  180.0000771  3.5564000  2
  14574  14596  14580  14584     1  0.0000000  0.4184000  3
  14575  14574  14588  14594     1  0.0000000  0.6508444  3
  14575  14574  14596  14580     1  180.0000771  0.4184000  2
  14575  14574  14596  14580     1  0.0000000  1.6024720  3
  14575  14578  14579  14580     1  180.0000771  0.8368000  1
  14575  14578  14579  14580     1  180.0000771  1.0460000  2
  14575  14578  14579  14580     1  0.0000000  0.7531200  3
  14575  14578  14579  14585     1  0.0000000  0.6508444  3
  14578  14575  14574  14588     1  180.0000771  0.8368000  1
  14578  14575  14574  14588     1  180.0000771  1.0460000  2
  14578  14575  14574  14588     1  0.0000000  0.7531200  3
  14578  14575  14574  14596     1  0.0000000  0.6508444  3
  14578  14579  14580  14584     1  0.0000000  0.6508444  3
  14578  14579  14580  14596     1  0.0000000  0.6508444  3
  14579  14578  14575  14587     1  0.0000000  0.6508444  3
  14580  14579  14578  14586     1  0.0000000  0.6508444  3
  14580  14596  14574  14588     1  180.0000771  0.4184000  2
  14580  14596  14574  14588     1  0.0000000  1.6024720  3
  14584  14580  14579  14585     1  0.0000000  4.9162000  2
  14584  14580  14579  14585     1  0.0000000  0.6024960  3
  14585  14579  14578  14586     1  0.0000000  4.9162000  2
  14585  14579  14578  14586     1  0.0000000  0.6024960  3
  14585  14579  14580  14596     1  0.0000000  4.9162000  2
  14585  14579  14580  14596     1  0.0000000  0.6024960  3
  14586  14578  14575  14587     1  0.0000000  4.9162000  2
  14586  14578  14575  14587     1  0.0000000  0.6024960  3
  14587  14575  14574  14588     1  0.0000000  0.6508444  3
  14587  14575  14574  14596     1  0.0000000  4.9162000  2
  14587  14575  14574  14596     1  0.0000000  0.6024960  3
  14594  14588  14574  14596     1  0.0000000  4.9162000  2
  14594  14588  14574  14596     1  0.0000000  0.6024960  3
  14597  14598  14601  14602     1  180.0000771  0.8368000  1
  14597  14598  14601  14602     1  180.0000771  1.0460000  2
  14597  14598  14601  14602     1  0.0000000  0.7531200  3
  14597  14598  14601  14609     1  0.0000000  0.6508444  3
  14597  14619  14603  14607     1  180.0000771  5.6484000  1
  14597  14619  14603  14607     1  180.0000771  3.5564000  2
  14597  14619  14603  14607     1  0.0000000  0.4184000  3
  14597  14619  14603  14602     1  180.0000771  0.4184000  2
  14597  14619  14603  14602     1  0.0000000  1.6024720  3
  14598  14601  14602  14603     1  180.0000771  0.8368000  1
  14598  14601  14602  14603     1  180.0000771  1.0460000  2
  14598  14601  14602  14603     1  0.0000000  0.7531200  3
  14598  14601  14602  14608     1  0.0000000  0.6508444  3
  14598  14597  14611  14617     1  0.0000000  0.6508444  3
  14598  14597  14619  14603     1  180.0000771  0.4184000  2
  14598  14597  14619  14603     1  0.0000000  1.6024720  3
  14601  14602  14603  14607     1  0.0000000  0.6508444  3
  14601  14602  14603  14619     1  0.0000000  0.6508444  3
  14601  14598  14597  14611     1  180.0000771  0.8368000  1
  14601  14598  14597  14611     1  180.0000771  1.0460000  2
  14601  14598  14597  14611     1  0.0000000  0.7531200  3
  14601  14598  14597  14619     1  0.0000000  0.6508444  3
  14602  14601  14598  14610     1  0.0000000  0.6508444  3
  14603  14619  14597  14611     1  180.0000771  0.4184000  2
  14603  14619  14597  14611     1  0.0000000  1.6024720  3
  14603  14602  14601  14609     1  0.0000000  0.6508444  3
  14607  14603  14602  14608     1  0.0000000  4.9162000  2
  14607  14603  14602  14608     1  0.0000000  0.6024960  3
  14608  14602  14603  14619     1  0.0000000  4.9162000  2
  14608  14602  14603  14619     1  0.0000000  0.6024960  3
  14608  14602  14601  14609     1  0.0000000  4.9162000  2
  14608  14602  14601  14609     1  0.0000000  0.6024960  3
  14609  14601  14598  14610     1  0.0000000  4.9162000  2
  14609  14601  14598  14610     1  0.0000000  0.6024960  3
  14610  14598  14597  14611     1  0.0000000  0.6508444  3
  14610  14598  14597  14619     1  0.0000000  4.9162000  2
  14610  14598  14597  14619     1  0.0000000  0.6024960  3
  14617  14611  14597  14619     1  0.0000000  4.9162000  2
  14617  14611  14597  14619     1  0.0000000  0.6024960  3
  14620  14621  14624  14625     1  180.0000771  0.8368000  1
  14620  14621  14624  14625     1  180.0000771  1.0460000  2
  14620  14621  14624  14625     1  0.0000000  0.7531200  3
  14620  14621  14624  14632     1  0.0000000  0.6508444  3
  14620  14642  14626  14625     1  180.0000771  0.4184000  2
  14620  14642  14626  14625     1  0.0000000  1.6024720  3
  14620  14642  14626  14630     1  180.0000771  5.6484000  1
  14620  14642  14626  14630     1  180.0000771  3.5564000  2
  14620  14642  14626  14630     1  0.0000000  0.4184000  3
  14621  14620  14634  14640     1  0.0000000  0.6508444  3
  14621  14620  14642  14626     1  180.0000771  0.4184000  2
  14621  14620  14642  14626     1  0.0000000  1.6024720  3
  14621  14624  14625  14626     1  180.0000771  0.8368000  1
  14621  14624  14625  14626     1  180.0000771  1.0460000  2
  14621  14624  14625  14626     1  0.0000000  0.7531200  3
  14621  14624  14625  14631     1  0.0000000  0.6508444  3
  14624  14621  14620  14634     1  180.0000771  0.8368000  1
  14624  14621  14620  14634     1  180.0000771  1.0460000  2
  14624  14621  14620  14634     1  0.0000000  0.7531200  3
  14624  14621  14620  14642     1  0.0000000  0.6508444  3
  14624  14625  14626  14630     1  0.0000000  0.6508444  3
  14624  14625  14626  14642     1  0.0000000  0.6508444  3
  14625  14624  14621  14633     1  0.0000000  0.6508444  3
  14626  14625  14624  14632     1  0.0000000  0.6508444  3
  14626  14642  14620  14634     1  180.0000771  0.4184000  2
  14626  14642  14620  14634     1  0.0000000  1.6024720  3
  14630  14626  14625  14631     1  0.0000000  4.9162000  2
  14630  14626  14625  14631     1  0.0000000  0.6024960  3
  14631  14625  14624  14632     1  0.0000000  4.9162000  2
  14631  14625  14624  14632     1  0.0000000  0.6024960  3
  14631  14625  14626  14642     1  0.0000000  4.9162000  2
  14631  14625  14626  14642     1  0.0000000  0.6024960  3
  14632  14624  14621  14633     1  0.0000000  4.9162000  2
  14632  14624  14621  14633     1  0.0000000  0.6024960  3
  14633  14621  14620  14634     1  0.0000000  0.6508444  3
  14633  14621  14620  14642     1  0.0000000  4.9162000  2
  14633  14621  14620  14642     1  0.0000000  0.6024960  3
  14640  14634  14620  14642     1  0.0000000  4.9162000  2
  14640  14634  14620  14642     1  0.0000000  0.6024960  3
  14643  14644  14647  14648     1  180.0000771  0.8368000  1
  14643  14644  14647  14648     1  180.0000771  1.0460000  2
  14643  14644  14647  14648     1  0.0000000  0.7531200  3
  14643  14644  14647  14655     1  0.0000000  0.6508444  3
  14643  14665  14649  14653     1  180.0000771  5.6484000  1
  14643  14665  14649  14653     1  180.0000771  3.5564000  2
  14643  14665  14649  14653     1  0.0000000  0.4184000  3
  14643  14665  14649  14648     1  180.0000771  0.4184000  2
  14643  14665  14649  14648     1  0.0000000  1.6024720  3
  14644  14647  14648  14649     1  180.0000771  0.8368000  1
  14644  14647  14648  14649     1  180.0000771  1.0460000  2
  14644  14647  14648  14649     1  0.0000000  0.7531200  3
  14644  14647  14648  14654     1  0.0000000  0.6508444  3
  14644  14643  14657  14663     1  0.0000000  0.6508444  3
  14644  14643  14665  14649     1  180.0000771  0.4184000  2
  14644  14643  14665  14649     1  0.0000000  1.6024720  3
  14647  14648  14649  14653     1  0.0000000  0.6508444  3
  14647  14648  14649  14665     1  0.0000000  0.6508444  3
  14647  14644  14643  14657     1  180.0000771  0.8368000  1
  14647  14644  14643  14657     1  180.0000771  1.0460000  2
  14647  14644  14643  14657     1  0.0000000  0.7531200  3
  14647  14644  14643  14665     1  0.0000000  0.6508444  3
  14648  14647  14644  14656     1  0.0000000  0.6508444  3
  14649  14665  14643  14657     1  180.0000771  0.4184000  2
  14649  14665  14643  14657     1  0.0000000  1.6024720  3
  14649  14648  14647  14655     1  0.0000000  0.6508444  3
  14653  14649  14648  14654     1  0.0000000  4.9162000  2
  14653  14649  14648  14654     1  0.0000000  0.6024960  3
  14654  14648  14649  14665     1  0.0000000  4.9162000  2
  14654  14648  14649  14665     1  0.0000000  0.6024960  3
  14654  14648  14647  14655     1  0.0000000  4.9162000  2
  14654  14648  14647  14655     1  0.0000000  0.6024960  3
  14655  14647  14644  14656     1  0.0000000  4.9162000  2
  14655  14647  14644  14656     1  0.0000000  0.6024960  3
  14656  14644  14643  14657     1  0.0000000  0.6508444  3
  14656  14644  14643  14665     1  0.0000000  4.9162000  2
  14656  14644  14643  14665     1  0.0000000  0.6024960  3
  14663  14657  14643  14665     1  0.0000000  4.9162000  2
  14663  14657  14643  14665     1  0.0000000  0.6024960  3
  14666  14667  14670  14671     1  180.0000771  0.8368000  1
  14666  14667  14670  14671     1  180.0000771  1.0460000  2
  14666  14667  14670  14671     1  0.0000000  0.7531200  3
  14666  14667  14670  14678     1  0.0000000  0.6508444  3
  14666  14688  14672  14671     1  180.0000771  0.4184000  2
  14666  14688  14672  14671     1  0.0000000  1.6024720  3
  14666  14688  14672  14676     1  180.0000771  5.6484000  1
  14666  14688  14672  14676     1  180.0000771  3.5564000  2
  14666  14688  14672  14676     1  0.0000000  0.4184000  3
  14667  14666  14680  14686     1  0.0000000  0.6508444  3
  14667  14666  14688  14672     1  180.0000771  0.4184000  2
  14667  14666  14688  14672     1  0.0000000  1.6024720  3
  14667  14670  14671  14672     1  180.0000771  0.8368000  1
  14667  14670  14671  14672     1  180.0000771  1.0460000  2
  14667  14670  14671  14672     1  0.0000000  0.7531200  3
  14667  14670  14671  14677     1  0.0000000  0.6508444  3
  14670  14667  14666  14680     1  180.0000771  0.8368000  1
  14670  14667  14666  14680     1  180.0000771  1.0460000  2
  14670  14667  14666  14680     1  0.0000000  0.7531200  3
  14670  14667  14666  14688     1  0.0000000  0.6508444  3
  14670  14671  14672  14676     1  0.0000000  0.6508444  3
  14670  14671  14672  14688     1  0.0000000  0.6508444  3
  14671  14670  14667  14679     1  0.0000000  0.6508444  3
  14672  14671  14670  14678     1  0.0000000  0.6508444  3
  14672  14688  14666  14680     1  180.0000771  0.4184000  2
  14672  14688  14666  14680     1  0.0000000  1.6024720  3
  14676  14672  14671  14677     1  0.0000000  4.9162000  2
  14676  14672  14671  14677     1  0.0000000  0.6024960  3
  14677  14671  14670  14678     1  0.0000000  4.9162000  2
  14677  14671  14670  14678     1  0.0000000  0.6024960  3
  14677  14671  14672  14688     1  0.0000000  4.9162000  2
  14677  14671  14672  14688     1  0.0000000  0.6024960  3
  14678  14670  14667  14679     1  0.0000000  4.9162000  2
  14678  14670  14667  14679     1  0.0000000  0.6024960  3
  14679  14667  14666  14680     1  0.0000000  0.6508444  3
  14679  14667  14666  14688     1  0.0000000  4.9162000  2
  14679  14667  14666  14688     1  0.0000000  0.6024960  3
  14686  14680  14666  14688     1  0.0000000  4.9162000  2
  14686  14680  14666  14688     1  0.0000000  0.6024960  3
  14689  14690  14693  14694     1  180.0000771  0.8368000  1
  14689  14690  14693  14694     1  180.0000771  1.0460000  2
  14689  14690  14693  14694     1  0.0000000  0.7531200  3
  14689  14690  14693  14701     1  0.0000000  0.6508444  3
  14689  14711  14695  14699     1  180.0000771  5.6484000  1
  14689  14711  14695  14699     1  180.0000771  3.5564000  2
  14689  14711  14695  14699     1  0.0000000  0.4184000  3
  14689  14711  14695  14694     1  180.0000771  0.4184000  2
  14689  14711  14695  14694     1  0.0000000  1.6024720  3
  14690  14693  14694  14695     1  180.0000771  0.8368000  1
  14690  14693  14694  14695     1  180.0000771  1.0460000  2
  14690  14693  14694  14695     1  0.0000000  0.7531200  3
  14690  14693  14694  14700     1  0.0000000  0.6508444  3
  14690  14689  14703  14709     1  0.0000000  0.6508444  3
  14690  14689  14711  14695     1  180.0000771  0.4184000  2
  14690  14689  14711  14695     1  0.0000000  1.6024720  3
  14693  14694  14695  14699     1  0.0000000  0.6508444  3
  14693  14694  14695  14711     1  0.0000000  0.6508444  3
  14693  14690  14689  14703     1  180.0000771  0.8368000  1
  14693  14690  14689  14703     1  180.0000771  1.0460000  2
  14693  14690  14689  14703     1  0.0000000  0.7531200  3
  14693  14690  14689  14711     1  0.0000000  0.6508444  3
  14694  14693  14690  14702     1  0.0000000  0.6508444  3
  14695  14711  14689  14703     1  180.0000771  0.4184000  2
  14695  14711  14689  14703     1  0.0000000  1.6024720  3
  14695  14694  14693  14701     1  0.0000000  0.6508444  3
  14699  14695  14694  14700     1  0.0000000  4.9162000  2
  14699  14695  14694  14700     1  0.0000000  0.6024960  3
  14700  14694  14695  14711     1  0.0000000  4.9162000  2
  14700  14694  14695  14711     1  0.0000000  0.6024960  3
  14700  14694  14693  14701     1  0.0000000  4.9162000  2
  14700  14694  14693  14701     1  0.0000000  0.6024960  3
  14701  14693  14690  14702     1  0.0000000  4.9162000  2
  14701  14693  14690  14702     1  0.0000000  0.6024960  3
  14702  14690  14689  14703     1  0.0000000  0.6508444  3
  14702  14690  14689  14711     1  0.0000000  4.9162000  2
  14702  14690  14689  14711     1  0.0000000  0.6024960  3
  14709  14703  14689  14711     1  0.0000000  4.9162000  2
  14709  14703  14689  14711     1  0.0000000  0.6024960  3
  14712  14713  14716  14717     1  180.0000771  0.8368000  1
  14712  14713  14716  14717     1  180.0000771  1.0460000  2
  14712  14713  14716  14717     1  0.0000000  0.7531200  3
  14712  14713  14716  14724     1  0.0000000  0.6508444  3
  14712  14734  14718  14717     1  180.0000771  0.4184000  2
  14712  14734  14718  14717     1  0.0000000  1.6024720  3
  14712  14734  14718  14722     1  180.0000771  5.6484000  1
  14712  14734  14718  14722     1  180.0000771  3.5564000  2
  14712  14734  14718  14722     1  0.0000000  0.4184000  3
  14713  14712  14726  14732     1  0.0000000  0.6508444  3
  14713  14712  14734  14718     1  180.0000771  0.4184000  2
  14713  14712  14734  14718     1  0.0000000  1.6024720  3
  14713  14716  14717  14718     1  180.0000771  0.8368000  1
  14713  14716  14717  14718     1  180.0000771  1.0460000  2
  14713  14716  14717  14718     1  0.0000000  0.7531200  3
  14713  14716  14717  14723     1  0.0000000  0.6508444  3
  14716  14713  14712  14726     1  180.0000771  0.8368000  1
  14716  14713  14712  14726     1  180.0000771  1.0460000  2
  14716  14713  14712  14726     1  0.0000000  0.7531200  3
  14716  14713  14712  14734     1  0.0000000  0.6508444  3
  14716  14717  14718  14722     1  0.0000000  0.6508444  3
  14716  14717  14718  14734     1  0.0000000  0.6508444  3
  14717  14716  14713  14725     1  0.0000000  0.6508444  3
  14718  14717  14716  14724     1  0.0000000  0.6508444  3
  14718  14734  14712  14726     1  180.0000771  0.4184000  2
  14718  14734  14712  14726     1  0.0000000  1.6024720  3
  14722  14718  14717  14723     1  0.0000000  4.9162000  2
  14722  14718  14717  14723     1  0.0000000  0.6024960  3
  14723  14717  14716  14724     1  0.0000000  4.9162000  2
  14723  14717  14716  14724     1  0.0000000  0.6024960  3
  14723  14717  14718  14734     1  0.0000000  4.9162000  2
  14723  14717  14718  14734     1  0.0000000  0.6024960  3
  14724  14716  14713  14725     1  0.0000000  4.9162000  2
  14724  14716  14713  14725     1  0.0000000  0.6024960  3
  14725  14713  14712  14726     1  0.0000000  0.6508444  3
  14725  14713  14712  14734     1  0.0000000  4.9162000  2
  14725  14713  14712  14734     1  0.0000000  0.6024960  3
  14732  14726  14712  14734     1  0.0000000  4.9162000  2
  14732  14726  14712  14734     1  0.0000000  0.6024960  3
  14735  14736  14739  14740     1  180.0000771  0.8368000  1
  14735  14736  14739  14740     1  180.0000771  1.0460000  2
  14735  14736  14739  14740     1  0.0000000  0.7531200  3
  14735  14736  14739  14747     1  0.0000000  0.6508444  3
  14735  14757  14741  14745     1  180.0000771  5.6484000  1
  14735  14757  14741  14745     1  180.0000771  3.5564000  2
  14735  14757  14741  14745     1  0.0000000  0.4184000  3
  14735  14757  14741  14740     1  180.0000771  0.4184000  2
  14735  14757  14741  14740     1  0.0000000  1.6024720  3
  14736  14739  14740  14741     1  180.0000771  0.8368000  1
  14736  14739  14740  14741     1  180.0000771  1.0460000  2
  14736  14739  14740  14741     1  0.0000000  0.7531200  3
  14736  14739  14740  14746     1  0.0000000  0.6508444  3
  14736  14735  14749  14755     1  0.0000000  0.6508444  3
  14736  14735  14757  14741     1  180.0000771  0.4184000  2
  14736  14735  14757  14741     1  0.0000000  1.6024720  3
  14739  14740  14741  14745     1  0.0000000  0.6508444  3
  14739  14740  14741  14757     1  0.0000000  0.6508444  3
  14739  14736  14735  14749     1  180.0000771  0.8368000  1
  14739  14736  14735  14749     1  180.0000771  1.0460000  2
  14739  14736  14735  14749     1  0.0000000  0.7531200  3
  14739  14736  14735  14757     1  0.0000000  0.6508444  3
  14740  14739  14736  14748     1  0.0000000  0.6508444  3
  14741  14757  14735  14749     1  180.0000771  0.4184000  2
  14741  14757  14735  14749     1  0.0000000  1.6024720  3
  14741  14740  14739  14747     1  0.0000000  0.6508444  3
  14745  14741  14740  14746     1  0.0000000  4.9162000  2
  14745  14741  14740  14746     1  0.0000000  0.6024960  3
  14746  14740  14741  14757     1  0.0000000  4.9162000  2
  14746  14740  14741  14757     1  0.0000000  0.6024960  3
  14746  14740  14739  14747     1  0.0000000  4.9162000  2
  14746  14740  14739  14747     1  0.0000000  0.6024960  3
  14747  14739  14736  14748     1  0.0000000  4.9162000  2
  14747  14739  14736  14748     1  0.0000000  0.6024960  3
  14748  14736  14735  14749     1  0.0000000  0.6508444  3
  14748  14736  14735  14757     1  0.0000000  4.9162000  2
  14748  14736  14735  14757     1  0.0000000  0.6024960  3
  14755  14749  14735  14757     1  0.0000000  4.9162000  2
  14755  14749  14735  14757     1  0.0000000  0.6024960  3
  14758  14759  14762  14763     1  180.0000771  0.8368000  1
  14758  14759  14762  14763     1  180.0000771  1.0460000  2
  14758  14759  14762  14763     1  0.0000000  0.7531200  3
  14758  14759  14762  14770     1  0.0000000  0.6508444  3
  14758  14780  14764  14763     1  180.0000771  0.4184000  2
  14758  14780  14764  14763     1  0.0000000  1.6024720  3
  14758  14780  14764  14768     1  180.0000771  5.6484000  1
  14758  14780  14764  14768     1  180.0000771  3.5564000  2
  14758  14780  14764  14768     1  0.0000000  0.4184000  3
  14759  14758  14772  14778     1  0.0000000  0.6508444  3
  14759  14758  14780  14764     1  180.0000771  0.4184000  2
  14759  14758  14780  14764     1  0.0000000  1.6024720  3
  14759  14762  14763  14764     1  180.0000771  0.8368000  1
  14759  14762  14763  14764     1  180.0000771  1.0460000  2
  14759  14762  14763  14764     1  0.0000000  0.7531200  3
  14759  14762  14763  14769     1  0.0000000  0.6508444  3
  14762  14759  14758  14772     1  180.0000771  0.8368000  1
  14762  14759  14758  14772     1  180.0000771  1.0460000  2
  14762  14759  14758  14772     1  0.0000000  0.7531200  3
  14762  14759  14758  14780     1  0.0000000  0.6508444  3
  14762  14763  14764  14768     1  0.0000000  0.6508444  3
  14762  14763  14764  14780     1  0.0000000  0.6508444  3
  14763  14762  14759  14771     1  0.0000000  0.6508444  3
  14764  14763  14762  14770     1  0.0000000  0.6508444  3
  14764  14780  14758  14772     1  180.0000771  0.4184000  2
  14764  14780  14758  14772     1  0.0000000  1.6024720  3
  14768  14764  14763  14769     1  0.0000000  4.9162000  2
  14768  14764  14763  14769     1  0.0000000  0.6024960  3
  14769  14763  14762  14770     1  0.0000000  4.9162000  2
  14769  14763  14762  14770     1  0.0000000  0.6024960  3
  14769  14763  14764  14780     1  0.0000000  4.9162000  2
  14769  14763  14764  14780     1  0.0000000  0.6024960  3
  14770  14762  14759  14771     1  0.0000000  4.9162000  2
  14770  14762  14759  14771     1  0.0000000  0.6024960  3
  14771  14759  14758  14772     1  0.0000000  0.6508444  3
  14771  14759  14758  14780     1  0.0000000  4.9162000  2
  14771  14759  14758  14780     1  0.0000000  0.6024960  3
  14778  14772  14758  14780     1  0.0000000  4.9162000  2
  14778  14772  14758  14780     1  0.0000000  0.6024960  3
  14781  14782  14785  14786     1  180.0000771  0.8368000  1
  14781  14782  14785  14786     1  180.0000771  1.0460000  2
  14781  14782  14785  14786     1  0.0000000  0.7531200  3
  14781  14782  14785  14793     1  0.0000000  0.6508444  3
  14781  14803  14787  14791     1  180.0000771  5.6484000  1
  14781  14803  14787  14791     1  180.0000771  3.5564000  2
  14781  14803  14787  14791     1  0.0000000  0.4184000  3
  14781  14803  14787  14786     1  180.0000771  0.4184000  2
  14781  14803  14787  14786     1  0.0000000  1.6024720  3
  14782  14785  14786  14787     1  180.0000771  0.8368000  1
  14782  14785  14786  14787     1  180.0000771  1.0460000  2
  14782  14785  14786  14787     1  0.0000000  0.7531200  3
  14782  14785  14786  14792     1  0.0000000  0.6508444  3
  14782  14781  14795  14801     1  0.0000000  0.6508444  3
  14782  14781  14803  14787     1  180.0000771  0.4184000  2
  14782  14781  14803  14787     1  0.0000000  1.6024720  3
  14785  14786  14787  14791     1  0.0000000  0.6508444  3
  14785  14786  14787  14803     1  0.0000000  0.6508444  3
  14785  14782  14781  14795     1  180.0000771  0.8368000  1
  14785  14782  14781  14795     1  180.0000771  1.0460000  2
  14785  14782  14781  14795     1  0.0000000  0.7531200  3
  14785  14782  14781  14803     1  0.0000000  0.6508444  3
  14786  14785  14782  14794     1  0.0000000  0.6508444  3
  14787  14803  14781  14795     1  180.0000771  0.4184000  2
  14787  14803  14781  14795     1  0.0000000  1.6024720  3
  14787  14786  14785  14793     1  0.0000000  0.6508444  3
  14791  14787  14786  14792     1  0.0000000  4.9162000  2
  14791  14787  14786  14792     1  0.0000000  0.6024960  3
  14792  14786  14787  14803     1  0.0000000  4.9162000  2
  14792  14786  14787  14803     1  0.0000000  0.6024960  3
  14792  14786  14785  14793     1  0.0000000  4.9162000  2
  14792  14786  14785  14793     1  0.0000000  0.6024960  3
  14793  14785  14782  14794     1  0.0000000  4.9162000  2
  14793  14785  14782  14794     1  0.0000000  0.6024960  3
  14794  14782  14781  14795     1  0.0000000  0.6508444  3
  14794  14782  14781  14803     1  0.0000000  4.9162000  2
  14794  14782  14781  14803     1  0.0000000  0.6024960  3
  14801  14795  14781  14803     1  0.0000000  4.9162000  2
  14801  14795  14781  14803     1  0.0000000  0.6024960  3
  14804  14805  14808  14809     1  180.0000771  0.8368000  1
  14804  14805  14808  14809     1  180.0000771  1.0460000  2
  14804  14805  14808  14809     1  0.0000000  0.7531200  3
  14804  14805  14808  14816     1  0.0000000  0.6508444  3
  14804  14826  14810  14809     1  180.0000771  0.4184000  2
  14804  14826  14810  14809     1  0.0000000  1.6024720  3
  14804  14826  14810  14814     1  180.0000771  5.6484000  1
  14804  14826  14810  14814     1  180.0000771  3.5564000  2
  14804  14826  14810  14814     1  0.0000000  0.4184000  3
  14805  14804  14818  14824     1  0.0000000  0.6508444  3
  14805  14804  14826  14810     1  180.0000771  0.4184000  2
  14805  14804  14826  14810     1  0.0000000  1.6024720  3
  14805  14808  14809  14810     1  180.0000771  0.8368000  1
  14805  14808  14809  14810     1  180.0000771  1.0460000  2
  14805  14808  14809  14810     1  0.0000000  0.7531200  3
  14805  14808  14809  14815     1  0.0000000  0.6508444  3
  14808  14805  14804  14818     1  180.0000771  0.8368000  1
  14808  14805  14804  14818     1  180.0000771  1.0460000  2
  14808  14805  14804  14818     1  0.0000000  0.7531200  3
  14808  14805  14804  14826     1  0.0000000  0.6508444  3
  14808  14809  14810  14814     1  0.0000000  0.6508444  3
  14808  14809  14810  14826     1  0.0000000  0.6508444  3
  14809  14808  14805  14817     1  0.0000000  0.6508444  3
  14810  14809  14808  14816     1  0.0000000  0.6508444  3
  14810  14826  14804  14818     1  180.0000771  0.4184000  2
  14810  14826  14804  14818     1  0.0000000  1.6024720  3
  14814  14810  14809  14815     1  0.0000000  4.9162000  2
  14814  14810  14809  14815     1  0.0000000  0.6024960  3
  14815  14809  14808  14816     1  0.0000000  4.9162000  2
  14815  14809  14808  14816     1  0.0000000  0.6024960  3
  14815  14809  14810  14826     1  0.0000000  4.9162000  2
  14815  14809  14810  14826     1  0.0000000  0.6024960  3
  14816  14808  14805  14817     1  0.0000000  4.9162000  2
  14816  14808  14805  14817     1  0.0000000  0.6024960  3
  14817  14805  14804  14818     1  0.0000000  0.6508444  3
  14817  14805  14804  14826     1  0.0000000  4.9162000  2
  14817  14805  14804  14826     1  0.0000000  0.6024960  3
  14824  14818  14804  14826     1  0.0000000  4.9162000  2
  14824  14818  14804  14826     1  0.0000000  0.6024960  3
  14827  14828  14831  14832     1  180.0000771  0.8368000  1
  14827  14828  14831  14832     1  180.0000771  1.0460000  2
  14827  14828  14831  14832     1  0.0000000  0.7531200  3
  14827  14828  14831  14839     1  0.0000000  0.6508444  3
  14827  14849  14833  14837     1  180.0000771  5.6484000  1
  14827  14849  14833  14837     1  180.0000771  3.5564000  2
  14827  14849  14833  14837     1  0.0000000  0.4184000  3
  14827  14849  14833  14832     1  180.0000771  0.4184000  2
  14827  14849  14833  14832     1  0.0000000  1.6024720  3
  14828  14831  14832  14833     1  180.0000771  0.8368000  1
  14828  14831  14832  14833     1  180.0000771  1.0460000  2
  14828  14831  14832  14833     1  0.0000000  0.7531200  3
  14828  14831  14832  14838     1  0.0000000  0.6508444  3
  14828  14827  14841  14847     1  0.0000000  0.6508444  3
  14828  14827  14849  14833     1  180.0000771  0.4184000  2
  14828  14827  14849  14833     1  0.0000000  1.6024720  3
  14831  14832  14833  14837     1  0.0000000  0.6508444  3
  14831  14832  14833  14849     1  0.0000000  0.6508444  3
  14831  14828  14827  14841     1  180.0000771  0.8368000  1
  14831  14828  14827  14841     1  180.0000771  1.0460000  2
  14831  14828  14827  14841     1  0.0000000  0.7531200  3
  14831  14828  14827  14849     1  0.0000000  0.6508444  3
  14832  14831  14828  14840     1  0.0000000  0.6508444  3
  14833  14849  14827  14841     1  180.0000771  0.4184000  2
  14833  14849  14827  14841     1  0.0000000  1.6024720  3
  14833  14832  14831  14839     1  0.0000000  0.6508444  3
  14837  14833  14832  14838     1  0.0000000  4.9162000  2
  14837  14833  14832  14838     1  0.0000000  0.6024960  3
  14838  14832  14833  14849     1  0.0000000  4.9162000  2
  14838  14832  14833  14849     1  0.0000000  0.6024960  3
  14838  14832  14831  14839     1  0.0000000  4.9162000  2
  14838  14832  14831  14839     1  0.0000000  0.6024960  3
  14839  14831  14828  14840     1  0.0000000  4.9162000  2
  14839  14831  14828  14840     1  0.0000000  0.6024960  3
  14840  14828  14827  14841     1  0.0000000  0.6508444  3
  14840  14828  14827  14849     1  0.0000000  4.9162000  2
  14840  14828  14827  14849     1  0.0000000  0.6024960  3
  14847  14841  14827  14849     1  0.0000000  4.9162000  2
  14847  14841  14827  14849     1  0.0000000  0.6024960  3
  14850  14851  14854  14855     1  180.0000771  0.8368000  1
  14850  14851  14854  14855     1  180.0000771  1.0460000  2
  14850  14851  14854  14855     1  0.0000000  0.7531200  3
  14850  14851  14854  14862     1  0.0000000  0.6508444  3
  14850  14872  14856  14855     1  180.0000771  0.4184000  2
  14850  14872  14856  14855     1  0.0000000  1.6024720  3
  14850  14872  14856  14860     1  180.0000771  5.6484000  1
  14850  14872  14856  14860     1  180.0000771  3.5564000  2
  14850  14872  14856  14860     1  0.0000000  0.4184000  3
  14851  14850  14864  14870     1  0.0000000  0.6508444  3
  14851  14850  14872  14856     1  180.0000771  0.4184000  2
  14851  14850  14872  14856     1  0.0000000  1.6024720  3
  14851  14854  14855  14856     1  180.0000771  0.8368000  1
  14851  14854  14855  14856     1  180.0000771  1.0460000  2
  14851  14854  14855  14856     1  0.0000000  0.7531200  3
  14851  14854  14855  14861     1  0.0000000  0.6508444  3
  14854  14851  14850  14864     1  180.0000771  0.8368000  1
  14854  14851  14850  14864     1  180.0000771  1.0460000  2
  14854  14851  14850  14864     1  0.0000000  0.7531200  3
  14854  14851  14850  14872     1  0.0000000  0.6508444  3
  14854  14855  14856  14860     1  0.0000000  0.6508444  3
  14854  14855  14856  14872     1  0.0000000  0.6508444  3
  14855  14854  14851  14863     1  0.0000000  0.6508444  3
  14856  14855  14854  14862     1  0.0000000  0.6508444  3
  14856  14872  14850  14864     1  180.0000771  0.4184000  2
  14856  14872  14850  14864     1  0.0000000  1.6024720  3
  14860  14856  14855  14861     1  0.0000000  4.9162000  2
  14860  14856  14855  14861     1  0.0000000  0.6024960  3
  14861  14855  14854  14862     1  0.0000000  4.9162000  2
  14861  14855  14854  14862     1  0.0000000  0.6024960  3
  14861  14855  14856  14872     1  0.0000000  4.9162000  2
  14861  14855  14856  14872     1  0.0000000  0.6024960  3
  14862  14854  14851  14863     1  0.0000000  4.9162000  2
  14862  14854  14851  14863     1  0.0000000  0.6024960  3
  14863  14851  14850  14864     1  0.0000000  0.6508444  3
  14863  14851  14850  14872     1  0.0000000  4.9162000  2
  14863  14851  14850  14872     1  0.0000000  0.6024960  3
  14870  14864  14850  14872     1  0.0000000  4.9162000  2
  14870  14864  14850  14872     1  0.0000000  0.6024960  3
  14873  14874  14877  14878     1  180.0000771  0.8368000  1
  14873  14874  14877  14878     1  180.0000771  1.0460000  2
  14873  14874  14877  14878     1  0.0000000  0.7531200  3
  14873  14874  14877  14885     1  0.0000000  0.6508444  3
  14873  14895  14879  14883     1  180.0000771  5.6484000  1
  14873  14895  14879  14883     1  180.0000771  3.5564000  2
  14873  14895  14879  14883     1  0.0000000  0.4184000  3
  14873  14895  14879  14878     1  180.0000771  0.4184000  2
  14873  14895  14879  14878     1  0.0000000  1.6024720  3
  14874  14877  14878  14879     1  180.0000771  0.8368000  1
  14874  14877  14878  14879     1  180.0000771  1.0460000  2
  14874  14877  14878  14879     1  0.0000000  0.7531200  3
  14874  14877  14878  14884     1  0.0000000  0.6508444  3
  14874  14873  14887  14893     1  0.0000000  0.6508444  3
  14874  14873  14895  14879     1  180.0000771  0.4184000  2
  14874  14873  14895  14879     1  0.0000000  1.6024720  3
  14877  14878  14879  14883     1  0.0000000  0.6508444  3
  14877  14878  14879  14895     1  0.0000000  0.6508444  3
  14877  14874  14873  14887     1  180.0000771  0.8368000  1
  14877  14874  14873  14887     1  180.0000771  1.0460000  2
  14877  14874  14873  14887     1  0.0000000  0.7531200  3
  14877  14874  14873  14895     1  0.0000000  0.6508444  3
  14878  14877  14874  14886     1  0.0000000  0.6508444  3
  14879  14895  14873  14887     1  180.0000771  0.4184000  2
  14879  14895  14873  14887     1  0.0000000  1.6024720  3
  14879  14878  14877  14885     1  0.0000000  0.6508444  3
  14883  14879  14878  14884     1  0.0000000  4.9162000  2
  14883  14879  14878  14884     1  0.0000000  0.6024960  3
  14884  14878  14879  14895     1  0.0000000  4.9162000  2
  14884  14878  14879  14895     1  0.0000000  0.6024960  3
  14884  14878  14877  14885     1  0.0000000  4.9162000  2
  14884  14878  14877  14885     1  0.0000000  0.6024960  3
  14885  14877  14874  14886     1  0.0000000  4.9162000  2
  14885  14877  14874  14886     1  0.0000000  0.6024960  3
  14886  14874  14873  14887     1  0.0000000  0.6508444  3
  14886  14874  14873  14895     1  0.0000000  4.9162000  2
  14886  14874  14873  14895     1  0.0000000  0.6024960  3
  14893  14887  14873  14895     1  0.0000000  4.9162000  2
  14893  14887  14873  14895     1  0.0000000  0.6024960  3
  14896  14897  14900  14901     1  180.0000771  0.8368000  1
  14896  14897  14900  14901     1  180.0000771  1.0460000  2
  14896  14897  14900  14901     1  0.0000000  0.7531200  3
  14896  14897  14900  14908     1  0.0000000  0.6508444  3
  14896  14918  14902  14901     1  180.0000771  0.4184000  2
  14896  14918  14902  14901     1  0.0000000  1.6024720  3
  14896  14918  14902  14906     1  180.0000771  5.6484000  1
  14896  14918  14902  14906     1  180.0000771  3.5564000  2
  14896  14918  14902  14906     1  0.0000000  0.4184000  3
  14897  14896  14910  14916     1  0.0000000  0.6508444  3
  14897  14896  14918  14902     1  180.0000771  0.4184000  2
  14897  14896  14918  14902     1  0.0000000  1.6024720  3
  14897  14900  14901  14902     1  180.0000771  0.8368000  1
  14897  14900  14901  14902     1  180.0000771  1.0460000  2
  14897  14900  14901  14902     1  0.0000000  0.7531200  3
  14897  14900  14901  14907     1  0.0000000  0.6508444  3
  14900  14897  14896  14910     1  180.0000771  0.8368000  1
  14900  14897  14896  14910     1  180.0000771  1.0460000  2
  14900  14897  14896  14910     1  0.0000000  0.7531200  3
  14900  14897  14896  14918     1  0.0000000  0.6508444  3
  14900  14901  14902  14906     1  0.0000000  0.6508444  3
  14900  14901  14902  14918     1  0.0000000  0.6508444  3
  14901  14900  14897  14909     1  0.0000000  0.6508444  3
  14902  14901  14900  14908     1  0.0000000  0.6508444  3
  14902  14918  14896  14910     1  180.0000771  0.4184000  2
  14902  14918  14896  14910     1  0.0000000  1.6024720  3
  14906  14902  14901  14907     1  0.0000000  4.9162000  2
  14906  14902  14901  14907     1  0.0000000  0.6024960  3
  14907  14901  14900  14908     1  0.0000000  4.9162000  2
  14907  14901  14900  14908     1  0.0000000  0.6024960  3
  14907  14901  14902  14918     1  0.0000000  4.9162000  2
  14907  14901  14902  14918     1  0.0000000  0.6024960  3
  14908  14900  14897  14909     1  0.0000000  4.9162000  2
  14908  14900  14897  14909     1  0.0000000  0.6024960  3
  14909  14897  14896  14910     1  0.0000000  0.6508444  3
  14909  14897  14896  14918     1  0.0000000  4.9162000  2
  14909  14897  14896  14918     1  0.0000000  0.6024960  3
  14916  14910  14896  14918     1  0.0000000  4.9162000  2
  14916  14910  14896  14918     1  0.0000000  0.6024960  3
  14919  14920  14923  14924     1  180.0000771  0.8368000  1
  14919  14920  14923  14924     1  180.0000771  1.0460000  2
  14919  14920  14923  14924     1  0.0000000  0.7531200  3
  14919  14920  14923  14931     1  0.0000000  0.6508444  3
  14919  14941  14925  14929     1  180.0000771  5.6484000  1
  14919  14941  14925  14929     1  180.0000771  3.5564000  2
  14919  14941  14925  14929     1  0.0000000  0.4184000  3
  14919  14941  14925  14924     1  180.0000771  0.4184000  2
  14919  14941  14925  14924     1  0.0000000  1.6024720  3
  14920  14923  14924  14925     1  180.0000771  0.8368000  1
  14920  14923  14924  14925     1  180.0000771  1.0460000  2
  14920  14923  14924  14925     1  0.0000000  0.7531200  3
  14920  14923  14924  14930     1  0.0000000  0.6508444  3
  14920  14919  14933  14939     1  0.0000000  0.6508444  3
  14920  14919  14941  14925     1  180.0000771  0.4184000  2
  14920  14919  14941  14925     1  0.0000000  1.6024720  3
  14923  14924  14925  14929     1  0.0000000  0.6508444  3
  14923  14924  14925  14941     1  0.0000000  0.6508444  3
  14923  14920  14919  14933     1  180.0000771  0.8368000  1
  14923  14920  14919  14933     1  180.0000771  1.0460000  2
  14923  14920  14919  14933     1  0.0000000  0.7531200  3
  14923  14920  14919  14941     1  0.0000000  0.6508444  3
  14924  14923  14920  14932     1  0.0000000  0.6508444  3
  14925  14941  14919  14933     1  180.0000771  0.4184000  2
  14925  14941  14919  14933     1  0.0000000  1.6024720  3
  14925  14924  14923  14931     1  0.0000000  0.6508444  3
  14929  14925  14924  14930     1  0.0000000  4.9162000  2
  14929  14925  14924  14930     1  0.0000000  0.6024960  3
  14930  14924  14925  14941     1  0.0000000  4.9162000  2
  14930  14924  14925  14941     1  0.0000000  0.6024960  3
  14930  14924  14923  14931     1  0.0000000  4.9162000  2
  14930  14924  14923  14931     1  0.0000000  0.6024960  3
  14931  14923  14920  14932     1  0.0000000  4.9162000  2
  14931  14923  14920  14932     1  0.0000000  0.6024960  3
  14932  14920  14919  14933     1  0.0000000  0.6508444  3
  14932  14920  14919  14941     1  0.0000000  4.9162000  2
  14932  14920  14919  14941     1  0.0000000  0.6024960  3
  14939  14933  14919  14941     1  0.0000000  4.9162000  2
  14939  14933  14919  14941     1  0.0000000  0.6024960  3
  14942  14943  14946  14947     1  180.0000771  0.8368000  1
  14942  14943  14946  14947     1  180.0000771  1.0460000  2
  14942  14943  14946  14947     1  0.0000000  0.7531200  3
  14942  14943  14946  14954     1  0.0000000  0.6508444  3
  14942  14964  14948  14947     1  180.0000771  0.4184000  2
  14942  14964  14948  14947     1  0.0000000  1.6024720  3
  14942  14964  14948  14952     1  180.0000771  5.6484000  1
  14942  14964  14948  14952     1  180.0000771  3.5564000  2
  14942  14964  14948  14952     1  0.0000000  0.4184000  3
  14943  14942  14956  14962     1  0.0000000  0.6508444  3
  14943  14942  14964  14948     1  180.0000771  0.4184000  2
  14943  14942  14964  14948     1  0.0000000  1.6024720  3
  14943  14946  14947  14948     1  180.0000771  0.8368000  1
  14943  14946  14947  14948     1  180.0000771  1.0460000  2
  14943  14946  14947  14948     1  0.0000000  0.7531200  3
  14943  14946  14947  14953     1  0.0000000  0.6508444  3
  14946  14943  14942  14956     1  180.0000771  0.8368000  1
  14946  14943  14942  14956     1  180.0000771  1.0460000  2
  14946  14943  14942  14956     1  0.0000000  0.7531200  3
  14946  14943  14942  14964     1  0.0000000  0.6508444  3
  14946  14947  14948  14952     1  0.0000000  0.6508444  3
  14946  14947  14948  14964     1  0.0000000  0.6508444  3
  14947  14946  14943  14955     1  0.0000000  0.6508444  3
  14948  14947  14946  14954     1  0.0000000  0.6508444  3
  14948  14964  14942  14956     1  180.0000771  0.4184000  2
  14948  14964  14942  14956     1  0.0000000  1.6024720  3
  14952  14948  14947  14953     1  0.0000000  4.9162000  2
  14952  14948  14947  14953     1  0.0000000  0.6024960  3
  14953  14947  14946  14954     1  0.0000000  4.9162000  2
  14953  14947  14946  14954     1  0.0000000  0.6024960  3
  14953  14947  14948  14964     1  0.0000000  4.9162000  2
  14953  14947  14948  14964     1  0.0000000  0.6024960  3
  14954  14946  14943  14955     1  0.0000000  4.9162000  2
  14954  14946  14943  14955     1  0.0000000  0.6024960  3
  14955  14943  14942  14956     1  0.0000000  0.6508444  3
  14955  14943  14942  14964     1  0.0000000  4.9162000  2
  14955  14943  14942  14964     1  0.0000000  0.6024960  3
  14962  14956  14942  14964     1  0.0000000  4.9162000  2
  14962  14956  14942  14964     1  0.0000000  0.6024960  3
  14965  14966  14969  14970     1  180.0000771  0.8368000  1
  14965  14966  14969  14970     1  180.0000771  1.0460000  2
  14965  14966  14969  14970     1  0.0000000  0.7531200  3
  14965  14966  14969  14977     1  0.0000000  0.6508444  3
  14965  14987  14971  14975     1  180.0000771  5.6484000  1
  14965  14987  14971  14975     1  180.0000771  3.5564000  2
  14965  14987  14971  14975     1  0.0000000  0.4184000  3
  14965  14987  14971  14970     1  180.0000771  0.4184000  2
  14965  14987  14971  14970     1  0.0000000  1.6024720  3
  14966  14969  14970  14971     1  180.0000771  0.8368000  1
  14966  14969  14970  14971     1  180.0000771  1.0460000  2
  14966  14969  14970  14971     1  0.0000000  0.7531200  3
  14966  14969  14970  14976     1  0.0000000  0.6508444  3
  14966  14965  14979  14985     1  0.0000000  0.6508444  3
  14966  14965  14987  14971     1  180.0000771  0.4184000  2
  14966  14965  14987  14971     1  0.0000000  1.6024720  3
  14969  14970  14971  14975     1  0.0000000  0.6508444  3
  14969  14970  14971  14987     1  0.0000000  0.6508444  3
  14969  14966  14965  14979     1  180.0000771  0.8368000  1
  14969  14966  14965  14979     1  180.0000771  1.0460000  2
  14969  14966  14965  14979     1  0.0000000  0.7531200  3
  14969  14966  14965  14987     1  0.0000000  0.6508444  3
  14970  14969  14966  14978     1  0.0000000  0.6508444  3
  14971  14987  14965  14979     1  180.0000771  0.4184000  2
  14971  14987  14965  14979     1  0.0000000  1.6024720  3
  14971  14970  14969  14977     1  0.0000000  0.6508444  3
  14975  14971  14970  14976     1  0.0000000  4.9162000  2
  14975  14971  14970  14976     1  0.0000000  0.6024960  3
  14976  14970  14971  14987     1  0.0000000  4.9162000  2
  14976  14970  14971  14987     1  0.0000000  0.6024960  3
  14976  14970  14969  14977     1  0.0000000  4.9162000  2
  14976  14970  14969  14977     1  0.0000000  0.6024960  3
  14977  14969  14966  14978     1  0.0000000  4.9162000  2
  14977  14969  14966  14978     1  0.0000000  0.6024960  3
  14978  14966  14965  14979     1  0.0000000  0.6508444  3
  14978  14966  14965  14987     1  0.0000000  4.9162000  2
  14978  14966  14965  14987     1  0.0000000  0.6024960  3
  14985  14979  14965  14987     1  0.0000000  4.9162000  2
  14985  14979  14965  14987     1  0.0000000  0.6024960  3
  14988  14989  14992  14993     1  180.0000771  0.8368000  1
  14988  14989  14992  14993     1  180.0000771  1.0460000  2
  14988  14989  14992  14993     1  0.0000000  0.7531200  3
  14988  14989  14992  15000     1  0.0000000  0.6508444  3
  14988  15010  14994  14993     1  180.0000771  0.4184000  2
  14988  15010  14994  14993     1  0.0000000  1.6024720  3
  14988  15010  14994  14998     1  180.0000771  5.6484000  1
  14988  15010  14994  14998     1  180.0000771  3.5564000  2
  14988  15010  14994  14998     1  0.0000000  0.4184000  3
  14989  14988  15002  15008     1  0.0000000  0.6508444  3
  14989  14988  15010  14994     1  180.0000771  0.4184000  2
  14989  14988  15010  14994     1  0.0000000  1.6024720  3
  14989  14992  14993  14994     1  180.0000771  0.8368000  1
  14989  14992  14993  14994     1  180.0000771  1.0460000  2
  14989  14992  14993  14994     1  0.0000000  0.7531200  3
  14989  14992  14993  14999     1  0.0000000  0.6508444  3
  14992  14989  14988  15002     1  180.0000771  0.8368000  1
  14992  14989  14988  15002     1  180.0000771  1.0460000  2
  14992  14989  14988  15002     1  0.0000000  0.7531200  3
  14992  14989  14988  15010     1  0.0000000  0.6508444  3
  14992  14993  14994  14998     1  0.0000000  0.6508444  3
  14992  14993  14994  15010     1  0.0000000  0.6508444  3
  14993  14992  14989  15001     1  0.0000000  0.6508444  3
  14994  14993  14992  15000     1  0.0000000  0.6508444  3
  14994  15010  14988  15002     1  180.0000771  0.4184000  2
  14994  15010  14988  15002     1  0.0000000  1.6024720  3
  14998  14994  14993  14999     1  0.0000000  4.9162000  2
  14998  14994  14993  14999     1  0.0000000  0.6024960  3
  14999  14993  14992  15000     1  0.0000000  4.9162000  2
  14999  14993  14992  15000     1  0.0000000  0.6024960  3
  14999  14993  14994  15010     1  0.0000000  4.9162000  2
  14999  14993  14994  15010     1  0.0000000  0.6024960  3
  15000  14992  14989  15001     1  0.0000000  4.9162000  2
  15000  14992  14989  15001     1  0.0000000  0.6024960  3
  15001  14989  14988  15002     1  0.0000000  0.6508444  3
  15001  14989  14988  15010     1  0.0000000  4.9162000  2
  15001  14989  14988  15010     1  0.0000000  0.6024960  3
  15008  15002  14988  15010     1  0.0000000  4.9162000  2
  15008  15002  14988  15010     1  0.0000000  0.6024960  3
  15011  15012  15015  15016     1  180.0000771  0.8368000  1
  15011  15012  15015  15016     1  180.0000771  1.0460000  2
  15011  15012  15015  15016     1  0.0000000  0.7531200  3
  15011  15012  15015  15023     1  0.0000000  0.6508444  3
  15011  15033  15017  15021     1  180.0000771  5.6484000  1
  15011  15033  15017  15021     1  180.0000771  3.5564000  2
  15011  15033  15017  15021     1  0.0000000  0.4184000  3
  15011  15033  15017  15016     1  180.0000771  0.4184000  2
  15011  15033  15017  15016     1  0.0000000  1.6024720  3
  15012  15015  15016  15017     1  180.0000771  0.8368000  1
  15012  15015  15016  15017     1  180.0000771  1.0460000  2
  15012  15015  15016  15017     1  0.0000000  0.7531200  3
  15012  15015  15016  15022     1  0.0000000  0.6508444  3
  15012  15011  15025  15031     1  0.0000000  0.6508444  3
  15012  15011  15033  15017     1  180.0000771  0.4184000  2
  15012  15011  15033  15017     1  0.0000000  1.6024720  3
  15015  15016  15017  15021     1  0.0000000  0.6508444  3
  15015  15016  15017  15033     1  0.0000000  0.6508444  3
  15015  15012  15011  15025     1  180.0000771  0.8368000  1
  15015  15012  15011  15025     1  180.0000771  1.0460000  2
  15015  15012  15011  15025     1  0.0000000  0.7531200  3
  15015  15012  15011  15033     1  0.0000000  0.6508444  3
  15016  15015  15012  15024     1  0.0000000  0.6508444  3
  15017  15033  15011  15025     1  180.0000771  0.4184000  2
  15017  15033  15011  15025     1  0.0000000  1.6024720  3
  15017  15016  15015  15023     1  0.0000000  0.6508444  3
  15021  15017  15016  15022     1  0.0000000  4.9162000  2
  15021  15017  15016  15022     1  0.0000000  0.6024960  3
  15022  15016  15017  15033     1  0.0000000  4.9162000  2
  15022  15016  15017  15033     1  0.0000000  0.6024960  3
  15022  15016  15015  15023     1  0.0000000  4.9162000  2
  15022  15016  15015  15023     1  0.0000000  0.6024960  3
  15023  15015  15012  15024     1  0.0000000  4.9162000  2
  15023  15015  15012  15024     1  0.0000000  0.6024960  3
  15024  15012  15011  15025     1  0.0000000  0.6508444  3
  15024  15012  15011  15033     1  0.0000000  4.9162000  2
  15024  15012  15011  15033     1  0.0000000  0.6024960  3
  15031  15025  15011  15033     1  0.0000000  4.9162000  2
  15031  15025  15011  15033     1  0.0000000  0.6024960  3
  15034  15035  15038  15039     1  180.0000771  0.8368000  1
  15034  15035  15038  15039     1  180.0000771  1.0460000  2
  15034  15035  15038  15039     1  0.0000000  0.7531200  3
  15034  15035  15038  15046     1  0.0000000  0.6508444  3
  15034  15056  15040  15039     1  180.0000771  0.4184000  2
  15034  15056  15040  15039     1  0.0000000  1.6024720  3
  15034  15056  15040  15044     1  180.0000771  5.6484000  1
  15034  15056  15040  15044     1  180.0000771  3.5564000  2
  15034  15056  15040  15044     1  0.0000000  0.4184000  3
  15035  15034  15048  15054     1  0.0000000  0.6508444  3
  15035  15034  15056  15040     1  180.0000771  0.4184000  2
  15035  15034  15056  15040     1  0.0000000  1.6024720  3
  15035  15038  15039  15040     1  180.0000771  0.8368000  1
  15035  15038  15039  15040     1  180.0000771  1.0460000  2
  15035  15038  15039  15040     1  0.0000000  0.7531200  3
  15035  15038  15039  15045     1  0.0000000  0.6508444  3
  15038  15035  15034  15048     1  180.0000771  0.8368000  1
  15038  15035  15034  15048     1  180.0000771  1.0460000  2
  15038  15035  15034  15048     1  0.0000000  0.7531200  3
  15038  15035  15034  15056     1  0.0000000  0.6508444  3
  15038  15039  15040  15044     1  0.0000000  0.6508444  3
  15038  15039  15040  15056     1  0.0000000  0.6508444  3
  15039  15038  15035  15047     1  0.0000000  0.6508444  3
  15040  15039  15038  15046     1  0.0000000  0.6508444  3
  15040  15056  15034  15048     1  180.0000771  0.4184000  2
  15040  15056  15034  15048     1  0.0000000  1.6024720  3
  15044  15040  15039  15045     1  0.0000000  4.9162000  2
  15044  15040  15039  15045     1  0.0000000  0.6024960  3
  15045  15039  15038  15046     1  0.0000000  4.9162000  2
  15045  15039  15038  15046     1  0.0000000  0.6024960  3
  15045  15039  15040  15056     1  0.0000000  4.9162000  2
  15045  15039  15040  15056     1  0.0000000  0.6024960  3
  15046  15038  15035  15047     1  0.0000000  4.9162000  2
  15046  15038  15035  15047     1  0.0000000  0.6024960  3
  15047  15035  15034  15048     1  0.0000000  0.6508444  3
  15047  15035  15034  15056     1  0.0000000  4.9162000  2
  15047  15035  15034  15056     1  0.0000000  0.6024960  3
  15054  15048  15034  15056     1  0.0000000  4.9162000  2
  15054  15048  15034  15056     1  0.0000000  0.6024960  3
  15057  15058  15061  15062     1  180.0000771  0.8368000  1
  15057  15058  15061  15062     1  180.0000771  1.0460000  2
  15057  15058  15061  15062     1  0.0000000  0.7531200  3
  15057  15058  15061  15069     1  0.0000000  0.6508444  3
  15057  15079  15063  15067     1  180.0000771  5.6484000  1
  15057  15079  15063  15067     1  180.0000771  3.5564000  2
  15057  15079  15063  15067     1  0.0000000  0.4184000  3
  15057  15079  15063  15062     1  180.0000771  0.4184000  2
  15057  15079  15063  15062     1  0.0000000  1.6024720  3
  15058  15061  15062  15063     1  180.0000771  0.8368000  1
  15058  15061  15062  15063     1  180.0000771  1.0460000  2
  15058  15061  15062  15063     1  0.0000000  0.7531200  3
  15058  15061  15062  15068     1  0.0000000  0.6508444  3
  15058  15057  15071  15077     1  0.0000000  0.6508444  3
  15058  15057  15079  15063     1  180.0000771  0.4184000  2
  15058  15057  15079  15063     1  0.0000000  1.6024720  3
  15061  15062  15063  15067     1  0.0000000  0.6508444  3
  15061  15062  15063  15079     1  0.0000000  0.6508444  3
  15061  15058  15057  15071     1  180.0000771  0.8368000  1
  15061  15058  15057  15071     1  180.0000771  1.0460000  2
  15061  15058  15057  15071     1  0.0000000  0.7531200  3
  15061  15058  15057  15079     1  0.0000000  0.6508444  3
  15062  15061  15058  15070     1  0.0000000  0.6508444  3
  15063  15079  15057  15071     1  180.0000771  0.4184000  2
  15063  15079  15057  15071     1  0.0000000  1.6024720  3
  15063  15062  15061  15069     1  0.0000000  0.6508444  3
  15067  15063  15062  15068     1  0.0000000  4.9162000  2
  15067  15063  15062  15068     1  0.0000000  0.6024960  3
  15068  15062  15063  15079     1  0.0000000  4.9162000  2
  15068  15062  15063  15079     1  0.0000000  0.6024960  3
  15068  15062  15061  15069     1  0.0000000  4.9162000  2
  15068  15062  15061  15069     1  0.0000000  0.6024960  3
  15069  15061  15058  15070     1  0.0000000  4.9162000  2
  15069  15061  15058  15070     1  0.0000000  0.6024960  3
  15070  15058  15057  15071     1  0.0000000  0.6508444  3
  15070  15058  15057  15079     1  0.0000000  4.9162000  2
  15070  15058  15057  15079     1  0.0000000  0.6024960  3
  15077  15071  15057  15079     1  0.0000000  4.9162000  2
  15077  15071  15057  15079     1  0.0000000  0.6024960  3
  15080  15081  15084  15085     1  180.0000771  0.8368000  1
  15080  15081  15084  15085     1  180.0000771  1.0460000  2
  15080  15081  15084  15085     1  0.0000000  0.7531200  3
  15080  15081  15084  15092     1  0.0000000  0.6508444  3
  15080  15102  15086  15085     1  180.0000771  0.4184000  2
  15080  15102  15086  15085     1  0.0000000  1.6024720  3
  15080  15102  15086  15090     1  180.0000771  5.6484000  1
  15080  15102  15086  15090     1  180.0000771  3.5564000  2
  15080  15102  15086  15090     1  0.0000000  0.4184000  3
  15081  15080  15094  15100     1  0.0000000  0.6508444  3
  15081  15080  15102  15086     1  180.0000771  0.4184000  2
  15081  15080  15102  15086     1  0.0000000  1.6024720  3
  15081  15084  15085  15086     1  180.0000771  0.8368000  1
  15081  15084  15085  15086     1  180.0000771  1.0460000  2
  15081  15084  15085  15086     1  0.0000000  0.7531200  3
  15081  15084  15085  15091     1  0.0000000  0.6508444  3
  15084  15081  15080  15094     1  180.0000771  0.8368000  1
  15084  15081  15080  15094     1  180.0000771  1.0460000  2
  15084  15081  15080  15094     1  0.0000000  0.7531200  3
  15084  15081  15080  15102     1  0.0000000  0.6508444  3
  15084  15085  15086  15090     1  0.0000000  0.6508444  3
  15084  15085  15086  15102     1  0.0000000  0.6508444  3
  15085  15084  15081  15093     1  0.0000000  0.6508444  3
  15086  15085  15084  15092     1  0.0000000  0.6508444  3
  15086  15102  15080  15094     1  180.0000771  0.4184000  2
  15086  15102  15080  15094     1  0.0000000  1.6024720  3
  15090  15086  15085  15091     1  0.0000000  4.9162000  2
  15090  15086  15085  15091     1  0.0000000  0.6024960  3
  15091  15085  15084  15092     1  0.0000000  4.9162000  2
  15091  15085  15084  15092     1  0.0000000  0.6024960  3
  15091  15085  15086  15102     1  0.0000000  4.9162000  2
  15091  15085  15086  15102     1  0.0000000  0.6024960  3
  15092  15084  15081  15093     1  0.0000000  4.9162000  2
  15092  15084  15081  15093     1  0.0000000  0.6024960  3
  15093  15081  15080  15094     1  0.0000000  0.6508444  3
  15093  15081  15080  15102     1  0.0000000  4.9162000  2
  15093  15081  15080  15102     1  0.0000000  0.6024960  3
  15100  15094  15080  15102     1  0.0000000  4.9162000  2
  15100  15094  15080  15102     1  0.0000000  0.6024960  3
  15103  15104  15107  15108     1  180.0000771  0.8368000  1
  15103  15104  15107  15108     1  180.0000771  1.0460000  2
  15103  15104  15107  15108     1  0.0000000  0.7531200  3
  15103  15104  15107  15115     1  0.0000000  0.6508444  3
  15103  15125  15109  15113     1  180.0000771  5.6484000  1
  15103  15125  15109  15113     1  180.0000771  3.5564000  2
  15103  15125  15109  15113     1  0.0000000  0.4184000  3
  15103  15125  15109  15108     1  180.0000771  0.4184000  2
  15103  15125  15109  15108     1  0.0000000  1.6024720  3
  15104  15107  15108  15109     1  180.0000771  0.8368000  1
  15104  15107  15108  15109     1  180.0000771  1.0460000  2
  15104  15107  15108  15109     1  0.0000000  0.7531200  3
  15104  15107  15108  15114     1  0.0000000  0.6508444  3
  15104  15103  15117  15123     1  0.0000000  0.6508444  3
  15104  15103  15125  15109     1  180.0000771  0.4184000  2
  15104  15103  15125  15109     1  0.0000000  1.6024720  3
  15107  15108  15109  15113     1  0.0000000  0.6508444  3
  15107  15108  15109  15125     1  0.0000000  0.6508444  3
  15107  15104  15103  15117     1  180.0000771  0.8368000  1
  15107  15104  15103  15117     1  180.0000771  1.0460000  2
  15107  15104  15103  15117     1  0.0000000  0.7531200  3
  15107  15104  15103  15125     1  0.0000000  0.6508444  3
  15108  15107  15104  15116     1  0.0000000  0.6508444  3
  15109  15125  15103  15117     1  180.0000771  0.4184000  2
  15109  15125  15103  15117     1  0.0000000  1.6024720  3
  15109  15108  15107  15115     1  0.0000000  0.6508444  3
  15113  15109  15108  15114     1  0.0000000  4.9162000  2
  15113  15109  15108  15114     1  0.0000000  0.6024960  3
  15114  15108  15109  15125     1  0.0000000  4.9162000  2
  15114  15108  15109  15125     1  0.0000000  0.6024960  3
  15114  15108  15107  15115     1  0.0000000  4.9162000  2
  15114  15108  15107  15115     1  0.0000000  0.6024960  3
  15115  15107  15104  15116     1  0.0000000  4.9162000  2
  15115  15107  15104  15116     1  0.0000000  0.6024960  3
  15116  15104  15103  15117     1  0.0000000  0.6508444  3
  15116  15104  15103  15125     1  0.0000000  4.9162000  2
  15116  15104  15103  15125     1  0.0000000  0.6024960  3
  15123  15117  15103  15125     1  0.0000000  4.9162000  2
  15123  15117  15103  15125     1  0.0000000  0.6024960  3
  15126  15127  15130  15131     1  180.0000771  0.8368000  1
  15126  15127  15130  15131     1  180.0000771  1.0460000  2
  15126  15127  15130  15131     1  0.0000000  0.7531200  3
  15126  15127  15130  15138     1  0.0000000  0.6508444  3
  15126  15148  15132  15131     1  180.0000771  0.4184000  2
  15126  15148  15132  15131     1  0.0000000  1.6024720  3
  15126  15148  15132  15136     1  180.0000771  5.6484000  1
  15126  15148  15132  15136     1  180.0000771  3.5564000  2
  15126  15148  15132  15136     1  0.0000000  0.4184000  3
  15127  15126  15140  15146     1  0.0000000  0.6508444  3
  15127  15126  15148  15132     1  180.0000771  0.4184000  2
  15127  15126  15148  15132     1  0.0000000  1.6024720  3
  15127  15130  15131  15132     1  180.0000771  0.8368000  1
  15127  15130  15131  15132     1  180.0000771  1.0460000  2
  15127  15130  15131  15132     1  0.0000000  0.7531200  3
  15127  15130  15131  15137     1  0.0000000  0.6508444  3
  15130  15127  15126  15140     1  180.0000771  0.8368000  1
  15130  15127  15126  15140     1  180.0000771  1.0460000  2
  15130  15127  15126  15140     1  0.0000000  0.7531200  3
  15130  15127  15126  15148     1  0.0000000  0.6508444  3
  15130  15131  15132  15136     1  0.0000000  0.6508444  3
  15130  15131  15132  15148     1  0.0000000  0.6508444  3
  15131  15130  15127  15139     1  0.0000000  0.6508444  3
  15132  15131  15130  15138     1  0.0000000  0.6508444  3
  15132  15148  15126  15140     1  180.0000771  0.4184000  2
  15132  15148  15126  15140     1  0.0000000  1.6024720  3
  15136  15132  15131  15137     1  0.0000000  4.9162000  2
  15136  15132  15131  15137     1  0.0000000  0.6024960  3
  15137  15131  15130  15138     1  0.0000000  4.9162000  2
  15137  15131  15130  15138     1  0.0000000  0.6024960  3
  15137  15131  15132  15148     1  0.0000000  4.9162000  2
  15137  15131  15132  15148     1  0.0000000  0.6024960  3
  15138  15130  15127  15139     1  0.0000000  4.9162000  2
  15138  15130  15127  15139     1  0.0000000  0.6024960  3
  15139  15127  15126  15140     1  0.0000000  0.6508444  3
  15139  15127  15126  15148     1  0.0000000  4.9162000  2
  15139  15127  15126  15148     1  0.0000000  0.6024960  3
  15146  15140  15126  15148     1  0.0000000  4.9162000  2
  15146  15140  15126  15148     1  0.0000000  0.6024960  3
  15149  15150  15153  15154     1  180.0000771  0.8368000  1
  15149  15150  15153  15154     1  180.0000771  1.0460000  2
  15149  15150  15153  15154     1  0.0000000  0.7531200  3
  15149  15150  15153  15161     1  0.0000000  0.6508444  3
  15149  15171  15155  15159     1  180.0000771  5.6484000  1
  15149  15171  15155  15159     1  180.0000771  3.5564000  2
  15149  15171  15155  15159     1  0.0000000  0.4184000  3
  15149  15171  15155  15154     1  180.0000771  0.4184000  2
  15149  15171  15155  15154     1  0.0000000  1.6024720  3
  15150  15153  15154  15155     1  180.0000771  0.8368000  1
  15150  15153  15154  15155     1  180.0000771  1.0460000  2
  15150  15153  15154  15155     1  0.0000000  0.7531200  3
  15150  15153  15154  15160     1  0.0000000  0.6508444  3
  15150  15149  15163  15169     1  0.0000000  0.6508444  3
  15150  15149  15171  15155     1  180.0000771  0.4184000  2
  15150  15149  15171  15155     1  0.0000000  1.6024720  3
  15153  15154  15155  15159     1  0.0000000  0.6508444  3
  15153  15154  15155  15171     1  0.0000000  0.6508444  3
  15153  15150  15149  15163     1  180.0000771  0.8368000  1
  15153  15150  15149  15163     1  180.0000771  1.0460000  2
  15153  15150  15149  15163     1  0.0000000  0.7531200  3
  15153  15150  15149  15171     1  0.0000000  0.6508444  3
  15154  15153  15150  15162     1  0.0000000  0.6508444  3
  15155  15171  15149  15163     1  180.0000771  0.4184000  2
  15155  15171  15149  15163     1  0.0000000  1.6024720  3
  15155  15154  15153  15161     1  0.0000000  0.6508444  3
  15159  15155  15154  15160     1  0.0000000  4.9162000  2
  15159  15155  15154  15160     1  0.0000000  0.6024960  3
  15160  15154  15155  15171     1  0.0000000  4.9162000  2
  15160  15154  15155  15171     1  0.0000000  0.6024960  3
  15160  15154  15153  15161     1  0.0000000  4.9162000  2
  15160  15154  15153  15161     1  0.0000000  0.6024960  3
  15161  15153  15150  15162     1  0.0000000  4.9162000  2
  15161  15153  15150  15162     1  0.0000000  0.6024960  3
  15162  15150  15149  15163     1  0.0000000  0.6508444  3
  15162  15150  15149  15171     1  0.0000000  4.9162000  2
  15162  15150  15149  15171     1  0.0000000  0.6024960  3
  15169  15163  15149  15171     1  0.0000000  4.9162000  2
  15169  15163  15149  15171     1  0.0000000  0.6024960  3
  15172  15173  15176  15177     1  180.0000771  0.8368000  1
  15172  15173  15176  15177     1  180.0000771  1.0460000  2
  15172  15173  15176  15177     1  0.0000000  0.7531200  3
  15172  15173  15176  15184     1  0.0000000  0.6508444  3
  15172  15194  15178  15177     1  180.0000771  0.4184000  2
  15172  15194  15178  15177     1  0.0000000  1.6024720  3
  15172  15194  15178  15182     1  180.0000771  5.6484000  1
  15172  15194  15178  15182     1  180.0000771  3.5564000  2
  15172  15194  15178  15182     1  0.0000000  0.4184000  3
  15173  15172  15186  15192     1  0.0000000  0.6508444  3
  15173  15172  15194  15178     1  180.0000771  0.4184000  2
  15173  15172  15194  15178     1  0.0000000  1.6024720  3
  15173  15176  15177  15178     1  180.0000771  0.8368000  1
  15173  15176  15177  15178     1  180.0000771  1.0460000  2
  15173  15176  15177  15178     1  0.0000000  0.7531200  3
  15173  15176  15177  15183     1  0.0000000  0.6508444  3
  15176  15173  15172  15186     1  180.0000771  0.8368000  1
  15176  15173  15172  15186     1  180.0000771  1.0460000  2
  15176  15173  15172  15186     1  0.0000000  0.7531200  3
  15176  15173  15172  15194     1  0.0000000  0.6508444  3
  15176  15177  15178  15182     1  0.0000000  0.6508444  3
  15176  15177  15178  15194     1  0.0000000  0.6508444  3
  15177  15176  15173  15185     1  0.0000000  0.6508444  3
  15178  15177  15176  15184     1  0.0000000  0.6508444  3
  15178  15194  15172  15186     1  180.0000771  0.4184000  2
  15178  15194  15172  15186     1  0.0000000  1.6024720  3
  15182  15178  15177  15183     1  0.0000000  4.9162000  2
  15182  15178  15177  15183     1  0.0000000  0.6024960  3
  15183  15177  15176  15184     1  0.0000000  4.9162000  2
  15183  15177  15176  15184     1  0.0000000  0.6024960  3
  15183  15177  15178  15194     1  0.0000000  4.9162000  2
  15183  15177  15178  15194     1  0.0000000  0.6024960  3
  15184  15176  15173  15185     1  0.0000000  4.9162000  2
  15184  15176  15173  15185     1  0.0000000  0.6024960  3
  15185  15173  15172  15186     1  0.0000000  0.6508444  3
  15185  15173  15172  15194     1  0.0000000  4.9162000  2
  15185  15173  15172  15194     1  0.0000000  0.6024960  3
  15192  15186  15172  15194     1  0.0000000  4.9162000  2
  15192  15186  15172  15194     1  0.0000000  0.6024960  3
  15195  15196  15199  15200     1  180.0000771  0.8368000  1
  15195  15196  15199  15200     1  180.0000771  1.0460000  2
  15195  15196  15199  15200     1  0.0000000  0.7531200  3
  15195  15196  15199  15207     1  0.0000000  0.6508444  3
  15195  15217  15201  15205     1  180.0000771  5.6484000  1
  15195  15217  15201  15205     1  180.0000771  3.5564000  2
  15195  15217  15201  15205     1  0.0000000  0.4184000  3
  15195  15217  15201  15200     1  180.0000771  0.4184000  2
  15195  15217  15201  15200     1  0.0000000  1.6024720  3
  15196  15199  15200  15201     1  180.0000771  0.8368000  1
  15196  15199  15200  15201     1  180.0000771  1.0460000  2
  15196  15199  15200  15201     1  0.0000000  0.7531200  3
  15196  15199  15200  15206     1  0.0000000  0.6508444  3
  15196  15195  15209  15215     1  0.0000000  0.6508444  3
  15196  15195  15217  15201     1  180.0000771  0.4184000  2
  15196  15195  15217  15201     1  0.0000000  1.6024720  3
  15199  15200  15201  15205     1  0.0000000  0.6508444  3
  15199  15200  15201  15217     1  0.0000000  0.6508444  3
  15199  15196  15195  15209     1  180.0000771  0.8368000  1
  15199  15196  15195  15209     1  180.0000771  1.0460000  2
  15199  15196  15195  15209     1  0.0000000  0.7531200  3
  15199  15196  15195  15217     1  0.0000000  0.6508444  3
  15200  15199  15196  15208     1  0.0000000  0.6508444  3
  15201  15217  15195  15209     1  180.0000771  0.4184000  2
  15201  15217  15195  15209     1  0.0000000  1.6024720  3
  15201  15200  15199  15207     1  0.0000000  0.6508444  3
  15205  15201  15200  15206     1  0.0000000  4.9162000  2
  15205  15201  15200  15206     1  0.0000000  0.6024960  3
  15206  15200  15201  15217     1  0.0000000  4.9162000  2
  15206  15200  15201  15217     1  0.0000000  0.6024960  3
  15206  15200  15199  15207     1  0.0000000  4.9162000  2
  15206  15200  15199  15207     1  0.0000000  0.6024960  3
  15207  15199  15196  15208     1  0.0000000  4.9162000  2
  15207  15199  15196  15208     1  0.0000000  0.6024960  3
  15208  15196  15195  15209     1  0.0000000  0.6508444  3
  15208  15196  15195  15217     1  0.0000000  4.9162000  2
  15208  15196  15195  15217     1  0.0000000  0.6024960  3
  15215  15209  15195  15217     1  0.0000000  4.9162000  2
  15215  15209  15195  15217     1  0.0000000  0.6024960  3
  15218  15219  15222  15223     1  180.0000771  0.8368000  1
  15218  15219  15222  15223     1  180.0000771  1.0460000  2
  15218  15219  15222  15223     1  0.0000000  0.7531200  3
  15218  15219  15222  15230     1  0.0000000  0.6508444  3
  15218  15240  15224  15223     1  180.0000771  0.4184000  2
  15218  15240  15224  15223     1  0.0000000  1.6024720  3
  15218  15240  15224  15228     1  180.0000771  5.6484000  1
  15218  15240  15224  15228     1  180.0000771  3.5564000  2
  15218  15240  15224  15228     1  0.0000000  0.4184000  3
  15219  15218  15232  15238     1  0.0000000  0.6508444  3
  15219  15218  15240  15224     1  180.0000771  0.4184000  2
  15219  15218  15240  15224     1  0.0000000  1.6024720  3
  15219  15222  15223  15224     1  180.0000771  0.8368000  1
  15219  15222  15223  15224     1  180.0000771  1.0460000  2
  15219  15222  15223  15224     1  0.0000000  0.7531200  3
  15219  15222  15223  15229     1  0.0000000  0.6508444  3
  15222  15219  15218  15232     1  180.0000771  0.8368000  1
  15222  15219  15218  15232     1  180.0000771  1.0460000  2
  15222  15219  15218  15232     1  0.0000000  0.7531200  3
  15222  15219  15218  15240     1  0.0000000  0.6508444  3
  15222  15223  15224  15228     1  0.0000000  0.6508444  3
  15222  15223  15224  15240     1  0.0000000  0.6508444  3
  15223  15222  15219  15231     1  0.0000000  0.6508444  3
  15224  15223  15222  15230     1  0.0000000  0.6508444  3
  15224  15240  15218  15232     1  180.0000771  0.4184000  2
  15224  15240  15218  15232     1  0.0000000  1.6024720  3
  15228  15224  15223  15229     1  0.0000000  4.9162000  2
  15228  15224  15223  15229     1  0.0000000  0.6024960  3
  15229  15223  15222  15230     1  0.0000000  4.9162000  2
  15229  15223  15222  15230     1  0.0000000  0.6024960  3
  15229  15223  15224  15240     1  0.0000000  4.9162000  2
  15229  15223  15224  15240     1  0.0000000  0.6024960  3
  15230  15222  15219  15231     1  0.0000000  4.9162000  2
  15230  15222  15219  15231     1  0.0000000  0.6024960  3
  15231  15219  15218  15232     1  0.0000000  0.6508444  3
  15231  15219  15218  15240     1  0.0000000  4.9162000  2
  15231  15219  15218  15240     1  0.0000000  0.6024960  3
  15238  15232  15218  15240     1  0.0000000  4.9162000  2
  15238  15232  15218  15240     1  0.0000000  0.6024960  3
  15241  15242  15245  15246     1  180.0000771  0.8368000  1
  15241  15242  15245  15246     1  180.0000771  1.0460000  2
  15241  15242  15245  15246     1  0.0000000  0.7531200  3
  15241  15242  15245  15253     1  0.0000000  0.6508444  3
  15241  15263  15247  15251     1  180.0000771  5.6484000  1
  15241  15263  15247  15251     1  180.0000771  3.5564000  2
  15241  15263  15247  15251     1  0.0000000  0.4184000  3
  15241  15263  15247  15246     1  180.0000771  0.4184000  2
  15241  15263  15247  15246     1  0.0000000  1.6024720  3
  15242  15245  15246  15247     1  180.0000771  0.8368000  1
  15242  15245  15246  15247     1  180.0000771  1.0460000  2
  15242  15245  15246  15247     1  0.0000000  0.7531200  3
  15242  15245  15246  15252     1  0.0000000  0.6508444  3
  15242  15241  15255  15261     1  0.0000000  0.6508444  3
  15242  15241  15263  15247     1  180.0000771  0.4184000  2
  15242  15241  15263  15247     1  0.0000000  1.6024720  3
  15245  15246  15247  15251     1  0.0000000  0.6508444  3
  15245  15246  15247  15263     1  0.0000000  0.6508444  3
  15245  15242  15241  15255     1  180.0000771  0.8368000  1
  15245  15242  15241  15255     1  180.0000771  1.0460000  2
  15245  15242  15241  15255     1  0.0000000  0.7531200  3
  15245  15242  15241  15263     1  0.0000000  0.6508444  3
  15246  15245  15242  15254     1  0.0000000  0.6508444  3
  15247  15263  15241  15255     1  180.0000771  0.4184000  2
  15247  15263  15241  15255     1  0.0000000  1.6024720  3
  15247  15246  15245  15253     1  0.0000000  0.6508444  3
  15251  15247  15246  15252     1  0.0000000  4.9162000  2
  15251  15247  15246  15252     1  0.0000000  0.6024960  3
  15252  15246  15247  15263     1  0.0000000  4.9162000  2
  15252  15246  15247  15263     1  0.0000000  0.6024960  3
  15252  15246  15245  15253     1  0.0000000  4.9162000  2
  15252  15246  15245  15253     1  0.0000000  0.6024960  3
  15253  15245  15242  15254     1  0.0000000  4.9162000  2
  15253  15245  15242  15254     1  0.0000000  0.6024960  3
  15254  15242  15241  15255     1  0.0000000  0.6508444  3
  15254  15242  15241  15263     1  0.0000000  4.9162000  2
  15254  15242  15241  15263     1  0.0000000  0.6024960  3
  15261  15255  15241  15263     1  0.0000000  4.9162000  2
  15261  15255  15241  15263     1  0.0000000  0.6024960  3
  15264  15265  15268  15269     1  180.0000771  0.8368000  1
  15264  15265  15268  15269     1  180.0000771  1.0460000  2
  15264  15265  15268  15269     1  0.0000000  0.7531200  3
  15264  15265  15268  15276     1  0.0000000  0.6508444  3
  15264  15286  15270  15269     1  180.0000771  0.4184000  2
  15264  15286  15270  15269     1  0.0000000  1.6024720  3
  15264  15286  15270  15274     1  180.0000771  5.6484000  1
  15264  15286  15270  15274     1  180.0000771  3.5564000  2
  15264  15286  15270  15274     1  0.0000000  0.4184000  3
  15265  15264  15278  15284     1  0.0000000  0.6508444  3
  15265  15264  15286  15270     1  180.0000771  0.4184000  2
  15265  15264  15286  15270     1  0.0000000  1.6024720  3
  15265  15268  15269  15270     1  180.0000771  0.8368000  1
  15265  15268  15269  15270     1  180.0000771  1.0460000  2
  15265  15268  15269  15270     1  0.0000000  0.7531200  3
  15265  15268  15269  15275     1  0.0000000  0.6508444  3
  15268  15265  15264  15278     1  180.0000771  0.8368000  1
  15268  15265  15264  15278     1  180.0000771  1.0460000  2
  15268  15265  15264  15278     1  0.0000000  0.7531200  3
  15268  15265  15264  15286     1  0.0000000  0.6508444  3
  15268  15269  15270  15274     1  0.0000000  0.6508444  3
  15268  15269  15270  15286     1  0.0000000  0.6508444  3
  15269  15268  15265  15277     1  0.0000000  0.6508444  3
  15270  15269  15268  15276     1  0.0000000  0.6508444  3
  15270  15286  15264  15278     1  180.0000771  0.4184000  2
  15270  15286  15264  15278     1  0.0000000  1.6024720  3
  15274  15270  15269  15275     1  0.0000000  4.9162000  2
  15274  15270  15269  15275     1  0.0000000  0.6024960  3
  15275  15269  15268  15276     1  0.0000000  4.9162000  2
  15275  15269  15268  15276     1  0.0000000  0.6024960  3
  15275  15269  15270  15286     1  0.0000000  4.9162000  2
  15275  15269  15270  15286     1  0.0000000  0.6024960  3
  15276  15268  15265  15277     1  0.0000000  4.9162000  2
  15276  15268  15265  15277     1  0.0000000  0.6024960  3
  15277  15265  15264  15278     1  0.0000000  0.6508444  3
  15277  15265  15264  15286     1  0.0000000  4.9162000  2
  15277  15265  15264  15286     1  0.0000000  0.6024960  3
  15284  15278  15264  15286     1  0.0000000  4.9162000  2
  15284  15278  15264  15286     1  0.0000000  0.6024960  3
  15287  15288  15291  15292     1  180.0000771  0.8368000  1
  15287  15288  15291  15292     1  180.0000771  1.0460000  2
  15287  15288  15291  15292     1  0.0000000  0.7531200  3
  15287  15288  15291  15299     1  0.0000000  0.6508444  3
  15287  15309  15293  15297     1  180.0000771  5.6484000  1
  15287  15309  15293  15297     1  180.0000771  3.5564000  2
  15287  15309  15293  15297     1  0.0000000  0.4184000  3
  15287  15309  15293  15292     1  180.0000771  0.4184000  2
  15287  15309  15293  15292     1  0.0000000  1.6024720  3
  15288  15291  15292  15293     1  180.0000771  0.8368000  1
  15288  15291  15292  15293     1  180.0000771  1.0460000  2
  15288  15291  15292  15293     1  0.0000000  0.7531200  3
  15288  15291  15292  15298     1  0.0000000  0.6508444  3
  15288  15287  15301  15307     1  0.0000000  0.6508444  3
  15288  15287  15309  15293     1  180.0000771  0.4184000  2
  15288  15287  15309  15293     1  0.0000000  1.6024720  3
  15291  15292  15293  15297     1  0.0000000  0.6508444  3
  15291  15292  15293  15309     1  0.0000000  0.6508444  3
  15291  15288  15287  15301     1  180.0000771  0.8368000  1
  15291  15288  15287  15301     1  180.0000771  1.0460000  2
  15291  15288  15287  15301     1  0.0000000  0.7531200  3
  15291  15288  15287  15309     1  0.0000000  0.6508444  3
  15292  15291  15288  15300     1  0.0000000  0.6508444  3
  15293  15309  15287  15301     1  180.0000771  0.4184000  2
  15293  15309  15287  15301     1  0.0000000  1.6024720  3
  15293  15292  15291  15299     1  0.0000000  0.6508444  3
  15297  15293  15292  15298     1  0.0000000  4.9162000  2
  15297  15293  15292  15298     1  0.0000000  0.6024960  3
  15298  15292  15293  15309     1  0.0000000  4.9162000  2
  15298  15292  15293  15309     1  0.0000000  0.6024960  3
  15298  15292  15291  15299     1  0.0000000  4.9162000  2
  15298  15292  15291  15299     1  0.0000000  0.6024960  3
  15299  15291  15288  15300     1  0.0000000  4.9162000  2
  15299  15291  15288  15300     1  0.0000000  0.6024960  3
  15300  15288  15287  15301     1  0.0000000  0.6508444  3
  15300  15288  15287  15309     1  0.0000000  4.9162000  2
  15300  15288  15287  15309     1  0.0000000  0.6024960  3
  15307  15301  15287  15309     1  0.0000000  4.9162000  2
  15307  15301  15287  15309     1  0.0000000  0.6024960  3
  15310  15311  15314  15315     1  180.0000771  0.8368000  1
  15310  15311  15314  15315     1  180.0000771  1.0460000  2
  15310  15311  15314  15315     1  0.0000000  0.7531200  3
  15310  15311  15314  15322     1  0.0000000  0.6508444  3
  15310  15332  15316  15315     1  180.0000771  0.4184000  2
  15310  15332  15316  15315     1  0.0000000  1.6024720  3
  15310  15332  15316  15320     1  180.0000771  5.6484000  1
  15310  15332  15316  15320     1  180.0000771  3.5564000  2
  15310  15332  15316  15320     1  0.0000000  0.4184000  3
  15311  15310  15324  15330     1  0.0000000  0.6508444  3
  15311  15310  15332  15316     1  180.0000771  0.4184000  2
  15311  15310  15332  15316     1  0.0000000  1.6024720  3
  15311  15314  15315  15316     1  180.0000771  0.8368000  1
  15311  15314  15315  15316     1  180.0000771  1.0460000  2
  15311  15314  15315  15316     1  0.0000000  0.7531200  3
  15311  15314  15315  15321     1  0.0000000  0.6508444  3
  15314  15311  15310  15324     1  180.0000771  0.8368000  1
  15314  15311  15310  15324     1  180.0000771  1.0460000  2
  15314  15311  15310  15324     1  0.0000000  0.7531200  3
  15314  15311  15310  15332     1  0.0000000  0.6508444  3
  15314  15315  15316  15320     1  0.0000000  0.6508444  3
  15314  15315  15316  15332     1  0.0000000  0.6508444  3
  15315  15314  15311  15323     1  0.0000000  0.6508444  3
  15316  15315  15314  15322     1  0.0000000  0.6508444  3
  15316  15332  15310  15324     1  180.0000771  0.4184000  2
  15316  15332  15310  15324     1  0.0000000  1.6024720  3
  15320  15316  15315  15321     1  0.0000000  4.9162000  2
  15320  15316  15315  15321     1  0.0000000  0.6024960  3
  15321  15315  15314  15322     1  0.0000000  4.9162000  2
  15321  15315  15314  15322     1  0.0000000  0.6024960  3
  15321  15315  15316  15332     1  0.0000000  4.9162000  2
  15321  15315  15316  15332     1  0.0000000  0.6024960  3
  15322  15314  15311  15323     1  0.0000000  4.9162000  2
  15322  15314  15311  15323     1  0.0000000  0.6024960  3
  15323  15311  15310  15324     1  0.0000000  0.6508444  3
  15323  15311  15310  15332     1  0.0000000  4.9162000  2
  15323  15311  15310  15332     1  0.0000000  0.6024960  3
  15330  15324  15310  15332     1  0.0000000  4.9162000  2
  15330  15324  15310  15332     1  0.0000000  0.6024960  3
  15333  15334  15337  15338     1  180.0000771  0.8368000  1
  15333  15334  15337  15338     1  180.0000771  1.0460000  2
  15333  15334  15337  15338     1  0.0000000  0.7531200  3
  15333  15334  15337  15345     1  0.0000000  0.6508444  3
  15333  15355  15339  15343     1  180.0000771  5.6484000  1
  15333  15355  15339  15343     1  180.0000771  3.5564000  2
  15333  15355  15339  15343     1  0.0000000  0.4184000  3
  15333  15355  15339  15338     1  180.0000771  0.4184000  2
  15333  15355  15339  15338     1  0.0000000  1.6024720  3
  15334  15337  15338  15339     1  180.0000771  0.8368000  1
  15334  15337  15338  15339     1  180.0000771  1.0460000  2
  15334  15337  15338  15339     1  0.0000000  0.7531200  3
  15334  15337  15338  15344     1  0.0000000  0.6508444  3
  15334  15333  15347  15353     1  0.0000000  0.6508444  3
  15334  15333  15355  15339     1  180.0000771  0.4184000  2
  15334  15333  15355  15339     1  0.0000000  1.6024720  3
  15337  15338  15339  15343     1  0.0000000  0.6508444  3
  15337  15338  15339  15355     1  0.0000000  0.6508444  3
  15337  15334  15333  15347     1  180.0000771  0.8368000  1
  15337  15334  15333  15347     1  180.0000771  1.0460000  2
  15337  15334  15333  15347     1  0.0000000  0.7531200  3
  15337  15334  15333  15355     1  0.0000000  0.6508444  3
  15338  15337  15334  15346     1  0.0000000  0.6508444  3
  15339  15355  15333  15347     1  180.0000771  0.4184000  2
  15339  15355  15333  15347     1  0.0000000  1.6024720  3
  15339  15338  15337  15345     1  0.0000000  0.6508444  3
  15343  15339  15338  15344     1  0.0000000  4.9162000  2
  15343  15339  15338  15344     1  0.0000000  0.6024960  3
  15344  15338  15339  15355     1  0.0000000  4.9162000  2
  15344  15338  15339  15355     1  0.0000000  0.6024960  3
  15344  15338  15337  15345     1  0.0000000  4.9162000  2
  15344  15338  15337  15345     1  0.0000000  0.6024960  3
  15345  15337  15334  15346     1  0.0000000  4.9162000  2
  15345  15337  15334  15346     1  0.0000000  0.6024960  3
  15346  15334  15333  15347     1  0.0000000  0.6508444  3
  15346  15334  15333  15355     1  0.0000000  4.9162000  2
  15346  15334  15333  15355     1  0.0000000  0.6024960  3
  15353  15347  15333  15355     1  0.0000000  4.9162000  2
  15353  15347  15333  15355     1  0.0000000  0.6024960  3
  15356  15357  15360  15361     1  180.0000771  0.8368000  1
  15356  15357  15360  15361     1  180.0000771  1.0460000  2
  15356  15357  15360  15361     1  0.0000000  0.7531200  3
  15356  15357  15360  15368     1  0.0000000  0.6508444  3
  15356  15378  15362  15361     1  180.0000771  0.4184000  2
  15356  15378  15362  15361     1  0.0000000  1.6024720  3
  15356  15378  15362  15366     1  180.0000771  5.6484000  1
  15356  15378  15362  15366     1  180.0000771  3.5564000  2
  15356  15378  15362  15366     1  0.0000000  0.4184000  3
  15357  15356  15370  15376     1  0.0000000  0.6508444  3
  15357  15356  15378  15362     1  180.0000771  0.4184000  2
  15357  15356  15378  15362     1  0.0000000  1.6024720  3
  15357  15360  15361  15362     1  180.0000771  0.8368000  1
  15357  15360  15361  15362     1  180.0000771  1.0460000  2
  15357  15360  15361  15362     1  0.0000000  0.7531200  3
  15357  15360  15361  15367     1  0.0000000  0.6508444  3
  15360  15357  15356  15370     1  180.0000771  0.8368000  1
  15360  15357  15356  15370     1  180.0000771  1.0460000  2
  15360  15357  15356  15370     1  0.0000000  0.7531200  3
  15360  15357  15356  15378     1  0.0000000  0.6508444  3
  15360  15361  15362  15366     1  0.0000000  0.6508444  3
  15360  15361  15362  15378     1  0.0000000  0.6508444  3
  15361  15360  15357  15369     1  0.0000000  0.6508444  3
  15362  15361  15360  15368     1  0.0000000  0.6508444  3
  15362  15378  15356  15370     1  180.0000771  0.4184000  2
  15362  15378  15356  15370     1  0.0000000  1.6024720  3
  15366  15362  15361  15367     1  0.0000000  4.9162000  2
  15366  15362  15361  15367     1  0.0000000  0.6024960  3
  15367  15361  15360  15368     1  0.0000000  4.9162000  2
  15367  15361  15360  15368     1  0.0000000  0.6024960  3
  15367  15361  15362  15378     1  0.0000000  4.9162000  2
  15367  15361  15362  15378     1  0.0000000  0.6024960  3
  15368  15360  15357  15369     1  0.0000000  4.9162000  2
  15368  15360  15357  15369     1  0.0000000  0.6024960  3
  15369  15357  15356  15370     1  0.0000000  0.6508444  3
  15369  15357  15356  15378     1  0.0000000  4.9162000  2
  15369  15357  15356  15378     1  0.0000000  0.6024960  3
  15376  15370  15356  15378     1  0.0000000  4.9162000  2
  15376  15370  15356  15378     1  0.0000000  0.6024960  3
  15379  15380  15383  15384     1  180.0000771  0.8368000  1
  15379  15380  15383  15384     1  180.0000771  1.0460000  2
  15379  15380  15383  15384     1  0.0000000  0.7531200  3
  15379  15380  15383  15391     1  0.0000000  0.6508444  3
  15379  15401  15385  15389     1  180.0000771  5.6484000  1
  15379  15401  15385  15389     1  180.0000771  3.5564000  2
  15379  15401  15385  15389     1  0.0000000  0.4184000  3
  15379  15401  15385  15384     1  180.0000771  0.4184000  2
  15379  15401  15385  15384     1  0.0000000  1.6024720  3
  15380  15383  15384  15385     1  180.0000771  0.8368000  1
  15380  15383  15384  15385     1  180.0000771  1.0460000  2
  15380  15383  15384  15385     1  0.0000000  0.7531200  3
  15380  15383  15384  15390     1  0.0000000  0.6508444  3
  15380  15379  15393  15399     1  0.0000000  0.6508444  3
  15380  15379  15401  15385     1  180.0000771  0.4184000  2
  15380  15379  15401  15385     1  0.0000000  1.6024720  3
  15383  15384  15385  15389     1  0.0000000  0.6508444  3
  15383  15384  15385  15401     1  0.0000000  0.6508444  3
  15383  15380  15379  15393     1  180.0000771  0.8368000  1
  15383  15380  15379  15393     1  180.0000771  1.0460000  2
  15383  15380  15379  15393     1  0.0000000  0.7531200  3
  15383  15380  15379  15401     1  0.0000000  0.6508444  3
  15384  15383  15380  15392     1  0.0000000  0.6508444  3
  15385  15401  15379  15393     1  180.0000771  0.4184000  2
  15385  15401  15379  15393     1  0.0000000  1.6024720  3
  15385  15384  15383  15391     1  0.0000000  0.6508444  3
  15389  15385  15384  15390     1  0.0000000  4.9162000  2
  15389  15385  15384  15390     1  0.0000000  0.6024960  3
  15390  15384  15385  15401     1  0.0000000  4.9162000  2
  15390  15384  15385  15401     1  0.0000000  0.6024960  3
  15390  15384  15383  15391     1  0.0000000  4.9162000  2
  15390  15384  15383  15391     1  0.0000000  0.6024960  3
  15391  15383  15380  15392     1  0.0000000  4.9162000  2
  15391  15383  15380  15392     1  0.0000000  0.6024960  3
  15392  15380  15379  15393     1  0.0000000  0.6508444  3
  15392  15380  15379  15401     1  0.0000000  4.9162000  2
  15392  15380  15379  15401     1  0.0000000  0.6024960  3
  15399  15393  15379  15401     1  0.0000000  4.9162000  2
  15399  15393  15379  15401     1  0.0000000  0.6024960  3
  15402  15403  15406  15407     1  180.0000771  0.8368000  1
  15402  15403  15406  15407     1  180.0000771  1.0460000  2
  15402  15403  15406  15407     1  0.0000000  0.7531200  3
  15402  15403  15406  15414     1  0.0000000  0.6508444  3
  15402  15424  15408  15407     1  180.0000771  0.4184000  2
  15402  15424  15408  15407     1  0.0000000  1.6024720  3
  15402  15424  15408  15412     1  180.0000771  5.6484000  1
  15402  15424  15408  15412     1  180.0000771  3.5564000  2
  15402  15424  15408  15412     1  0.0000000  0.4184000  3
  15403  15402  15416  15422     1  0.0000000  0.6508444  3
  15403  15402  15424  15408     1  180.0000771  0.4184000  2
  15403  15402  15424  15408     1  0.0000000  1.6024720  3
  15403  15406  15407  15408     1  180.0000771  0.8368000  1
  15403  15406  15407  15408     1  180.0000771  1.0460000  2
  15403  15406  15407  15408     1  0.0000000  0.7531200  3
  15403  15406  15407  15413     1  0.0000000  0.6508444  3
  15406  15403  15402  15416     1  180.0000771  0.8368000  1
  15406  15403  15402  15416     1  180.0000771  1.0460000  2
  15406  15403  15402  15416     1  0.0000000  0.7531200  3
  15406  15403  15402  15424     1  0.0000000  0.6508444  3
  15406  15407  15408  15412     1  0.0000000  0.6508444  3
  15406  15407  15408  15424     1  0.0000000  0.6508444  3
  15407  15406  15403  15415     1  0.0000000  0.6508444  3
  15408  15407  15406  15414     1  0.0000000  0.6508444  3
  15408  15424  15402  15416     1  180.0000771  0.4184000  2
  15408  15424  15402  15416     1  0.0000000  1.6024720  3
  15412  15408  15407  15413     1  0.0000000  4.9162000  2
  15412  15408  15407  15413     1  0.0000000  0.6024960  3
  15413  15407  15406  15414     1  0.0000000  4.9162000  2
  15413  15407  15406  15414     1  0.0000000  0.6024960  3
  15413  15407  15408  15424     1  0.0000000  4.9162000  2
  15413  15407  15408  15424     1  0.0000000  0.6024960  3
  15414  15406  15403  15415     1  0.0000000  4.9162000  2
  15414  15406  15403  15415     1  0.0000000  0.6024960  3
  15415  15403  15402  15416     1  0.0000000  0.6508444  3
  15415  15403  15402  15424     1  0.0000000  4.9162000  2
  15415  15403  15402  15424     1  0.0000000  0.6024960  3
  15422  15416  15402  15424     1  0.0000000  4.9162000  2
  15422  15416  15402  15424     1  0.0000000  0.6024960  3
  15425  15426  15429  15430     1  180.0000771  0.8368000  1
  15425  15426  15429  15430     1  180.0000771  1.0460000  2
  15425  15426  15429  15430     1  0.0000000  0.7531200  3
  15425  15426  15429  15437     1  0.0000000  0.6508444  3
  15425  15447  15431  15435     1  180.0000771  5.6484000  1
  15425  15447  15431  15435     1  180.0000771  3.5564000  2
  15425  15447  15431  15435     1  0.0000000  0.4184000  3
  15425  15447  15431  15430     1  180.0000771  0.4184000  2
  15425  15447  15431  15430     1  0.0000000  1.6024720  3
  15426  15429  15430  15431     1  180.0000771  0.8368000  1
  15426  15429  15430  15431     1  180.0000771  1.0460000  2
  15426  15429  15430  15431     1  0.0000000  0.7531200  3
  15426  15429  15430  15436     1  0.0000000  0.6508444  3
  15426  15425  15439  15445     1  0.0000000  0.6508444  3
  15426  15425  15447  15431     1  180.0000771  0.4184000  2
  15426  15425  15447  15431     1  0.0000000  1.6024720  3
  15429  15430  15431  15435     1  0.0000000  0.6508444  3
  15429  15430  15431  15447     1  0.0000000  0.6508444  3
  15429  15426  15425  15439     1  180.0000771  0.8368000  1
  15429  15426  15425  15439     1  180.0000771  1.0460000  2
  15429  15426  15425  15439     1  0.0000000  0.7531200  3
  15429  15426  15425  15447     1  0.0000000  0.6508444  3
  15430  15429  15426  15438     1  0.0000000  0.6508444  3
  15431  15447  15425  15439     1  180.0000771  0.4184000  2
  15431  15447  15425  15439     1  0.0000000  1.6024720  3
  15431  15430  15429  15437     1  0.0000000  0.6508444  3
  15435  15431  15430  15436     1  0.0000000  4.9162000  2
  15435  15431  15430  15436     1  0.0000000  0.6024960  3
  15436  15430  15431  15447     1  0.0000000  4.9162000  2
  15436  15430  15431  15447     1  0.0000000  0.6024960  3
  15436  15430  15429  15437     1  0.0000000  4.9162000  2
  15436  15430  15429  15437     1  0.0000000  0.6024960  3
  15437  15429  15426  15438     1  0.0000000  4.9162000  2
  15437  15429  15426  15438     1  0.0000000  0.6024960  3
  15438  15426  15425  15439     1  0.0000000  0.6508444  3
  15438  15426  15425  15447     1  0.0000000  4.9162000  2
  15438  15426  15425  15447     1  0.0000000  0.6024960  3
  15445  15439  15425  15447     1  0.0000000  4.9162000  2
  15445  15439  15425  15447     1  0.0000000  0.6024960  3
  15448  15449  15452  15453     1  180.0000771  0.8368000  1
  15448  15449  15452  15453     1  180.0000771  1.0460000  2
  15448  15449  15452  15453     1  0.0000000  0.7531200  3
  15448  15449  15452  15460     1  0.0000000  0.6508444  3
  15448  15470  15454  15453     1  180.0000771  0.4184000  2
  15448  15470  15454  15453     1  0.0000000  1.6024720  3
  15448  15470  15454  15458     1  180.0000771  5.6484000  1
  15448  15470  15454  15458     1  180.0000771  3.5564000  2
  15448  15470  15454  15458     1  0.0000000  0.4184000  3
  15449  15448  15462  15468     1  0.0000000  0.6508444  3
  15449  15448  15470  15454     1  180.0000771  0.4184000  2
  15449  15448  15470  15454     1  0.0000000  1.6024720  3
  15449  15452  15453  15454     1  180.0000771  0.8368000  1
  15449  15452  15453  15454     1  180.0000771  1.0460000  2
  15449  15452  15453  15454     1  0.0000000  0.7531200  3
  15449  15452  15453  15459     1  0.0000000  0.6508444  3
  15452  15449  15448  15462     1  180.0000771  0.8368000  1
  15452  15449  15448  15462     1  180.0000771  1.0460000  2
  15452  15449  15448  15462     1  0.0000000  0.7531200  3
  15452  15449  15448  15470     1  0.0000000  0.6508444  3
  15452  15453  15454  15458     1  0.0000000  0.6508444  3
  15452  15453  15454  15470     1  0.0000000  0.6508444  3
  15453  15452  15449  15461     1  0.0000000  0.6508444  3
  15454  15453  15452  15460     1  0.0000000  0.6508444  3
  15454  15470  15448  15462     1  180.0000771  0.4184000  2
  15454  15470  15448  15462     1  0.0000000  1.6024720  3
  15458  15454  15453  15459     1  0.0000000  4.9162000  2
  15458  15454  15453  15459     1  0.0000000  0.6024960  3
  15459  15453  15452  15460     1  0.0000000  4.9162000  2
  15459  15453  15452  15460     1  0.0000000  0.6024960  3
  15459  15453  15454  15470     1  0.0000000  4.9162000  2
  15459  15453  15454  15470     1  0.0000000  0.6024960  3
  15460  15452  15449  15461     1  0.0000000  4.9162000  2
  15460  15452  15449  15461     1  0.0000000  0.6024960  3
  15461  15449  15448  15462     1  0.0000000  0.6508444  3
  15461  15449  15448  15470     1  0.0000000  4.9162000  2
  15461  15449  15448  15470     1  0.0000000  0.6024960  3
  15468  15462  15448  15470     1  0.0000000  4.9162000  2
  15468  15462  15448  15470     1  0.0000000  0.6024960  3
  15471  15472  15475  15476     1  180.0000771  0.8368000  1
  15471  15472  15475  15476     1  180.0000771  1.0460000  2
  15471  15472  15475  15476     1  0.0000000  0.7531200  3
  15471  15472  15475  15483     1  0.0000000  0.6508444  3
  15471  15493  15477  15481     1  180.0000771  5.6484000  1
  15471  15493  15477  15481     1  180.0000771  3.5564000  2
  15471  15493  15477  15481     1  0.0000000  0.4184000  3
  15471  15493  15477  15476     1  180.0000771  0.4184000  2
  15471  15493  15477  15476     1  0.0000000  1.6024720  3
  15472  15475  15476  15477     1  180.0000771  0.8368000  1
  15472  15475  15476  15477     1  180.0000771  1.0460000  2
  15472  15475  15476  15477     1  0.0000000  0.7531200  3
  15472  15475  15476  15482     1  0.0000000  0.6508444  3
  15472  15471  15485  15491     1  0.0000000  0.6508444  3
  15472  15471  15493  15477     1  180.0000771  0.4184000  2
  15472  15471  15493  15477     1  0.0000000  1.6024720  3
  15475  15476  15477  15481     1  0.0000000  0.6508444  3
  15475  15476  15477  15493     1  0.0000000  0.6508444  3
  15475  15472  15471  15485     1  180.0000771  0.8368000  1
  15475  15472  15471  15485     1  180.0000771  1.0460000  2
  15475  15472  15471  15485     1  0.0000000  0.7531200  3
  15475  15472  15471  15493     1  0.0000000  0.6508444  3
  15476  15475  15472  15484     1  0.0000000  0.6508444  3
  15477  15493  15471  15485     1  180.0000771  0.4184000  2
  15477  15493  15471  15485     1  0.0000000  1.6024720  3
  15477  15476  15475  15483     1  0.0000000  0.6508444  3
  15481  15477  15476  15482     1  0.0000000  4.9162000  2
  15481  15477  15476  15482     1  0.0000000  0.6024960  3
  15482  15476  15477  15493     1  0.0000000  4.9162000  2
  15482  15476  15477  15493     1  0.0000000  0.6024960  3
  15482  15476  15475  15483     1  0.0000000  4.9162000  2
  15482  15476  15475  15483     1  0.0000000  0.6024960  3
  15483  15475  15472  15484     1  0.0000000  4.9162000  2
  15483  15475  15472  15484     1  0.0000000  0.6024960  3
  15484  15472  15471  15485     1  0.0000000  0.6508444  3
  15484  15472  15471  15493     1  0.0000000  4.9162000  2
  15484  15472  15471  15493     1  0.0000000  0.6024960  3
  15491  15485  15471  15493     1  0.0000000  4.9162000  2
  15491  15485  15471  15493     1  0.0000000  0.6024960  3
  15494  15495  15498  15499     1  180.0000771  0.8368000  1
  15494  15495  15498  15499     1  180.0000771  1.0460000  2
  15494  15495  15498  15499     1  0.0000000  0.7531200  3
  15494  15495  15498  15506     1  0.0000000  0.6508444  3
  15494  15516  15500  15499     1  180.0000771  0.4184000  2
  15494  15516  15500  15499     1  0.0000000  1.6024720  3
  15494  15516  15500  15504     1  180.0000771  5.6484000  1
  15494  15516  15500  15504     1  180.0000771  3.5564000  2
  15494  15516  15500  15504     1  0.0000000  0.4184000  3
  15495  15494  15508  15514     1  0.0000000  0.6508444  3
  15495  15494  15516  15500     1  180.0000771  0.4184000  2
  15495  15494  15516  15500     1  0.0000000  1.6024720  3
  15495  15498  15499  15500     1  180.0000771  0.8368000  1
  15495  15498  15499  15500     1  180.0000771  1.0460000  2
  15495  15498  15499  15500     1  0.0000000  0.7531200  3
  15495  15498  15499  15505     1  0.0000000  0.6508444  3
  15498  15495  15494  15508     1  180.0000771  0.8368000  1
  15498  15495  15494  15508     1  180.0000771  1.0460000  2
  15498  15495  15494  15508     1  0.0000000  0.7531200  3
  15498  15495  15494  15516     1  0.0000000  0.6508444  3
  15498  15499  15500  15504     1  0.0000000  0.6508444  3
  15498  15499  15500  15516     1  0.0000000  0.6508444  3
  15499  15498  15495  15507     1  0.0000000  0.6508444  3
  15500  15499  15498  15506     1  0.0000000  0.6508444  3
  15500  15516  15494  15508     1  180.0000771  0.4184000  2
  15500  15516  15494  15508     1  0.0000000  1.6024720  3
  15504  15500  15499  15505     1  0.0000000  4.9162000  2
  15504  15500  15499  15505     1  0.0000000  0.6024960  3
  15505  15499  15498  15506     1  0.0000000  4.9162000  2
  15505  15499  15498  15506     1  0.0000000  0.6024960  3
  15505  15499  15500  15516     1  0.0000000  4.9162000  2
  15505  15499  15500  15516     1  0.0000000  0.6024960  3
  15506  15498  15495  15507     1  0.0000000  4.9162000  2
  15506  15498  15495  15507     1  0.0000000  0.6024960  3
  15507  15495  15494  15508     1  0.0000000  0.6508444  3
  15507  15495  15494  15516     1  0.0000000  4.9162000  2
  15507  15495  15494  15516     1  0.0000000  0.6024960  3
  15514  15508  15494  15516     1  0.0000000  4.9162000  2
  15514  15508  15494  15516     1  0.0000000  0.6024960  3
  15517  15518  15521  15522     1  180.0000771  0.8368000  1
  15517  15518  15521  15522     1  180.0000771  1.0460000  2
  15517  15518  15521  15522     1  0.0000000  0.7531200  3
  15517  15518  15521  15529     1  0.0000000  0.6508444  3
  15517  15539  15523  15527     1  180.0000771  5.6484000  1
  15517  15539  15523  15527     1  180.0000771  3.5564000  2
  15517  15539  15523  15527     1  0.0000000  0.4184000  3
  15517  15539  15523  15522     1  180.0000771  0.4184000  2
  15517  15539  15523  15522     1  0.0000000  1.6024720  3
  15518  15521  15522  15523     1  180.0000771  0.8368000  1
  15518  15521  15522  15523     1  180.0000771  1.0460000  2
  15518  15521  15522  15523     1  0.0000000  0.7531200  3
  15518  15521  15522  15528     1  0.0000000  0.6508444  3
  15518  15517  15531  15537     1  0.0000000  0.6508444  3
  15518  15517  15539  15523     1  180.0000771  0.4184000  2
  15518  15517  15539  15523     1  0.0000000  1.6024720  3
  15521  15522  15523  15527     1  0.0000000  0.6508444  3
  15521  15522  15523  15539     1  0.0000000  0.6508444  3
  15521  15518  15517  15531     1  180.0000771  0.8368000  1
  15521  15518  15517  15531     1  180.0000771  1.0460000  2
  15521  15518  15517  15531     1  0.0000000  0.7531200  3
  15521  15518  15517  15539     1  0.0000000  0.6508444  3
  15522  15521  15518  15530     1  0.0000000  0.6508444  3
  15523  15539  15517  15531     1  180.0000771  0.4184000  2
  15523  15539  15517  15531     1  0.0000000  1.6024720  3
  15523  15522  15521  15529     1  0.0000000  0.6508444  3
  15527  15523  15522  15528     1  0.0000000  4.9162000  2
  15527  15523  15522  15528     1  0.0000000  0.6024960  3
  15528  15522  15523  15539     1  0.0000000  4.9162000  2
  15528  15522  15523  15539     1  0.0000000  0.6024960  3
  15528  15522  15521  15529     1  0.0000000  4.9162000  2
  15528  15522  15521  15529     1  0.0000000  0.6024960  3
  15529  15521  15518  15530     1  0.0000000  4.9162000  2
  15529  15521  15518  15530     1  0.0000000  0.6024960  3
  15530  15518  15517  15531     1  0.0000000  0.6508444  3
  15530  15518  15517  15539     1  0.0000000  4.9162000  2
  15530  15518  15517  15539     1  0.0000000  0.6024960  3
  15537  15531  15517  15539     1  0.0000000  4.9162000  2
  15537  15531  15517  15539     1  0.0000000  0.6024960  3
  15540  15541  15544  15545     1  180.0000771  0.8368000  1
  15540  15541  15544  15545     1  180.0000771  1.0460000  2
  15540  15541  15544  15545     1  0.0000000  0.7531200  3
  15540  15541  15544  15552     1  0.0000000  0.6508444  3
  15540  15562  15546  15545     1  180.0000771  0.4184000  2
  15540  15562  15546  15545     1  0.0000000  1.6024720  3
  15540  15562  15546  15550     1  180.0000771  5.6484000  1
  15540  15562  15546  15550     1  180.0000771  3.5564000  2
  15540  15562  15546  15550     1  0.0000000  0.4184000  3
  15541  15540  15554  15560     1  0.0000000  0.6508444  3
  15541  15540  15562  15546     1  180.0000771  0.4184000  2
  15541  15540  15562  15546     1  0.0000000  1.6024720  3
  15541  15544  15545  15546     1  180.0000771  0.8368000  1
  15541  15544  15545  15546     1  180.0000771  1.0460000  2
  15541  15544  15545  15546     1  0.0000000  0.7531200  3
  15541  15544  15545  15551     1  0.0000000  0.6508444  3
  15544  15541  15540  15554     1  180.0000771  0.8368000  1
  15544  15541  15540  15554     1  180.0000771  1.0460000  2
  15544  15541  15540  15554     1  0.0000000  0.7531200  3
  15544  15541  15540  15562     1  0.0000000  0.6508444  3
  15544  15545  15546  15550     1  0.0000000  0.6508444  3
  15544  15545  15546  15562     1  0.0000000  0.6508444  3
  15545  15544  15541  15553     1  0.0000000  0.6508444  3
  15546  15545  15544  15552     1  0.0000000  0.6508444  3
  15546  15562  15540  15554     1  180.0000771  0.4184000  2
  15546  15562  15540  15554     1  0.0000000  1.6024720  3
  15550  15546  15545  15551     1  0.0000000  4.9162000  2
  15550  15546  15545  15551     1  0.0000000  0.6024960  3
  15551  15545  15544  15552     1  0.0000000  4.9162000  2
  15551  15545  15544  15552     1  0.0000000  0.6024960  3
  15551  15545  15546  15562     1  0.0000000  4.9162000  2
  15551  15545  15546  15562     1  0.0000000  0.6024960  3
  15552  15544  15541  15553     1  0.0000000  4.9162000  2
  15552  15544  15541  15553     1  0.0000000  0.6024960  3
  15553  15541  15540  15554     1  0.0000000  0.6508444  3
  15553  15541  15540  15562     1  0.0000000  4.9162000  2
  15553  15541  15540  15562     1  0.0000000  0.6024960  3
  15560  15554  15540  15562     1  0.0000000  4.9162000  2
  15560  15554  15540  15562     1  0.0000000  0.6024960  3
  15563  15564  15567  15568     1  180.0000771  0.8368000  1
  15563  15564  15567  15568     1  180.0000771  1.0460000  2
  15563  15564  15567  15568     1  0.0000000  0.7531200  3
  15563  15564  15567  15575     1  0.0000000  0.6508444  3
  15563  15585  15569  15573     1  180.0000771  5.6484000  1
  15563  15585  15569  15573     1  180.0000771  3.5564000  2
  15563  15585  15569  15573     1  0.0000000  0.4184000  3
  15563  15585  15569  15568     1  180.0000771  0.4184000  2
  15563  15585  15569  15568     1  0.0000000  1.6024720  3
  15564  15567  15568  15569     1  180.0000771  0.8368000  1
  15564  15567  15568  15569     1  180.0000771  1.0460000  2
  15564  15567  15568  15569     1  0.0000000  0.7531200  3
  15564  15567  15568  15574     1  0.0000000  0.6508444  3
  15564  15563  15577  15583     1  0.0000000  0.6508444  3
  15564  15563  15585  15569     1  180.0000771  0.4184000  2
  15564  15563  15585  15569     1  0.0000000  1.6024720  3
  15567  15568  15569  15573     1  0.0000000  0.6508444  3
  15567  15568  15569  15585     1  0.0000000  0.6508444  3
  15567  15564  15563  15577     1  180.0000771  0.8368000  1
  15567  15564  15563  15577     1  180.0000771  1.0460000  2
  15567  15564  15563  15577     1  0.0000000  0.7531200  3
  15567  15564  15563  15585     1  0.0000000  0.6508444  3
  15568  15567  15564  15576     1  0.0000000  0.6508444  3
  15569  15585  15563  15577     1  180.0000771  0.4184000  2
  15569  15585  15563  15577     1  0.0000000  1.6024720  3
  15569  15568  15567  15575     1  0.0000000  0.6508444  3
  15573  15569  15568  15574     1  0.0000000  4.9162000  2
  15573  15569  15568  15574     1  0.0000000  0.6024960  3
  15574  15568  15569  15585     1  0.0000000  4.9162000  2
  15574  15568  15569  15585     1  0.0000000  0.6024960  3
  15574  15568  15567  15575     1  0.0000000  4.9162000  2
  15574  15568  15567  15575     1  0.0000000  0.6024960  3
  15575  15567  15564  15576     1  0.0000000  4.9162000  2
  15575  15567  15564  15576     1  0.0000000  0.6024960  3
  15576  15564  15563  15577     1  0.0000000  0.6508444  3
  15576  15564  15563  15585     1  0.0000000  4.9162000  2
  15576  15564  15563  15585     1  0.0000000  0.6024960  3
  15583  15577  15563  15585     1  0.0000000  4.9162000  2
  15583  15577  15563  15585     1  0.0000000  0.6024960  3
  15586  15587  15590  15591     1  180.0000771  0.8368000  1
  15586  15587  15590  15591     1  180.0000771  1.0460000  2
  15586  15587  15590  15591     1  0.0000000  0.7531200  3
  15586  15587  15590  15598     1  0.0000000  0.6508444  3
  15586  15608  15592  15591     1  180.0000771  0.4184000  2
  15586  15608  15592  15591     1  0.0000000  1.6024720  3
  15586  15608  15592  15596     1  180.0000771  5.6484000  1
  15586  15608  15592  15596     1  180.0000771  3.5564000  2
  15586  15608  15592  15596     1  0.0000000  0.4184000  3
  15587  15586  15600  15606     1  0.0000000  0.6508444  3
  15587  15586  15608  15592     1  180.0000771  0.4184000  2
  15587  15586  15608  15592     1  0.0000000  1.6024720  3
  15587  15590  15591  15592     1  180.0000771  0.8368000  1
  15587  15590  15591  15592     1  180.0000771  1.0460000  2
  15587  15590  15591  15592     1  0.0000000  0.7531200  3
  15587  15590  15591  15597     1  0.0000000  0.6508444  3
  15590  15587  15586  15600     1  180.0000771  0.8368000  1
  15590  15587  15586  15600     1  180.0000771  1.0460000  2
  15590  15587  15586  15600     1  0.0000000  0.7531200  3
  15590  15587  15586  15608     1  0.0000000  0.6508444  3
  15590  15591  15592  15596     1  0.0000000  0.6508444  3
  15590  15591  15592  15608     1  0.0000000  0.6508444  3
  15591  15590  15587  15599     1  0.0000000  0.6508444  3
  15592  15591  15590  15598     1  0.0000000  0.6508444  3
  15592  15608  15586  15600     1  180.0000771  0.4184000  2
  15592  15608  15586  15600     1  0.0000000  1.6024720  3
  15596  15592  15591  15597     1  0.0000000  4.9162000  2
  15596  15592  15591  15597     1  0.0000000  0.6024960  3
  15597  15591  15590  15598     1  0.0000000  4.9162000  2
  15597  15591  15590  15598     1  0.0000000  0.6024960  3
  15597  15591  15592  15608     1  0.0000000  4.9162000  2
  15597  15591  15592  15608     1  0.0000000  0.6024960  3
  15598  15590  15587  15599     1  0.0000000  4.9162000  2
  15598  15590  15587  15599     1  0.0000000  0.6024960  3
  15599  15587  15586  15600     1  0.0000000  0.6508444  3
  15599  15587  15586  15608     1  0.0000000  4.9162000  2
  15599  15587  15586  15608     1  0.0000000  0.6024960  3
  15606  15600  15586  15608     1  0.0000000  4.9162000  2
  15606  15600  15586  15608     1  0.0000000  0.6024960  3
  15609  15610  15613  15614     1  180.0000771  0.8368000  1
  15609  15610  15613  15614     1  180.0000771  1.0460000  2
  15609  15610  15613  15614     1  0.0000000  0.7531200  3
  15609  15610  15613  15621     1  0.0000000  0.6508444  3
  15609  15631  15615  15619     1  180.0000771  5.6484000  1
  15609  15631  15615  15619     1  180.0000771  3.5564000  2
  15609  15631  15615  15619     1  0.0000000  0.4184000  3
  15609  15631  15615  15614     1  180.0000771  0.4184000  2
  15609  15631  15615  15614     1  0.0000000  1.6024720  3
  15610  15613  15614  15615     1  180.0000771  0.8368000  1
  15610  15613  15614  15615     1  180.0000771  1.0460000  2
  15610  15613  15614  15615     1  0.0000000  0.7531200  3
  15610  15613  15614  15620     1  0.0000000  0.6508444  3
  15610  15609  15623  15629     1  0.0000000  0.6508444  3
  15610  15609  15631  15615     1  180.0000771  0.4184000  2
  15610  15609  15631  15615     1  0.0000000  1.6024720  3
  15613  15614  15615  15619     1  0.0000000  0.6508444  3
  15613  15614  15615  15631     1  0.0000000  0.6508444  3
  15613  15610  15609  15623     1  180.0000771  0.8368000  1
  15613  15610  15609  15623     1  180.0000771  1.0460000  2
  15613  15610  15609  15623     1  0.0000000  0.7531200  3
  15613  15610  15609  15631     1  0.0000000  0.6508444  3
  15614  15613  15610  15622     1  0.0000000  0.6508444  3
  15615  15631  15609  15623     1  180.0000771  0.4184000  2
  15615  15631  15609  15623     1  0.0000000  1.6024720  3
  15615  15614  15613  15621     1  0.0000000  0.6508444  3
  15619  15615  15614  15620     1  0.0000000  4.9162000  2
  15619  15615  15614  15620     1  0.0000000  0.6024960  3
  15620  15614  15615  15631     1  0.0000000  4.9162000  2
  15620  15614  15615  15631     1  0.0000000  0.6024960  3
  15620  15614  15613  15621     1  0.0000000  4.9162000  2
  15620  15614  15613  15621     1  0.0000000  0.6024960  3
  15621  15613  15610  15622     1  0.0000000  4.9162000  2
  15621  15613  15610  15622     1  0.0000000  0.6024960  3
  15622  15610  15609  15623     1  0.0000000  0.6508444  3
  15622  15610  15609  15631     1  0.0000000  4.9162000  2
  15622  15610  15609  15631     1  0.0000000  0.6024960  3
  15629  15623  15609  15631     1  0.0000000  4.9162000  2
  15629  15623  15609  15631     1  0.0000000  0.6024960  3
  15632  15633  15636  15637     1  180.0000771  0.8368000  1
  15632  15633  15636  15637     1  180.0000771  1.0460000  2
  15632  15633  15636  15637     1  0.0000000  0.7531200  3
  15632  15633  15636  15644     1  0.0000000  0.6508444  3
  15632  15654  15638  15637     1  180.0000771  0.4184000  2
  15632  15654  15638  15637     1  0.0000000  1.6024720  3
  15632  15654  15638  15642     1  180.0000771  5.6484000  1
  15632  15654  15638  15642     1  180.0000771  3.5564000  2
  15632  15654  15638  15642     1  0.0000000  0.4184000  3
  15633  15632  15646  15652     1  0.0000000  0.6508444  3
  15633  15632  15654  15638     1  180.0000771  0.4184000  2
  15633  15632  15654  15638     1  0.0000000  1.6024720  3
  15633  15636  15637  15638     1  180.0000771  0.8368000  1
  15633  15636  15637  15638     1  180.0000771  1.0460000  2
  15633  15636  15637  15638     1  0.0000000  0.7531200  3
  15633  15636  15637  15643     1  0.0000000  0.6508444  3
  15636  15633  15632  15646     1  180.0000771  0.8368000  1
  15636  15633  15632  15646     1  180.0000771  1.0460000  2
  15636  15633  15632  15646     1  0.0000000  0.7531200  3
  15636  15633  15632  15654     1  0.0000000  0.6508444  3
  15636  15637  15638  15642     1  0.0000000  0.6508444  3
  15636  15637  15638  15654     1  0.0000000  0.6508444  3
  15637  15636  15633  15645     1  0.0000000  0.6508444  3
  15638  15637  15636  15644     1  0.0000000  0.6508444  3
  15638  15654  15632  15646     1  180.0000771  0.4184000  2
  15638  15654  15632  15646     1  0.0000000  1.6024720  3
  15642  15638  15637  15643     1  0.0000000  4.9162000  2
  15642  15638  15637  15643     1  0.0000000  0.6024960  3
  15643  15637  15636  15644     1  0.0000000  4.9162000  2
  15643  15637  15636  15644     1  0.0000000  0.6024960  3
  15643  15637  15638  15654     1  0.0000000  4.9162000  2
  15643  15637  15638  15654     1  0.0000000  0.6024960  3
  15644  15636  15633  15645     1  0.0000000  4.9162000  2
  15644  15636  15633  15645     1  0.0000000  0.6024960  3
  15645  15633  15632  15646     1  0.0000000  0.6508444  3
  15645  15633  15632  15654     1  0.0000000  4.9162000  2
  15645  15633  15632  15654     1  0.0000000  0.6024960  3
  15652  15646  15632  15654     1  0.0000000  4.9162000  2
  15652  15646  15632  15654     1  0.0000000  0.6024960  3
  15655  15656  15659  15660     1  180.0000771  0.8368000  1
  15655  15656  15659  15660     1  180.0000771  1.0460000  2
  15655  15656  15659  15660     1  0.0000000  0.7531200  3
  15655  15656  15659  15667     1  0.0000000  0.6508444  3
  15655  15677  15661  15665     1  180.0000771  5.6484000  1
  15655  15677  15661  15665     1  180.0000771  3.5564000  2
  15655  15677  15661  15665     1  0.0000000  0.4184000  3
  15655  15677  15661  15660     1  180.0000771  0.4184000  2
  15655  15677  15661  15660     1  0.0000000  1.6024720  3
  15656  15659  15660  15661     1  180.0000771  0.8368000  1
  15656  15659  15660  15661     1  180.0000771  1.0460000  2
  15656  15659  15660  15661     1  0.0000000  0.7531200  3
  15656  15659  15660  15666     1  0.0000000  0.6508444  3
  15656  15655  15669  15675     1  0.0000000  0.6508444  3
  15656  15655  15677  15661     1  180.0000771  0.4184000  2
  15656  15655  15677  15661     1  0.0000000  1.6024720  3
  15659  15660  15661  15665     1  0.0000000  0.6508444  3
  15659  15660  15661  15677     1  0.0000000  0.6508444  3
  15659  15656  15655  15669     1  180.0000771  0.8368000  1
  15659  15656  15655  15669     1  180.0000771  1.0460000  2
  15659  15656  15655  15669     1  0.0000000  0.7531200  3
  15659  15656  15655  15677     1  0.0000000  0.6508444  3
  15660  15659  15656  15668     1  0.0000000  0.6508444  3
  15661  15677  15655  15669     1  180.0000771  0.4184000  2
  15661  15677  15655  15669     1  0.0000000  1.6024720  3
  15661  15660  15659  15667     1  0.0000000  0.6508444  3
  15665  15661  15660  15666     1  0.0000000  4.9162000  2
  15665  15661  15660  15666     1  0.0000000  0.6024960  3
  15666  15660  15661  15677     1  0.0000000  4.9162000  2
  15666  15660  15661  15677     1  0.0000000  0.6024960  3
  15666  15660  15659  15667     1  0.0000000  4.9162000  2
  15666  15660  15659  15667     1  0.0000000  0.6024960  3
  15667  15659  15656  15668     1  0.0000000  4.9162000  2
  15667  15659  15656  15668     1  0.0000000  0.6024960  3
  15668  15656  15655  15669     1  0.0000000  0.6508444  3
  15668  15656  15655  15677     1  0.0000000  4.9162000  2
  15668  15656  15655  15677     1  0.0000000  0.6024960  3
  15675  15669  15655  15677     1  0.0000000  4.9162000  2
  15675  15669  15655  15677     1  0.0000000  0.6024960  3
  15678  15679  15682  15683     1  180.0000771  0.8368000  1
  15678  15679  15682  15683     1  180.0000771  1.0460000  2
  15678  15679  15682  15683     1  0.0000000  0.7531200  3
  15678  15679  15682  15690     1  0.0000000  0.6508444  3
  15678  15700  15684  15683     1  180.0000771  0.4184000  2
  15678  15700  15684  15683     1  0.0000000  1.6024720  3
  15678  15700  15684  15688     1  180.0000771  5.6484000  1
  15678  15700  15684  15688     1  180.0000771  3.5564000  2
  15678  15700  15684  15688     1  0.0000000  0.4184000  3
  15679  15678  15692  15698     1  0.0000000  0.6508444  3
  15679  15678  15700  15684     1  180.0000771  0.4184000  2
  15679  15678  15700  15684     1  0.0000000  1.6024720  3
  15679  15682  15683  15684     1  180.0000771  0.8368000  1
  15679  15682  15683  15684     1  180.0000771  1.0460000  2
  15679  15682  15683  15684     1  0.0000000  0.7531200  3
  15679  15682  15683  15689     1  0.0000000  0.6508444  3
  15682  15679  15678  15692     1  180.0000771  0.8368000  1
  15682  15679  15678  15692     1  180.0000771  1.0460000  2
  15682  15679  15678  15692     1  0.0000000  0.7531200  3
  15682  15679  15678  15700     1  0.0000000  0.6508444  3
  15682  15683  15684  15688     1  0.0000000  0.6508444  3
  15682  15683  15684  15700     1  0.0000000  0.6508444  3
  15683  15682  15679  15691     1  0.0000000  0.6508444  3
  15684  15683  15682  15690     1  0.0000000  0.6508444  3
  15684  15700  15678  15692     1  180.0000771  0.4184000  2
  15684  15700  15678  15692     1  0.0000000  1.6024720  3
  15688  15684  15683  15689     1  0.0000000  4.9162000  2
  15688  15684  15683  15689     1  0.0000000  0.6024960  3
  15689  15683  15682  15690     1  0.0000000  4.9162000  2
  15689  15683  15682  15690     1  0.0000000  0.6024960  3
  15689  15683  15684  15700     1  0.0000000  4.9162000  2
  15689  15683  15684  15700     1  0.0000000  0.6024960  3
  15690  15682  15679  15691     1  0.0000000  4.9162000  2
  15690  15682  15679  15691     1  0.0000000  0.6024960  3
  15691  15679  15678  15692     1  0.0000000  0.6508444  3
  15691  15679  15678  15700     1  0.0000000  4.9162000  2
  15691  15679  15678  15700     1  0.0000000  0.6024960  3
  15698  15692  15678  15700     1  0.0000000  4.9162000  2
  15698  15692  15678  15700     1  0.0000000  0.6024960  3
  15701  15702  15705  15706     1  180.0000771  0.8368000  1
  15701  15702  15705  15706     1  180.0000771  1.0460000  2
  15701  15702  15705  15706     1  0.0000000  0.7531200  3
  15701  15702  15705  15713     1  0.0000000  0.6508444  3
  15701  15723  15707  15711     1  180.0000771  5.6484000  1
  15701  15723  15707  15711     1  180.0000771  3.5564000  2
  15701  15723  15707  15711     1  0.0000000  0.4184000  3
  15701  15723  15707  15706     1  180.0000771  0.4184000  2
  15701  15723  15707  15706     1  0.0000000  1.6024720  3
  15702  15705  15706  15707     1  180.0000771  0.8368000  1
  15702  15705  15706  15707     1  180.0000771  1.0460000  2
  15702  15705  15706  15707     1  0.0000000  0.7531200  3
  15702  15705  15706  15712     1  0.0000000  0.6508444  3
  15702  15701  15715  15721     1  0.0000000  0.6508444  3
  15702  15701  15723  15707     1  180.0000771  0.4184000  2
  15702  15701  15723  15707     1  0.0000000  1.6024720  3
  15705  15706  15707  15711     1  0.0000000  0.6508444  3
  15705  15706  15707  15723     1  0.0000000  0.6508444  3
  15705  15702  15701  15715     1  180.0000771  0.8368000  1
  15705  15702  15701  15715     1  180.0000771  1.0460000  2
  15705  15702  15701  15715     1  0.0000000  0.7531200  3
  15705  15702  15701  15723     1  0.0000000  0.6508444  3
  15706  15705  15702  15714     1  0.0000000  0.6508444  3
  15707  15723  15701  15715     1  180.0000771  0.4184000  2
  15707  15723  15701  15715     1  0.0000000  1.6024720  3
  15707  15706  15705  15713     1  0.0000000  0.6508444  3
  15711  15707  15706  15712     1  0.0000000  4.9162000  2
  15711  15707  15706  15712     1  0.0000000  0.6024960  3
  15712  15706  15707  15723     1  0.0000000  4.9162000  2
  15712  15706  15707  15723     1  0.0000000  0.6024960  3
  15712  15706  15705  15713     1  0.0000000  4.9162000  2
  15712  15706  15705  15713     1  0.0000000  0.6024960  3
  15713  15705  15702  15714     1  0.0000000  4.9162000  2
  15713  15705  15702  15714     1  0.0000000  0.6024960  3
  15714  15702  15701  15715     1  0.0000000  0.6508444  3
  15714  15702  15701  15723     1  0.0000000  4.9162000  2
  15714  15702  15701  15723     1  0.0000000  0.6024960  3
  15721  15715  15701  15723     1  0.0000000  4.9162000  2
  15721  15715  15701  15723     1  0.0000000  0.6024960  3
  15724  15725  15728  15729     1  180.0000771  0.8368000  1
  15724  15725  15728  15729     1  180.0000771  1.0460000  2
  15724  15725  15728  15729     1  0.0000000  0.7531200  3
  15724  15725  15728  15736     1  0.0000000  0.6508444  3
  15724  15746  15730  15729     1  180.0000771  0.4184000  2
  15724  15746  15730  15729     1  0.0000000  1.6024720  3
  15724  15746  15730  15734     1  180.0000771  5.6484000  1
  15724  15746  15730  15734     1  180.0000771  3.5564000  2
  15724  15746  15730  15734     1  0.0000000  0.4184000  3
  15725  15724  15738  15744     1  0.0000000  0.6508444  3
  15725  15724  15746  15730     1  180.0000771  0.4184000  2
  15725  15724  15746  15730     1  0.0000000  1.6024720  3
  15725  15728  15729  15730     1  180.0000771  0.8368000  1
  15725  15728  15729  15730     1  180.0000771  1.0460000  2
  15725  15728  15729  15730     1  0.0000000  0.7531200  3
  15725  15728  15729  15735     1  0.0000000  0.6508444  3
  15728  15725  15724  15738     1  180.0000771  0.8368000  1
  15728  15725  15724  15738     1  180.0000771  1.0460000  2
  15728  15725  15724  15738     1  0.0000000  0.7531200  3
  15728  15725  15724  15746     1  0.0000000  0.6508444  3
  15728  15729  15730  15734     1  0.0000000  0.6508444  3
  15728  15729  15730  15746     1  0.0000000  0.6508444  3
  15729  15728  15725  15737     1  0.0000000  0.6508444  3
  15730  15729  15728  15736     1  0.0000000  0.6508444  3
  15730  15746  15724  15738     1  180.0000771  0.4184000  2
  15730  15746  15724  15738     1  0.0000000  1.6024720  3
  15734  15730  15729  15735     1  0.0000000  4.9162000  2
  15734  15730  15729  15735     1  0.0000000  0.6024960  3
  15735  15729  15728  15736     1  0.0000000  4.9162000  2
  15735  15729  15728  15736     1  0.0000000  0.6024960  3
  15735  15729  15730  15746     1  0.0000000  4.9162000  2
  15735  15729  15730  15746     1  0.0000000  0.6024960  3
  15736  15728  15725  15737     1  0.0000000  4.9162000  2
  15736  15728  15725  15737     1  0.0000000  0.6024960  3
  15737  15725  15724  15738     1  0.0000000  0.6508444  3
  15737  15725  15724  15746     1  0.0000000  4.9162000  2
  15737  15725  15724  15746     1  0.0000000  0.6024960  3
  15744  15738  15724  15746     1  0.0000000  4.9162000  2
  15744  15738  15724  15746     1  0.0000000  0.6024960  3
  15747  15748  15751  15752     1  180.0000771  0.8368000  1
  15747  15748  15751  15752     1  180.0000771  1.0460000  2
  15747  15748  15751  15752     1  0.0000000  0.7531200  3
  15747  15748  15751  15759     1  0.0000000  0.6508444  3
  15747  15769  15753  15757     1  180.0000771  5.6484000  1
  15747  15769  15753  15757     1  180.0000771  3.5564000  2
  15747  15769  15753  15757     1  0.0000000  0.4184000  3
  15747  15769  15753  15752     1  180.0000771  0.4184000  2
  15747  15769  15753  15752     1  0.0000000  1.6024720  3
  15748  15751  15752  15753     1  180.0000771  0.8368000  1
  15748  15751  15752  15753     1  180.0000771  1.0460000  2
  15748  15751  15752  15753     1  0.0000000  0.7531200  3
  15748  15751  15752  15758     1  0.0000000  0.6508444  3
  15748  15747  15761  15767     1  0.0000000  0.6508444  3
  15748  15747  15769  15753     1  180.0000771  0.4184000  2
  15748  15747  15769  15753     1  0.0000000  1.6024720  3
  15751  15752  15753  15757     1  0.0000000  0.6508444  3
  15751  15752  15753  15769     1  0.0000000  0.6508444  3
  15751  15748  15747  15761     1  180.0000771  0.8368000  1
  15751  15748  15747  15761     1  180.0000771  1.0460000  2
  15751  15748  15747  15761     1  0.0000000  0.7531200  3
  15751  15748  15747  15769     1  0.0000000  0.6508444  3
  15752  15751  15748  15760     1  0.0000000  0.6508444  3
  15753  15769  15747  15761     1  180.0000771  0.4184000  2
  15753  15769  15747  15761     1  0.0000000  1.6024720  3
  15753  15752  15751  15759     1  0.0000000  0.6508444  3
  15757  15753  15752  15758     1  0.0000000  4.9162000  2
  15757  15753  15752  15758     1  0.0000000  0.6024960  3
  15758  15752  15753  15769     1  0.0000000  4.9162000  2
  15758  15752  15753  15769     1  0.0000000  0.6024960  3
  15758  15752  15751  15759     1  0.0000000  4.9162000  2
  15758  15752  15751  15759     1  0.0000000  0.6024960  3
  15759  15751  15748  15760     1  0.0000000  4.9162000  2
  15759  15751  15748  15760     1  0.0000000  0.6024960  3
  15760  15748  15747  15761     1  0.0000000  0.6508444  3
  15760  15748  15747  15769     1  0.0000000  4.9162000  2
  15760  15748  15747  15769     1  0.0000000  0.6024960  3
  15767  15761  15747  15769     1  0.0000000  4.9162000  2
  15767  15761  15747  15769     1  0.0000000  0.6024960  3
  15770  15771  15774  15775     1  180.0000771  0.8368000  1
  15770  15771  15774  15775     1  180.0000771  1.0460000  2
  15770  15771  15774  15775     1  0.0000000  0.7531200  3
  15770  15771  15774  15782     1  0.0000000  0.6508444  3
  15770  15792  15776  15775     1  180.0000771  0.4184000  2
  15770  15792  15776  15775     1  0.0000000  1.6024720  3
  15770  15792  15776  15780     1  180.0000771  5.6484000  1
  15770  15792  15776  15780     1  180.0000771  3.5564000  2
  15770  15792  15776  15780     1  0.0000000  0.4184000  3
  15771  15770  15784  15790     1  0.0000000  0.6508444  3
  15771  15770  15792  15776     1  180.0000771  0.4184000  2
  15771  15770  15792  15776     1  0.0000000  1.6024720  3
  15771  15774  15775  15776     1  180.0000771  0.8368000  1
  15771  15774  15775  15776     1  180.0000771  1.0460000  2
  15771  15774  15775  15776     1  0.0000000  0.7531200  3
  15771  15774  15775  15781     1  0.0000000  0.6508444  3
  15774  15771  15770  15784     1  180.0000771  0.8368000  1
  15774  15771  15770  15784     1  180.0000771  1.0460000  2
  15774  15771  15770  15784     1  0.0000000  0.7531200  3
  15774  15771  15770  15792     1  0.0000000  0.6508444  3
  15774  15775  15776  15780     1  0.0000000  0.6508444  3
  15774  15775  15776  15792     1  0.0000000  0.6508444  3
  15775  15774  15771  15783     1  0.0000000  0.6508444  3
  15776  15775  15774  15782     1  0.0000000  0.6508444  3
  15776  15792  15770  15784     1  180.0000771  0.4184000  2
  15776  15792  15770  15784     1  0.0000000  1.6024720  3
  15780  15776  15775  15781     1  0.0000000  4.9162000  2
  15780  15776  15775  15781     1  0.0000000  0.6024960  3
  15781  15775  15774  15782     1  0.0000000  4.9162000  2
  15781  15775  15774  15782     1  0.0000000  0.6024960  3
  15781  15775  15776  15792     1  0.0000000  4.9162000  2
  15781  15775  15776  15792     1  0.0000000  0.6024960  3
  15782  15774  15771  15783     1  0.0000000  4.9162000  2
  15782  15774  15771  15783     1  0.0000000  0.6024960  3
  15783  15771  15770  15784     1  0.0000000  0.6508444  3
  15783  15771  15770  15792     1  0.0000000  4.9162000  2
  15783  15771  15770  15792     1  0.0000000  0.6024960  3
  15790  15784  15770  15792     1  0.0000000  4.9162000  2
  15790  15784  15770  15792     1  0.0000000  0.6024960  3
  15793  15794  15797  15798     1  180.0000771  0.8368000  1
  15793  15794  15797  15798     1  180.0000771  1.0460000  2
  15793  15794  15797  15798     1  0.0000000  0.7531200  3
  15793  15794  15797  15805     1  0.0000000  0.6508444  3
  15793  15815  15799  15803     1  180.0000771  5.6484000  1
  15793  15815  15799  15803     1  180.0000771  3.5564000  2
  15793  15815  15799  15803     1  0.0000000  0.4184000  3
  15793  15815  15799  15798     1  180.0000771  0.4184000  2
  15793  15815  15799  15798     1  0.0000000  1.6024720  3
  15794  15797  15798  15799     1  180.0000771  0.8368000  1
  15794  15797  15798  15799     1  180.0000771  1.0460000  2
  15794  15797  15798  15799     1  0.0000000  0.7531200  3
  15794  15797  15798  15804     1  0.0000000  0.6508444  3
  15794  15793  15807  15813     1  0.0000000  0.6508444  3
  15794  15793  15815  15799     1  180.0000771  0.4184000  2
  15794  15793  15815  15799     1  0.0000000  1.6024720  3
  15797  15798  15799  15803     1  0.0000000  0.6508444  3
  15797  15798  15799  15815     1  0.0000000  0.6508444  3
  15797  15794  15793  15807     1  180.0000771  0.8368000  1
  15797  15794  15793  15807     1  180.0000771  1.0460000  2
  15797  15794  15793  15807     1  0.0000000  0.7531200  3
  15797  15794  15793  15815     1  0.0000000  0.6508444  3
  15798  15797  15794  15806     1  0.0000000  0.6508444  3
  15799  15815  15793  15807     1  180.0000771  0.4184000  2
  15799  15815  15793  15807     1  0.0000000  1.6024720  3
  15799  15798  15797  15805     1  0.0000000  0.6508444  3
  15803  15799  15798  15804     1  0.0000000  4.9162000  2
  15803  15799  15798  15804     1  0.0000000  0.6024960  3
  15804  15798  15799  15815     1  0.0000000  4.9162000  2
  15804  15798  15799  15815     1  0.0000000  0.6024960  3
  15804  15798  15797  15805     1  0.0000000  4.9162000  2
  15804  15798  15797  15805     1  0.0000000  0.6024960  3
  15805  15797  15794  15806     1  0.0000000  4.9162000  2
  15805  15797  15794  15806     1  0.0000000  0.6024960  3
  15806  15794  15793  15807     1  0.0000000  0.6508444  3
  15806  15794  15793  15815     1  0.0000000  4.9162000  2
  15806  15794  15793  15815     1  0.0000000  0.6024960  3
  15813  15807  15793  15815     1  0.0000000  4.9162000  2
  15813  15807  15793  15815     1  0.0000000  0.6024960  3
  15816  15817  15820  15821     1  180.0000771  0.8368000  1
  15816  15817  15820  15821     1  180.0000771  1.0460000  2
  15816  15817  15820  15821     1  0.0000000  0.7531200  3
  15816  15817  15820  15828     1  0.0000000  0.6508444  3
  15816  15838  15822  15821     1  180.0000771  0.4184000  2
  15816  15838  15822  15821     1  0.0000000  1.6024720  3
  15816  15838  15822  15826     1  180.0000771  5.6484000  1
  15816  15838  15822  15826     1  180.0000771  3.5564000  2
  15816  15838  15822  15826     1  0.0000000  0.4184000  3
  15817  15816  15830  15836     1  0.0000000  0.6508444  3
  15817  15816  15838  15822     1  180.0000771  0.4184000  2
  15817  15816  15838  15822     1  0.0000000  1.6024720  3
  15817  15820  15821  15822     1  180.0000771  0.8368000  1
  15817  15820  15821  15822     1  180.0000771  1.0460000  2
  15817  15820  15821  15822     1  0.0000000  0.7531200  3
  15817  15820  15821  15827     1  0.0000000  0.6508444  3
  15820  15817  15816  15830     1  180.0000771  0.8368000  1
  15820  15817  15816  15830     1  180.0000771  1.0460000  2
  15820  15817  15816  15830     1  0.0000000  0.7531200  3
  15820  15817  15816  15838     1  0.0000000  0.6508444  3
  15820  15821  15822  15826     1  0.0000000  0.6508444  3
  15820  15821  15822  15838     1  0.0000000  0.6508444  3
  15821  15820  15817  15829     1  0.0000000  0.6508444  3
  15822  15821  15820  15828     1  0.0000000  0.6508444  3
  15822  15838  15816  15830     1  180.0000771  0.4184000  2
  15822  15838  15816  15830     1  0.0000000  1.6024720  3
  15826  15822  15821  15827     1  0.0000000  4.9162000  2
  15826  15822  15821  15827     1  0.0000000  0.6024960  3
  15827  15821  15820  15828     1  0.0000000  4.9162000  2
  15827  15821  15820  15828     1  0.0000000  0.6024960  3
  15827  15821  15822  15838     1  0.0000000  4.9162000  2
  15827  15821  15822  15838     1  0.0000000  0.6024960  3
  15828  15820  15817  15829     1  0.0000000  4.9162000  2
  15828  15820  15817  15829     1  0.0000000  0.6024960  3
  15829  15817  15816  15830     1  0.0000000  0.6508444  3
  15829  15817  15816  15838     1  0.0000000  4.9162000  2
  15829  15817  15816  15838     1  0.0000000  0.6024960  3
  15836  15830  15816  15838     1  0.0000000  4.9162000  2
  15836  15830  15816  15838     1  0.0000000  0.6024960  3
  15839  15840  15843  15844     1  180.0000771  0.8368000  1
  15839  15840  15843  15844     1  180.0000771  1.0460000  2
  15839  15840  15843  15844     1  0.0000000  0.7531200  3
  15839  15840  15843  15851     1  0.0000000  0.6508444  3
  15839  15861  15845  15849     1  180.0000771  5.6484000  1
  15839  15861  15845  15849     1  180.0000771  3.5564000  2
  15839  15861  15845  15849     1  0.0000000  0.4184000  3
  15839  15861  15845  15844     1  180.0000771  0.4184000  2
  15839  15861  15845  15844     1  0.0000000  1.6024720  3
  15840  15843  15844  15845     1  180.0000771  0.8368000  1
  15840  15843  15844  15845     1  180.0000771  1.0460000  2
  15840  15843  15844  15845     1  0.0000000  0.7531200  3
  15840  15843  15844  15850     1  0.0000000  0.6508444  3
  15840  15839  15853  15859     1  0.0000000  0.6508444  3
  15840  15839  15861  15845     1  180.0000771  0.4184000  2
  15840  15839  15861  15845     1  0.0000000  1.6024720  3
  15843  15844  15845  15849     1  0.0000000  0.6508444  3
  15843  15844  15845  15861     1  0.0000000  0.6508444  3
  15843  15840  15839  15853     1  180.0000771  0.8368000  1
  15843  15840  15839  15853     1  180.0000771  1.0460000  2
  15843  15840  15839  15853     1  0.0000000  0.7531200  3
  15843  15840  15839  15861     1  0.0000000  0.6508444  3
  15844  15843  15840  15852     1  0.0000000  0.6508444  3
  15845  15861  15839  15853     1  180.0000771  0.4184000  2
  15845  15861  15839  15853     1  0.0000000  1.6024720  3
  15845  15844  15843  15851     1  0.0000000  0.6508444  3
  15849  15845  15844  15850     1  0.0000000  4.9162000  2
  15849  15845  15844  15850     1  0.0000000  0.6024960  3
  15850  15844  15845  15861     1  0.0000000  4.9162000  2
  15850  15844  15845  15861     1  0.0000000  0.6024960  3
  15850  15844  15843  15851     1  0.0000000  4.9162000  2
  15850  15844  15843  15851     1  0.0000000  0.6024960  3
  15851  15843  15840  15852     1  0.0000000  4.9162000  2
  15851  15843  15840  15852     1  0.0000000  0.6024960  3
  15852  15840  15839  15853     1  0.0000000  0.6508444  3
  15852  15840  15839  15861     1  0.0000000  4.9162000  2
  15852  15840  15839  15861     1  0.0000000  0.6024960  3
  15859  15853  15839  15861     1  0.0000000  4.9162000  2
  15859  15853  15839  15861     1  0.0000000  0.6024960  3
  15862  15863  15866  15867     1  180.0000771  0.8368000  1
  15862  15863  15866  15867     1  180.0000771  1.0460000  2
  15862  15863  15866  15867     1  0.0000000  0.7531200  3
  15862  15863  15866  15874     1  0.0000000  0.6508444  3
  15862  15884  15868  15867     1  180.0000771  0.4184000  2
  15862  15884  15868  15867     1  0.0000000  1.6024720  3
  15862  15884  15868  15872     1  180.0000771  5.6484000  1
  15862  15884  15868  15872     1  180.0000771  3.5564000  2
  15862  15884  15868  15872     1  0.0000000  0.4184000  3
  15863  15862  15876  15882     1  0.0000000  0.6508444  3
  15863  15862  15884  15868     1  180.0000771  0.4184000  2
  15863  15862  15884  15868     1  0.0000000  1.6024720  3
  15863  15866  15867  15868     1  180.0000771  0.8368000  1
  15863  15866  15867  15868     1  180.0000771  1.0460000  2
  15863  15866  15867  15868     1  0.0000000  0.7531200  3
  15863  15866  15867  15873     1  0.0000000  0.6508444  3
  15866  15863  15862  15876     1  180.0000771  0.8368000  1
  15866  15863  15862  15876     1  180.0000771  1.0460000  2
  15866  15863  15862  15876     1  0.0000000  0.7531200  3
  15866  15863  15862  15884     1  0.0000000  0.6508444  3
  15866  15867  15868  15872     1  0.0000000  0.6508444  3
  15866  15867  15868  15884     1  0.0000000  0.6508444  3
  15867  15866  15863  15875     1  0.0000000  0.6508444  3
  15868  15867  15866  15874     1  0.0000000  0.6508444  3
  15868  15884  15862  15876     1  180.0000771  0.4184000  2
  15868  15884  15862  15876     1  0.0000000  1.6024720  3
  15872  15868  15867  15873     1  0.0000000  4.9162000  2
  15872  15868  15867  15873     1  0.0000000  0.6024960  3
  15873  15867  15866  15874     1  0.0000000  4.9162000  2
  15873  15867  15866  15874     1  0.0000000  0.6024960  3
  15873  15867  15868  15884     1  0.0000000  4.9162000  2
  15873  15867  15868  15884     1  0.0000000  0.6024960  3
  15874  15866  15863  15875     1  0.0000000  4.9162000  2
  15874  15866  15863  15875     1  0.0000000  0.6024960  3
  15875  15863  15862  15876     1  0.0000000  0.6508444  3
  15875  15863  15862  15884     1  0.0000000  4.9162000  2
  15875  15863  15862  15884     1  0.0000000  0.6024960  3
  15882  15876  15862  15884     1  0.0000000  4.9162000  2
  15882  15876  15862  15884     1  0.0000000  0.6024960  3
  15885  15886  15889  15890     1  180.0000771  0.8368000  1
  15885  15886  15889  15890     1  180.0000771  1.0460000  2
  15885  15886  15889  15890     1  0.0000000  0.7531200  3
  15885  15886  15889  15897     1  0.0000000  0.6508444  3
  15885  15907  15891  15895     1  180.0000771  5.6484000  1
  15885  15907  15891  15895     1  180.0000771  3.5564000  2
  15885  15907  15891  15895     1  0.0000000  0.4184000  3
  15885  15907  15891  15890     1  180.0000771  0.4184000  2
  15885  15907  15891  15890     1  0.0000000  1.6024720  3
  15886  15889  15890  15891     1  180.0000771  0.8368000  1
  15886  15889  15890  15891     1  180.0000771  1.0460000  2
  15886  15889  15890  15891     1  0.0000000  0.7531200  3
  15886  15889  15890  15896     1  0.0000000  0.6508444  3
  15886  15885  15899  15905     1  0.0000000  0.6508444  3
  15886  15885  15907  15891     1  180.0000771  0.4184000  2
  15886  15885  15907  15891     1  0.0000000  1.6024720  3
  15889  15890  15891  15895     1  0.0000000  0.6508444  3
  15889  15890  15891  15907     1  0.0000000  0.6508444  3
  15889  15886  15885  15899     1  180.0000771  0.8368000  1
  15889  15886  15885  15899     1  180.0000771  1.0460000  2
  15889  15886  15885  15899     1  0.0000000  0.7531200  3
  15889  15886  15885  15907     1  0.0000000  0.6508444  3
  15890  15889  15886  15898     1  0.0000000  0.6508444  3
  15891  15907  15885  15899     1  180.0000771  0.4184000  2
  15891  15907  15885  15899     1  0.0000000  1.6024720  3
  15891  15890  15889  15897     1  0.0000000  0.6508444  3
  15895  15891  15890  15896     1  0.0000000  4.9162000  2
  15895  15891  15890  15896     1  0.0000000  0.6024960  3
  15896  15890  15891  15907     1  0.0000000  4.9162000  2
  15896  15890  15891  15907     1  0.0000000  0.6024960  3
  15896  15890  15889  15897     1  0.0000000  4.9162000  2
  15896  15890  15889  15897     1  0.0000000  0.6024960  3
  15897  15889  15886  15898     1  0.0000000  4.9162000  2
  15897  15889  15886  15898     1  0.0000000  0.6024960  3
  15898  15886  15885  15899     1  0.0000000  0.6508444  3
  15898  15886  15885  15907     1  0.0000000  4.9162000  2
  15898  15886  15885  15907     1  0.0000000  0.6024960  3
  15905  15899  15885  15907     1  0.0000000  4.9162000  2
  15905  15899  15885  15907     1  0.0000000  0.6024960  3
  15908  15909  15912  15913     1  180.0000771  0.8368000  1
  15908  15909  15912  15913     1  180.0000771  1.0460000  2
  15908  15909  15912  15913     1  0.0000000  0.7531200  3
  15908  15909  15912  15920     1  0.0000000  0.6508444  3
  15908  15930  15914  15913     1  180.0000771  0.4184000  2
  15908  15930  15914  15913     1  0.0000000  1.6024720  3
  15908  15930  15914  15918     1  180.0000771  5.6484000  1
  15908  15930  15914  15918     1  180.0000771  3.5564000  2
  15908  15930  15914  15918     1  0.0000000  0.4184000  3
  15909  15908  15922  15928     1  0.0000000  0.6508444  3
  15909  15908  15930  15914     1  180.0000771  0.4184000  2
  15909  15908  15930  15914     1  0.0000000  1.6024720  3
  15909  15912  15913  15914     1  180.0000771  0.8368000  1
  15909  15912  15913  15914     1  180.0000771  1.0460000  2
  15909  15912  15913  15914     1  0.0000000  0.7531200  3
  15909  15912  15913  15919     1  0.0000000  0.6508444  3
  15912  15909  15908  15922     1  180.0000771  0.8368000  1
  15912  15909  15908  15922     1  180.0000771  1.0460000  2
  15912  15909  15908  15922     1  0.0000000  0.7531200  3
  15912  15909  15908  15930     1  0.0000000  0.6508444  3
  15912  15913  15914  15918     1  0.0000000  0.6508444  3
  15912  15913  15914  15930     1  0.0000000  0.6508444  3
  15913  15912  15909  15921     1  0.0000000  0.6508444  3
  15914  15913  15912  15920     1  0.0000000  0.6508444  3
  15914  15930  15908  15922     1  180.0000771  0.4184000  2
  15914  15930  15908  15922     1  0.0000000  1.6024720  3
  15918  15914  15913  15919     1  0.0000000  4.9162000  2
  15918  15914  15913  15919     1  0.0000000  0.6024960  3
  15919  15913  15912  15920     1  0.0000000  4.9162000  2
  15919  15913  15912  15920     1  0.0000000  0.6024960  3
  15919  15913  15914  15930     1  0.0000000  4.9162000  2
  15919  15913  15914  15930     1  0.0000000  0.6024960  3
  15920  15912  15909  15921     1  0.0000000  4.9162000  2
  15920  15912  15909  15921     1  0.0000000  0.6024960  3
  15921  15909  15908  15922     1  0.0000000  0.6508444  3
  15921  15909  15908  15930     1  0.0000000  4.9162000  2
  15921  15909  15908  15930     1  0.0000000  0.6024960  3
  15928  15922  15908  15930     1  0.0000000  4.9162000  2
  15928  15922  15908  15930     1  0.0000000  0.6024960  3
  15931  15932  15935  15936     1  180.0000771  0.8368000  1
  15931  15932  15935  15936     1  180.0000771  1.0460000  2
  15931  15932  15935  15936     1  0.0000000  0.7531200  3
  15931  15932  15935  15943     1  0.0000000  0.6508444  3
  15931  15953  15937  15941     1  180.0000771  5.6484000  1
  15931  15953  15937  15941     1  180.0000771  3.5564000  2
  15931  15953  15937  15941     1  0.0000000  0.4184000  3
  15931  15953  15937  15936     1  180.0000771  0.4184000  2
  15931  15953  15937  15936     1  0.0000000  1.6024720  3
  15932  15935  15936  15937     1  180.0000771  0.8368000  1
  15932  15935  15936  15937     1  180.0000771  1.0460000  2
  15932  15935  15936  15937     1  0.0000000  0.7531200  3
  15932  15935  15936  15942     1  0.0000000  0.6508444  3
  15932  15931  15945  15951     1  0.0000000  0.6508444  3
  15932  15931  15953  15937     1  180.0000771  0.4184000  2
  15932  15931  15953  15937     1  0.0000000  1.6024720  3
  15935  15936  15937  15941     1  0.0000000  0.6508444  3
  15935  15936  15937  15953     1  0.0000000  0.6508444  3
  15935  15932  15931  15945     1  180.0000771  0.8368000  1
  15935  15932  15931  15945     1  180.0000771  1.0460000  2
  15935  15932  15931  15945     1  0.0000000  0.7531200  3
  15935  15932  15931  15953     1  0.0000000  0.6508444  3
  15936  15935  15932  15944     1  0.0000000  0.6508444  3
  15937  15953  15931  15945     1  180.0000771  0.4184000  2
  15937  15953  15931  15945     1  0.0000000  1.6024720  3
  15937  15936  15935  15943     1  0.0000000  0.6508444  3
  15941  15937  15936  15942     1  0.0000000  4.9162000  2
  15941  15937  15936  15942     1  0.0000000  0.6024960  3
  15942  15936  15937  15953     1  0.0000000  4.9162000  2
  15942  15936  15937  15953     1  0.0000000  0.6024960  3
  15942  15936  15935  15943     1  0.0000000  4.9162000  2
  15942  15936  15935  15943     1  0.0000000  0.6024960  3
  15943  15935  15932  15944     1  0.0000000  4.9162000  2
  15943  15935  15932  15944     1  0.0000000  0.6024960  3
  15944  15932  15931  15945     1  0.0000000  0.6508444  3
  15944  15932  15931  15953     1  0.0000000  4.9162000  2
  15944  15932  15931  15953     1  0.0000000  0.6024960  3
  15951  15945  15931  15953     1  0.0000000  4.9162000  2
  15951  15945  15931  15953     1  0.0000000  0.6024960  3
  15954  15955  15958  15959     1  180.0000771  0.8368000  1
  15954  15955  15958  15959     1  180.0000771  1.0460000  2
  15954  15955  15958  15959     1  0.0000000  0.7531200  3
  15954  15955  15958  15966     1  0.0000000  0.6508444  3
  15954  15976  15960  15959     1  180.0000771  0.4184000  2
  15954  15976  15960  15959     1  0.0000000  1.6024720  3
  15954  15976  15960  15964     1  180.0000771  5.6484000  1
  15954  15976  15960  15964     1  180.0000771  3.5564000  2
  15954  15976  15960  15964     1  0.0000000  0.4184000  3
  15955  15954  15968  15974     1  0.0000000  0.6508444  3
  15955  15954  15976  15960     1  180.0000771  0.4184000  2
  15955  15954  15976  15960     1  0.0000000  1.6024720  3
  15955  15958  15959  15960     1  180.0000771  0.8368000  1
  15955  15958  15959  15960     1  180.0000771  1.0460000  2
  15955  15958  15959  15960     1  0.0000000  0.7531200  3
  15955  15958  15959  15965     1  0.0000000  0.6508444  3
  15958  15955  15954  15968     1  180.0000771  0.8368000  1
  15958  15955  15954  15968     1  180.0000771  1.0460000  2
  15958  15955  15954  15968     1  0.0000000  0.7531200  3
  15958  15955  15954  15976     1  0.0000000  0.6508444  3
  15958  15959  15960  15964     1  0.0000000  0.6508444  3
  15958  15959  15960  15976     1  0.0000000  0.6508444  3
  15959  15958  15955  15967     1  0.0000000  0.6508444  3
  15960  15959  15958  15966     1  0.0000000  0.6508444  3
  15960  15976  15954  15968     1  180.0000771  0.4184000  2
  15960  15976  15954  15968     1  0.0000000  1.6024720  3
  15964  15960  15959  15965     1  0.0000000  4.9162000  2
  15964  15960  15959  15965     1  0.0000000  0.6024960  3
  15965  15959  15958  15966     1  0.0000000  4.9162000  2
  15965  15959  15958  15966     1  0.0000000  0.6024960  3
  15965  15959  15960  15976     1  0.0000000  4.9162000  2
  15965  15959  15960  15976     1  0.0000000  0.6024960  3
  15966  15958  15955  15967     1  0.0000000  4.9162000  2
  15966  15958  15955  15967     1  0.0000000  0.6024960  3
  15967  15955  15954  15968     1  0.0000000  0.6508444  3
  15967  15955  15954  15976     1  0.0000000  4.9162000  2
  15967  15955  15954  15976     1  0.0000000  0.6024960  3
  15974  15968  15954  15976     1  0.0000000  4.9162000  2
  15974  15968  15954  15976     1  0.0000000  0.6024960  3
  15977  15978  15981  15982     1  180.0000771  0.8368000  1
  15977  15978  15981  15982     1  180.0000771  1.0460000  2
  15977  15978  15981  15982     1  0.0000000  0.7531200  3
  15977  15978  15981  15989     1  0.0000000  0.6508444  3
  15977  15999  15983  15987     1  180.0000771  5.6484000  1
  15977  15999  15983  15987     1  180.0000771  3.5564000  2
  15977  15999  15983  15987     1  0.0000000  0.4184000  3
  15977  15999  15983  15982     1  180.0000771  0.4184000  2
  15977  15999  15983  15982     1  0.0000000  1.6024720  3
  15978  15981  15982  15983     1  180.0000771  0.8368000  1
  15978  15981  15982  15983     1  180.0000771  1.0460000  2
  15978  15981  15982  15983     1  0.0000000  0.7531200  3
  15978  15981  15982  15988     1  0.0000000  0.6508444  3
  15978  15977  15991  15997     1  0.0000000  0.6508444  3
  15978  15977  15999  15983     1  180.0000771  0.4184000  2
  15978  15977  15999  15983     1  0.0000000  1.6024720  3
  15981  15982  15983  15987     1  0.0000000  0.6508444  3
  15981  15982  15983  15999     1  0.0000000  0.6508444  3
  15981  15978  15977  15991     1  180.0000771  0.8368000  1
  15981  15978  15977  15991     1  180.0000771  1.0460000  2
  15981  15978  15977  15991     1  0.0000000  0.7531200  3
  15981  15978  15977  15999     1  0.0000000  0.6508444  3
  15982  15981  15978  15990     1  0.0000000  0.6508444  3
  15983  15999  15977  15991     1  180.0000771  0.4184000  2
  15983  15999  15977  15991     1  0.0000000  1.6024720  3
  15983  15982  15981  15989     1  0.0000000  0.6508444  3
  15987  15983  15982  15988     1  0.0000000  4.9162000  2
  15987  15983  15982  15988     1  0.0000000  0.6024960  3
  15988  15982  15983  15999     1  0.0000000  4.9162000  2
  15988  15982  15983  15999     1  0.0000000  0.6024960  3
  15988  15982  15981  15989     1  0.0000000  4.9162000  2
  15988  15982  15981  15989     1  0.0000000  0.6024960  3
  15989  15981  15978  15990     1  0.0000000  4.9162000  2
  15989  15981  15978  15990     1  0.0000000  0.6024960  3
  15990  15978  15977  15991     1  0.0000000  0.6508444  3
  15990  15978  15977  15999     1  0.0000000  4.9162000  2
  15990  15978  15977  15999     1  0.0000000  0.6024960  3
  15997  15991  15977  15999     1  0.0000000  4.9162000  2
  15997  15991  15977  15999     1  0.0000000  0.6024960  3
  16000  16001  16004  16005     1  180.0000771  0.8368000  1
  16000  16001  16004  16005     1  180.0000771  1.0460000  2
  16000  16001  16004  16005     1  0.0000000  0.7531200  3
  16000  16001  16004  16012     1  0.0000000  0.6508444  3
  16000  16022  16006  16005     1  180.0000771  0.4184000  2
  16000  16022  16006  16005     1  0.0000000  1.6024720  3
  16000  16022  16006  16010     1  180.0000771  5.6484000  1
  16000  16022  16006  16010     1  180.0000771  3.5564000  2
  16000  16022  16006  16010     1  0.0000000  0.4184000  3
  16001  16000  16014  16020     1  0.0000000  0.6508444  3
  16001  16000  16022  16006     1  180.0000771  0.4184000  2
  16001  16000  16022  16006     1  0.0000000  1.6024720  3
  16001  16004  16005  16006     1  180.0000771  0.8368000  1
  16001  16004  16005  16006     1  180.0000771  1.0460000  2
  16001  16004  16005  16006     1  0.0000000  0.7531200  3
  16001  16004  16005  16011     1  0.0000000  0.6508444  3
  16004  16001  16000  16014     1  180.0000771  0.8368000  1
  16004  16001  16000  16014     1  180.0000771  1.0460000  2
  16004  16001  16000  16014     1  0.0000000  0.7531200  3
  16004  16001  16000  16022     1  0.0000000  0.6508444  3
  16004  16005  16006  16010     1  0.0000000  0.6508444  3
  16004  16005  16006  16022     1  0.0000000  0.6508444  3
  16005  16004  16001  16013     1  0.0000000  0.6508444  3
  16006  16005  16004  16012     1  0.0000000  0.6508444  3
  16006  16022  16000  16014     1  180.0000771  0.4184000  2
  16006  16022  16000  16014     1  0.0000000  1.6024720  3
  16010  16006  16005  16011     1  0.0000000  4.9162000  2
  16010  16006  16005  16011     1  0.0000000  0.6024960  3
  16011  16005  16004  16012     1  0.0000000  4.9162000  2
  16011  16005  16004  16012     1  0.0000000  0.6024960  3
  16011  16005  16006  16022     1  0.0000000  4.9162000  2
  16011  16005  16006  16022     1  0.0000000  0.6024960  3
  16012  16004  16001  16013     1  0.0000000  4.9162000  2
  16012  16004  16001  16013     1  0.0000000  0.6024960  3
  16013  16001  16000  16014     1  0.0000000  0.6508444  3
  16013  16001  16000  16022     1  0.0000000  4.9162000  2
  16013  16001  16000  16022     1  0.0000000  0.6024960  3
  16020  16014  16000  16022     1  0.0000000  4.9162000  2
  16020  16014  16000  16022     1  0.0000000  0.6024960  3
  16023  16024  16027  16028     1  180.0000771  0.8368000  1
  16023  16024  16027  16028     1  180.0000771  1.0460000  2
  16023  16024  16027  16028     1  0.0000000  0.7531200  3
  16023  16024  16027  16035     1  0.0000000  0.6508444  3
  16023  16045  16029  16033     1  180.0000771  5.6484000  1
  16023  16045  16029  16033     1  180.0000771  3.5564000  2
  16023  16045  16029  16033     1  0.0000000  0.4184000  3
  16023  16045  16029  16028     1  180.0000771  0.4184000  2
  16023  16045  16029  16028     1  0.0000000  1.6024720  3
  16024  16027  16028  16029     1  180.0000771  0.8368000  1
  16024  16027  16028  16029     1  180.0000771  1.0460000  2
  16024  16027  16028  16029     1  0.0000000  0.7531200  3
  16024  16027  16028  16034     1  0.0000000  0.6508444  3
  16024  16023  16037  16043     1  0.0000000  0.6508444  3
  16024  16023  16045  16029     1  180.0000771  0.4184000  2
  16024  16023  16045  16029     1  0.0000000  1.6024720  3
  16027  16028  16029  16033     1  0.0000000  0.6508444  3
  16027  16028  16029  16045     1  0.0000000  0.6508444  3
  16027  16024  16023  16037     1  180.0000771  0.8368000  1
  16027  16024  16023  16037     1  180.0000771  1.0460000  2
  16027  16024  16023  16037     1  0.0000000  0.7531200  3
  16027  16024  16023  16045     1  0.0000000  0.6508444  3
  16028  16027  16024  16036     1  0.0000000  0.6508444  3
  16029  16045  16023  16037     1  180.0000771  0.4184000  2
  16029  16045  16023  16037     1  0.0000000  1.6024720  3
  16029  16028  16027  16035     1  0.0000000  0.6508444  3
  16033  16029  16028  16034     1  0.0000000  4.9162000  2
  16033  16029  16028  16034     1  0.0000000  0.6024960  3
  16034  16028  16029  16045     1  0.0000000  4.9162000  2
  16034  16028  16029  16045     1  0.0000000  0.6024960  3
  16034  16028  16027  16035     1  0.0000000  4.9162000  2
  16034  16028  16027  16035     1  0.0000000  0.6024960  3
  16035  16027  16024  16036     1  0.0000000  4.9162000  2
  16035  16027  16024  16036     1  0.0000000  0.6024960  3
  16036  16024  16023  16037     1  0.0000000  0.6508444  3
  16036  16024  16023  16045     1  0.0000000  4.9162000  2
  16036  16024  16023  16045     1  0.0000000  0.6024960  3
  16043  16037  16023  16045     1  0.0000000  4.9162000  2
  16043  16037  16023  16045     1  0.0000000  0.6024960  3
  16046  16047  16050  16051     1  180.0000771  0.8368000  1
  16046  16047  16050  16051     1  180.0000771  1.0460000  2
  16046  16047  16050  16051     1  0.0000000  0.7531200  3
  16046  16047  16050  16058     1  0.0000000  0.6508444  3
  16046  16068  16052  16051     1  180.0000771  0.4184000  2
  16046  16068  16052  16051     1  0.0000000  1.6024720  3
  16046  16068  16052  16056     1  180.0000771  5.6484000  1
  16046  16068  16052  16056     1  180.0000771  3.5564000  2
  16046  16068  16052  16056     1  0.0000000  0.4184000  3
  16047  16046  16060  16066     1  0.0000000  0.6508444  3
  16047  16046  16068  16052     1  180.0000771  0.4184000  2
  16047  16046  16068  16052     1  0.0000000  1.6024720  3
  16047  16050  16051  16052     1  180.0000771  0.8368000  1
  16047  16050  16051  16052     1  180.0000771  1.0460000  2
  16047  16050  16051  16052     1  0.0000000  0.7531200  3
  16047  16050  16051  16057     1  0.0000000  0.6508444  3
  16050  16047  16046  16060     1  180.0000771  0.8368000  1
  16050  16047  16046  16060     1  180.0000771  1.0460000  2
  16050  16047  16046  16060     1  0.0000000  0.7531200  3
  16050  16047  16046  16068     1  0.0000000  0.6508444  3
  16050  16051  16052  16056     1  0.0000000  0.6508444  3
  16050  16051  16052  16068     1  0.0000000  0.6508444  3
  16051  16050  16047  16059     1  0.0000000  0.6508444  3
  16052  16051  16050  16058     1  0.0000000  0.6508444  3
  16052  16068  16046  16060     1  180.0000771  0.4184000  2
  16052  16068  16046  16060     1  0.0000000  1.6024720  3
  16056  16052  16051  16057     1  0.0000000  4.9162000  2
  16056  16052  16051  16057     1  0.0000000  0.6024960  3
  16057  16051  16050  16058     1  0.0000000  4.9162000  2
  16057  16051  16050  16058     1  0.0000000  0.6024960  3
  16057  16051  16052  16068     1  0.0000000  4.9162000  2
  16057  16051  16052  16068     1  0.0000000  0.6024960  3
  16058  16050  16047  16059     1  0.0000000  4.9162000  2
  16058  16050  16047  16059     1  0.0000000  0.6024960  3
  16059  16047  16046  16060     1  0.0000000  0.6508444  3
  16059  16047  16046  16068     1  0.0000000  4.9162000  2
  16059  16047  16046  16068     1  0.0000000  0.6024960  3
  16066  16060  16046  16068     1  0.0000000  4.9162000  2
  16066  16060  16046  16068     1  0.0000000  0.6024960  3
  16069  16070  16073  16074     1  180.0000771  0.8368000  1
  16069  16070  16073  16074     1  180.0000771  1.0460000  2
  16069  16070  16073  16074     1  0.0000000  0.7531200  3
  16069  16070  16073  16081     1  0.0000000  0.6508444  3
  16069  16091  16075  16079     1  180.0000771  5.6484000  1
  16069  16091  16075  16079     1  180.0000771  3.5564000  2
  16069  16091  16075  16079     1  0.0000000  0.4184000  3
  16069  16091  16075  16074     1  180.0000771  0.4184000  2
  16069  16091  16075  16074     1  0.0000000  1.6024720  3
  16070  16073  16074  16075     1  180.0000771  0.8368000  1
  16070  16073  16074  16075     1  180.0000771  1.0460000  2
  16070  16073  16074  16075     1  0.0000000  0.7531200  3
  16070  16073  16074  16080     1  0.0000000  0.6508444  3
  16070  16069  16083  16089     1  0.0000000  0.6508444  3
  16070  16069  16091  16075     1  180.0000771  0.4184000  2
  16070  16069  16091  16075     1  0.0000000  1.6024720  3
  16073  16074  16075  16079     1  0.0000000  0.6508444  3
  16073  16074  16075  16091     1  0.0000000  0.6508444  3
  16073  16070  16069  16083     1  180.0000771  0.8368000  1
  16073  16070  16069  16083     1  180.0000771  1.0460000  2
  16073  16070  16069  16083     1  0.0000000  0.7531200  3
  16073  16070  16069  16091     1  0.0000000  0.6508444  3
  16074  16073  16070  16082     1  0.0000000  0.6508444  3
  16075  16091  16069  16083     1  180.0000771  0.4184000  2
  16075  16091  16069  16083     1  0.0000000  1.6024720  3
  16075  16074  16073  16081     1  0.0000000  0.6508444  3
  16079  16075  16074  16080     1  0.0000000  4.9162000  2
  16079  16075  16074  16080     1  0.0000000  0.6024960  3
  16080  16074  16075  16091     1  0.0000000  4.9162000  2
  16080  16074  16075  16091     1  0.0000000  0.6024960  3
  16080  16074  16073  16081     1  0.0000000  4.9162000  2
  16080  16074  16073  16081     1  0.0000000  0.6024960  3
  16081  16073  16070  16082     1  0.0000000  4.9162000  2
  16081  16073  16070  16082     1  0.0000000  0.6024960  3
  16082  16070  16069  16083     1  0.0000000  0.6508444  3
  16082  16070  16069  16091     1  0.0000000  4.9162000  2
  16082  16070  16069  16091     1  0.0000000  0.6024960  3
  16089  16083  16069  16091     1  0.0000000  4.9162000  2
  16089  16083  16069  16091     1  0.0000000  0.6024960  3
  16092  16093  16096  16097     1  180.0000771  0.8368000  1
  16092  16093  16096  16097     1  180.0000771  1.0460000  2
  16092  16093  16096  16097     1  0.0000000  0.7531200  3
  16092  16093  16096  16104     1  0.0000000  0.6508444  3
  16092  16114  16098  16097     1  180.0000771  0.4184000  2
  16092  16114  16098  16097     1  0.0000000  1.6024720  3
  16092  16114  16098  16102     1  180.0000771  5.6484000  1
  16092  16114  16098  16102     1  180.0000771  3.5564000  2
  16092  16114  16098  16102     1  0.0000000  0.4184000  3
  16093  16092  16106  16112     1  0.0000000  0.6508444  3
  16093  16092  16114  16098     1  180.0000771  0.4184000  2
  16093  16092  16114  16098     1  0.0000000  1.6024720  3
  16093  16096  16097  16098     1  180.0000771  0.8368000  1
  16093  16096  16097  16098     1  180.0000771  1.0460000  2
  16093  16096  16097  16098     1  0.0000000  0.7531200  3
  16093  16096  16097  16103     1  0.0000000  0.6508444  3
  16096  16093  16092  16106     1  180.0000771  0.8368000  1
  16096  16093  16092  16106     1  180.0000771  1.0460000  2
  16096  16093  16092  16106     1  0.0000000  0.7531200  3
  16096  16093  16092  16114     1  0.0000000  0.6508444  3
  16096  16097  16098  16102     1  0.0000000  0.6508444  3
  16096  16097  16098  16114     1  0.0000000  0.6508444  3
  16097  16096  16093  16105     1  0.0000000  0.6508444  3
  16098  16097  16096  16104     1  0.0000000  0.6508444  3
  16098  16114  16092  16106     1  180.0000771  0.4184000  2
  16098  16114  16092  16106     1  0.0000000  1.6024720  3
  16102  16098  16097  16103     1  0.0000000  4.9162000  2
  16102  16098  16097  16103     1  0.0000000  0.6024960  3
  16103  16097  16096  16104     1  0.0000000  4.9162000  2
  16103  16097  16096  16104     1  0.0000000  0.6024960  3
  16103  16097  16098  16114     1  0.0000000  4.9162000  2
  16103  16097  16098  16114     1  0.0000000  0.6024960  3
  16104  16096  16093  16105     1  0.0000000  4.9162000  2
  16104  16096  16093  16105     1  0.0000000  0.6024960  3
  16105  16093  16092  16106     1  0.0000000  0.6508444  3
  16105  16093  16092  16114     1  0.0000000  4.9162000  2
  16105  16093  16092  16114     1  0.0000000  0.6024960  3
  16112  16106  16092  16114     1  0.0000000  4.9162000  2
  16112  16106  16092  16114     1  0.0000000  0.6024960  3
  16115  16116  16119  16120     1  180.0000771  0.8368000  1
  16115  16116  16119  16120     1  180.0000771  1.0460000  2
  16115  16116  16119  16120     1  0.0000000  0.7531200  3
  16115  16116  16119  16127     1  0.0000000  0.6508444  3
  16115  16137  16121  16125     1  180.0000771  5.6484000  1
  16115  16137  16121  16125     1  180.0000771  3.5564000  2
  16115  16137  16121  16125     1  0.0000000  0.4184000  3
  16115  16137  16121  16120     1  180.0000771  0.4184000  2
  16115  16137  16121  16120     1  0.0000000  1.6024720  3
  16116  16119  16120  16121     1  180.0000771  0.8368000  1
  16116  16119  16120  16121     1  180.0000771  1.0460000  2
  16116  16119  16120  16121     1  0.0000000  0.7531200  3
  16116  16119  16120  16126     1  0.0000000  0.6508444  3
  16116  16115  16129  16135     1  0.0000000  0.6508444  3
  16116  16115  16137  16121     1  180.0000771  0.4184000  2
  16116  16115  16137  16121     1  0.0000000  1.6024720  3
  16119  16120  16121  16125     1  0.0000000  0.6508444  3
  16119  16120  16121  16137     1  0.0000000  0.6508444  3
  16119  16116  16115  16129     1  180.0000771  0.8368000  1
  16119  16116  16115  16129     1  180.0000771  1.0460000  2
  16119  16116  16115  16129     1  0.0000000  0.7531200  3
  16119  16116  16115  16137     1  0.0000000  0.6508444  3
  16120  16119  16116  16128     1  0.0000000  0.6508444  3
  16121  16137  16115  16129     1  180.0000771  0.4184000  2
  16121  16137  16115  16129     1  0.0000000  1.6024720  3
  16121  16120  16119  16127     1  0.0000000  0.6508444  3
  16125  16121  16120  16126     1  0.0000000  4.9162000  2
  16125  16121  16120  16126     1  0.0000000  0.6024960  3
  16126  16120  16121  16137     1  0.0000000  4.9162000  2
  16126  16120  16121  16137     1  0.0000000  0.6024960  3
  16126  16120  16119  16127     1  0.0000000  4.9162000  2
  16126  16120  16119  16127     1  0.0000000  0.6024960  3
  16127  16119  16116  16128     1  0.0000000  4.9162000  2
  16127  16119  16116  16128     1  0.0000000  0.6024960  3
  16128  16116  16115  16129     1  0.0000000  0.6508444  3
  16128  16116  16115  16137     1  0.0000000  4.9162000  2
  16128  16116  16115  16137     1  0.0000000  0.6024960  3
  16135  16129  16115  16137     1  0.0000000  4.9162000  2
  16135  16129  16115  16137     1  0.0000000  0.6024960  3
  16138  16139  16142  16143     1  180.0000771  0.8368000  1
  16138  16139  16142  16143     1  180.0000771  1.0460000  2
  16138  16139  16142  16143     1  0.0000000  0.7531200  3
  16138  16139  16142  16150     1  0.0000000  0.6508444  3
  16138  16160  16144  16143     1  180.0000771  0.4184000  2
  16138  16160  16144  16143     1  0.0000000  1.6024720  3
  16138  16160  16144  16148     1  180.0000771  5.6484000  1
  16138  16160  16144  16148     1  180.0000771  3.5564000  2
  16138  16160  16144  16148     1  0.0000000  0.4184000  3
  16139  16138  16152  16158     1  0.0000000  0.6508444  3
  16139  16138  16160  16144     1  180.0000771  0.4184000  2
  16139  16138  16160  16144     1  0.0000000  1.6024720  3
  16139  16142  16143  16144     1  180.0000771  0.8368000  1
  16139  16142  16143  16144     1  180.0000771  1.0460000  2
  16139  16142  16143  16144     1  0.0000000  0.7531200  3
  16139  16142  16143  16149     1  0.0000000  0.6508444  3
  16142  16139  16138  16152     1  180.0000771  0.8368000  1
  16142  16139  16138  16152     1  180.0000771  1.0460000  2
  16142  16139  16138  16152     1  0.0000000  0.7531200  3
  16142  16139  16138  16160     1  0.0000000  0.6508444  3
  16142  16143  16144  16148     1  0.0000000  0.6508444  3
  16142  16143  16144  16160     1  0.0000000  0.6508444  3
  16143  16142  16139  16151     1  0.0000000  0.6508444  3
  16144  16143  16142  16150     1  0.0000000  0.6508444  3
  16144  16160  16138  16152     1  180.0000771  0.4184000  2
  16144  16160  16138  16152     1  0.0000000  1.6024720  3
  16148  16144  16143  16149     1  0.0000000  4.9162000  2
  16148  16144  16143  16149     1  0.0000000  0.6024960  3
  16149  16143  16142  16150     1  0.0000000  4.9162000  2
  16149  16143  16142  16150     1  0.0000000  0.6024960  3
  16149  16143  16144  16160     1  0.0000000  4.9162000  2
  16149  16143  16144  16160     1  0.0000000  0.6024960  3
  16150  16142  16139  16151     1  0.0000000  4.9162000  2
  16150  16142  16139  16151     1  0.0000000  0.6024960  3
  16151  16139  16138  16152     1  0.0000000  0.6508444  3
  16151  16139  16138  16160     1  0.0000000  4.9162000  2
  16151  16139  16138  16160     1  0.0000000  0.6024960  3
  16158  16152  16138  16160     1  0.0000000  4.9162000  2
  16158  16152  16138  16160     1  0.0000000  0.6024960  3
  16161  16162  16165  16166     1  180.0000771  0.8368000  1
  16161  16162  16165  16166     1  180.0000771  1.0460000  2
  16161  16162  16165  16166     1  0.0000000  0.7531200  3
  16161  16162  16165  16173     1  0.0000000  0.6508444  3
  16161  16183  16167  16171     1  180.0000771  5.6484000  1
  16161  16183  16167  16171     1  180.0000771  3.5564000  2
  16161  16183  16167  16171     1  0.0000000  0.4184000  3
  16161  16183  16167  16166     1  180.0000771  0.4184000  2
  16161  16183  16167  16166     1  0.0000000  1.6024720  3
  16162  16165  16166  16167     1  180.0000771  0.8368000  1
  16162  16165  16166  16167     1  180.0000771  1.0460000  2
  16162  16165  16166  16167     1  0.0000000  0.7531200  3
  16162  16165  16166  16172     1  0.0000000  0.6508444  3
  16162  16161  16175  16181     1  0.0000000  0.6508444  3
  16162  16161  16183  16167     1  180.0000771  0.4184000  2
  16162  16161  16183  16167     1  0.0000000  1.6024720  3
  16165  16166  16167  16171     1  0.0000000  0.6508444  3
  16165  16166  16167  16183     1  0.0000000  0.6508444  3
  16165  16162  16161  16175     1  180.0000771  0.8368000  1
  16165  16162  16161  16175     1  180.0000771  1.0460000  2
  16165  16162  16161  16175     1  0.0000000  0.7531200  3
  16165  16162  16161  16183     1  0.0000000  0.6508444  3
  16166  16165  16162  16174     1  0.0000000  0.6508444  3
  16167  16183  16161  16175     1  180.0000771  0.4184000  2
  16167  16183  16161  16175     1  0.0000000  1.6024720  3
  16167  16166  16165  16173     1  0.0000000  0.6508444  3
  16171  16167  16166  16172     1  0.0000000  4.9162000  2
  16171  16167  16166  16172     1  0.0000000  0.6024960  3
  16172  16166  16167  16183     1  0.0000000  4.9162000  2
  16172  16166  16167  16183     1  0.0000000  0.6024960  3
  16172  16166  16165  16173     1  0.0000000  4.9162000  2
  16172  16166  16165  16173     1  0.0000000  0.6024960  3
  16173  16165  16162  16174     1  0.0000000  4.9162000  2
  16173  16165  16162  16174     1  0.0000000  0.6024960  3
  16174  16162  16161  16175     1  0.0000000  0.6508444  3
  16174  16162  16161  16183     1  0.0000000  4.9162000  2
  16174  16162  16161  16183     1  0.0000000  0.6024960  3
  16181  16175  16161  16183     1  0.0000000  4.9162000  2
  16181  16175  16161  16183     1  0.0000000  0.6024960  3
  16184  16185  16188  16189     1  180.0000771  0.8368000  1
  16184  16185  16188  16189     1  180.0000771  1.0460000  2
  16184  16185  16188  16189     1  0.0000000  0.7531200  3
  16184  16185  16188  16196     1  0.0000000  0.6508444  3
  16184  16206  16190  16189     1  180.0000771  0.4184000  2
  16184  16206  16190  16189     1  0.0000000  1.6024720  3
  16184  16206  16190  16194     1  180.0000771  5.6484000  1
  16184  16206  16190  16194     1  180.0000771  3.5564000  2
  16184  16206  16190  16194     1  0.0000000  0.4184000  3
  16185  16184  16198  16204     1  0.0000000  0.6508444  3
  16185  16184  16206  16190     1  180.0000771  0.4184000  2
  16185  16184  16206  16190     1  0.0000000  1.6024720  3
  16185  16188  16189  16190     1  180.0000771  0.8368000  1
  16185  16188  16189  16190     1  180.0000771  1.0460000  2
  16185  16188  16189  16190     1  0.0000000  0.7531200  3
  16185  16188  16189  16195     1  0.0000000  0.6508444  3
  16188  16185  16184  16198     1  180.0000771  0.8368000  1
  16188  16185  16184  16198     1  180.0000771  1.0460000  2
  16188  16185  16184  16198     1  0.0000000  0.7531200  3
  16188  16185  16184  16206     1  0.0000000  0.6508444  3
  16188  16189  16190  16194     1  0.0000000  0.6508444  3
  16188  16189  16190  16206     1  0.0000000  0.6508444  3
  16189  16188  16185  16197     1  0.0000000  0.6508444  3
  16190  16189  16188  16196     1  0.0000000  0.6508444  3
  16190  16206  16184  16198     1  180.0000771  0.4184000  2
  16190  16206  16184  16198     1  0.0000000  1.6024720  3
  16194  16190  16189  16195     1  0.0000000  4.9162000  2
  16194  16190  16189  16195     1  0.0000000  0.6024960  3
  16195  16189  16188  16196     1  0.0000000  4.9162000  2
  16195  16189  16188  16196     1  0.0000000  0.6024960  3
  16195  16189  16190  16206     1  0.0000000  4.9162000  2
  16195  16189  16190  16206     1  0.0000000  0.6024960  3
  16196  16188  16185  16197     1  0.0000000  4.9162000  2
  16196  16188  16185  16197     1  0.0000000  0.6024960  3
  16197  16185  16184  16198     1  0.0000000  0.6508444  3
  16197  16185  16184  16206     1  0.0000000  4.9162000  2
  16197  16185  16184  16206     1  0.0000000  0.6024960  3
  16204  16198  16184  16206     1  0.0000000  4.9162000  2
  16204  16198  16184  16206     1  0.0000000  0.6024960  3
  16207  16208  16211  16212     1  180.0000771  0.8368000  1
  16207  16208  16211  16212     1  180.0000771  1.0460000  2
  16207  16208  16211  16212     1  0.0000000  0.7531200  3
  16207  16208  16211  16219     1  0.0000000  0.6508444  3
  16207  16229  16213  16217     1  180.0000771  5.6484000  1
  16207  16229  16213  16217     1  180.0000771  3.5564000  2
  16207  16229  16213  16217     1  0.0000000  0.4184000  3
  16207  16229  16213  16212     1  180.0000771  0.4184000  2
  16207  16229  16213  16212     1  0.0000000  1.6024720  3
  16208  16211  16212  16213     1  180.0000771  0.8368000  1
  16208  16211  16212  16213     1  180.0000771  1.0460000  2
  16208  16211  16212  16213     1  0.0000000  0.7531200  3
  16208  16211  16212  16218     1  0.0000000  0.6508444  3
  16208  16207  16221  16227     1  0.0000000  0.6508444  3
  16208  16207  16229  16213     1  180.0000771  0.4184000  2
  16208  16207  16229  16213     1  0.0000000  1.6024720  3
  16211  16212  16213  16217     1  0.0000000  0.6508444  3
  16211  16212  16213  16229     1  0.0000000  0.6508444  3
  16211  16208  16207  16221     1  180.0000771  0.8368000  1
  16211  16208  16207  16221     1  180.0000771  1.0460000  2
  16211  16208  16207  16221     1  0.0000000  0.7531200  3
  16211  16208  16207  16229     1  0.0000000  0.6508444  3
  16212  16211  16208  16220     1  0.0000000  0.6508444  3
  16213  16229  16207  16221     1  180.0000771  0.4184000  2
  16213  16229  16207  16221     1  0.0000000  1.6024720  3
  16213  16212  16211  16219     1  0.0000000  0.6508444  3
  16217  16213  16212  16218     1  0.0000000  4.9162000  2
  16217  16213  16212  16218     1  0.0000000  0.6024960  3
  16218  16212  16213  16229     1  0.0000000  4.9162000  2
  16218  16212  16213  16229     1  0.0000000  0.6024960  3
  16218  16212  16211  16219     1  0.0000000  4.9162000  2
  16218  16212  16211  16219     1  0.0000000  0.6024960  3
  16219  16211  16208  16220     1  0.0000000  4.9162000  2
  16219  16211  16208  16220     1  0.0000000  0.6024960  3
  16220  16208  16207  16221     1  0.0000000  0.6508444  3
  16220  16208  16207  16229     1  0.0000000  4.9162000  2
  16220  16208  16207  16229     1  0.0000000  0.6024960  3
  16227  16221  16207  16229     1  0.0000000  4.9162000  2
  16227  16221  16207  16229     1  0.0000000  0.6024960  3
  16230  16231  16234  16235     1  180.0000771  0.8368000  1
  16230  16231  16234  16235     1  180.0000771  1.0460000  2
  16230  16231  16234  16235     1  0.0000000  0.7531200  3
  16230  16231  16234  16242     1  0.0000000  0.6508444  3
  16230  16252  16236  16235     1  180.0000771  0.4184000  2
  16230  16252  16236  16235     1  0.0000000  1.6024720  3
  16230  16252  16236  16240     1  180.0000771  5.6484000  1
  16230  16252  16236  16240     1  180.0000771  3.5564000  2
  16230  16252  16236  16240     1  0.0000000  0.4184000  3
  16231  16230  16244  16250     1  0.0000000  0.6508444  3
  16231  16230  16252  16236     1  180.0000771  0.4184000  2
  16231  16230  16252  16236     1  0.0000000  1.6024720  3
  16231  16234  16235  16236     1  180.0000771  0.8368000  1
  16231  16234  16235  16236     1  180.0000771  1.0460000  2
  16231  16234  16235  16236     1  0.0000000  0.7531200  3
  16231  16234  16235  16241     1  0.0000000  0.6508444  3
  16234  16231  16230  16244     1  180.0000771  0.8368000  1
  16234  16231  16230  16244     1  180.0000771  1.0460000  2
  16234  16231  16230  16244     1  0.0000000  0.7531200  3
  16234  16231  16230  16252     1  0.0000000  0.6508444  3
  16234  16235  16236  16240     1  0.0000000  0.6508444  3
  16234  16235  16236  16252     1  0.0000000  0.6508444  3
  16235  16234  16231  16243     1  0.0000000  0.6508444  3
  16236  16235  16234  16242     1  0.0000000  0.6508444  3
  16236  16252  16230  16244     1  180.0000771  0.4184000  2
  16236  16252  16230  16244     1  0.0000000  1.6024720  3
  16240  16236  16235  16241     1  0.0000000  4.9162000  2
  16240  16236  16235  16241     1  0.0000000  0.6024960  3
  16241  16235  16234  16242     1  0.0000000  4.9162000  2
  16241  16235  16234  16242     1  0.0000000  0.6024960  3
  16241  16235  16236  16252     1  0.0000000  4.9162000  2
  16241  16235  16236  16252     1  0.0000000  0.6024960  3
  16242  16234  16231  16243     1  0.0000000  4.9162000  2
  16242  16234  16231  16243     1  0.0000000  0.6024960  3
  16243  16231  16230  16244     1  0.0000000  0.6508444  3
  16243  16231  16230  16252     1  0.0000000  4.9162000  2
  16243  16231  16230  16252     1  0.0000000  0.6024960  3
  16250  16244  16230  16252     1  0.0000000  4.9162000  2
  16250  16244  16230  16252     1  0.0000000  0.6024960  3
  16253  16254  16257  16258     1  180.0000771  0.8368000  1
  16253  16254  16257  16258     1  180.0000771  1.0460000  2
  16253  16254  16257  16258     1  0.0000000  0.7531200  3
  16253  16254  16257  16265     1  0.0000000  0.6508444  3
  16253  16275  16259  16263     1  180.0000771  5.6484000  1
  16253  16275  16259  16263     1  180.0000771  3.5564000  2
  16253  16275  16259  16263     1  0.0000000  0.4184000  3
  16253  16275  16259  16258     1  180.0000771  0.4184000  2
  16253  16275  16259  16258     1  0.0000000  1.6024720  3
  16254  16257  16258  16259     1  180.0000771  0.8368000  1
  16254  16257  16258  16259     1  180.0000771  1.0460000  2
  16254  16257  16258  16259     1  0.0000000  0.7531200  3
  16254  16257  16258  16264     1  0.0000000  0.6508444  3
  16254  16253  16267  16273     1  0.0000000  0.6508444  3
  16254  16253  16275  16259     1  180.0000771  0.4184000  2
  16254  16253  16275  16259     1  0.0000000  1.6024720  3
  16257  16258  16259  16263     1  0.0000000  0.6508444  3
  16257  16258  16259  16275     1  0.0000000  0.6508444  3
  16257  16254  16253  16267     1  180.0000771  0.8368000  1
  16257  16254  16253  16267     1  180.0000771  1.0460000  2
  16257  16254  16253  16267     1  0.0000000  0.7531200  3
  16257  16254  16253  16275     1  0.0000000  0.6508444  3
  16258  16257  16254  16266     1  0.0000000  0.6508444  3
  16259  16275  16253  16267     1  180.0000771  0.4184000  2
  16259  16275  16253  16267     1  0.0000000  1.6024720  3
  16259  16258  16257  16265     1  0.0000000  0.6508444  3
  16263  16259  16258  16264     1  0.0000000  4.9162000  2
  16263  16259  16258  16264     1  0.0000000  0.6024960  3
  16264  16258  16259  16275     1  0.0000000  4.9162000  2
  16264  16258  16259  16275     1  0.0000000  0.6024960  3
  16264  16258  16257  16265     1  0.0000000  4.9162000  2
  16264  16258  16257  16265     1  0.0000000  0.6024960  3
  16265  16257  16254  16266     1  0.0000000  4.9162000  2
  16265  16257  16254  16266     1  0.0000000  0.6024960  3
  16266  16254  16253  16267     1  0.0000000  0.6508444  3
  16266  16254  16253  16275     1  0.0000000  4.9162000  2
  16266  16254  16253  16275     1  0.0000000  0.6024960  3
  16273  16267  16253  16275     1  0.0000000  4.9162000  2
  16273  16267  16253  16275     1  0.0000000  0.6024960  3
  16276  16277  16280  16281     1  180.0000771  0.8368000  1
  16276  16277  16280  16281     1  180.0000771  1.0460000  2
  16276  16277  16280  16281     1  0.0000000  0.7531200  3
  16276  16277  16280  16288     1  0.0000000  0.6508444  3
  16276  16298  16282  16281     1  180.0000771  0.4184000  2
  16276  16298  16282  16281     1  0.0000000  1.6024720  3
  16276  16298  16282  16286     1  180.0000771  5.6484000  1
  16276  16298  16282  16286     1  180.0000771  3.5564000  2
  16276  16298  16282  16286     1  0.0000000  0.4184000  3
  16277  16276  16290  16296     1  0.0000000  0.6508444  3
  16277  16276  16298  16282     1  180.0000771  0.4184000  2
  16277  16276  16298  16282     1  0.0000000  1.6024720  3
  16277  16280  16281  16282     1  180.0000771  0.8368000  1
  16277  16280  16281  16282     1  180.0000771  1.0460000  2
  16277  16280  16281  16282     1  0.0000000  0.7531200  3
  16277  16280  16281  16287     1  0.0000000  0.6508444  3
  16280  16277  16276  16290     1  180.0000771  0.8368000  1
  16280  16277  16276  16290     1  180.0000771  1.0460000  2
  16280  16277  16276  16290     1  0.0000000  0.7531200  3
  16280  16277  16276  16298     1  0.0000000  0.6508444  3
  16280  16281  16282  16286     1  0.0000000  0.6508444  3
  16280  16281  16282  16298     1  0.0000000  0.6508444  3
  16281  16280  16277  16289     1  0.0000000  0.6508444  3
  16282  16281  16280  16288     1  0.0000000  0.6508444  3
  16282  16298  16276  16290     1  180.0000771  0.4184000  2
  16282  16298  16276  16290     1  0.0000000  1.6024720  3
  16286  16282  16281  16287     1  0.0000000  4.9162000  2
  16286  16282  16281  16287     1  0.0000000  0.6024960  3
  16287  16281  16280  16288     1  0.0000000  4.9162000  2
  16287  16281  16280  16288     1  0.0000000  0.6024960  3
  16287  16281  16282  16298     1  0.0000000  4.9162000  2
  16287  16281  16282  16298     1  0.0000000  0.6024960  3
  16288  16280  16277  16289     1  0.0000000  4.9162000  2
  16288  16280  16277  16289     1  0.0000000  0.6024960  3
  16289  16277  16276  16290     1  0.0000000  0.6508444  3
  16289  16277  16276  16298     1  0.0000000  4.9162000  2
  16289  16277  16276  16298     1  0.0000000  0.6024960  3
  16296  16290  16276  16298     1  0.0000000  4.9162000  2
  16296  16290  16276  16298     1  0.0000000  0.6024960  3
  16299  16300  16303  16304     1  180.0000771  0.8368000  1
  16299  16300  16303  16304     1  180.0000771  1.0460000  2
  16299  16300  16303  16304     1  0.0000000  0.7531200  3
  16299  16300  16303  16311     1  0.0000000  0.6508444  3
  16299  16321  16305  16309     1  180.0000771  5.6484000  1
  16299  16321  16305  16309     1  180.0000771  3.5564000  2
  16299  16321  16305  16309     1  0.0000000  0.4184000  3
  16299  16321  16305  16304     1  180.0000771  0.4184000  2
  16299  16321  16305  16304     1  0.0000000  1.6024720  3
  16300  16303  16304  16305     1  180.0000771  0.8368000  1
  16300  16303  16304  16305     1  180.0000771  1.0460000  2
  16300  16303  16304  16305     1  0.0000000  0.7531200  3
  16300  16303  16304  16310     1  0.0000000  0.6508444  3
  16300  16299  16313  16319     1  0.0000000  0.6508444  3
  16300  16299  16321  16305     1  180.0000771  0.4184000  2
  16300  16299  16321  16305     1  0.0000000  1.6024720  3
  16303  16304  16305  16309     1  0.0000000  0.6508444  3
  16303  16304  16305  16321     1  0.0000000  0.6508444  3
  16303  16300  16299  16313     1  180.0000771  0.8368000  1
  16303  16300  16299  16313     1  180.0000771  1.0460000  2
  16303  16300  16299  16313     1  0.0000000  0.7531200  3
  16303  16300  16299  16321     1  0.0000000  0.6508444  3
  16304  16303  16300  16312     1  0.0000000  0.6508444  3
  16305  16321  16299  16313     1  180.0000771  0.4184000  2
  16305  16321  16299  16313     1  0.0000000  1.6024720  3
  16305  16304  16303  16311     1  0.0000000  0.6508444  3
  16309  16305  16304  16310     1  0.0000000  4.9162000  2
  16309  16305  16304  16310     1  0.0000000  0.6024960  3
  16310  16304  16305  16321     1  0.0000000  4.9162000  2
  16310  16304  16305  16321     1  0.0000000  0.6024960  3
  16310  16304  16303  16311     1  0.0000000  4.9162000  2
  16310  16304  16303  16311     1  0.0000000  0.6024960  3
  16311  16303  16300  16312     1  0.0000000  4.9162000  2
  16311  16303  16300  16312     1  0.0000000  0.6024960  3
  16312  16300  16299  16313     1  0.0000000  0.6508444  3
  16312  16300  16299  16321     1  0.0000000  4.9162000  2
  16312  16300  16299  16321     1  0.0000000  0.6024960  3
  16319  16313  16299  16321     1  0.0000000  4.9162000  2
  16319  16313  16299  16321     1  0.0000000  0.6024960  3
  16322  16323  16326  16327     1  180.0000771  0.8368000  1
  16322  16323  16326  16327     1  180.0000771  1.0460000  2
  16322  16323  16326  16327     1  0.0000000  0.7531200  3
  16322  16323  16326  16334     1  0.0000000  0.6508444  3
  16322  16344  16328  16327     1  180.0000771  0.4184000  2
  16322  16344  16328  16327     1  0.0000000  1.6024720  3
  16322  16344  16328  16332     1  180.0000771  5.6484000  1
  16322  16344  16328  16332     1  180.0000771  3.5564000  2
  16322  16344  16328  16332     1  0.0000000  0.4184000  3
  16323  16322  16336  16342     1  0.0000000  0.6508444  3
  16323  16322  16344  16328     1  180.0000771  0.4184000  2
  16323  16322  16344  16328     1  0.0000000  1.6024720  3
  16323  16326  16327  16328     1  180.0000771  0.8368000  1
  16323  16326  16327  16328     1  180.0000771  1.0460000  2
  16323  16326  16327  16328     1  0.0000000  0.7531200  3
  16323  16326  16327  16333     1  0.0000000  0.6508444  3
  16326  16323  16322  16336     1  180.0000771  0.8368000  1
  16326  16323  16322  16336     1  180.0000771  1.0460000  2
  16326  16323  16322  16336     1  0.0000000  0.7531200  3
  16326  16323  16322  16344     1  0.0000000  0.6508444  3
  16326  16327  16328  16332     1  0.0000000  0.6508444  3
  16326  16327  16328  16344     1  0.0000000  0.6508444  3
  16327  16326  16323  16335     1  0.0000000  0.6508444  3
  16328  16327  16326  16334     1  0.0000000  0.6508444  3
  16328  16344  16322  16336     1  180.0000771  0.4184000  2
  16328  16344  16322  16336     1  0.0000000  1.6024720  3
  16332  16328  16327  16333     1  0.0000000  4.9162000  2
  16332  16328  16327  16333     1  0.0000000  0.6024960  3
  16333  16327  16326  16334     1  0.0000000  4.9162000  2
  16333  16327  16326  16334     1  0.0000000  0.6024960  3
  16333  16327  16328  16344     1  0.0000000  4.9162000  2
  16333  16327  16328  16344     1  0.0000000  0.6024960  3
  16334  16326  16323  16335     1  0.0000000  4.9162000  2
  16334  16326  16323  16335     1  0.0000000  0.6024960  3
  16335  16323  16322  16336     1  0.0000000  0.6508444  3
  16335  16323  16322  16344     1  0.0000000  4.9162000  2
  16335  16323  16322  16344     1  0.0000000  0.6024960  3
  16342  16336  16322  16344     1  0.0000000  4.9162000  2
  16342  16336  16322  16344     1  0.0000000  0.6024960  3
  16345  16346  16349  16350     1  180.0000771  0.8368000  1
  16345  16346  16349  16350     1  180.0000771  1.0460000  2
  16345  16346  16349  16350     1  0.0000000  0.7531200  3
  16345  16346  16349  16357     1  0.0000000  0.6508444  3
  16345  16367  16351  16355     1  180.0000771  5.6484000  1
  16345  16367  16351  16355     1  180.0000771  3.5564000  2
  16345  16367  16351  16355     1  0.0000000  0.4184000  3
  16345  16367  16351  16350     1  180.0000771  0.4184000  2
  16345  16367  16351  16350     1  0.0000000  1.6024720  3
  16346  16349  16350  16351     1  180.0000771  0.8368000  1
  16346  16349  16350  16351     1  180.0000771  1.0460000  2
  16346  16349  16350  16351     1  0.0000000  0.7531200  3
  16346  16349  16350  16356     1  0.0000000  0.6508444  3
  16346  16345  16359  16365     1  0.0000000  0.6508444  3
  16346  16345  16367  16351     1  180.0000771  0.4184000  2
  16346  16345  16367  16351     1  0.0000000  1.6024720  3
  16349  16350  16351  16355     1  0.0000000  0.6508444  3
  16349  16350  16351  16367     1  0.0000000  0.6508444  3
  16349  16346  16345  16359     1  180.0000771  0.8368000  1
  16349  16346  16345  16359     1  180.0000771  1.0460000  2
  16349  16346  16345  16359     1  0.0000000  0.7531200  3
  16349  16346  16345  16367     1  0.0000000  0.6508444  3
  16350  16349  16346  16358     1  0.0000000  0.6508444  3
  16351  16367  16345  16359     1  180.0000771  0.4184000  2
  16351  16367  16345  16359     1  0.0000000  1.6024720  3
  16351  16350  16349  16357     1  0.0000000  0.6508444  3
  16355  16351  16350  16356     1  0.0000000  4.9162000  2
  16355  16351  16350  16356     1  0.0000000  0.6024960  3
  16356  16350  16351  16367     1  0.0000000  4.9162000  2
  16356  16350  16351  16367     1  0.0000000  0.6024960  3
  16356  16350  16349  16357     1  0.0000000  4.9162000  2
  16356  16350  16349  16357     1  0.0000000  0.6024960  3
  16357  16349  16346  16358     1  0.0000000  4.9162000  2
  16357  16349  16346  16358     1  0.0000000  0.6024960  3
  16358  16346  16345  16359     1  0.0000000  0.6508444  3
  16358  16346  16345  16367     1  0.0000000  4.9162000  2
  16358  16346  16345  16367     1  0.0000000  0.6024960  3
  16365  16359  16345  16367     1  0.0000000  4.9162000  2
  16365  16359  16345  16367     1  0.0000000  0.6024960  3
  16368  16369  16372  16373     1  180.0000771  0.8368000  1
  16368  16369  16372  16373     1  180.0000771  1.0460000  2
  16368  16369  16372  16373     1  0.0000000  0.7531200  3
  16368  16369  16372  16380     1  0.0000000  0.6508444  3
  16368  16390  16374  16373     1  180.0000771  0.4184000  2
  16368  16390  16374  16373     1  0.0000000  1.6024720  3
  16368  16390  16374  16378     1  180.0000771  5.6484000  1
  16368  16390  16374  16378     1  180.0000771  3.5564000  2
  16368  16390  16374  16378     1  0.0000000  0.4184000  3
  16369  16368  16382  16388     1  0.0000000  0.6508444  3
  16369  16368  16390  16374     1  180.0000771  0.4184000  2
  16369  16368  16390  16374     1  0.0000000  1.6024720  3
  16369  16372  16373  16374     1  180.0000771  0.8368000  1
  16369  16372  16373  16374     1  180.0000771  1.0460000  2
  16369  16372  16373  16374     1  0.0000000  0.7531200  3
  16369  16372  16373  16379     1  0.0000000  0.6508444  3
  16372  16369  16368  16382     1  180.0000771  0.8368000  1
  16372  16369  16368  16382     1  180.0000771  1.0460000  2
  16372  16369  16368  16382     1  0.0000000  0.7531200  3
  16372  16369  16368  16390     1  0.0000000  0.6508444  3
  16372  16373  16374  16378     1  0.0000000  0.6508444  3
  16372  16373  16374  16390     1  0.0000000  0.6508444  3
  16373  16372  16369  16381     1  0.0000000  0.6508444  3
  16374  16373  16372  16380     1  0.0000000  0.6508444  3
  16374  16390  16368  16382     1  180.0000771  0.4184000  2
  16374  16390  16368  16382     1  0.0000000  1.6024720  3
  16378  16374  16373  16379     1  0.0000000  4.9162000  2
  16378  16374  16373  16379     1  0.0000000  0.6024960  3
  16379  16373  16372  16380     1  0.0000000  4.9162000  2
  16379  16373  16372  16380     1  0.0000000  0.6024960  3
  16379  16373  16374  16390     1  0.0000000  4.9162000  2
  16379  16373  16374  16390     1  0.0000000  0.6024960  3
  16380  16372  16369  16381     1  0.0000000  4.9162000  2
  16380  16372  16369  16381     1  0.0000000  0.6024960  3
  16381  16369  16368  16382     1  0.0000000  0.6508444  3
  16381  16369  16368  16390     1  0.0000000  4.9162000  2
  16381  16369  16368  16390     1  0.0000000  0.6024960  3
  16388  16382  16368  16390     1  0.0000000  4.9162000  2
  16388  16382  16368  16390     1  0.0000000  0.6024960  3
  16391  16392  16395  16396     1  180.0000771  0.8368000  1
  16391  16392  16395  16396     1  180.0000771  1.0460000  2
  16391  16392  16395  16396     1  0.0000000  0.7531200  3
  16391  16392  16395  16403     1  0.0000000  0.6508444  3
  16391  16413  16397  16401     1  180.0000771  5.6484000  1
  16391  16413  16397  16401     1  180.0000771  3.5564000  2
  16391  16413  16397  16401     1  0.0000000  0.4184000  3
  16391  16413  16397  16396     1  180.0000771  0.4184000  2
  16391  16413  16397  16396     1  0.0000000  1.6024720  3
  16392  16395  16396  16397     1  180.0000771  0.8368000  1
  16392  16395  16396  16397     1  180.0000771  1.0460000  2
  16392  16395  16396  16397     1  0.0000000  0.7531200  3
  16392  16395  16396  16402     1  0.0000000  0.6508444  3
  16392  16391  16405  16411     1  0.0000000  0.6508444  3
  16392  16391  16413  16397     1  180.0000771  0.4184000  2
  16392  16391  16413  16397     1  0.0000000  1.6024720  3
  16395  16396  16397  16401     1  0.0000000  0.6508444  3
  16395  16396  16397  16413     1  0.0000000  0.6508444  3
  16395  16392  16391  16405     1  180.0000771  0.8368000  1
  16395  16392  16391  16405     1  180.0000771  1.0460000  2
  16395  16392  16391  16405     1  0.0000000  0.7531200  3
  16395  16392  16391  16413     1  0.0000000  0.6508444  3
  16396  16395  16392  16404     1  0.0000000  0.6508444  3
  16397  16413  16391  16405     1  180.0000771  0.4184000  2
  16397  16413  16391  16405     1  0.0000000  1.6024720  3
  16397  16396  16395  16403     1  0.0000000  0.6508444  3
  16401  16397  16396  16402     1  0.0000000  4.9162000  2
  16401  16397  16396  16402     1  0.0000000  0.6024960  3
  16402  16396  16397  16413     1  0.0000000  4.9162000  2
  16402  16396  16397  16413     1  0.0000000  0.6024960  3
  16402  16396  16395  16403     1  0.0000000  4.9162000  2
  16402  16396  16395  16403     1  0.0000000  0.6024960  3
  16403  16395  16392  16404     1  0.0000000  4.9162000  2
  16403  16395  16392  16404     1  0.0000000  0.6024960  3
  16404  16392  16391  16405     1  0.0000000  0.6508444  3
  16404  16392  16391  16413     1  0.0000000  4.9162000  2
  16404  16392  16391  16413     1  0.0000000  0.6024960  3
  16411  16405  16391  16413     1  0.0000000  4.9162000  2
  16411  16405  16391  16413     1  0.0000000  0.6024960  3
  16414  16415  16418  16419     1  180.0000771  0.8368000  1
  16414  16415  16418  16419     1  180.0000771  1.0460000  2
  16414  16415  16418  16419     1  0.0000000  0.7531200  3
  16414  16415  16418  16426     1  0.0000000  0.6508444  3
  16414  16436  16420  16419     1  180.0000771  0.4184000  2
  16414  16436  16420  16419     1  0.0000000  1.6024720  3
  16414  16436  16420  16424     1  180.0000771  5.6484000  1
  16414  16436  16420  16424     1  180.0000771  3.5564000  2
  16414  16436  16420  16424     1  0.0000000  0.4184000  3
  16415  16414  16428  16434     1  0.0000000  0.6508444  3
  16415  16414  16436  16420     1  180.0000771  0.4184000  2
  16415  16414  16436  16420     1  0.0000000  1.6024720  3
  16415  16418  16419  16420     1  180.0000771  0.8368000  1
  16415  16418  16419  16420     1  180.0000771  1.0460000  2
  16415  16418  16419  16420     1  0.0000000  0.7531200  3
  16415  16418  16419  16425     1  0.0000000  0.6508444  3
  16418  16415  16414  16428     1  180.0000771  0.8368000  1
  16418  16415  16414  16428     1  180.0000771  1.0460000  2
  16418  16415  16414  16428     1  0.0000000  0.7531200  3
  16418  16415  16414  16436     1  0.0000000  0.6508444  3
  16418  16419  16420  16424     1  0.0000000  0.6508444  3
  16418  16419  16420  16436     1  0.0000000  0.6508444  3
  16419  16418  16415  16427     1  0.0000000  0.6508444  3
  16420  16419  16418  16426     1  0.0000000  0.6508444  3
  16420  16436  16414  16428     1  180.0000771  0.4184000  2
  16420  16436  16414  16428     1  0.0000000  1.6024720  3
  16424  16420  16419  16425     1  0.0000000  4.9162000  2
  16424  16420  16419  16425     1  0.0000000  0.6024960  3
  16425  16419  16418  16426     1  0.0000000  4.9162000  2
  16425  16419  16418  16426     1  0.0000000  0.6024960  3
  16425  16419  16420  16436     1  0.0000000  4.9162000  2
  16425  16419  16420  16436     1  0.0000000  0.6024960  3
  16426  16418  16415  16427     1  0.0000000  4.9162000  2
  16426  16418  16415  16427     1  0.0000000  0.6024960  3
  16427  16415  16414  16428     1  0.0000000  0.6508444  3
  16427  16415  16414  16436     1  0.0000000  4.9162000  2
  16427  16415  16414  16436     1  0.0000000  0.6024960  3
  16434  16428  16414  16436     1  0.0000000  4.9162000  2
  16434  16428  16414  16436     1  0.0000000  0.6024960  3
  16437  16438  16441  16442     1  180.0000771  0.8368000  1
  16437  16438  16441  16442     1  180.0000771  1.0460000  2
  16437  16438  16441  16442     1  0.0000000  0.7531200  3
  16437  16438  16441  16449     1  0.0000000  0.6508444  3
  16437  16459  16443  16447     1  180.0000771  5.6484000  1
  16437  16459  16443  16447     1  180.0000771  3.5564000  2
  16437  16459  16443  16447     1  0.0000000  0.4184000  3
  16437  16459  16443  16442     1  180.0000771  0.4184000  2
  16437  16459  16443  16442     1  0.0000000  1.6024720  3
  16438  16441  16442  16443     1  180.0000771  0.8368000  1
  16438  16441  16442  16443     1  180.0000771  1.0460000  2
  16438  16441  16442  16443     1  0.0000000  0.7531200  3
  16438  16441  16442  16448     1  0.0000000  0.6508444  3
  16438  16437  16451  16457     1  0.0000000  0.6508444  3
  16438  16437  16459  16443     1  180.0000771  0.4184000  2
  16438  16437  16459  16443     1  0.0000000  1.6024720  3
  16441  16442  16443  16447     1  0.0000000  0.6508444  3
  16441  16442  16443  16459     1  0.0000000  0.6508444  3
  16441  16438  16437  16451     1  180.0000771  0.8368000  1
  16441  16438  16437  16451     1  180.0000771  1.0460000  2
  16441  16438  16437  16451     1  0.0000000  0.7531200  3
  16441  16438  16437  16459     1  0.0000000  0.6508444  3
  16442  16441  16438  16450     1  0.0000000  0.6508444  3
  16443  16459  16437  16451     1  180.0000771  0.4184000  2
  16443  16459  16437  16451     1  0.0000000  1.6024720  3
  16443  16442  16441  16449     1  0.0000000  0.6508444  3
  16447  16443  16442  16448     1  0.0000000  4.9162000  2
  16447  16443  16442  16448     1  0.0000000  0.6024960  3
  16448  16442  16443  16459     1  0.0000000  4.9162000  2
  16448  16442  16443  16459     1  0.0000000  0.6024960  3
  16448  16442  16441  16449     1  0.0000000  4.9162000  2
  16448  16442  16441  16449     1  0.0000000  0.6024960  3
  16449  16441  16438  16450     1  0.0000000  4.9162000  2
  16449  16441  16438  16450     1  0.0000000  0.6024960  3
  16450  16438  16437  16451     1  0.0000000  0.6508444  3
  16450  16438  16437  16459     1  0.0000000  4.9162000  2
  16450  16438  16437  16459     1  0.0000000  0.6024960  3
  16457  16451  16437  16459     1  0.0000000  4.9162000  2
  16457  16451  16437  16459     1  0.0000000  0.6024960  3
  16460  16461  16464  16465     1  180.0000771  0.8368000  1
  16460  16461  16464  16465     1  180.0000771  1.0460000  2
  16460  16461  16464  16465     1  0.0000000  0.7531200  3
  16460  16461  16464  16472     1  0.0000000  0.6508444  3
  16460  16482  16466  16465     1  180.0000771  0.4184000  2
  16460  16482  16466  16465     1  0.0000000  1.6024720  3
  16460  16482  16466  16470     1  180.0000771  5.6484000  1
  16460  16482  16466  16470     1  180.0000771  3.5564000  2
  16460  16482  16466  16470     1  0.0000000  0.4184000  3
  16461  16460  16474  16480     1  0.0000000  0.6508444  3
  16461  16460  16482  16466     1  180.0000771  0.4184000  2
  16461  16460  16482  16466     1  0.0000000  1.6024720  3
  16461  16464  16465  16466     1  180.0000771  0.8368000  1
  16461  16464  16465  16466     1  180.0000771  1.0460000  2
  16461  16464  16465  16466     1  0.0000000  0.7531200  3
  16461  16464  16465  16471     1  0.0000000  0.6508444  3
  16464  16461  16460  16474     1  180.0000771  0.8368000  1
  16464  16461  16460  16474     1  180.0000771  1.0460000  2
  16464  16461  16460  16474     1  0.0000000  0.7531200  3
  16464  16461  16460  16482     1  0.0000000  0.6508444  3
  16464  16465  16466  16470     1  0.0000000  0.6508444  3
  16464  16465  16466  16482     1  0.0000000  0.6508444  3
  16465  16464  16461  16473     1  0.0000000  0.6508444  3
  16466  16465  16464  16472     1  0.0000000  0.6508444  3
  16466  16482  16460  16474     1  180.0000771  0.4184000  2
  16466  16482  16460  16474     1  0.0000000  1.6024720  3
  16470  16466  16465  16471     1  0.0000000  4.9162000  2
  16470  16466  16465  16471     1  0.0000000  0.6024960  3
  16471  16465  16464  16472     1  0.0000000  4.9162000  2
  16471  16465  16464  16472     1  0.0000000  0.6024960  3
  16471  16465  16466  16482     1  0.0000000  4.9162000  2
  16471  16465  16466  16482     1  0.0000000  0.6024960  3
  16472  16464  16461  16473     1  0.0000000  4.9162000  2
  16472  16464  16461  16473     1  0.0000000  0.6024960  3
  16473  16461  16460  16474     1  0.0000000  0.6508444  3
  16473  16461  16460  16482     1  0.0000000  4.9162000  2
  16473  16461  16460  16482     1  0.0000000  0.6024960  3
  16480  16474  16460  16482     1  0.0000000  4.9162000  2
  16480  16474  16460  16482     1  0.0000000  0.6024960  3
  16483  16484  16487  16488     1  180.0000771  0.8368000  1
  16483  16484  16487  16488     1  180.0000771  1.0460000  2
  16483  16484  16487  16488     1  0.0000000  0.7531200  3
  16483  16484  16487  16495     1  0.0000000  0.6508444  3
  16483  16505  16489  16493     1  180.0000771  5.6484000  1
  16483  16505  16489  16493     1  180.0000771  3.5564000  2
  16483  16505  16489  16493     1  0.0000000  0.4184000  3
  16483  16505  16489  16488     1  180.0000771  0.4184000  2
  16483  16505  16489  16488     1  0.0000000  1.6024720  3
  16484  16487  16488  16489     1  180.0000771  0.8368000  1
  16484  16487  16488  16489     1  180.0000771  1.0460000  2
  16484  16487  16488  16489     1  0.0000000  0.7531200  3
  16484  16487  16488  16494     1  0.0000000  0.6508444  3
  16484  16483  16497  16503     1  0.0000000  0.6508444  3
  16484  16483  16505  16489     1  180.0000771  0.4184000  2
  16484  16483  16505  16489     1  0.0000000  1.6024720  3
  16487  16488  16489  16493     1  0.0000000  0.6508444  3
  16487  16488  16489  16505     1  0.0000000  0.6508444  3
  16487  16484  16483  16497     1  180.0000771  0.8368000  1
  16487  16484  16483  16497     1  180.0000771  1.0460000  2
  16487  16484  16483  16497     1  0.0000000  0.7531200  3
  16487  16484  16483  16505     1  0.0000000  0.6508444  3
  16488  16487  16484  16496     1  0.0000000  0.6508444  3
  16489  16505  16483  16497     1  180.0000771  0.4184000  2
  16489  16505  16483  16497     1  0.0000000  1.6024720  3
  16489  16488  16487  16495     1  0.0000000  0.6508444  3
  16493  16489  16488  16494     1  0.0000000  4.9162000  2
  16493  16489  16488  16494     1  0.0000000  0.6024960  3
  16494  16488  16489  16505     1  0.0000000  4.9162000  2
  16494  16488  16489  16505     1  0.0000000  0.6024960  3
  16494  16488  16487  16495     1  0.0000000  4.9162000  2
  16494  16488  16487  16495     1  0.0000000  0.6024960  3
  16495  16487  16484  16496     1  0.0000000  4.9162000  2
  16495  16487  16484  16496     1  0.0000000  0.6024960  3
  16496  16484  16483  16497     1  0.0000000  0.6508444  3
  16496  16484  16483  16505     1  0.0000000  4.9162000  2
  16496  16484  16483  16505     1  0.0000000  0.6024960  3
  16503  16497  16483  16505     1  0.0000000  4.9162000  2
  16503  16497  16483  16505     1  0.0000000  0.6024960  3
  16506  16507  16510  16511     1  180.0000771  0.8368000  1
  16506  16507  16510  16511     1  180.0000771  1.0460000  2
  16506  16507  16510  16511     1  0.0000000  0.7531200  3
  16506  16507  16510  16518     1  0.0000000  0.6508444  3
  16506  16528  16512  16511     1  180.0000771  0.4184000  2
  16506  16528  16512  16511     1  0.0000000  1.6024720  3
  16506  16528  16512  16516     1  180.0000771  5.6484000  1
  16506  16528  16512  16516     1  180.0000771  3.5564000  2
  16506  16528  16512  16516     1  0.0000000  0.4184000  3
  16507  16506  16520  16526     1  0.0000000  0.6508444  3
  16507  16506  16528  16512     1  180.0000771  0.4184000  2
  16507  16506  16528  16512     1  0.0000000  1.6024720  3
  16507  16510  16511  16512     1  180.0000771  0.8368000  1
  16507  16510  16511  16512     1  180.0000771  1.0460000  2
  16507  16510  16511  16512     1  0.0000000  0.7531200  3
  16507  16510  16511  16517     1  0.0000000  0.6508444  3
  16510  16507  16506  16520     1  180.0000771  0.8368000  1
  16510  16507  16506  16520     1  180.0000771  1.0460000  2
  16510  16507  16506  16520     1  0.0000000  0.7531200  3
  16510  16507  16506  16528     1  0.0000000  0.6508444  3
  16510  16511  16512  16516     1  0.0000000  0.6508444  3
  16510  16511  16512  16528     1  0.0000000  0.6508444  3
  16511  16510  16507  16519     1  0.0000000  0.6508444  3
  16512  16511  16510  16518     1  0.0000000  0.6508444  3
  16512  16528  16506  16520     1  180.0000771  0.4184000  2
  16512  16528  16506  16520     1  0.0000000  1.6024720  3
  16516  16512  16511  16517     1  0.0000000  4.9162000  2
  16516  16512  16511  16517     1  0.0000000  0.6024960  3
  16517  16511  16510  16518     1  0.0000000  4.9162000  2
  16517  16511  16510  16518     1  0.0000000  0.6024960  3
  16517  16511  16512  16528     1  0.0000000  4.9162000  2
  16517  16511  16512  16528     1  0.0000000  0.6024960  3
  16518  16510  16507  16519     1  0.0000000  4.9162000  2
  16518  16510  16507  16519     1  0.0000000  0.6024960  3
  16519  16507  16506  16520     1  0.0000000  0.6508444  3
  16519  16507  16506  16528     1  0.0000000  4.9162000  2
  16519  16507  16506  16528     1  0.0000000  0.6024960  3
  16526  16520  16506  16528     1  0.0000000  4.9162000  2
  16526  16520  16506  16528     1  0.0000000  0.6024960  3
  16529  16530  16533  16534     1  180.0000771  0.8368000  1
  16529  16530  16533  16534     1  180.0000771  1.0460000  2
  16529  16530  16533  16534     1  0.0000000  0.7531200  3
  16529  16530  16533  16541     1  0.0000000  0.6508444  3
  16529  16551  16535  16539     1  180.0000771  5.6484000  1
  16529  16551  16535  16539     1  180.0000771  3.5564000  2
  16529  16551  16535  16539     1  0.0000000  0.4184000  3
  16529  16551  16535  16534     1  180.0000771  0.4184000  2
  16529  16551  16535  16534     1  0.0000000  1.6024720  3
  16530  16533  16534  16535     1  180.0000771  0.8368000  1
  16530  16533  16534  16535     1  180.0000771  1.0460000  2
  16530  16533  16534  16535     1  0.0000000  0.7531200  3
  16530  16533  16534  16540     1  0.0000000  0.6508444  3
  16530  16529  16543  16549     1  0.0000000  0.6508444  3
  16530  16529  16551  16535     1  180.0000771  0.4184000  2
  16530  16529  16551  16535     1  0.0000000  1.6024720  3
  16533  16534  16535  16539     1  0.0000000  0.6508444  3
  16533  16534  16535  16551     1  0.0000000  0.6508444  3
  16533  16530  16529  16543     1  180.0000771  0.8368000  1
  16533  16530  16529  16543     1  180.0000771  1.0460000  2
  16533  16530  16529  16543     1  0.0000000  0.7531200  3
  16533  16530  16529  16551     1  0.0000000  0.6508444  3
  16534  16533  16530  16542     1  0.0000000  0.6508444  3
  16535  16551  16529  16543     1  180.0000771  0.4184000  2
  16535  16551  16529  16543     1  0.0000000  1.6024720  3
  16535  16534  16533  16541     1  0.0000000  0.6508444  3
  16539  16535  16534  16540     1  0.0000000  4.9162000  2
  16539  16535  16534  16540     1  0.0000000  0.6024960  3
  16540  16534  16535  16551     1  0.0000000  4.9162000  2
  16540  16534  16535  16551     1  0.0000000  0.6024960  3
  16540  16534  16533  16541     1  0.0000000  4.9162000  2
  16540  16534  16533  16541     1  0.0000000  0.6024960  3
  16541  16533  16530  16542     1  0.0000000  4.9162000  2
  16541  16533  16530  16542     1  0.0000000  0.6024960  3
  16542  16530  16529  16543     1  0.0000000  0.6508444  3
  16542  16530  16529  16551     1  0.0000000  4.9162000  2
  16542  16530  16529  16551     1  0.0000000  0.6024960  3
  16549  16543  16529  16551     1  0.0000000  4.9162000  2
  16549  16543  16529  16551     1  0.0000000  0.6024960  3
  16552  16553  16556  16557     1  180.0000771  0.8368000  1
  16552  16553  16556  16557     1  180.0000771  1.0460000  2
  16552  16553  16556  16557     1  0.0000000  0.7531200  3
  16552  16553  16556  16564     1  0.0000000  0.6508444  3
  16552  16574  16558  16557     1  180.0000771  0.4184000  2
  16552  16574  16558  16557     1  0.0000000  1.6024720  3
  16552  16574  16558  16562     1  180.0000771  5.6484000  1
  16552  16574  16558  16562     1  180.0000771  3.5564000  2
  16552  16574  16558  16562     1  0.0000000  0.4184000  3
  16553  16552  16566  16572     1  0.0000000  0.6508444  3
  16553  16552  16574  16558     1  180.0000771  0.4184000  2
  16553  16552  16574  16558     1  0.0000000  1.6024720  3
  16553  16556  16557  16558     1  180.0000771  0.8368000  1
  16553  16556  16557  16558     1  180.0000771  1.0460000  2
  16553  16556  16557  16558     1  0.0000000  0.7531200  3
  16553  16556  16557  16563     1  0.0000000  0.6508444  3
  16556  16553  16552  16566     1  180.0000771  0.8368000  1
  16556  16553  16552  16566     1  180.0000771  1.0460000  2
  16556  16553  16552  16566     1  0.0000000  0.7531200  3
  16556  16553  16552  16574     1  0.0000000  0.6508444  3
  16556  16557  16558  16562     1  0.0000000  0.6508444  3
  16556  16557  16558  16574     1  0.0000000  0.6508444  3
  16557  16556  16553  16565     1  0.0000000  0.6508444  3
  16558  16557  16556  16564     1  0.0000000  0.6508444  3
  16558  16574  16552  16566     1  180.0000771  0.4184000  2
  16558  16574  16552  16566     1  0.0000000  1.6024720  3
  16562  16558  16557  16563     1  0.0000000  4.9162000  2
  16562  16558  16557  16563     1  0.0000000  0.6024960  3
  16563  16557  16556  16564     1  0.0000000  4.9162000  2
  16563  16557  16556  16564     1  0.0000000  0.6024960  3
  16563  16557  16558  16574     1  0.0000000  4.9162000  2
  16563  16557  16558  16574     1  0.0000000  0.6024960  3
  16564  16556  16553  16565     1  0.0000000  4.9162000  2
  16564  16556  16553  16565     1  0.0000000  0.6024960  3
  16565  16553  16552  16566     1  0.0000000  0.6508444  3
  16565  16553  16552  16574     1  0.0000000  4.9162000  2
  16565  16553  16552  16574     1  0.0000000  0.6024960  3
  16572  16566  16552  16574     1  0.0000000  4.9162000  2
  16572  16566  16552  16574     1  0.0000000  0.6024960  3
  16575  16576  16579  16580     1  180.0000771  0.8368000  1
  16575  16576  16579  16580     1  180.0000771  1.0460000  2
  16575  16576  16579  16580     1  0.0000000  0.7531200  3
  16575  16576  16579  16587     1  0.0000000  0.6508444  3
  16575  16597  16581  16585     1  180.0000771  5.6484000  1
  16575  16597  16581  16585     1  180.0000771  3.5564000  2
  16575  16597  16581  16585     1  0.0000000  0.4184000  3
  16575  16597  16581  16580     1  180.0000771  0.4184000  2
  16575  16597  16581  16580     1  0.0000000  1.6024720  3
  16576  16579  16580  16581     1  180.0000771  0.8368000  1
  16576  16579  16580  16581     1  180.0000771  1.0460000  2
  16576  16579  16580  16581     1  0.0000000  0.7531200  3
  16576  16579  16580  16586     1  0.0000000  0.6508444  3
  16576  16575  16589  16595     1  0.0000000  0.6508444  3
  16576  16575  16597  16581     1  180.0000771  0.4184000  2
  16576  16575  16597  16581     1  0.0000000  1.6024720  3
  16579  16580  16581  16585     1  0.0000000  0.6508444  3
  16579  16580  16581  16597     1  0.0000000  0.6508444  3
  16579  16576  16575  16589     1  180.0000771  0.8368000  1
  16579  16576  16575  16589     1  180.0000771  1.0460000  2
  16579  16576  16575  16589     1  0.0000000  0.7531200  3
  16579  16576  16575  16597     1  0.0000000  0.6508444  3
  16580  16579  16576  16588     1  0.0000000  0.6508444  3
  16581  16597  16575  16589     1  180.0000771  0.4184000  2
  16581  16597  16575  16589     1  0.0000000  1.6024720  3
  16581  16580  16579  16587     1  0.0000000  0.6508444  3
  16585  16581  16580  16586     1  0.0000000  4.9162000  2
  16585  16581  16580  16586     1  0.0000000  0.6024960  3
  16586  16580  16581  16597     1  0.0000000  4.9162000  2
  16586  16580  16581  16597     1  0.0000000  0.6024960  3
  16586  16580  16579  16587     1  0.0000000  4.9162000  2
  16586  16580  16579  16587     1  0.0000000  0.6024960  3
  16587  16579  16576  16588     1  0.0000000  4.9162000  2
  16587  16579  16576  16588     1  0.0000000  0.6024960  3
  16588  16576  16575  16589     1  0.0000000  0.6508444  3
  16588  16576  16575  16597     1  0.0000000  4.9162000  2
  16588  16576  16575  16597     1  0.0000000  0.6024960  3
  16595  16589  16575  16597     1  0.0000000  4.9162000  2
  16595  16589  16575  16597     1  0.0000000  0.6024960  3
  16598  16599  16602  16603     1  180.0000771  0.8368000  1
  16598  16599  16602  16603     1  180.0000771  1.0460000  2
  16598  16599  16602  16603     1  0.0000000  0.7531200  3
  16598  16599  16602  16610     1  0.0000000  0.6508444  3
  16598  16620  16604  16603     1  180.0000771  0.4184000  2
  16598  16620  16604  16603     1  0.0000000  1.6024720  3
  16598  16620  16604  16608     1  180.0000771  5.6484000  1
  16598  16620  16604  16608     1  180.0000771  3.5564000  2
  16598  16620  16604  16608     1  0.0000000  0.4184000  3
  16599  16598  16612  16618     1  0.0000000  0.6508444  3
  16599  16598  16620  16604     1  180.0000771  0.4184000  2
  16599  16598  16620  16604     1  0.0000000  1.6024720  3
  16599  16602  16603  16604     1  180.0000771  0.8368000  1
  16599  16602  16603  16604     1  180.0000771  1.0460000  2
  16599  16602  16603  16604     1  0.0000000  0.7531200  3
  16599  16602  16603  16609     1  0.0000000  0.6508444  3
  16602  16599  16598  16612     1  180.0000771  0.8368000  1
  16602  16599  16598  16612     1  180.0000771  1.0460000  2
  16602  16599  16598  16612     1  0.0000000  0.7531200  3
  16602  16599  16598  16620     1  0.0000000  0.6508444  3
  16602  16603  16604  16608     1  0.0000000  0.6508444  3
  16602  16603  16604  16620     1  0.0000000  0.6508444  3
  16603  16602  16599  16611     1  0.0000000  0.6508444  3
  16604  16603  16602  16610     1  0.0000000  0.6508444  3
  16604  16620  16598  16612     1  180.0000771  0.4184000  2
  16604  16620  16598  16612     1  0.0000000  1.6024720  3
  16608  16604  16603  16609     1  0.0000000  4.9162000  2
  16608  16604  16603  16609     1  0.0000000  0.6024960  3
  16609  16603  16602  16610     1  0.0000000  4.9162000  2
  16609  16603  16602  16610     1  0.0000000  0.6024960  3
  16609  16603  16604  16620     1  0.0000000  4.9162000  2
  16609  16603  16604  16620     1  0.0000000  0.6024960  3
  16610  16602  16599  16611     1  0.0000000  4.9162000  2
  16610  16602  16599  16611     1  0.0000000  0.6024960  3
  16611  16599  16598  16612     1  0.0000000  0.6508444  3
  16611  16599  16598  16620     1  0.0000000  4.9162000  2
  16611  16599  16598  16620     1  0.0000000  0.6024960  3
  16618  16612  16598  16620     1  0.0000000  4.9162000  2
  16618  16612  16598  16620     1  0.0000000  0.6024960  3
  16621  16622  16625  16626     1  180.0000771  0.8368000  1
  16621  16622  16625  16626     1  180.0000771  1.0460000  2
  16621  16622  16625  16626     1  0.0000000  0.7531200  3
  16621  16622  16625  16633     1  0.0000000  0.6508444  3
  16621  16643  16627  16631     1  180.0000771  5.6484000  1
  16621  16643  16627  16631     1  180.0000771  3.5564000  2
  16621  16643  16627  16631     1  0.0000000  0.4184000  3
  16621  16643  16627  16626     1  180.0000771  0.4184000  2
  16621  16643  16627  16626     1  0.0000000  1.6024720  3
  16622  16625  16626  16627     1  180.0000771  0.8368000  1
  16622  16625  16626  16627     1  180.0000771  1.0460000  2
  16622  16625  16626  16627     1  0.0000000  0.7531200  3
  16622  16625  16626  16632     1  0.0000000  0.6508444  3
  16622  16621  16635  16641     1  0.0000000  0.6508444  3
  16622  16621  16643  16627     1  180.0000771  0.4184000  2
  16622  16621  16643  16627     1  0.0000000  1.6024720  3
  16625  16626  16627  16631     1  0.0000000  0.6508444  3
  16625  16626  16627  16643     1  0.0000000  0.6508444  3
  16625  16622  16621  16635     1  180.0000771  0.8368000  1
  16625  16622  16621  16635     1  180.0000771  1.0460000  2
  16625  16622  16621  16635     1  0.0000000  0.7531200  3
  16625  16622  16621  16643     1  0.0000000  0.6508444  3
  16626  16625  16622  16634     1  0.0000000  0.6508444  3
  16627  16643  16621  16635     1  180.0000771  0.4184000  2
  16627  16643  16621  16635     1  0.0000000  1.6024720  3
  16627  16626  16625  16633     1  0.0000000  0.6508444  3
  16631  16627  16626  16632     1  0.0000000  4.9162000  2
  16631  16627  16626  16632     1  0.0000000  0.6024960  3
  16632  16626  16627  16643     1  0.0000000  4.9162000  2
  16632  16626  16627  16643     1  0.0000000  0.6024960  3
  16632  16626  16625  16633     1  0.0000000  4.9162000  2
  16632  16626  16625  16633     1  0.0000000  0.6024960  3
  16633  16625  16622  16634     1  0.0000000  4.9162000  2
  16633  16625  16622  16634     1  0.0000000  0.6024960  3
  16634  16622  16621  16635     1  0.0000000  0.6508444  3
  16634  16622  16621  16643     1  0.0000000  4.9162000  2
  16634  16622  16621  16643     1  0.0000000  0.6024960  3
  16641  16635  16621  16643     1  0.0000000  4.9162000  2
  16641  16635  16621  16643     1  0.0000000  0.6024960  3
  16644  16645  16648  16649     1  180.0000771  0.8368000  1
  16644  16645  16648  16649     1  180.0000771  1.0460000  2
  16644  16645  16648  16649     1  0.0000000  0.7531200  3
  16644  16645  16648  16656     1  0.0000000  0.6508444  3
  16644  16666  16650  16649     1  180.0000771  0.4184000  2
  16644  16666  16650  16649     1  0.0000000  1.6024720  3
  16644  16666  16650  16654     1  180.0000771  5.6484000  1
  16644  16666  16650  16654     1  180.0000771  3.5564000  2
  16644  16666  16650  16654     1  0.0000000  0.4184000  3
  16645  16644  16658  16664     1  0.0000000  0.6508444  3
  16645  16644  16666  16650     1  180.0000771  0.4184000  2
  16645  16644  16666  16650     1  0.0000000  1.6024720  3
  16645  16648  16649  16650     1  180.0000771  0.8368000  1
  16645  16648  16649  16650     1  180.0000771  1.0460000  2
  16645  16648  16649  16650     1  0.0000000  0.7531200  3
  16645  16648  16649  16655     1  0.0000000  0.6508444  3
  16648  16645  16644  16658     1  180.0000771  0.8368000  1
  16648  16645  16644  16658     1  180.0000771  1.0460000  2
  16648  16645  16644  16658     1  0.0000000  0.7531200  3
  16648  16645  16644  16666     1  0.0000000  0.6508444  3
  16648  16649  16650  16654     1  0.0000000  0.6508444  3
  16648  16649  16650  16666     1  0.0000000  0.6508444  3
  16649  16648  16645  16657     1  0.0000000  0.6508444  3
  16650  16649  16648  16656     1  0.0000000  0.6508444  3
  16650  16666  16644  16658     1  180.0000771  0.4184000  2
  16650  16666  16644  16658     1  0.0000000  1.6024720  3
  16654  16650  16649  16655     1  0.0000000  4.9162000  2
  16654  16650  16649  16655     1  0.0000000  0.6024960  3
  16655  16649  16648  16656     1  0.0000000  4.9162000  2
  16655  16649  16648  16656     1  0.0000000  0.6024960  3
  16655  16649  16650  16666     1  0.0000000  4.9162000  2
  16655  16649  16650  16666     1  0.0000000  0.6024960  3
  16656  16648  16645  16657     1  0.0000000  4.9162000  2
  16656  16648  16645  16657     1  0.0000000  0.6024960  3
  16657  16645  16644  16658     1  0.0000000  0.6508444  3
  16657  16645  16644  16666     1  0.0000000  4.9162000  2
  16657  16645  16644  16666     1  0.0000000  0.6024960  3
  16664  16658  16644  16666     1  0.0000000  4.9162000  2
  16664  16658  16644  16666     1  0.0000000  0.6024960  3
  16667  16668  16671  16672     1  180.0000771  0.8368000  1
  16667  16668  16671  16672     1  180.0000771  1.0460000  2
  16667  16668  16671  16672     1  0.0000000  0.7531200  3
  16667  16668  16671  16679     1  0.0000000  0.6508444  3
  16667  16689  16673  16677     1  180.0000771  5.6484000  1
  16667  16689  16673  16677     1  180.0000771  3.5564000  2
  16667  16689  16673  16677     1  0.0000000  0.4184000  3
  16667  16689  16673  16672     1  180.0000771  0.4184000  2
  16667  16689  16673  16672     1  0.0000000  1.6024720  3
  16668  16671  16672  16673     1  180.0000771  0.8368000  1
  16668  16671  16672  16673     1  180.0000771  1.0460000  2
  16668  16671  16672  16673     1  0.0000000  0.7531200  3
  16668  16671  16672  16678     1  0.0000000  0.6508444  3
  16668  16667  16681  16687     1  0.0000000  0.6508444  3
  16668  16667  16689  16673     1  180.0000771  0.4184000  2
  16668  16667  16689  16673     1  0.0000000  1.6024720  3
  16671  16672  16673  16677     1  0.0000000  0.6508444  3
  16671  16672  16673  16689     1  0.0000000  0.6508444  3
  16671  16668  16667  16681     1  180.0000771  0.8368000  1
  16671  16668  16667  16681     1  180.0000771  1.0460000  2
  16671  16668  16667  16681     1  0.0000000  0.7531200  3
  16671  16668  16667  16689     1  0.0000000  0.6508444  3
  16672  16671  16668  16680     1  0.0000000  0.6508444  3
  16673  16689  16667  16681     1  180.0000771  0.4184000  2
  16673  16689  16667  16681     1  0.0000000  1.6024720  3
  16673  16672  16671  16679     1  0.0000000  0.6508444  3
  16677  16673  16672  16678     1  0.0000000  4.9162000  2
  16677  16673  16672  16678     1  0.0000000  0.6024960  3
  16678  16672  16673  16689     1  0.0000000  4.9162000  2
  16678  16672  16673  16689     1  0.0000000  0.6024960  3
  16678  16672  16671  16679     1  0.0000000  4.9162000  2
  16678  16672  16671  16679     1  0.0000000  0.6024960  3
  16679  16671  16668  16680     1  0.0000000  4.9162000  2
  16679  16671  16668  16680     1  0.0000000  0.6024960  3
  16680  16668  16667  16681     1  0.0000000  0.6508444  3
  16680  16668  16667  16689     1  0.0000000  4.9162000  2
  16680  16668  16667  16689     1  0.0000000  0.6024960  3
  16687  16681  16667  16689     1  0.0000000  4.9162000  2
  16687  16681  16667  16689     1  0.0000000  0.6024960  3
  16690  16691  16694  16695     1  180.0000771  0.8368000  1
  16690  16691  16694  16695     1  180.0000771  1.0460000  2
  16690  16691  16694  16695     1  0.0000000  0.7531200  3
  16690  16691  16694  16702     1  0.0000000  0.6508444  3
  16690  16712  16696  16695     1  180.0000771  0.4184000  2
  16690  16712  16696  16695     1  0.0000000  1.6024720  3
  16690  16712  16696  16700     1  180.0000771  5.6484000  1
  16690  16712  16696  16700     1  180.0000771  3.5564000  2
  16690  16712  16696  16700     1  0.0000000  0.4184000  3
  16691  16690  16704  16710     1  0.0000000  0.6508444  3
  16691  16690  16712  16696     1  180.0000771  0.4184000  2
  16691  16690  16712  16696     1  0.0000000  1.6024720  3
  16691  16694  16695  16696     1  180.0000771  0.8368000  1
  16691  16694  16695  16696     1  180.0000771  1.0460000  2
  16691  16694  16695  16696     1  0.0000000  0.7531200  3
  16691  16694  16695  16701     1  0.0000000  0.6508444  3
  16694  16691  16690  16704     1  180.0000771  0.8368000  1
  16694  16691  16690  16704     1  180.0000771  1.0460000  2
  16694  16691  16690  16704     1  0.0000000  0.7531200  3
  16694  16691  16690  16712     1  0.0000000  0.6508444  3
  16694  16695  16696  16700     1  0.0000000  0.6508444  3
  16694  16695  16696  16712     1  0.0000000  0.6508444  3
  16695  16694  16691  16703     1  0.0000000  0.6508444  3
  16696  16695  16694  16702     1  0.0000000  0.6508444  3
  16696  16712  16690  16704     1  180.0000771  0.4184000  2
  16696  16712  16690  16704     1  0.0000000  1.6024720  3
  16700  16696  16695  16701     1  0.0000000  4.9162000  2
  16700  16696  16695  16701     1  0.0000000  0.6024960  3
  16701  16695  16694  16702     1  0.0000000  4.9162000  2
  16701  16695  16694  16702     1  0.0000000  0.6024960  3
  16701  16695  16696  16712     1  0.0000000  4.9162000  2
  16701  16695  16696  16712     1  0.0000000  0.6024960  3
  16702  16694  16691  16703     1  0.0000000  4.9162000  2
  16702  16694  16691  16703     1  0.0000000  0.6024960  3
  16703  16691  16690  16704     1  0.0000000  0.6508444  3
  16703  16691  16690  16712     1  0.0000000  4.9162000  2
  16703  16691  16690  16712     1  0.0000000  0.6024960  3
  16710  16704  16690  16712     1  0.0000000  4.9162000  2
  16710  16704  16690  16712     1  0.0000000  0.6024960  3
  16713  16714  16717  16718     1  180.0000771  0.8368000  1
  16713  16714  16717  16718     1  180.0000771  1.0460000  2
  16713  16714  16717  16718     1  0.0000000  0.7531200  3
  16713  16714  16717  16725     1  0.0000000  0.6508444  3
  16713  16735  16719  16723     1  180.0000771  5.6484000  1
  16713  16735  16719  16723     1  180.0000771  3.5564000  2
  16713  16735  16719  16723     1  0.0000000  0.4184000  3
  16713  16735  16719  16718     1  180.0000771  0.4184000  2
  16713  16735  16719  16718     1  0.0000000  1.6024720  3
  16714  16717  16718  16719     1  180.0000771  0.8368000  1
  16714  16717  16718  16719     1  180.0000771  1.0460000  2
  16714  16717  16718  16719     1  0.0000000  0.7531200  3
  16714  16717  16718  16724     1  0.0000000  0.6508444  3
  16714  16713  16727  16733     1  0.0000000  0.6508444  3
  16714  16713  16735  16719     1  180.0000771  0.4184000  2
  16714  16713  16735  16719     1  0.0000000  1.6024720  3
  16717  16718  16719  16723     1  0.0000000  0.6508444  3
  16717  16718  16719  16735     1  0.0000000  0.6508444  3
  16717  16714  16713  16727     1  180.0000771  0.8368000  1
  16717  16714  16713  16727     1  180.0000771  1.0460000  2
  16717  16714  16713  16727     1  0.0000000  0.7531200  3
  16717  16714  16713  16735     1  0.0000000  0.6508444  3
  16718  16717  16714  16726     1  0.0000000  0.6508444  3
  16719  16735  16713  16727     1  180.0000771  0.4184000  2
  16719  16735  16713  16727     1  0.0000000  1.6024720  3
  16719  16718  16717  16725     1  0.0000000  0.6508444  3
  16723  16719  16718  16724     1  0.0000000  4.9162000  2
  16723  16719  16718  16724     1  0.0000000  0.6024960  3
  16724  16718  16719  16735     1  0.0000000  4.9162000  2
  16724  16718  16719  16735     1  0.0000000  0.6024960  3
  16724  16718  16717  16725     1  0.0000000  4.9162000  2
  16724  16718  16717  16725     1  0.0000000  0.6024960  3
  16725  16717  16714  16726     1  0.0000000  4.9162000  2
  16725  16717  16714  16726     1  0.0000000  0.6024960  3
  16726  16714  16713  16727     1  0.0000000  0.6508444  3
  16726  16714  16713  16735     1  0.0000000  4.9162000  2
  16726  16714  16713  16735     1  0.0000000  0.6024960  3
  16733  16727  16713  16735     1  0.0000000  4.9162000  2
  16733  16727  16713  16735     1  0.0000000  0.6024960  3
  16736  16737  16740  16741     1  180.0000771  0.8368000  1
  16736  16737  16740  16741     1  180.0000771  1.0460000  2
  16736  16737  16740  16741     1  0.0000000  0.7531200  3
  16736  16737  16740  16748     1  0.0000000  0.6508444  3
  16736  16758  16742  16741     1  180.0000771  0.4184000  2
  16736  16758  16742  16741     1  0.0000000  1.6024720  3
  16736  16758  16742  16746     1  180.0000771  5.6484000  1
  16736  16758  16742  16746     1  180.0000771  3.5564000  2
  16736  16758  16742  16746     1  0.0000000  0.4184000  3
  16737  16736  16750  16756     1  0.0000000  0.6508444  3
  16737  16736  16758  16742     1  180.0000771  0.4184000  2
  16737  16736  16758  16742     1  0.0000000  1.6024720  3
  16737  16740  16741  16742     1  180.0000771  0.8368000  1
  16737  16740  16741  16742     1  180.0000771  1.0460000  2
  16737  16740  16741  16742     1  0.0000000  0.7531200  3
  16737  16740  16741  16747     1  0.0000000  0.6508444  3
  16740  16737  16736  16750     1  180.0000771  0.8368000  1
  16740  16737  16736  16750     1  180.0000771  1.0460000  2
  16740  16737  16736  16750     1  0.0000000  0.7531200  3
  16740  16737  16736  16758     1  0.0000000  0.6508444  3
  16740  16741  16742  16746     1  0.0000000  0.6508444  3
  16740  16741  16742  16758     1  0.0000000  0.6508444  3
  16741  16740  16737  16749     1  0.0000000  0.6508444  3
  16742  16741  16740  16748     1  0.0000000  0.6508444  3
  16742  16758  16736  16750     1  180.0000771  0.4184000  2
  16742  16758  16736  16750     1  0.0000000  1.6024720  3
  16746  16742  16741  16747     1  0.0000000  4.9162000  2
  16746  16742  16741  16747     1  0.0000000  0.6024960  3
  16747  16741  16740  16748     1  0.0000000  4.9162000  2
  16747  16741  16740  16748     1  0.0000000  0.6024960  3
  16747  16741  16742  16758     1  0.0000000  4.9162000  2
  16747  16741  16742  16758     1  0.0000000  0.6024960  3
  16748  16740  16737  16749     1  0.0000000  4.9162000  2
  16748  16740  16737  16749     1  0.0000000  0.6024960  3
  16749  16737  16736  16750     1  0.0000000  0.6508444  3
  16749  16737  16736  16758     1  0.0000000  4.9162000  2
  16749  16737  16736  16758     1  0.0000000  0.6024960  3
  16756  16750  16736  16758     1  0.0000000  4.9162000  2
  16756  16750  16736  16758     1  0.0000000  0.6024960  3
  16759  16760  16763  16764     1  180.0000771  0.8368000  1
  16759  16760  16763  16764     1  180.0000771  1.0460000  2
  16759  16760  16763  16764     1  0.0000000  0.7531200  3
  16759  16760  16763  16771     1  0.0000000  0.6508444  3
  16759  16781  16765  16769     1  180.0000771  5.6484000  1
  16759  16781  16765  16769     1  180.0000771  3.5564000  2
  16759  16781  16765  16769     1  0.0000000  0.4184000  3
  16759  16781  16765  16764     1  180.0000771  0.4184000  2
  16759  16781  16765  16764     1  0.0000000  1.6024720  3
  16760  16763  16764  16765     1  180.0000771  0.8368000  1
  16760  16763  16764  16765     1  180.0000771  1.0460000  2
  16760  16763  16764  16765     1  0.0000000  0.7531200  3
  16760  16763  16764  16770     1  0.0000000  0.6508444  3
  16760  16759  16773  16779     1  0.0000000  0.6508444  3
  16760  16759  16781  16765     1  180.0000771  0.4184000  2
  16760  16759  16781  16765     1  0.0000000  1.6024720  3
  16763  16764  16765  16769     1  0.0000000  0.6508444  3
  16763  16764  16765  16781     1  0.0000000  0.6508444  3
  16763  16760  16759  16773     1  180.0000771  0.8368000  1
  16763  16760  16759  16773     1  180.0000771  1.0460000  2
  16763  16760  16759  16773     1  0.0000000  0.7531200  3
  16763  16760  16759  16781     1  0.0000000  0.6508444  3
  16764  16763  16760  16772     1  0.0000000  0.6508444  3
  16765  16781  16759  16773     1  180.0000771  0.4184000  2
  16765  16781  16759  16773     1  0.0000000  1.6024720  3
  16765  16764  16763  16771     1  0.0000000  0.6508444  3
  16769  16765  16764  16770     1  0.0000000  4.9162000  2
  16769  16765  16764  16770     1  0.0000000  0.6024960  3
  16770  16764  16765  16781     1  0.0000000  4.9162000  2
  16770  16764  16765  16781     1  0.0000000  0.6024960  3
  16770  16764  16763  16771     1  0.0000000  4.9162000  2
  16770  16764  16763  16771     1  0.0000000  0.6024960  3
  16771  16763  16760  16772     1  0.0000000  4.9162000  2
  16771  16763  16760  16772     1  0.0000000  0.6024960  3
  16772  16760  16759  16773     1  0.0000000  0.6508444  3
  16772  16760  16759  16781     1  0.0000000  4.9162000  2
  16772  16760  16759  16781     1  0.0000000  0.6024960  3
  16779  16773  16759  16781     1  0.0000000  4.9162000  2
  16779  16773  16759  16781     1  0.0000000  0.6024960  3
  16782  16783  16786  16787     1  180.0000771  0.8368000  1
  16782  16783  16786  16787     1  180.0000771  1.0460000  2
  16782  16783  16786  16787     1  0.0000000  0.7531200  3
  16782  16783  16786  16794     1  0.0000000  0.6508444  3
  16782  16804  16788  16787     1  180.0000771  0.4184000  2
  16782  16804  16788  16787     1  0.0000000  1.6024720  3
  16782  16804  16788  16792     1  180.0000771  5.6484000  1
  16782  16804  16788  16792     1  180.0000771  3.5564000  2
  16782  16804  16788  16792     1  0.0000000  0.4184000  3
  16783  16782  16796  16802     1  0.0000000  0.6508444  3
  16783  16782  16804  16788     1  180.0000771  0.4184000  2
  16783  16782  16804  16788     1  0.0000000  1.6024720  3
  16783  16786  16787  16788     1  180.0000771  0.8368000  1
  16783  16786  16787  16788     1  180.0000771  1.0460000  2
  16783  16786  16787  16788     1  0.0000000  0.7531200  3
  16783  16786  16787  16793     1  0.0000000  0.6508444  3
  16786  16783  16782  16796     1  180.0000771  0.8368000  1
  16786  16783  16782  16796     1  180.0000771  1.0460000  2
  16786  16783  16782  16796     1  0.0000000  0.7531200  3
  16786  16783  16782  16804     1  0.0000000  0.6508444  3
  16786  16787  16788  16792     1  0.0000000  0.6508444  3
  16786  16787  16788  16804     1  0.0000000  0.6508444  3
  16787  16786  16783  16795     1  0.0000000  0.6508444  3
  16788  16787  16786  16794     1  0.0000000  0.6508444  3
  16788  16804  16782  16796     1  180.0000771  0.4184000  2
  16788  16804  16782  16796     1  0.0000000  1.6024720  3
  16792  16788  16787  16793     1  0.0000000  4.9162000  2
  16792  16788  16787  16793     1  0.0000000  0.6024960  3
  16793  16787  16786  16794     1  0.0000000  4.9162000  2
  16793  16787  16786  16794     1  0.0000000  0.6024960  3
  16793  16787  16788  16804     1  0.0000000  4.9162000  2
  16793  16787  16788  16804     1  0.0000000  0.6024960  3
  16794  16786  16783  16795     1  0.0000000  4.9162000  2
  16794  16786  16783  16795     1  0.0000000  0.6024960  3
  16795  16783  16782  16796     1  0.0000000  0.6508444  3
  16795  16783  16782  16804     1  0.0000000  4.9162000  2
  16795  16783  16782  16804     1  0.0000000  0.6024960  3
  16802  16796  16782  16804     1  0.0000000  4.9162000  2
  16802  16796  16782  16804     1  0.0000000  0.6024960  3
  16805  16806  16809  16810     1  180.0000771  0.8368000  1
  16805  16806  16809  16810     1  180.0000771  1.0460000  2
  16805  16806  16809  16810     1  0.0000000  0.7531200  3
  16805  16806  16809  16817     1  0.0000000  0.6508444  3
  16805  16827  16811  16815     1  180.0000771  5.6484000  1
  16805  16827  16811  16815     1  180.0000771  3.5564000  2
  16805  16827  16811  16815     1  0.0000000  0.4184000  3
  16805  16827  16811  16810     1  180.0000771  0.4184000  2
  16805  16827  16811  16810     1  0.0000000  1.6024720  3
  16806  16809  16810  16811     1  180.0000771  0.8368000  1
  16806  16809  16810  16811     1  180.0000771  1.0460000  2
  16806  16809  16810  16811     1  0.0000000  0.7531200  3
  16806  16809  16810  16816     1  0.0000000  0.6508444  3
  16806  16805  16819  16825     1  0.0000000  0.6508444  3
  16806  16805  16827  16811     1  180.0000771  0.4184000  2
  16806  16805  16827  16811     1  0.0000000  1.6024720  3
  16809  16810  16811  16815     1  0.0000000  0.6508444  3
  16809  16810  16811  16827     1  0.0000000  0.6508444  3
  16809  16806  16805  16819     1  180.0000771  0.8368000  1
  16809  16806  16805  16819     1  180.0000771  1.0460000  2
  16809  16806  16805  16819     1  0.0000000  0.7531200  3
  16809  16806  16805  16827     1  0.0000000  0.6508444  3
  16810  16809  16806  16818     1  0.0000000  0.6508444  3
  16811  16827  16805  16819     1  180.0000771  0.4184000  2
  16811  16827  16805  16819     1  0.0000000  1.6024720  3
  16811  16810  16809  16817     1  0.0000000  0.6508444  3
  16815  16811  16810  16816     1  0.0000000  4.9162000  2
  16815  16811  16810  16816     1  0.0000000  0.6024960  3
  16816  16810  16811  16827     1  0.0000000  4.9162000  2
  16816  16810  16811  16827     1  0.0000000  0.6024960  3
  16816  16810  16809  16817     1  0.0000000  4.9162000  2
  16816  16810  16809  16817     1  0.0000000  0.6024960  3
  16817  16809  16806  16818     1  0.0000000  4.9162000  2
  16817  16809  16806  16818     1  0.0000000  0.6024960  3
  16818  16806  16805  16819     1  0.0000000  0.6508444  3
  16818  16806  16805  16827     1  0.0000000  4.9162000  2
  16818  16806  16805  16827     1  0.0000000  0.6024960  3
  16825  16819  16805  16827     1  0.0000000  4.9162000  2
  16825  16819  16805  16827     1  0.0000000  0.6024960  3
  16828  16829  16832  16833     1  180.0000771  0.8368000  1
  16828  16829  16832  16833     1  180.0000771  1.0460000  2
  16828  16829  16832  16833     1  0.0000000  0.7531200  3
  16828  16829  16832  16840     1  0.0000000  0.6508444  3
  16828  16850  16834  16833     1  180.0000771  0.4184000  2
  16828  16850  16834  16833     1  0.0000000  1.6024720  3
  16828  16850  16834  16838     1  180.0000771  5.6484000  1
  16828  16850  16834  16838     1  180.0000771  3.5564000  2
  16828  16850  16834  16838     1  0.0000000  0.4184000  3
  16829  16828  16842  16848     1  0.0000000  0.6508444  3
  16829  16828  16850  16834     1  180.0000771  0.4184000  2
  16829  16828  16850  16834     1  0.0000000  1.6024720  3
  16829  16832  16833  16834     1  180.0000771  0.8368000  1
  16829  16832  16833  16834     1  180.0000771  1.0460000  2
  16829  16832  16833  16834     1  0.0000000  0.7531200  3
  16829  16832  16833  16839     1  0.0000000  0.6508444  3
  16832  16829  16828  16842     1  180.0000771  0.8368000  1
  16832  16829  16828  16842     1  180.0000771  1.0460000  2
  16832  16829  16828  16842     1  0.0000000  0.7531200  3
  16832  16829  16828  16850     1  0.0000000  0.6508444  3
  16832  16833  16834  16838     1  0.0000000  0.6508444  3
  16832  16833  16834  16850     1  0.0000000  0.6508444  3
  16833  16832  16829  16841     1  0.0000000  0.6508444  3
  16834  16833  16832  16840     1  0.0000000  0.6508444  3
  16834  16850  16828  16842     1  180.0000771  0.4184000  2
  16834  16850  16828  16842     1  0.0000000  1.6024720  3
  16838  16834  16833  16839     1  0.0000000  4.9162000  2
  16838  16834  16833  16839     1  0.0000000  0.6024960  3
  16839  16833  16832  16840     1  0.0000000  4.9162000  2
  16839  16833  16832  16840     1  0.0000000  0.6024960  3
  16839  16833  16834  16850     1  0.0000000  4.9162000  2
  16839  16833  16834  16850     1  0.0000000  0.6024960  3
  16840  16832  16829  16841     1  0.0000000  4.9162000  2
  16840  16832  16829  16841     1  0.0000000  0.6024960  3
  16841  16829  16828  16842     1  0.0000000  0.6508444  3
  16841  16829  16828  16850     1  0.0000000  4.9162000  2
  16841  16829  16828  16850     1  0.0000000  0.6024960  3
  16848  16842  16828  16850     1  0.0000000  4.9162000  2
  16848  16842  16828  16850     1  0.0000000  0.6024960  3
  16851  16852  16855  16856     1  180.0000771  0.8368000  1
  16851  16852  16855  16856     1  180.0000771  1.0460000  2
  16851  16852  16855  16856     1  0.0000000  0.7531200  3
  16851  16852  16855  16863     1  0.0000000  0.6508444  3
  16851  16873  16857  16861     1  180.0000771  5.6484000  1
  16851  16873  16857  16861     1  180.0000771  3.5564000  2
  16851  16873  16857  16861     1  0.0000000  0.4184000  3
  16851  16873  16857  16856     1  180.0000771  0.4184000  2
  16851  16873  16857  16856     1  0.0000000  1.6024720  3
  16852  16855  16856  16857     1  180.0000771  0.8368000  1
  16852  16855  16856  16857     1  180.0000771  1.0460000  2
  16852  16855  16856  16857     1  0.0000000  0.7531200  3
  16852  16855  16856  16862     1  0.0000000  0.6508444  3
  16852  16851  16865  16871     1  0.0000000  0.6508444  3
  16852  16851  16873  16857     1  180.0000771  0.4184000  2
  16852  16851  16873  16857     1  0.0000000  1.6024720  3
  16855  16856  16857  16861     1  0.0000000  0.6508444  3
  16855  16856  16857  16873     1  0.0000000  0.6508444  3
  16855  16852  16851  16865     1  180.0000771  0.8368000  1
  16855  16852  16851  16865     1  180.0000771  1.0460000  2
  16855  16852  16851  16865     1  0.0000000  0.7531200  3
  16855  16852  16851  16873     1  0.0000000  0.6508444  3
  16856  16855  16852  16864     1  0.0000000  0.6508444  3
  16857  16873  16851  16865     1  180.0000771  0.4184000  2
  16857  16873  16851  16865     1  0.0000000  1.6024720  3
  16857  16856  16855  16863     1  0.0000000  0.6508444  3
  16861  16857  16856  16862     1  0.0000000  4.9162000  2
  16861  16857  16856  16862     1  0.0000000  0.6024960  3
  16862  16856  16857  16873     1  0.0000000  4.9162000  2
  16862  16856  16857  16873     1  0.0000000  0.6024960  3
  16862  16856  16855  16863     1  0.0000000  4.9162000  2
  16862  16856  16855  16863     1  0.0000000  0.6024960  3
  16863  16855  16852  16864     1  0.0000000  4.9162000  2
  16863  16855  16852  16864     1  0.0000000  0.6024960  3
  16864  16852  16851  16865     1  0.0000000  0.6508444  3
  16864  16852  16851  16873     1  0.0000000  4.9162000  2
  16864  16852  16851  16873     1  0.0000000  0.6024960  3
  16871  16865  16851  16873     1  0.0000000  4.9162000  2
  16871  16865  16851  16873     1  0.0000000  0.6024960  3
  16874  16875  16878  16879     1  180.0000771  0.8368000  1
  16874  16875  16878  16879     1  180.0000771  1.0460000  2
  16874  16875  16878  16879     1  0.0000000  0.7531200  3
  16874  16875  16878  16886     1  0.0000000  0.6508444  3
  16874  16896  16880  16879     1  180.0000771  0.4184000  2
  16874  16896  16880  16879     1  0.0000000  1.6024720  3
  16874  16896  16880  16884     1  180.0000771  5.6484000  1
  16874  16896  16880  16884     1  180.0000771  3.5564000  2
  16874  16896  16880  16884     1  0.0000000  0.4184000  3
  16875  16874  16888  16894     1  0.0000000  0.6508444  3
  16875  16874  16896  16880     1  180.0000771  0.4184000  2
  16875  16874  16896  16880     1  0.0000000  1.6024720  3
  16875  16878  16879  16880     1  180.0000771  0.8368000  1
  16875  16878  16879  16880     1  180.0000771  1.0460000  2
  16875  16878  16879  16880     1  0.0000000  0.7531200  3
  16875  16878  16879  16885     1  0.0000000  0.6508444  3
  16878  16875  16874  16888     1  180.0000771  0.8368000  1
  16878  16875  16874  16888     1  180.0000771  1.0460000  2
  16878  16875  16874  16888     1  0.0000000  0.7531200  3
  16878  16875  16874  16896     1  0.0000000  0.6508444  3
  16878  16879  16880  16884     1  0.0000000  0.6508444  3
  16878  16879  16880  16896     1  0.0000000  0.6508444  3
  16879  16878  16875  16887     1  0.0000000  0.6508444  3
  16880  16879  16878  16886     1  0.0000000  0.6508444  3
  16880  16896  16874  16888     1  180.0000771  0.4184000  2
  16880  16896  16874  16888     1  0.0000000  1.6024720  3
  16884  16880  16879  16885     1  0.0000000  4.9162000  2
  16884  16880  16879  16885     1  0.0000000  0.6024960  3
  16885  16879  16878  16886     1  0.0000000  4.9162000  2
  16885  16879  16878  16886     1  0.0000000  0.6024960  3
  16885  16879  16880  16896     1  0.0000000  4.9162000  2
  16885  16879  16880  16896     1  0.0000000  0.6024960  3
  16886  16878  16875  16887     1  0.0000000  4.9162000  2
  16886  16878  16875  16887     1  0.0000000  0.6024960  3
  16887  16875  16874  16888     1  0.0000000  0.6508444  3
  16887  16875  16874  16896     1  0.0000000  4.9162000  2
  16887  16875  16874  16896     1  0.0000000  0.6024960  3
  16894  16888  16874  16896     1  0.0000000  4.9162000  2
  16894  16888  16874  16896     1  0.0000000  0.6024960  3
  16897  16898  16901  16902     1  180.0000771  0.8368000  1
  16897  16898  16901  16902     1  180.0000771  1.0460000  2
  16897  16898  16901  16902     1  0.0000000  0.7531200  3
  16897  16898  16901  16909     1  0.0000000  0.6508444  3
  16897  16919  16903  16907     1  180.0000771  5.6484000  1
  16897  16919  16903  16907     1  180.0000771  3.5564000  2
  16897  16919  16903  16907     1  0.0000000  0.4184000  3
  16897  16919  16903  16902     1  180.0000771  0.4184000  2
  16897  16919  16903  16902     1  0.0000000  1.6024720  3
  16898  16901  16902  16903     1  180.0000771  0.8368000  1
  16898  16901  16902  16903     1  180.0000771  1.0460000  2
  16898  16901  16902  16903     1  0.0000000  0.7531200  3
  16898  16901  16902  16908     1  0.0000000  0.6508444  3
  16898  16897  16911  16917     1  0.0000000  0.6508444  3
  16898  16897  16919  16903     1  180.0000771  0.4184000  2
  16898  16897  16919  16903     1  0.0000000  1.6024720  3
  16901  16902  16903  16907     1  0.0000000  0.6508444  3
  16901  16902  16903  16919     1  0.0000000  0.6508444  3
  16901  16898  16897  16911     1  180.0000771  0.8368000  1
  16901  16898  16897  16911     1  180.0000771  1.0460000  2
  16901  16898  16897  16911     1  0.0000000  0.7531200  3
  16901  16898  16897  16919     1  0.0000000  0.6508444  3
  16902  16901  16898  16910     1  0.0000000  0.6508444  3
  16903  16919  16897  16911     1  180.0000771  0.4184000  2
  16903  16919  16897  16911     1  0.0000000  1.6024720  3
  16903  16902  16901  16909     1  0.0000000  0.6508444  3
  16907  16903  16902  16908     1  0.0000000  4.9162000  2
  16907  16903  16902  16908     1  0.0000000  0.6024960  3
  16908  16902  16903  16919     1  0.0000000  4.9162000  2
  16908  16902  16903  16919     1  0.0000000  0.6024960  3
  16908  16902  16901  16909     1  0.0000000  4.9162000  2
  16908  16902  16901  16909     1  0.0000000  0.6024960  3
  16909  16901  16898  16910     1  0.0000000  4.9162000  2
  16909  16901  16898  16910     1  0.0000000  0.6024960  3
  16910  16898  16897  16911     1  0.0000000  0.6508444  3
  16910  16898  16897  16919     1  0.0000000  4.9162000  2
  16910  16898  16897  16919     1  0.0000000  0.6024960  3
  16917  16911  16897  16919     1  0.0000000  4.9162000  2
  16917  16911  16897  16919     1  0.0000000  0.6024960  3
  16920  16921  16924  16925     1  180.0000771  0.8368000  1
  16920  16921  16924  16925     1  180.0000771  1.0460000  2
  16920  16921  16924  16925     1  0.0000000  0.7531200  3
  16920  16921  16924  16932     1  0.0000000  0.6508444  3
  16920  16942  16926  16925     1  180.0000771  0.4184000  2
  16920  16942  16926  16925     1  0.0000000  1.6024720  3
  16920  16942  16926  16930     1  180.0000771  5.6484000  1
  16920  16942  16926  16930     1  180.0000771  3.5564000  2
  16920  16942  16926  16930     1  0.0000000  0.4184000  3
  16921  16920  16934  16940     1  0.0000000  0.6508444  3
  16921  16920  16942  16926     1  180.0000771  0.4184000  2
  16921  16920  16942  16926     1  0.0000000  1.6024720  3
  16921  16924  16925  16926     1  180.0000771  0.8368000  1
  16921  16924  16925  16926     1  180.0000771  1.0460000  2
  16921  16924  16925  16926     1  0.0000000  0.7531200  3
  16921  16924  16925  16931     1  0.0000000  0.6508444  3
  16924  16921  16920  16934     1  180.0000771  0.8368000  1
  16924  16921  16920  16934     1  180.0000771  1.0460000  2
  16924  16921  16920  16934     1  0.0000000  0.7531200  3
  16924  16921  16920  16942     1  0.0000000  0.6508444  3
  16924  16925  16926  16930     1  0.0000000  0.6508444  3
  16924  16925  16926  16942     1  0.0000000  0.6508444  3
  16925  16924  16921  16933     1  0.0000000  0.6508444  3
  16926  16925  16924  16932     1  0.0000000  0.6508444  3
  16926  16942  16920  16934     1  180.0000771  0.4184000  2
  16926  16942  16920  16934     1  0.0000000  1.6024720  3
  16930  16926  16925  16931     1  0.0000000  4.9162000  2
  16930  16926  16925  16931     1  0.0000000  0.6024960  3
  16931  16925  16924  16932     1  0.0000000  4.9162000  2
  16931  16925  16924  16932     1  0.0000000  0.6024960  3
  16931  16925  16926  16942     1  0.0000000  4.9162000  2
  16931  16925  16926  16942     1  0.0000000  0.6024960  3
  16932  16924  16921  16933     1  0.0000000  4.9162000  2
  16932  16924  16921  16933     1  0.0000000  0.6024960  3
  16933  16921  16920  16934     1  0.0000000  0.6508444  3
  16933  16921  16920  16942     1  0.0000000  4.9162000  2
  16933  16921  16920  16942     1  0.0000000  0.6024960  3
  16940  16934  16920  16942     1  0.0000000  4.9162000  2
  16940  16934  16920  16942     1  0.0000000  0.6024960  3
  16943  16944  16947  16948     1  180.0000771  0.8368000  1
  16943  16944  16947  16948     1  180.0000771  1.0460000  2
  16943  16944  16947  16948     1  0.0000000  0.7531200  3
  16943  16944  16947  16955     1  0.0000000  0.6508444  3
  16943  16965  16949  16953     1  180.0000771  5.6484000  1
  16943  16965  16949  16953     1  180.0000771  3.5564000  2
  16943  16965  16949  16953     1  0.0000000  0.4184000  3
  16943  16965  16949  16948     1  180.0000771  0.4184000  2
  16943  16965  16949  16948     1  0.0000000  1.6024720  3
  16944  16947  16948  16949     1  180.0000771  0.8368000  1
  16944  16947  16948  16949     1  180.0000771  1.0460000  2
  16944  16947  16948  16949     1  0.0000000  0.7531200  3
  16944  16947  16948  16954     1  0.0000000  0.6508444  3
  16944  16943  16957  16963     1  0.0000000  0.6508444  3
  16944  16943  16965  16949     1  180.0000771  0.4184000  2
  16944  16943  16965  16949     1  0.0000000  1.6024720  3
  16947  16948  16949  16953     1  0.0000000  0.6508444  3
  16947  16948  16949  16965     1  0.0000000  0.6508444  3
  16947  16944  16943  16957     1  180.0000771  0.8368000  1
  16947  16944  16943  16957     1  180.0000771  1.0460000  2
  16947  16944  16943  16957     1  0.0000000  0.7531200  3
  16947  16944  16943  16965     1  0.0000000  0.6508444  3
  16948  16947  16944  16956     1  0.0000000  0.6508444  3
  16949  16965  16943  16957     1  180.0000771  0.4184000  2
  16949  16965  16943  16957     1  0.0000000  1.6024720  3
  16949  16948  16947  16955     1  0.0000000  0.6508444  3
  16953  16949  16948  16954     1  0.0000000  4.9162000  2
  16953  16949  16948  16954     1  0.0000000  0.6024960  3
  16954  16948  16949  16965     1  0.0000000  4.9162000  2
  16954  16948  16949  16965     1  0.0000000  0.6024960  3
  16954  16948  16947  16955     1  0.0000000  4.9162000  2
  16954  16948  16947  16955     1  0.0000000  0.6024960  3
  16955  16947  16944  16956     1  0.0000000  4.9162000  2
  16955  16947  16944  16956     1  0.0000000  0.6024960  3
  16956  16944  16943  16957     1  0.0000000  0.6508444  3
  16956  16944  16943  16965     1  0.0000000  4.9162000  2
  16956  16944  16943  16965     1  0.0000000  0.6024960  3
  16963  16957  16943  16965     1  0.0000000  4.9162000  2
  16963  16957  16943  16965     1  0.0000000  0.6024960  3
  16966  16967  16970  16971     1  180.0000771  0.8368000  1
  16966  16967  16970  16971     1  180.0000771  1.0460000  2
  16966  16967  16970  16971     1  0.0000000  0.7531200  3
  16966  16967  16970  16978     1  0.0000000  0.6508444  3
  16966  16988  16972  16971     1  180.0000771  0.4184000  2
  16966  16988  16972  16971     1  0.0000000  1.6024720  3
  16966  16988  16972  16976     1  180.0000771  5.6484000  1
  16966  16988  16972  16976     1  180.0000771  3.5564000  2
  16966  16988  16972  16976     1  0.0000000  0.4184000  3
  16967  16966  16980  16986     1  0.0000000  0.6508444  3
  16967  16966  16988  16972     1  180.0000771  0.4184000  2
  16967  16966  16988  16972     1  0.0000000  1.6024720  3
  16967  16970  16971  16972     1  180.0000771  0.8368000  1
  16967  16970  16971  16972     1  180.0000771  1.0460000  2
  16967  16970  16971  16972     1  0.0000000  0.7531200  3
  16967  16970  16971  16977     1  0.0000000  0.6508444  3
  16970  16967  16966  16980     1  180.0000771  0.8368000  1
  16970  16967  16966  16980     1  180.0000771  1.0460000  2
  16970  16967  16966  16980     1  0.0000000  0.7531200  3
  16970  16967  16966  16988     1  0.0000000  0.6508444  3
  16970  16971  16972  16976     1  0.0000000  0.6508444  3
  16970  16971  16972  16988     1  0.0000000  0.6508444  3
  16971  16970  16967  16979     1  0.0000000  0.6508444  3
  16972  16971  16970  16978     1  0.0000000  0.6508444  3
  16972  16988  16966  16980     1  180.0000771  0.4184000  2
  16972  16988  16966  16980     1  0.0000000  1.6024720  3
  16976  16972  16971  16977     1  0.0000000  4.9162000  2
  16976  16972  16971  16977     1  0.0000000  0.6024960  3
  16977  16971  16970  16978     1  0.0000000  4.9162000  2
  16977  16971  16970  16978     1  0.0000000  0.6024960  3
  16977  16971  16972  16988     1  0.0000000  4.9162000  2
  16977  16971  16972  16988     1  0.0000000  0.6024960  3
  16978  16970  16967  16979     1  0.0000000  4.9162000  2
  16978  16970  16967  16979     1  0.0000000  0.6024960  3
  16979  16967  16966  16980     1  0.0000000  0.6508444  3
  16979  16967  16966  16988     1  0.0000000  4.9162000  2
  16979  16967  16966  16988     1  0.0000000  0.6024960  3
  16986  16980  16966  16988     1  0.0000000  4.9162000  2
  16986  16980  16966  16988     1  0.0000000  0.6024960  3
  16989  16990  16993  16994     1  180.0000771  0.8368000  1
  16989  16990  16993  16994     1  180.0000771  1.0460000  2
  16989  16990  16993  16994     1  0.0000000  0.7531200  3
  16989  16990  16993  17001     1  0.0000000  0.6508444  3
  16989  17011  16995  16999     1  180.0000771  5.6484000  1
  16989  17011  16995  16999     1  180.0000771  3.5564000  2
  16989  17011  16995  16999     1  0.0000000  0.4184000  3
  16989  17011  16995  16994     1  180.0000771  0.4184000  2
  16989  17011  16995  16994     1  0.0000000  1.6024720  3
  16990  16993  16994  16995     1  180.0000771  0.8368000  1
  16990  16993  16994  16995     1  180.0000771  1.0460000  2
  16990  16993  16994  16995     1  0.0000000  0.7531200  3
  16990  16993  16994  17000     1  0.0000000  0.6508444  3
  16990  16989  17003  17009     1  0.0000000  0.6508444  3
  16990  16989  17011  16995     1  180.0000771  0.4184000  2
  16990  16989  17011  16995     1  0.0000000  1.6024720  3
  16993  16994  16995  16999     1  0.0000000  0.6508444  3
  16993  16994  16995  17011     1  0.0000000  0.6508444  3
  16993  16990  16989  17003     1  180.0000771  0.8368000  1
  16993  16990  16989  17003     1  180.0000771  1.0460000  2
  16993  16990  16989  17003     1  0.0000000  0.7531200  3
  16993  16990  16989  17011     1  0.0000000  0.6508444  3
  16994  16993  16990  17002     1  0.0000000  0.6508444  3
  16995  17011  16989  17003     1  180.0000771  0.4184000  2
  16995  17011  16989  17003     1  0.0000000  1.6024720  3
  16995  16994  16993  17001     1  0.0000000  0.6508444  3
  16999  16995  16994  17000     1  0.0000000  4.9162000  2
  16999  16995  16994  17000     1  0.0000000  0.6024960  3
  17000  16994  16995  17011     1  0.0000000  4.9162000  2
  17000  16994  16995  17011     1  0.0000000  0.6024960  3
  17000  16994  16993  17001     1  0.0000000  4.9162000  2
  17000  16994  16993  17001     1  0.0000000  0.6024960  3
  17001  16993  16990  17002     1  0.0000000  4.9162000  2
  17001  16993  16990  17002     1  0.0000000  0.6024960  3
  17002  16990  16989  17003     1  0.0000000  0.6508444  3
  17002  16990  16989  17011     1  0.0000000  4.9162000  2
  17002  16990  16989  17011     1  0.0000000  0.6024960  3
  17009  17003  16989  17011     1  0.0000000  4.9162000  2
  17009  17003  16989  17011     1  0.0000000  0.6024960  3
  17012  17013  17016  17017     1  180.0000771  0.8368000  1
  17012  17013  17016  17017     1  180.0000771  1.0460000  2
  17012  17013  17016  17017     1  0.0000000  0.7531200  3
  17012  17013  17016  17024     1  0.0000000  0.6508444  3
  17012  17034  17018  17017     1  180.0000771  0.4184000  2
  17012  17034  17018  17017     1  0.0000000  1.6024720  3
  17012  17034  17018  17022     1  180.0000771  5.6484000  1
  17012  17034  17018  17022     1  180.0000771  3.5564000  2
  17012  17034  17018  17022     1  0.0000000  0.4184000  3
  17013  17012  17026  17032     1  0.0000000  0.6508444  3
  17013  17012  17034  17018     1  180.0000771  0.4184000  2
  17013  17012  17034  17018     1  0.0000000  1.6024720  3
  17013  17016  17017  17018     1  180.0000771  0.8368000  1
  17013  17016  17017  17018     1  180.0000771  1.0460000  2
  17013  17016  17017  17018     1  0.0000000  0.7531200  3
  17013  17016  17017  17023     1  0.0000000  0.6508444  3
  17016  17013  17012  17026     1  180.0000771  0.8368000  1
  17016  17013  17012  17026     1  180.0000771  1.0460000  2
  17016  17013  17012  17026     1  0.0000000  0.7531200  3
  17016  17013  17012  17034     1  0.0000000  0.6508444  3
  17016  17017  17018  17022     1  0.0000000  0.6508444  3
  17016  17017  17018  17034     1  0.0000000  0.6508444  3
  17017  17016  17013  17025     1  0.0000000  0.6508444  3
  17018  17017  17016  17024     1  0.0000000  0.6508444  3
  17018  17034  17012  17026     1  180.0000771  0.4184000  2
  17018  17034  17012  17026     1  0.0000000  1.6024720  3
  17022  17018  17017  17023     1  0.0000000  4.9162000  2
  17022  17018  17017  17023     1  0.0000000  0.6024960  3
  17023  17017  17016  17024     1  0.0000000  4.9162000  2
  17023  17017  17016  17024     1  0.0000000  0.6024960  3
  17023  17017  17018  17034     1  0.0000000  4.9162000  2
  17023  17017  17018  17034     1  0.0000000  0.6024960  3
  17024  17016  17013  17025     1  0.0000000  4.9162000  2
  17024  17016  17013  17025     1  0.0000000  0.6024960  3
  17025  17013  17012  17026     1  0.0000000  0.6508444  3
  17025  17013  17012  17034     1  0.0000000  4.9162000  2
  17025  17013  17012  17034     1  0.0000000  0.6024960  3
  17032  17026  17012  17034     1  0.0000000  4.9162000  2
  17032  17026  17012  17034     1  0.0000000  0.6024960  3
  17035  17036  17039  17040     1  180.0000771  0.8368000  1
  17035  17036  17039  17040     1  180.0000771  1.0460000  2
  17035  17036  17039  17040     1  0.0000000  0.7531200  3
  17035  17036  17039  17047     1  0.0000000  0.6508444  3
  17035  17057  17041  17045     1  180.0000771  5.6484000  1
  17035  17057  17041  17045     1  180.0000771  3.5564000  2
  17035  17057  17041  17045     1  0.0000000  0.4184000  3
  17035  17057  17041  17040     1  180.0000771  0.4184000  2
  17035  17057  17041  17040     1  0.0000000  1.6024720  3
  17036  17039  17040  17041     1  180.0000771  0.8368000  1
  17036  17039  17040  17041     1  180.0000771  1.0460000  2
  17036  17039  17040  17041     1  0.0000000  0.7531200  3
  17036  17039  17040  17046     1  0.0000000  0.6508444  3
  17036  17035  17049  17055     1  0.0000000  0.6508444  3
  17036  17035  17057  17041     1  180.0000771  0.4184000  2
  17036  17035  17057  17041     1  0.0000000  1.6024720  3
  17039  17040  17041  17045     1  0.0000000  0.6508444  3
  17039  17040  17041  17057     1  0.0000000  0.6508444  3
  17039  17036  17035  17049     1  180.0000771  0.8368000  1
  17039  17036  17035  17049     1  180.0000771  1.0460000  2
  17039  17036  17035  17049     1  0.0000000  0.7531200  3
  17039  17036  17035  17057     1  0.0000000  0.6508444  3
  17040  17039  17036  17048     1  0.0000000  0.6508444  3
  17041  17057  17035  17049     1  180.0000771  0.4184000  2
  17041  17057  17035  17049     1  0.0000000  1.6024720  3
  17041  17040  17039  17047     1  0.0000000  0.6508444  3
  17045  17041  17040  17046     1  0.0000000  4.9162000  2
  17045  17041  17040  17046     1  0.0000000  0.6024960  3
  17046  17040  17041  17057     1  0.0000000  4.9162000  2
  17046  17040  17041  17057     1  0.0000000  0.6024960  3
  17046  17040  17039  17047     1  0.0000000  4.9162000  2
  17046  17040  17039  17047     1  0.0000000  0.6024960  3
  17047  17039  17036  17048     1  0.0000000  4.9162000  2
  17047  17039  17036  17048     1  0.0000000  0.6024960  3
  17048  17036  17035  17049     1  0.0000000  0.6508444  3
  17048  17036  17035  17057     1  0.0000000  4.9162000  2
  17048  17036  17035  17057     1  0.0000000  0.6024960  3
  17055  17049  17035  17057     1  0.0000000  4.9162000  2
  17055  17049  17035  17057     1  0.0000000  0.6024960  3
  17058  17059  17062  17063     1  180.0000771  0.8368000  1
  17058  17059  17062  17063     1  180.0000771  1.0460000  2
  17058  17059  17062  17063     1  0.0000000  0.7531200  3
  17058  17059  17062  17070     1  0.0000000  0.6508444  3
  17058  17080  17064  17063     1  180.0000771  0.4184000  2
  17058  17080  17064  17063     1  0.0000000  1.6024720  3
  17058  17080  17064  17068     1  180.0000771  5.6484000  1
  17058  17080  17064  17068     1  180.0000771  3.5564000  2
  17058  17080  17064  17068     1  0.0000000  0.4184000  3
  17059  17058  17072  17078     1  0.0000000  0.6508444  3
  17059  17058  17080  17064     1  180.0000771  0.4184000  2
  17059  17058  17080  17064     1  0.0000000  1.6024720  3
  17059  17062  17063  17064     1  180.0000771  0.8368000  1
  17059  17062  17063  17064     1  180.0000771  1.0460000  2
  17059  17062  17063  17064     1  0.0000000  0.7531200  3
  17059  17062  17063  17069     1  0.0000000  0.6508444  3
  17062  17059  17058  17072     1  180.0000771  0.8368000  1
  17062  17059  17058  17072     1  180.0000771  1.0460000  2
  17062  17059  17058  17072     1  0.0000000  0.7531200  3
  17062  17059  17058  17080     1  0.0000000  0.6508444  3
  17062  17063  17064  17068     1  0.0000000  0.6508444  3
  17062  17063  17064  17080     1  0.0000000  0.6508444  3
  17063  17062  17059  17071     1  0.0000000  0.6508444  3
  17064  17063  17062  17070     1  0.0000000  0.6508444  3
  17064  17080  17058  17072     1  180.0000771  0.4184000  2
  17064  17080  17058  17072     1  0.0000000  1.6024720  3
  17068  17064  17063  17069     1  0.0000000  4.9162000  2
  17068  17064  17063  17069     1  0.0000000  0.6024960  3
  17069  17063  17062  17070     1  0.0000000  4.9162000  2
  17069  17063  17062  17070     1  0.0000000  0.6024960  3
  17069  17063  17064  17080     1  0.0000000  4.9162000  2
  17069  17063  17064  17080     1  0.0000000  0.6024960  3
  17070  17062  17059  17071     1  0.0000000  4.9162000  2
  17070  17062  17059  17071     1  0.0000000  0.6024960  3
  17071  17059  17058  17072     1  0.0000000  0.6508444  3
  17071  17059  17058  17080     1  0.0000000  4.9162000  2
  17071  17059  17058  17080     1  0.0000000  0.6024960  3
  17078  17072  17058  17080     1  0.0000000  4.9162000  2
  17078  17072  17058  17080     1  0.0000000  0.6024960  3
  17081  17082  17085  17086     1  180.0000771  0.8368000  1
  17081  17082  17085  17086     1  180.0000771  1.0460000  2
  17081  17082  17085  17086     1  0.0000000  0.7531200  3
  17081  17082  17085  17093     1  0.0000000  0.6508444  3
  17081  17103  17087  17091     1  180.0000771  5.6484000  1
  17081  17103  17087  17091     1  180.0000771  3.5564000  2
  17081  17103  17087  17091     1  0.0000000  0.4184000  3
  17081  17103  17087  17086     1  180.0000771  0.4184000  2
  17081  17103  17087  17086     1  0.0000000  1.6024720  3
  17082  17085  17086  17087     1  180.0000771  0.8368000  1
  17082  17085  17086  17087     1  180.0000771  1.0460000  2
  17082  17085  17086  17087     1  0.0000000  0.7531200  3
  17082  17085  17086  17092     1  0.0000000  0.6508444  3
  17082  17081  17095  17101     1  0.0000000  0.6508444  3
  17082  17081  17103  17087     1  180.0000771  0.4184000  2
  17082  17081  17103  17087     1  0.0000000  1.6024720  3
  17085  17086  17087  17091     1  0.0000000  0.6508444  3
  17085  17086  17087  17103     1  0.0000000  0.6508444  3
  17085  17082  17081  17095     1  180.0000771  0.8368000  1
  17085  17082  17081  17095     1  180.0000771  1.0460000  2
  17085  17082  17081  17095     1  0.0000000  0.7531200  3
  17085  17082  17081  17103     1  0.0000000  0.6508444  3
  17086  17085  17082  17094     1  0.0000000  0.6508444  3
  17087  17103  17081  17095     1  180.0000771  0.4184000  2
  17087  17103  17081  17095     1  0.0000000  1.6024720  3
  17087  17086  17085  17093     1  0.0000000  0.6508444  3
  17091  17087  17086  17092     1  0.0000000  4.9162000  2
  17091  17087  17086  17092     1  0.0000000  0.6024960  3
  17092  17086  17087  17103     1  0.0000000  4.9162000  2
  17092  17086  17087  17103     1  0.0000000  0.6024960  3
  17092  17086  17085  17093     1  0.0000000  4.9162000  2
  17092  17086  17085  17093     1  0.0000000  0.6024960  3
  17093  17085  17082  17094     1  0.0000000  4.9162000  2
  17093  17085  17082  17094     1  0.0000000  0.6024960  3
  17094  17082  17081  17095     1  0.0000000  0.6508444  3
  17094  17082  17081  17103     1  0.0000000  4.9162000  2
  17094  17082  17081  17103     1  0.0000000  0.6024960  3
  17101  17095  17081  17103     1  0.0000000  4.9162000  2
  17101  17095  17081  17103     1  0.0000000  0.6024960  3
  17104  17105  17108  17109     1  180.0000771  0.8368000  1
  17104  17105  17108  17109     1  180.0000771  1.0460000  2
  17104  17105  17108  17109     1  0.0000000  0.7531200  3
  17104  17105  17108  17116     1  0.0000000  0.6508444  3
  17104  17126  17110  17109     1  180.0000771  0.4184000  2
  17104  17126  17110  17109     1  0.0000000  1.6024720  3
  17104  17126  17110  17114     1  180.0000771  5.6484000  1
  17104  17126  17110  17114     1  180.0000771  3.5564000  2
  17104  17126  17110  17114     1  0.0000000  0.4184000  3
  17105  17104  17118  17124     1  0.0000000  0.6508444  3
  17105  17104  17126  17110     1  180.0000771  0.4184000  2
  17105  17104  17126  17110     1  0.0000000  1.6024720  3
  17105  17108  17109  17110     1  180.0000771  0.8368000  1
  17105  17108  17109  17110     1  180.0000771  1.0460000  2
  17105  17108  17109  17110     1  0.0000000  0.7531200  3
  17105  17108  17109  17115     1  0.0000000  0.6508444  3
  17108  17105  17104  17118     1  180.0000771  0.8368000  1
  17108  17105  17104  17118     1  180.0000771  1.0460000  2
  17108  17105  17104  17118     1  0.0000000  0.7531200  3
  17108  17105  17104  17126     1  0.0000000  0.6508444  3
  17108  17109  17110  17114     1  0.0000000  0.6508444  3
  17108  17109  17110  17126     1  0.0000000  0.6508444  3
  17109  17108  17105  17117     1  0.0000000  0.6508444  3
  17110  17109  17108  17116     1  0.0000000  0.6508444  3
  17110  17126  17104  17118     1  180.0000771  0.4184000  2
  17110  17126  17104  17118     1  0.0000000  1.6024720  3
  17114  17110  17109  17115     1  0.0000000  4.9162000  2
  17114  17110  17109  17115     1  0.0000000  0.6024960  3
  17115  17109  17108  17116     1  0.0000000  4.9162000  2
  17115  17109  17108  17116     1  0.0000000  0.6024960  3
  17115  17109  17110  17126     1  0.0000000  4.9162000  2
  17115  17109  17110  17126     1  0.0000000  0.6024960  3
  17116  17108  17105  17117     1  0.0000000  4.9162000  2
  17116  17108  17105  17117     1  0.0000000  0.6024960  3
  17117  17105  17104  17118     1  0.0000000  0.6508444  3
  17117  17105  17104  17126     1  0.0000000  4.9162000  2
  17117  17105  17104  17126     1  0.0000000  0.6024960  3
  17124  17118  17104  17126     1  0.0000000  4.9162000  2
  17124  17118  17104  17126     1  0.0000000  0.6024960  3
  17127  17128  17131  17132     1  180.0000771  0.8368000  1
  17127  17128  17131  17132     1  180.0000771  1.0460000  2
  17127  17128  17131  17132     1  0.0000000  0.7531200  3
  17127  17128  17131  17139     1  0.0000000  0.6508444  3
  17127  17149  17133  17137     1  180.0000771  5.6484000  1
  17127  17149  17133  17137     1  180.0000771  3.5564000  2
  17127  17149  17133  17137     1  0.0000000  0.4184000  3
  17127  17149  17133  17132     1  180.0000771  0.4184000  2
  17127  17149  17133  17132     1  0.0000000  1.6024720  3
  17128  17131  17132  17133     1  180.0000771  0.8368000  1
  17128  17131  17132  17133     1  180.0000771  1.0460000  2
  17128  17131  17132  17133     1  0.0000000  0.7531200  3
  17128  17131  17132  17138     1  0.0000000  0.6508444  3
  17128  17127  17141  17147     1  0.0000000  0.6508444  3
  17128  17127  17149  17133     1  180.0000771  0.4184000  2
  17128  17127  17149  17133     1  0.0000000  1.6024720  3
  17131  17132  17133  17137     1  0.0000000  0.6508444  3
  17131  17132  17133  17149     1  0.0000000  0.6508444  3
  17131  17128  17127  17141     1  180.0000771  0.8368000  1
  17131  17128  17127  17141     1  180.0000771  1.0460000  2
  17131  17128  17127  17141     1  0.0000000  0.7531200  3
  17131  17128  17127  17149     1  0.0000000  0.6508444  3
  17132  17131  17128  17140     1  0.0000000  0.6508444  3
  17133  17149  17127  17141     1  180.0000771  0.4184000  2
  17133  17149  17127  17141     1  0.0000000  1.6024720  3
  17133  17132  17131  17139     1  0.0000000  0.6508444  3
  17137  17133  17132  17138     1  0.0000000  4.9162000  2
  17137  17133  17132  17138     1  0.0000000  0.6024960  3
  17138  17132  17133  17149     1  0.0000000  4.9162000  2
  17138  17132  17133  17149     1  0.0000000  0.6024960  3
  17138  17132  17131  17139     1  0.0000000  4.9162000  2
  17138  17132  17131  17139     1  0.0000000  0.6024960  3
  17139  17131  17128  17140     1  0.0000000  4.9162000  2
  17139  17131  17128  17140     1  0.0000000  0.6024960  3
  17140  17128  17127  17141     1  0.0000000  0.6508444  3
  17140  17128  17127  17149     1  0.0000000  4.9162000  2
  17140  17128  17127  17149     1  0.0000000  0.6024960  3
  17147  17141  17127  17149     1  0.0000000  4.9162000  2
  17147  17141  17127  17149     1  0.0000000  0.6024960  3
  17150  17151  17154  17155     1  180.0000771  0.8368000  1
  17150  17151  17154  17155     1  180.0000771  1.0460000  2
  17150  17151  17154  17155     1  0.0000000  0.7531200  3
  17150  17151  17154  17162     1  0.0000000  0.6508444  3
  17150  17172  17156  17155     1  180.0000771  0.4184000  2
  17150  17172  17156  17155     1  0.0000000  1.6024720  3
  17150  17172  17156  17160     1  180.0000771  5.6484000  1
  17150  17172  17156  17160     1  180.0000771  3.5564000  2
  17150  17172  17156  17160     1  0.0000000  0.4184000  3
  17151  17150  17164  17170     1  0.0000000  0.6508444  3
  17151  17150  17172  17156     1  180.0000771  0.4184000  2
  17151  17150  17172  17156     1  0.0000000  1.6024720  3
  17151  17154  17155  17156     1  180.0000771  0.8368000  1
  17151  17154  17155  17156     1  180.0000771  1.0460000  2
  17151  17154  17155  17156     1  0.0000000  0.7531200  3
  17151  17154  17155  17161     1  0.0000000  0.6508444  3
  17154  17151  17150  17164     1  180.0000771  0.8368000  1
  17154  17151  17150  17164     1  180.0000771  1.0460000  2
  17154  17151  17150  17164     1  0.0000000  0.7531200  3
  17154  17151  17150  17172     1  0.0000000  0.6508444  3
  17154  17155  17156  17160     1  0.0000000  0.6508444  3
  17154  17155  17156  17172     1  0.0000000  0.6508444  3
  17155  17154  17151  17163     1  0.0000000  0.6508444  3
  17156  17155  17154  17162     1  0.0000000  0.6508444  3
  17156  17172  17150  17164     1  180.0000771  0.4184000  2
  17156  17172  17150  17164     1  0.0000000  1.6024720  3
  17160  17156  17155  17161     1  0.0000000  4.9162000  2
  17160  17156  17155  17161     1  0.0000000  0.6024960  3
  17161  17155  17154  17162     1  0.0000000  4.9162000  2
  17161  17155  17154  17162     1  0.0000000  0.6024960  3
  17161  17155  17156  17172     1  0.0000000  4.9162000  2
  17161  17155  17156  17172     1  0.0000000  0.6024960  3
  17162  17154  17151  17163     1  0.0000000  4.9162000  2
  17162  17154  17151  17163     1  0.0000000  0.6024960  3
  17163  17151  17150  17164     1  0.0000000  0.6508444  3
  17163  17151  17150  17172     1  0.0000000  4.9162000  2
  17163  17151  17150  17172     1  0.0000000  0.6024960  3
  17170  17164  17150  17172     1  0.0000000  4.9162000  2
  17170  17164  17150  17172     1  0.0000000  0.6024960  3
  17173  17174  17177  17178     1  180.0000771  0.8368000  1
  17173  17174  17177  17178     1  180.0000771  1.0460000  2
  17173  17174  17177  17178     1  0.0000000  0.7531200  3
  17173  17174  17177  17185     1  0.0000000  0.6508444  3
  17173  17195  17179  17183     1  180.0000771  5.6484000  1
  17173  17195  17179  17183     1  180.0000771  3.5564000  2
  17173  17195  17179  17183     1  0.0000000  0.4184000  3
  17173  17195  17179  17178     1  180.0000771  0.4184000  2
  17173  17195  17179  17178     1  0.0000000  1.6024720  3
  17174  17177  17178  17179     1  180.0000771  0.8368000  1
  17174  17177  17178  17179     1  180.0000771  1.0460000  2
  17174  17177  17178  17179     1  0.0000000  0.7531200  3
  17174  17177  17178  17184     1  0.0000000  0.6508444  3
  17174  17173  17187  17193     1  0.0000000  0.6508444  3
  17174  17173  17195  17179     1  180.0000771  0.4184000  2
  17174  17173  17195  17179     1  0.0000000  1.6024720  3
  17177  17178  17179  17183     1  0.0000000  0.6508444  3
  17177  17178  17179  17195     1  0.0000000  0.6508444  3
  17177  17174  17173  17187     1  180.0000771  0.8368000  1
  17177  17174  17173  17187     1  180.0000771  1.0460000  2
  17177  17174  17173  17187     1  0.0000000  0.7531200  3
  17177  17174  17173  17195     1  0.0000000  0.6508444  3
  17178  17177  17174  17186     1  0.0000000  0.6508444  3
  17179  17195  17173  17187     1  180.0000771  0.4184000  2
  17179  17195  17173  17187     1  0.0000000  1.6024720  3
  17179  17178  17177  17185     1  0.0000000  0.6508444  3
  17183  17179  17178  17184     1  0.0000000  4.9162000  2
  17183  17179  17178  17184     1  0.0000000  0.6024960  3
  17184  17178  17179  17195     1  0.0000000  4.9162000  2
  17184  17178  17179  17195     1  0.0000000  0.6024960  3
  17184  17178  17177  17185     1  0.0000000  4.9162000  2
  17184  17178  17177  17185     1  0.0000000  0.6024960  3
  17185  17177  17174  17186     1  0.0000000  4.9162000  2
  17185  17177  17174  17186     1  0.0000000  0.6024960  3
  17186  17174  17173  17187     1  0.0000000  0.6508444  3
  17186  17174  17173  17195     1  0.0000000  4.9162000  2
  17186  17174  17173  17195     1  0.0000000  0.6024960  3
  17193  17187  17173  17195     1  0.0000000  4.9162000  2
  17193  17187  17173  17195     1  0.0000000  0.6024960  3
  17196  17197  17200  17201     1  180.0000771  0.8368000  1
  17196  17197  17200  17201     1  180.0000771  1.0460000  2
  17196  17197  17200  17201     1  0.0000000  0.7531200  3
  17196  17197  17200  17208     1  0.0000000  0.6508444  3
  17196  17218  17202  17201     1  180.0000771  0.4184000  2
  17196  17218  17202  17201     1  0.0000000  1.6024720  3
  17196  17218  17202  17206     1  180.0000771  5.6484000  1
  17196  17218  17202  17206     1  180.0000771  3.5564000  2
  17196  17218  17202  17206     1  0.0000000  0.4184000  3
  17197  17196  17210  17216     1  0.0000000  0.6508444  3
  17197  17196  17218  17202     1  180.0000771  0.4184000  2
  17197  17196  17218  17202     1  0.0000000  1.6024720  3
  17197  17200  17201  17202     1  180.0000771  0.8368000  1
  17197  17200  17201  17202     1  180.0000771  1.0460000  2
  17197  17200  17201  17202     1  0.0000000  0.7531200  3
  17197  17200  17201  17207     1  0.0000000  0.6508444  3
  17200  17197  17196  17210     1  180.0000771  0.8368000  1
  17200  17197  17196  17210     1  180.0000771  1.0460000  2
  17200  17197  17196  17210     1  0.0000000  0.7531200  3
  17200  17197  17196  17218     1  0.0000000  0.6508444  3
  17200  17201  17202  17206     1  0.0000000  0.6508444  3
  17200  17201  17202  17218     1  0.0000000  0.6508444  3
  17201  17200  17197  17209     1  0.0000000  0.6508444  3
  17202  17201  17200  17208     1  0.0000000  0.6508444  3
  17202  17218  17196  17210     1  180.0000771  0.4184000  2
  17202  17218  17196  17210     1  0.0000000  1.6024720  3
  17206  17202  17201  17207     1  0.0000000  4.9162000  2
  17206  17202  17201  17207     1  0.0000000  0.6024960  3
  17207  17201  17200  17208     1  0.0000000  4.9162000  2
  17207  17201  17200  17208     1  0.0000000  0.6024960  3
  17207  17201  17202  17218     1  0.0000000  4.9162000  2
  17207  17201  17202  17218     1  0.0000000  0.6024960  3
  17208  17200  17197  17209     1  0.0000000  4.9162000  2
  17208  17200  17197  17209     1  0.0000000  0.6024960  3
  17209  17197  17196  17210     1  0.0000000  0.6508444  3
  17209  17197  17196  17218     1  0.0000000  4.9162000  2
  17209  17197  17196  17218     1  0.0000000  0.6024960  3
  17216  17210  17196  17218     1  0.0000000  4.9162000  2
  17216  17210  17196  17218     1  0.0000000  0.6024960  3
  17219  17220  17223  17224     1  180.0000771  0.8368000  1
  17219  17220  17223  17224     1  180.0000771  1.0460000  2
  17219  17220  17223  17224     1  0.0000000  0.7531200  3
  17219  17220  17223  17231     1  0.0000000  0.6508444  3
  17219  17241  17225  17229     1  180.0000771  5.6484000  1
  17219  17241  17225  17229     1  180.0000771  3.5564000  2
  17219  17241  17225  17229     1  0.0000000  0.4184000  3
  17219  17241  17225  17224     1  180.0000771  0.4184000  2
  17219  17241  17225  17224     1  0.0000000  1.6024720  3
  17220  17223  17224  17225     1  180.0000771  0.8368000  1
  17220  17223  17224  17225     1  180.0000771  1.0460000  2
  17220  17223  17224  17225     1  0.0000000  0.7531200  3
  17220  17223  17224  17230     1  0.0000000  0.6508444  3
  17220  17219  17233  17239     1  0.0000000  0.6508444  3
  17220  17219  17241  17225     1  180.0000771  0.4184000  2
  17220  17219  17241  17225     1  0.0000000  1.6024720  3
  17223  17224  17225  17229     1  0.0000000  0.6508444  3
  17223  17224  17225  17241     1  0.0000000  0.6508444  3
  17223  17220  17219  17233     1  180.0000771  0.8368000  1
  17223  17220  17219  17233     1  180.0000771  1.0460000  2
  17223  17220  17219  17233     1  0.0000000  0.7531200  3
  17223  17220  17219  17241     1  0.0000000  0.6508444  3
  17224  17223  17220  17232     1  0.0000000  0.6508444  3
  17225  17241  17219  17233     1  180.0000771  0.4184000  2
  17225  17241  17219  17233     1  0.0000000  1.6024720  3
  17225  17224  17223  17231     1  0.0000000  0.6508444  3
  17229  17225  17224  17230     1  0.0000000  4.9162000  2
  17229  17225  17224  17230     1  0.0000000  0.6024960  3
  17230  17224  17225  17241     1  0.0000000  4.9162000  2
  17230  17224  17225  17241     1  0.0000000  0.6024960  3
  17230  17224  17223  17231     1  0.0000000  4.9162000  2
  17230  17224  17223  17231     1  0.0000000  0.6024960  3
  17231  17223  17220  17232     1  0.0000000  4.9162000  2
  17231  17223  17220  17232     1  0.0000000  0.6024960  3
  17232  17220  17219  17233     1  0.0000000  0.6508444  3
  17232  17220  17219  17241     1  0.0000000  4.9162000  2
  17232  17220  17219  17241     1  0.0000000  0.6024960  3
  17239  17233  17219  17241     1  0.0000000  4.9162000  2
  17239  17233  17219  17241     1  0.0000000  0.6024960  3
  17242  17243  17246  17247     1  180.0000771  0.8368000  1
  17242  17243  17246  17247     1  180.0000771  1.0460000  2
  17242  17243  17246  17247     1  0.0000000  0.7531200  3
  17242  17243  17246  17254     1  0.0000000  0.6508444  3
  17242  17264  17248  17247     1  180.0000771  0.4184000  2
  17242  17264  17248  17247     1  0.0000000  1.6024720  3
  17242  17264  17248  17252     1  180.0000771  5.6484000  1
  17242  17264  17248  17252     1  180.0000771  3.5564000  2
  17242  17264  17248  17252     1  0.0000000  0.4184000  3
  17243  17242  17256  17262     1  0.0000000  0.6508444  3
  17243  17242  17264  17248     1  180.0000771  0.4184000  2
  17243  17242  17264  17248     1  0.0000000  1.6024720  3
  17243  17246  17247  17248     1  180.0000771  0.8368000  1
  17243  17246  17247  17248     1  180.0000771  1.0460000  2
  17243  17246  17247  17248     1  0.0000000  0.7531200  3
  17243  17246  17247  17253     1  0.0000000  0.6508444  3
  17246  17243  17242  17256     1  180.0000771  0.8368000  1
  17246  17243  17242  17256     1  180.0000771  1.0460000  2
  17246  17243  17242  17256     1  0.0000000  0.7531200  3
  17246  17243  17242  17264     1  0.0000000  0.6508444  3
  17246  17247  17248  17252     1  0.0000000  0.6508444  3
  17246  17247  17248  17264     1  0.0000000  0.6508444  3
  17247  17246  17243  17255     1  0.0000000  0.6508444  3
  17248  17247  17246  17254     1  0.0000000  0.6508444  3
  17248  17264  17242  17256     1  180.0000771  0.4184000  2
  17248  17264  17242  17256     1  0.0000000  1.6024720  3
  17252  17248  17247  17253     1  0.0000000  4.9162000  2
  17252  17248  17247  17253     1  0.0000000  0.6024960  3
  17253  17247  17246  17254     1  0.0000000  4.9162000  2
  17253  17247  17246  17254     1  0.0000000  0.6024960  3
  17253  17247  17248  17264     1  0.0000000  4.9162000  2
  17253  17247  17248  17264     1  0.0000000  0.6024960  3
  17254  17246  17243  17255     1  0.0000000  4.9162000  2
  17254  17246  17243  17255     1  0.0000000  0.6024960  3
  17255  17243  17242  17256     1  0.0000000  0.6508444  3
  17255  17243  17242  17264     1  0.0000000  4.9162000  2
  17255  17243  17242  17264     1  0.0000000  0.6024960  3
  17262  17256  17242  17264     1  0.0000000  4.9162000  2
  17262  17256  17242  17264     1  0.0000000  0.6024960  3
  17265  17266  17269  17270     1  180.0000771  0.8368000  1
  17265  17266  17269  17270     1  180.0000771  1.0460000  2
  17265  17266  17269  17270     1  0.0000000  0.7531200  3
  17265  17266  17269  17277     1  0.0000000  0.6508444  3
  17265  17287  17271  17275     1  180.0000771  5.6484000  1
  17265  17287  17271  17275     1  180.0000771  3.5564000  2
  17265  17287  17271  17275     1  0.0000000  0.4184000  3
  17265  17287  17271  17270     1  180.0000771  0.4184000  2
  17265  17287  17271  17270     1  0.0000000  1.6024720  3
  17266  17269  17270  17271     1  180.0000771  0.8368000  1
  17266  17269  17270  17271     1  180.0000771  1.0460000  2
  17266  17269  17270  17271     1  0.0000000  0.7531200  3
  17266  17269  17270  17276     1  0.0000000  0.6508444  3
  17266  17265  17279  17285     1  0.0000000  0.6508444  3
  17266  17265  17287  17271     1  180.0000771  0.4184000  2
  17266  17265  17287  17271     1  0.0000000  1.6024720  3
  17269  17270  17271  17275     1  0.0000000  0.6508444  3
  17269  17270  17271  17287     1  0.0000000  0.6508444  3
  17269  17266  17265  17279     1  180.0000771  0.8368000  1
  17269  17266  17265  17279     1  180.0000771  1.0460000  2
  17269  17266  17265  17279     1  0.0000000  0.7531200  3
  17269  17266  17265  17287     1  0.0000000  0.6508444  3
  17270  17269  17266  17278     1  0.0000000  0.6508444  3
  17271  17287  17265  17279     1  180.0000771  0.4184000  2
  17271  17287  17265  17279     1  0.0000000  1.6024720  3
  17271  17270  17269  17277     1  0.0000000  0.6508444  3
  17275  17271  17270  17276     1  0.0000000  4.9162000  2
  17275  17271  17270  17276     1  0.0000000  0.6024960  3
  17276  17270  17271  17287     1  0.0000000  4.9162000  2
  17276  17270  17271  17287     1  0.0000000  0.6024960  3
  17276  17270  17269  17277     1  0.0000000  4.9162000  2
  17276  17270  17269  17277     1  0.0000000  0.6024960  3
  17277  17269  17266  17278     1  0.0000000  4.9162000  2
  17277  17269  17266  17278     1  0.0000000  0.6024960  3
  17278  17266  17265  17279     1  0.0000000  0.6508444  3
  17278  17266  17265  17287     1  0.0000000  4.9162000  2
  17278  17266  17265  17287     1  0.0000000  0.6024960  3
  17285  17279  17265  17287     1  0.0000000  4.9162000  2
  17285  17279  17265  17287     1  0.0000000  0.6024960  3
  17288  17289  17292  17293     1  180.0000771  0.8368000  1
  17288  17289  17292  17293     1  180.0000771  1.0460000  2
  17288  17289  17292  17293     1  0.0000000  0.7531200  3
  17288  17289  17292  17300     1  0.0000000  0.6508444  3
  17288  17310  17294  17293     1  180.0000771  0.4184000  2
  17288  17310  17294  17293     1  0.0000000  1.6024720  3
  17288  17310  17294  17298     1  180.0000771  5.6484000  1
  17288  17310  17294  17298     1  180.0000771  3.5564000  2
  17288  17310  17294  17298     1  0.0000000  0.4184000  3
  17289  17288  17302  17308     1  0.0000000  0.6508444  3
  17289  17288  17310  17294     1  180.0000771  0.4184000  2
  17289  17288  17310  17294     1  0.0000000  1.6024720  3
  17289  17292  17293  17294     1  180.0000771  0.8368000  1
  17289  17292  17293  17294     1  180.0000771  1.0460000  2
  17289  17292  17293  17294     1  0.0000000  0.7531200  3
  17289  17292  17293  17299     1  0.0000000  0.6508444  3
  17292  17289  17288  17302     1  180.0000771  0.8368000  1
  17292  17289  17288  17302     1  180.0000771  1.0460000  2
  17292  17289  17288  17302     1  0.0000000  0.7531200  3
  17292  17289  17288  17310     1  0.0000000  0.6508444  3
  17292  17293  17294  17298     1  0.0000000  0.6508444  3
  17292  17293  17294  17310     1  0.0000000  0.6508444  3
  17293  17292  17289  17301     1  0.0000000  0.6508444  3
  17294  17293  17292  17300     1  0.0000000  0.6508444  3
  17294  17310  17288  17302     1  180.0000771  0.4184000  2
  17294  17310  17288  17302     1  0.0000000  1.6024720  3
  17298  17294  17293  17299     1  0.0000000  4.9162000  2
  17298  17294  17293  17299     1  0.0000000  0.6024960  3
  17299  17293  17292  17300     1  0.0000000  4.9162000  2
  17299  17293  17292  17300     1  0.0000000  0.6024960  3
  17299  17293  17294  17310     1  0.0000000  4.9162000  2
  17299  17293  17294  17310     1  0.0000000  0.6024960  3
  17300  17292  17289  17301     1  0.0000000  4.9162000  2
  17300  17292  17289  17301     1  0.0000000  0.6024960  3
  17301  17289  17288  17302     1  0.0000000  0.6508444  3
  17301  17289  17288  17310     1  0.0000000  4.9162000  2
  17301  17289  17288  17310     1  0.0000000  0.6024960  3
  17308  17302  17288  17310     1  0.0000000  4.9162000  2
  17308  17302  17288  17310     1  0.0000000  0.6024960  3
  17311  17312  17315  17316     1  180.0000771  0.8368000  1
  17311  17312  17315  17316     1  180.0000771  1.0460000  2
  17311  17312  17315  17316     1  0.0000000  0.7531200  3
  17311  17312  17315  17323     1  0.0000000  0.6508444  3
  17311  17333  17317  17321     1  180.0000771  5.6484000  1
  17311  17333  17317  17321     1  180.0000771  3.5564000  2
  17311  17333  17317  17321     1  0.0000000  0.4184000  3
  17311  17333  17317  17316     1  180.0000771  0.4184000  2
  17311  17333  17317  17316     1  0.0000000  1.6024720  3
  17312  17315  17316  17317     1  180.0000771  0.8368000  1
  17312  17315  17316  17317     1  180.0000771  1.0460000  2
  17312  17315  17316  17317     1  0.0000000  0.7531200  3
  17312  17315  17316  17322     1  0.0000000  0.6508444  3
  17312  17311  17325  17331     1  0.0000000  0.6508444  3
  17312  17311  17333  17317     1  180.0000771  0.4184000  2
  17312  17311  17333  17317     1  0.0000000  1.6024720  3
  17315  17316  17317  17321     1  0.0000000  0.6508444  3
  17315  17316  17317  17333     1  0.0000000  0.6508444  3
  17315  17312  17311  17325     1  180.0000771  0.8368000  1
  17315  17312  17311  17325     1  180.0000771  1.0460000  2
  17315  17312  17311  17325     1  0.0000000  0.7531200  3
  17315  17312  17311  17333     1  0.0000000  0.6508444  3
  17316  17315  17312  17324     1  0.0000000  0.6508444  3
  17317  17333  17311  17325     1  180.0000771  0.4184000  2
  17317  17333  17311  17325     1  0.0000000  1.6024720  3
  17317  17316  17315  17323     1  0.0000000  0.6508444  3
  17321  17317  17316  17322     1  0.0000000  4.9162000  2
  17321  17317  17316  17322     1  0.0000000  0.6024960  3
  17322  17316  17317  17333     1  0.0000000  4.9162000  2
  17322  17316  17317  17333     1  0.0000000  0.6024960  3
  17322  17316  17315  17323     1  0.0000000  4.9162000  2
  17322  17316  17315  17323     1  0.0000000  0.6024960  3
  17323  17315  17312  17324     1  0.0000000  4.9162000  2
  17323  17315  17312  17324     1  0.0000000  0.6024960  3
  17324  17312  17311  17325     1  0.0000000  0.6508444  3
  17324  17312  17311  17333     1  0.0000000  4.9162000  2
  17324  17312  17311  17333     1  0.0000000  0.6024960  3
  17331  17325  17311  17333     1  0.0000000  4.9162000  2
  17331  17325  17311  17333     1  0.0000000  0.6024960  3
  17334  17335  17338  17339     1  180.0000771  0.8368000  1
  17334  17335  17338  17339     1  180.0000771  1.0460000  2
  17334  17335  17338  17339     1  0.0000000  0.7531200  3
  17334  17335  17338  17346     1  0.0000000  0.6508444  3
  17334  17356  17340  17339     1  180.0000771  0.4184000  2
  17334  17356  17340  17339     1  0.0000000  1.6024720  3
  17334  17356  17340  17344     1  180.0000771  5.6484000  1
  17334  17356  17340  17344     1  180.0000771  3.5564000  2
  17334  17356  17340  17344     1  0.0000000  0.4184000  3
  17335  17334  17348  17354     1  0.0000000  0.6508444  3
  17335  17334  17356  17340     1  180.0000771  0.4184000  2
  17335  17334  17356  17340     1  0.0000000  1.6024720  3
  17335  17338  17339  17340     1  180.0000771  0.8368000  1
  17335  17338  17339  17340     1  180.0000771  1.0460000  2
  17335  17338  17339  17340     1  0.0000000  0.7531200  3
  17335  17338  17339  17345     1  0.0000000  0.6508444  3
  17338  17335  17334  17348     1  180.0000771  0.8368000  1
  17338  17335  17334  17348     1  180.0000771  1.0460000  2
  17338  17335  17334  17348     1  0.0000000  0.7531200  3
  17338  17335  17334  17356     1  0.0000000  0.6508444  3
  17338  17339  17340  17344     1  0.0000000  0.6508444  3
  17338  17339  17340  17356     1  0.0000000  0.6508444  3
  17339  17338  17335  17347     1  0.0000000  0.6508444  3
  17340  17339  17338  17346     1  0.0000000  0.6508444  3
  17340  17356  17334  17348     1  180.0000771  0.4184000  2
  17340  17356  17334  17348     1  0.0000000  1.6024720  3
  17344  17340  17339  17345     1  0.0000000  4.9162000  2
  17344  17340  17339  17345     1  0.0000000  0.6024960  3
  17345  17339  17338  17346     1  0.0000000  4.9162000  2
  17345  17339  17338  17346     1  0.0000000  0.6024960  3
  17345  17339  17340  17356     1  0.0000000  4.9162000  2
  17345  17339  17340  17356     1  0.0000000  0.6024960  3
  17346  17338  17335  17347     1  0.0000000  4.9162000  2
  17346  17338  17335  17347     1  0.0000000  0.6024960  3
  17347  17335  17334  17348     1  0.0000000  0.6508444  3
  17347  17335  17334  17356     1  0.0000000  4.9162000  2
  17347  17335  17334  17356     1  0.0000000  0.6024960  3
  17354  17348  17334  17356     1  0.0000000  4.9162000  2
  17354  17348  17334  17356     1  0.0000000  0.6024960  3
  17357  17358  17361  17362     1  180.0000771  0.8368000  1
  17357  17358  17361  17362     1  180.0000771  1.0460000  2
  17357  17358  17361  17362     1  0.0000000  0.7531200  3
  17357  17358  17361  17369     1  0.0000000  0.6508444  3
  17357  17379  17363  17367     1  180.0000771  5.6484000  1
  17357  17379  17363  17367     1  180.0000771  3.5564000  2
  17357  17379  17363  17367     1  0.0000000  0.4184000  3
  17357  17379  17363  17362     1  180.0000771  0.4184000  2
  17357  17379  17363  17362     1  0.0000000  1.6024720  3
  17358  17361  17362  17363     1  180.0000771  0.8368000  1
  17358  17361  17362  17363     1  180.0000771  1.0460000  2
  17358  17361  17362  17363     1  0.0000000  0.7531200  3
  17358  17361  17362  17368     1  0.0000000  0.6508444  3
  17358  17357  17371  17377     1  0.0000000  0.6508444  3
  17358  17357  17379  17363     1  180.0000771  0.4184000  2
  17358  17357  17379  17363     1  0.0000000  1.6024720  3
  17361  17362  17363  17367     1  0.0000000  0.6508444  3
  17361  17362  17363  17379     1  0.0000000  0.6508444  3
  17361  17358  17357  17371     1  180.0000771  0.8368000  1
  17361  17358  17357  17371     1  180.0000771  1.0460000  2
  17361  17358  17357  17371     1  0.0000000  0.7531200  3
  17361  17358  17357  17379     1  0.0000000  0.6508444  3
  17362  17361  17358  17370     1  0.0000000  0.6508444  3
  17363  17379  17357  17371     1  180.0000771  0.4184000  2
  17363  17379  17357  17371     1  0.0000000  1.6024720  3
  17363  17362  17361  17369     1  0.0000000  0.6508444  3
  17367  17363  17362  17368     1  0.0000000  4.9162000  2
  17367  17363  17362  17368     1  0.0000000  0.6024960  3
  17368  17362  17363  17379     1  0.0000000  4.9162000  2
  17368  17362  17363  17379     1  0.0000000  0.6024960  3
  17368  17362  17361  17369     1  0.0000000  4.9162000  2
  17368  17362  17361  17369     1  0.0000000  0.6024960  3
  17369  17361  17358  17370     1  0.0000000  4.9162000  2
  17369  17361  17358  17370     1  0.0000000  0.6024960  3
  17370  17358  17357  17371     1  0.0000000  0.6508444  3
  17370  17358  17357  17379     1  0.0000000  4.9162000  2
  17370  17358  17357  17379     1  0.0000000  0.6024960  3
  17377  17371  17357  17379     1  0.0000000  4.9162000  2
  17377  17371  17357  17379     1  0.0000000  0.6024960  3
  17380  17381  17384  17385     1  180.0000771  0.8368000  1
  17380  17381  17384  17385     1  180.0000771  1.0460000  2
  17380  17381  17384  17385     1  0.0000000  0.7531200  3
  17380  17381  17384  17392     1  0.0000000  0.6508444  3
  17380  17402  17386  17385     1  180.0000771  0.4184000  2
  17380  17402  17386  17385     1  0.0000000  1.6024720  3
  17380  17402  17386  17390     1  180.0000771  5.6484000  1
  17380  17402  17386  17390     1  180.0000771  3.5564000  2
  17380  17402  17386  17390     1  0.0000000  0.4184000  3
  17381  17380  17394  17400     1  0.0000000  0.6508444  3
  17381  17380  17402  17386     1  180.0000771  0.4184000  2
  17381  17380  17402  17386     1  0.0000000  1.6024720  3
  17381  17384  17385  17386     1  180.0000771  0.8368000  1
  17381  17384  17385  17386     1  180.0000771  1.0460000  2
  17381  17384  17385  17386     1  0.0000000  0.7531200  3
  17381  17384  17385  17391     1  0.0000000  0.6508444  3
  17384  17381  17380  17394     1  180.0000771  0.8368000  1
  17384  17381  17380  17394     1  180.0000771  1.0460000  2
  17384  17381  17380  17394     1  0.0000000  0.7531200  3
  17384  17381  17380  17402     1  0.0000000  0.6508444  3
  17384  17385  17386  17390     1  0.0000000  0.6508444  3
  17384  17385  17386  17402     1  0.0000000  0.6508444  3
  17385  17384  17381  17393     1  0.0000000  0.6508444  3
  17386  17385  17384  17392     1  0.0000000  0.6508444  3
  17386  17402  17380  17394     1  180.0000771  0.4184000  2
  17386  17402  17380  17394     1  0.0000000  1.6024720  3
  17390  17386  17385  17391     1  0.0000000  4.9162000  2
  17390  17386  17385  17391     1  0.0000000  0.6024960  3
  17391  17385  17384  17392     1  0.0000000  4.9162000  2
  17391  17385  17384  17392     1  0.0000000  0.6024960  3
  17391  17385  17386  17402     1  0.0000000  4.9162000  2
  17391  17385  17386  17402     1  0.0000000  0.6024960  3
  17392  17384  17381  17393     1  0.0000000  4.9162000  2
  17392  17384  17381  17393     1  0.0000000  0.6024960  3
  17393  17381  17380  17394     1  0.0000000  0.6508444  3
  17393  17381  17380  17402     1  0.0000000  4.9162000  2
  17393  17381  17380  17402     1  0.0000000  0.6024960  3
  17400  17394  17380  17402     1  0.0000000  4.9162000  2
  17400  17394  17380  17402     1  0.0000000  0.6024960  3
  17403  17404  17407  17408     1  180.0000771  0.8368000  1
  17403  17404  17407  17408     1  180.0000771  1.0460000  2
  17403  17404  17407  17408     1  0.0000000  0.7531200  3
  17403  17404  17407  17415     1  0.0000000  0.6508444  3
  17403  17425  17409  17413     1  180.0000771  5.6484000  1
  17403  17425  17409  17413     1  180.0000771  3.5564000  2
  17403  17425  17409  17413     1  0.0000000  0.4184000  3
  17403  17425  17409  17408     1  180.0000771  0.4184000  2
  17403  17425  17409  17408     1  0.0000000  1.6024720  3
  17404  17407  17408  17409     1  180.0000771  0.8368000  1
  17404  17407  17408  17409     1  180.0000771  1.0460000  2
  17404  17407  17408  17409     1  0.0000000  0.7531200  3
  17404  17407  17408  17414     1  0.0000000  0.6508444  3
  17404  17403  17417  17423     1  0.0000000  0.6508444  3
  17404  17403  17425  17409     1  180.0000771  0.4184000  2
  17404  17403  17425  17409     1  0.0000000  1.6024720  3
  17407  17408  17409  17413     1  0.0000000  0.6508444  3
  17407  17408  17409  17425     1  0.0000000  0.6508444  3
  17407  17404  17403  17417     1  180.0000771  0.8368000  1
  17407  17404  17403  17417     1  180.0000771  1.0460000  2
  17407  17404  17403  17417     1  0.0000000  0.7531200  3
  17407  17404  17403  17425     1  0.0000000  0.6508444  3
  17408  17407  17404  17416     1  0.0000000  0.6508444  3
  17409  17425  17403  17417     1  180.0000771  0.4184000  2
  17409  17425  17403  17417     1  0.0000000  1.6024720  3
  17409  17408  17407  17415     1  0.0000000  0.6508444  3
  17413  17409  17408  17414     1  0.0000000  4.9162000  2
  17413  17409  17408  17414     1  0.0000000  0.6024960  3
  17414  17408  17409  17425     1  0.0000000  4.9162000  2
  17414  17408  17409  17425     1  0.0000000  0.6024960  3
  17414  17408  17407  17415     1  0.0000000  4.9162000  2
  17414  17408  17407  17415     1  0.0000000  0.6024960  3
  17415  17407  17404  17416     1  0.0000000  4.9162000  2
  17415  17407  17404  17416     1  0.0000000  0.6024960  3
  17416  17404  17403  17417     1  0.0000000  0.6508444  3
  17416  17404  17403  17425     1  0.0000000  4.9162000  2
  17416  17404  17403  17425     1  0.0000000  0.6024960  3
  17423  17417  17403  17425     1  0.0000000  4.9162000  2
  17423  17417  17403  17425     1  0.0000000  0.6024960  3
  17426  17427  17430  17431     1  180.0000771  0.8368000  1
  17426  17427  17430  17431     1  180.0000771  1.0460000  2
  17426  17427  17430  17431     1  0.0000000  0.7531200  3
  17426  17427  17430  17438     1  0.0000000  0.6508444  3
  17426  17448  17432  17431     1  180.0000771  0.4184000  2
  17426  17448  17432  17431     1  0.0000000  1.6024720  3
  17426  17448  17432  17436     1  180.0000771  5.6484000  1
  17426  17448  17432  17436     1  180.0000771  3.5564000  2
  17426  17448  17432  17436     1  0.0000000  0.4184000  3
  17427  17426  17440  17446     1  0.0000000  0.6508444  3
  17427  17426  17448  17432     1  180.0000771  0.4184000  2
  17427  17426  17448  17432     1  0.0000000  1.6024720  3
  17427  17430  17431  17432     1  180.0000771  0.8368000  1
  17427  17430  17431  17432     1  180.0000771  1.0460000  2
  17427  17430  17431  17432     1  0.0000000  0.7531200  3
  17427  17430  17431  17437     1  0.0000000  0.6508444  3
  17430  17427  17426  17440     1  180.0000771  0.8368000  1
  17430  17427  17426  17440     1  180.0000771  1.0460000  2
  17430  17427  17426  17440     1  0.0000000  0.7531200  3
  17430  17427  17426  17448     1  0.0000000  0.6508444  3
  17430  17431  17432  17436     1  0.0000000  0.6508444  3
  17430  17431  17432  17448     1  0.0000000  0.6508444  3
  17431  17430  17427  17439     1  0.0000000  0.6508444  3
  17432  17431  17430  17438     1  0.0000000  0.6508444  3
  17432  17448  17426  17440     1  180.0000771  0.4184000  2
  17432  17448  17426  17440     1  0.0000000  1.6024720  3
  17436  17432  17431  17437     1  0.0000000  4.9162000  2
  17436  17432  17431  17437     1  0.0000000  0.6024960  3
  17437  17431  17430  17438     1  0.0000000  4.9162000  2
  17437  17431  17430  17438     1  0.0000000  0.6024960  3
  17437  17431  17432  17448     1  0.0000000  4.9162000  2
  17437  17431  17432  17448     1  0.0000000  0.6024960  3
  17438  17430  17427  17439     1  0.0000000  4.9162000  2
  17438  17430  17427  17439     1  0.0000000  0.6024960  3
  17439  17427  17426  17440     1  0.0000000  0.6508444  3
  17439  17427  17426  17448     1  0.0000000  4.9162000  2
  17439  17427  17426  17448     1  0.0000000  0.6024960  3
  17446  17440  17426  17448     1  0.0000000  4.9162000  2
  17446  17440  17426  17448     1  0.0000000  0.6024960  3
  17449  17450  17453  17454     1  180.0000771  0.8368000  1
  17449  17450  17453  17454     1  180.0000771  1.0460000  2
  17449  17450  17453  17454     1  0.0000000  0.7531200  3
  17449  17450  17453  17461     1  0.0000000  0.6508444  3
  17449  17471  17455  17459     1  180.0000771  5.6484000  1
  17449  17471  17455  17459     1  180.0000771  3.5564000  2
  17449  17471  17455  17459     1  0.0000000  0.4184000  3
  17449  17471  17455  17454     1  180.0000771  0.4184000  2
  17449  17471  17455  17454     1  0.0000000  1.6024720  3
  17450  17453  17454  17455     1  180.0000771  0.8368000  1
  17450  17453  17454  17455     1  180.0000771  1.0460000  2
  17450  17453  17454  17455     1  0.0000000  0.7531200  3
  17450  17453  17454  17460     1  0.0000000  0.6508444  3
  17450  17449  17463  17469     1  0.0000000  0.6508444  3
  17450  17449  17471  17455     1  180.0000771  0.4184000  2
  17450  17449  17471  17455     1  0.0000000  1.6024720  3
  17453  17454  17455  17459     1  0.0000000  0.6508444  3
  17453  17454  17455  17471     1  0.0000000  0.6508444  3
  17453  17450  17449  17463     1  180.0000771  0.8368000  1
  17453  17450  17449  17463     1  180.0000771  1.0460000  2
  17453  17450  17449  17463     1  0.0000000  0.7531200  3
  17453  17450  17449  17471     1  0.0000000  0.6508444  3
  17454  17453  17450  17462     1  0.0000000  0.6508444  3
  17455  17471  17449  17463     1  180.0000771  0.4184000  2
  17455  17471  17449  17463     1  0.0000000  1.6024720  3
  17455  17454  17453  17461     1  0.0000000  0.6508444  3
  17459  17455  17454  17460     1  0.0000000  4.9162000  2
  17459  17455  17454  17460     1  0.0000000  0.6024960  3
  17460  17454  17455  17471     1  0.0000000  4.9162000  2
  17460  17454  17455  17471     1  0.0000000  0.6024960  3
  17460  17454  17453  17461     1  0.0000000  4.9162000  2
  17460  17454  17453  17461     1  0.0000000  0.6024960  3
  17461  17453  17450  17462     1  0.0000000  4.9162000  2
  17461  17453  17450  17462     1  0.0000000  0.6024960  3
  17462  17450  17449  17463     1  0.0000000  0.6508444  3
  17462  17450  17449  17471     1  0.0000000  4.9162000  2
  17462  17450  17449  17471     1  0.0000000  0.6024960  3
  17469  17463  17449  17471     1  0.0000000  4.9162000  2
  17469  17463  17449  17471     1  0.0000000  0.6024960  3
  17472  17473  17476  17477     1  180.0000771  0.8368000  1
  17472  17473  17476  17477     1  180.0000771  1.0460000  2
  17472  17473  17476  17477     1  0.0000000  0.7531200  3
  17472  17473  17476  17484     1  0.0000000  0.6508444  3
  17472  17494  17478  17477     1  180.0000771  0.4184000  2
  17472  17494  17478  17477     1  0.0000000  1.6024720  3
  17472  17494  17478  17482     1  180.0000771  5.6484000  1
  17472  17494  17478  17482     1  180.0000771  3.5564000  2
  17472  17494  17478  17482     1  0.0000000  0.4184000  3
  17473  17472  17486  17492     1  0.0000000  0.6508444  3
  17473  17472  17494  17478     1  180.0000771  0.4184000  2
  17473  17472  17494  17478     1  0.0000000  1.6024720  3
  17473  17476  17477  17478     1  180.0000771  0.8368000  1
  17473  17476  17477  17478     1  180.0000771  1.0460000  2
  17473  17476  17477  17478     1  0.0000000  0.7531200  3
  17473  17476  17477  17483     1  0.0000000  0.6508444  3
  17476  17473  17472  17486     1  180.0000771  0.8368000  1
  17476  17473  17472  17486     1  180.0000771  1.0460000  2
  17476  17473  17472  17486     1  0.0000000  0.7531200  3
  17476  17473  17472  17494     1  0.0000000  0.6508444  3
  17476  17477  17478  17482     1  0.0000000  0.6508444  3
  17476  17477  17478  17494     1  0.0000000  0.6508444  3
  17477  17476  17473  17485     1  0.0000000  0.6508444  3
  17478  17477  17476  17484     1  0.0000000  0.6508444  3
  17478  17494  17472  17486     1  180.0000771  0.4184000  2
  17478  17494  17472  17486     1  0.0000000  1.6024720  3
  17482  17478  17477  17483     1  0.0000000  4.9162000  2
  17482  17478  17477  17483     1  0.0000000  0.6024960  3
  17483  17477  17476  17484     1  0.0000000  4.9162000  2
  17483  17477  17476  17484     1  0.0000000  0.6024960  3
  17483  17477  17478  17494     1  0.0000000  4.9162000  2
  17483  17477  17478  17494     1  0.0000000  0.6024960  3
  17484  17476  17473  17485     1  0.0000000  4.9162000  2
  17484  17476  17473  17485     1  0.0000000  0.6024960  3
  17485  17473  17472  17486     1  0.0000000  0.6508444  3
  17485  17473  17472  17494     1  0.0000000  4.9162000  2
  17485  17473  17472  17494     1  0.0000000  0.6024960  3
  17492  17486  17472  17494     1  0.0000000  4.9162000  2
  17492  17486  17472  17494     1  0.0000000  0.6024960  3
  17495  17496  17499  17500     1  180.0000771  0.8368000  1
  17495  17496  17499  17500     1  180.0000771  1.0460000  2
  17495  17496  17499  17500     1  0.0000000  0.7531200  3
  17495  17496  17499  17507     1  0.0000000  0.6508444  3
  17495  17517  17501  17505     1  180.0000771  5.6484000  1
  17495  17517  17501  17505     1  180.0000771  3.5564000  2
  17495  17517  17501  17505     1  0.0000000  0.4184000  3
  17495  17517  17501  17500     1  180.0000771  0.4184000  2
  17495  17517  17501  17500     1  0.0000000  1.6024720  3
  17496  17499  17500  17501     1  180.0000771  0.8368000  1
  17496  17499  17500  17501     1  180.0000771  1.0460000  2
  17496  17499  17500  17501     1  0.0000000  0.7531200  3
  17496  17499  17500  17506     1  0.0000000  0.6508444  3
  17496  17495  17509  17515     1  0.0000000  0.6508444  3
  17496  17495  17517  17501     1  180.0000771  0.4184000  2
  17496  17495  17517  17501     1  0.0000000  1.6024720  3
  17499  17500  17501  17505     1  0.0000000  0.6508444  3
  17499  17500  17501  17517     1  0.0000000  0.6508444  3
  17499  17496  17495  17509     1  180.0000771  0.8368000  1
  17499  17496  17495  17509     1  180.0000771  1.0460000  2
  17499  17496  17495  17509     1  0.0000000  0.7531200  3
  17499  17496  17495  17517     1  0.0000000  0.6508444  3
  17500  17499  17496  17508     1  0.0000000  0.6508444  3
  17501  17517  17495  17509     1  180.0000771  0.4184000  2
  17501  17517  17495  17509     1  0.0000000  1.6024720  3
  17501  17500  17499  17507     1  0.0000000  0.6508444  3
  17505  17501  17500  17506     1  0.0000000  4.9162000  2
  17505  17501  17500  17506     1  0.0000000  0.6024960  3
  17506  17500  17501  17517     1  0.0000000  4.9162000  2
  17506  17500  17501  17517     1  0.0000000  0.6024960  3
  17506  17500  17499  17507     1  0.0000000  4.9162000  2
  17506  17500  17499  17507     1  0.0000000  0.6024960  3
  17507  17499  17496  17508     1  0.0000000  4.9162000  2
  17507  17499  17496  17508     1  0.0000000  0.6024960  3
  17508  17496  17495  17509     1  0.0000000  0.6508444  3
  17508  17496  17495  17517     1  0.0000000  4.9162000  2
  17508  17496  17495  17517     1  0.0000000  0.6024960  3
  17515  17509  17495  17517     1  0.0000000  4.9162000  2
  17515  17509  17495  17517     1  0.0000000  0.6024960  3
  17518  17519  17522  17523     1  180.0000771  0.8368000  1
  17518  17519  17522  17523     1  180.0000771  1.0460000  2
  17518  17519  17522  17523     1  0.0000000  0.7531200  3
  17518  17519  17522  17530     1  0.0000000  0.6508444  3
  17518  17540  17524  17523     1  180.0000771  0.4184000  2
  17518  17540  17524  17523     1  0.0000000  1.6024720  3
  17518  17540  17524  17528     1  180.0000771  5.6484000  1
  17518  17540  17524  17528     1  180.0000771  3.5564000  2
  17518  17540  17524  17528     1  0.0000000  0.4184000  3
  17519  17518  17532  17538     1  0.0000000  0.6508444  3
  17519  17518  17540  17524     1  180.0000771  0.4184000  2
  17519  17518  17540  17524     1  0.0000000  1.6024720  3
  17519  17522  17523  17524     1  180.0000771  0.8368000  1
  17519  17522  17523  17524     1  180.0000771  1.0460000  2
  17519  17522  17523  17524     1  0.0000000  0.7531200  3
  17519  17522  17523  17529     1  0.0000000  0.6508444  3
  17522  17519  17518  17532     1  180.0000771  0.8368000  1
  17522  17519  17518  17532     1  180.0000771  1.0460000  2
  17522  17519  17518  17532     1  0.0000000  0.7531200  3
  17522  17519  17518  17540     1  0.0000000  0.6508444  3
  17522  17523  17524  17528     1  0.0000000  0.6508444  3
  17522  17523  17524  17540     1  0.0000000  0.6508444  3
  17523  17522  17519  17531     1  0.0000000  0.6508444  3
  17524  17523  17522  17530     1  0.0000000  0.6508444  3
  17524  17540  17518  17532     1  180.0000771  0.4184000  2
  17524  17540  17518  17532     1  0.0000000  1.6024720  3
  17528  17524  17523  17529     1  0.0000000  4.9162000  2
  17528  17524  17523  17529     1  0.0000000  0.6024960  3
  17529  17523  17522  17530     1  0.0000000  4.9162000  2
  17529  17523  17522  17530     1  0.0000000  0.6024960  3
  17529  17523  17524  17540     1  0.0000000  4.9162000  2
  17529  17523  17524  17540     1  0.0000000  0.6024960  3
  17530  17522  17519  17531     1  0.0000000  4.9162000  2
  17530  17522  17519  17531     1  0.0000000  0.6024960  3
  17531  17519  17518  17532     1  0.0000000  0.6508444  3
  17531  17519  17518  17540     1  0.0000000  4.9162000  2
  17531  17519  17518  17540     1  0.0000000  0.6024960  3
  17538  17532  17518  17540     1  0.0000000  4.9162000  2
  17538  17532  17518  17540     1  0.0000000  0.6024960  3
  17541  17542  17545  17546     1  180.0000771  0.8368000  1
  17541  17542  17545  17546     1  180.0000771  1.0460000  2
  17541  17542  17545  17546     1  0.0000000  0.7531200  3
  17541  17542  17545  17553     1  0.0000000  0.6508444  3
  17541  17563  17547  17551     1  180.0000771  5.6484000  1
  17541  17563  17547  17551     1  180.0000771  3.5564000  2
  17541  17563  17547  17551     1  0.0000000  0.4184000  3
  17541  17563  17547  17546     1  180.0000771  0.4184000  2
  17541  17563  17547  17546     1  0.0000000  1.6024720  3
  17542  17545  17546  17547     1  180.0000771  0.8368000  1
  17542  17545  17546  17547     1  180.0000771  1.0460000  2
  17542  17545  17546  17547     1  0.0000000  0.7531200  3
  17542  17545  17546  17552     1  0.0000000  0.6508444  3
  17542  17541  17555  17561     1  0.0000000  0.6508444  3
  17542  17541  17563  17547     1  180.0000771  0.4184000  2
  17542  17541  17563  17547     1  0.0000000  1.6024720  3
  17545  17546  17547  17551     1  0.0000000  0.6508444  3
  17545  17546  17547  17563     1  0.0000000  0.6508444  3
  17545  17542  17541  17555     1  180.0000771  0.8368000  1
  17545  17542  17541  17555     1  180.0000771  1.0460000  2
  17545  17542  17541  17555     1  0.0000000  0.7531200  3
  17545  17542  17541  17563     1  0.0000000  0.6508444  3
  17546  17545  17542  17554     1  0.0000000  0.6508444  3
  17547  17563  17541  17555     1  180.0000771  0.4184000  2
  17547  17563  17541  17555     1  0.0000000  1.6024720  3
  17547  17546  17545  17553     1  0.0000000  0.6508444  3
  17551  17547  17546  17552     1  0.0000000  4.9162000  2
  17551  17547  17546  17552     1  0.0000000  0.6024960  3
  17552  17546  17547  17563     1  0.0000000  4.9162000  2
  17552  17546  17547  17563     1  0.0000000  0.6024960  3
  17552  17546  17545  17553     1  0.0000000  4.9162000  2
  17552  17546  17545  17553     1  0.0000000  0.6024960  3
  17553  17545  17542  17554     1  0.0000000  4.9162000  2
  17553  17545  17542  17554     1  0.0000000  0.6024960  3
  17554  17542  17541  17555     1  0.0000000  0.6508444  3
  17554  17542  17541  17563     1  0.0000000  4.9162000  2
  17554  17542  17541  17563     1  0.0000000  0.6024960  3
  17561  17555  17541  17563     1  0.0000000  4.9162000  2
  17561  17555  17541  17563     1  0.0000000  0.6024960  3
  17564  17565  17568  17569     1  180.0000771  0.8368000  1
  17564  17565  17568  17569     1  180.0000771  1.0460000  2
  17564  17565  17568  17569     1  0.0000000  0.7531200  3
  17564  17565  17568  17576     1  0.0000000  0.6508444  3
  17564  17586  17570  17569     1  180.0000771  0.4184000  2
  17564  17586  17570  17569     1  0.0000000  1.6024720  3
  17564  17586  17570  17574     1  180.0000771  5.6484000  1
  17564  17586  17570  17574     1  180.0000771  3.5564000  2
  17564  17586  17570  17574     1  0.0000000  0.4184000  3
  17565  17564  17578  17584     1  0.0000000  0.6508444  3
  17565  17564  17586  17570     1  180.0000771  0.4184000  2
  17565  17564  17586  17570     1  0.0000000  1.6024720  3
  17565  17568  17569  17570     1  180.0000771  0.8368000  1
  17565  17568  17569  17570     1  180.0000771  1.0460000  2
  17565  17568  17569  17570     1  0.0000000  0.7531200  3
  17565  17568  17569  17575     1  0.0000000  0.6508444  3
  17568  17565  17564  17578     1  180.0000771  0.8368000  1
  17568  17565  17564  17578     1  180.0000771  1.0460000  2
  17568  17565  17564  17578     1  0.0000000  0.7531200  3
  17568  17565  17564  17586     1  0.0000000  0.6508444  3
  17568  17569  17570  17574     1  0.0000000  0.6508444  3
  17568  17569  17570  17586     1  0.0000000  0.6508444  3
  17569  17568  17565  17577     1  0.0000000  0.6508444  3
  17570  17569  17568  17576     1  0.0000000  0.6508444  3
  17570  17586  17564  17578     1  180.0000771  0.4184000  2
  17570  17586  17564  17578     1  0.0000000  1.6024720  3
  17574  17570  17569  17575     1  0.0000000  4.9162000  2
  17574  17570  17569  17575     1  0.0000000  0.6024960  3
  17575  17569  17568  17576     1  0.0000000  4.9162000  2
  17575  17569  17568  17576     1  0.0000000  0.6024960  3
  17575  17569  17570  17586     1  0.0000000  4.9162000  2
  17575  17569  17570  17586     1  0.0000000  0.6024960  3
  17576  17568  17565  17577     1  0.0000000  4.9162000  2
  17576  17568  17565  17577     1  0.0000000  0.6024960  3
  17577  17565  17564  17578     1  0.0000000  0.6508444  3
  17577  17565  17564  17586     1  0.0000000  4.9162000  2
  17577  17565  17564  17586     1  0.0000000  0.6024960  3
  17584  17578  17564  17586     1  0.0000000  4.9162000  2
  17584  17578  17564  17586     1  0.0000000  0.6024960  3
  17587  17588  17591  17592     1  180.0000771  0.8368000  1
  17587  17588  17591  17592     1  180.0000771  1.0460000  2
  17587  17588  17591  17592     1  0.0000000  0.7531200  3
  17587  17588  17591  17599     1  0.0000000  0.6508444  3
  17587  17609  17593  17597     1  180.0000771  5.6484000  1
  17587  17609  17593  17597     1  180.0000771  3.5564000  2
  17587  17609  17593  17597     1  0.0000000  0.4184000  3
  17587  17609  17593  17592     1  180.0000771  0.4184000  2
  17587  17609  17593  17592     1  0.0000000  1.6024720  3
  17588  17591  17592  17593     1  180.0000771  0.8368000  1
  17588  17591  17592  17593     1  180.0000771  1.0460000  2
  17588  17591  17592  17593     1  0.0000000  0.7531200  3
  17588  17591  17592  17598     1  0.0000000  0.6508444  3
  17588  17587  17601  17607     1  0.0000000  0.6508444  3
  17588  17587  17609  17593     1  180.0000771  0.4184000  2
  17588  17587  17609  17593     1  0.0000000  1.6024720  3
  17591  17592  17593  17597     1  0.0000000  0.6508444  3
  17591  17592  17593  17609     1  0.0000000  0.6508444  3
  17591  17588  17587  17601     1  180.0000771  0.8368000  1
  17591  17588  17587  17601     1  180.0000771  1.0460000  2
  17591  17588  17587  17601     1  0.0000000  0.7531200  3
  17591  17588  17587  17609     1  0.0000000  0.6508444  3
  17592  17591  17588  17600     1  0.0000000  0.6508444  3
  17593  17609  17587  17601     1  180.0000771  0.4184000  2
  17593  17609  17587  17601     1  0.0000000  1.6024720  3
  17593  17592  17591  17599     1  0.0000000  0.6508444  3
  17597  17593  17592  17598     1  0.0000000  4.9162000  2
  17597  17593  17592  17598     1  0.0000000  0.6024960  3
  17598  17592  17593  17609     1  0.0000000  4.9162000  2
  17598  17592  17593  17609     1  0.0000000  0.6024960  3
  17598  17592  17591  17599     1  0.0000000  4.9162000  2
  17598  17592  17591  17599     1  0.0000000  0.6024960  3
  17599  17591  17588  17600     1  0.0000000  4.9162000  2
  17599  17591  17588  17600     1  0.0000000  0.6024960  3
  17600  17588  17587  17601     1  0.0000000  0.6508444  3
  17600  17588  17587  17609     1  0.0000000  4.9162000  2
  17600  17588  17587  17609     1  0.0000000  0.6024960  3
  17607  17601  17587  17609     1  0.0000000  4.9162000  2
  17607  17601  17587  17609     1  0.0000000  0.6024960  3
  17610  17611  17614  17615     1  180.0000771  0.8368000  1
  17610  17611  17614  17615     1  180.0000771  1.0460000  2
  17610  17611  17614  17615     1  0.0000000  0.7531200  3
  17610  17611  17614  17622     1  0.0000000  0.6508444  3
  17610  17632  17616  17615     1  180.0000771  0.4184000  2
  17610  17632  17616  17615     1  0.0000000  1.6024720  3
  17610  17632  17616  17620     1  180.0000771  5.6484000  1
  17610  17632  17616  17620     1  180.0000771  3.5564000  2
  17610  17632  17616  17620     1  0.0000000  0.4184000  3
  17611  17610  17624  17630     1  0.0000000  0.6508444  3
  17611  17610  17632  17616     1  180.0000771  0.4184000  2
  17611  17610  17632  17616     1  0.0000000  1.6024720  3
  17611  17614  17615  17616     1  180.0000771  0.8368000  1
  17611  17614  17615  17616     1  180.0000771  1.0460000  2
  17611  17614  17615  17616     1  0.0000000  0.7531200  3
  17611  17614  17615  17621     1  0.0000000  0.6508444  3
  17614  17611  17610  17624     1  180.0000771  0.8368000  1
  17614  17611  17610  17624     1  180.0000771  1.0460000  2
  17614  17611  17610  17624     1  0.0000000  0.7531200  3
  17614  17611  17610  17632     1  0.0000000  0.6508444  3
  17614  17615  17616  17620     1  0.0000000  0.6508444  3
  17614  17615  17616  17632     1  0.0000000  0.6508444  3
  17615  17614  17611  17623     1  0.0000000  0.6508444  3
  17616  17615  17614  17622     1  0.0000000  0.6508444  3
  17616  17632  17610  17624     1  180.0000771  0.4184000  2
  17616  17632  17610  17624     1  0.0000000  1.6024720  3
  17620  17616  17615  17621     1  0.0000000  4.9162000  2
  17620  17616  17615  17621     1  0.0000000  0.6024960  3
  17621  17615  17614  17622     1  0.0000000  4.9162000  2
  17621  17615  17614  17622     1  0.0000000  0.6024960  3
  17621  17615  17616  17632     1  0.0000000  4.9162000  2
  17621  17615  17616  17632     1  0.0000000  0.6024960  3
  17622  17614  17611  17623     1  0.0000000  4.9162000  2
  17622  17614  17611  17623     1  0.0000000  0.6024960  3
  17623  17611  17610  17624     1  0.0000000  0.6508444  3
  17623  17611  17610  17632     1  0.0000000  4.9162000  2
  17623  17611  17610  17632     1  0.0000000  0.6024960  3
  17630  17624  17610  17632     1  0.0000000  4.9162000  2
  17630  17624  17610  17632     1  0.0000000  0.6024960  3
  17633  17634  17637  17638     1  180.0000771  0.8368000  1
  17633  17634  17637  17638     1  180.0000771  1.0460000  2
  17633  17634  17637  17638     1  0.0000000  0.7531200  3
  17633  17634  17637  17645     1  0.0000000  0.6508444  3
  17633  17655  17639  17643     1  180.0000771  5.6484000  1
  17633  17655  17639  17643     1  180.0000771  3.5564000  2
  17633  17655  17639  17643     1  0.0000000  0.4184000  3
  17633  17655  17639  17638     1  180.0000771  0.4184000  2
  17633  17655  17639  17638     1  0.0000000  1.6024720  3
  17634  17637  17638  17639     1  180.0000771  0.8368000  1
  17634  17637  17638  17639     1  180.0000771  1.0460000  2
  17634  17637  17638  17639     1  0.0000000  0.7531200  3
  17634  17637  17638  17644     1  0.0000000  0.6508444  3
  17634  17633  17647  17653     1  0.0000000  0.6508444  3
  17634  17633  17655  17639     1  180.0000771  0.4184000  2
  17634  17633  17655  17639     1  0.0000000  1.6024720  3
  17637  17638  17639  17643     1  0.0000000  0.6508444  3
  17637  17638  17639  17655     1  0.0000000  0.6508444  3
  17637  17634  17633  17647     1  180.0000771  0.8368000  1
  17637  17634  17633  17647     1  180.0000771  1.0460000  2
  17637  17634  17633  17647     1  0.0000000  0.7531200  3
  17637  17634  17633  17655     1  0.0000000  0.6508444  3
  17638  17637  17634  17646     1  0.0000000  0.6508444  3
  17639  17655  17633  17647     1  180.0000771  0.4184000  2
  17639  17655  17633  17647     1  0.0000000  1.6024720  3
  17639  17638  17637  17645     1  0.0000000  0.6508444  3
  17643  17639  17638  17644     1  0.0000000  4.9162000  2
  17643  17639  17638  17644     1  0.0000000  0.6024960  3
  17644  17638  17639  17655     1  0.0000000  4.9162000  2
  17644  17638  17639  17655     1  0.0000000  0.6024960  3
  17644  17638  17637  17645     1  0.0000000  4.9162000  2
  17644  17638  17637  17645     1  0.0000000  0.6024960  3
  17645  17637  17634  17646     1  0.0000000  4.9162000  2
  17645  17637  17634  17646     1  0.0000000  0.6024960  3
  17646  17634  17633  17647     1  0.0000000  0.6508444  3
  17646  17634  17633  17655     1  0.0000000  4.9162000  2
  17646  17634  17633  17655     1  0.0000000  0.6024960  3
  17653  17647  17633  17655     1  0.0000000  4.9162000  2
  17653  17647  17633  17655     1  0.0000000  0.6024960  3
  17656  17657  17660  17661     1  180.0000771  0.8368000  1
  17656  17657  17660  17661     1  180.0000771  1.0460000  2
  17656  17657  17660  17661     1  0.0000000  0.7531200  3
  17656  17657  17660  17668     1  0.0000000  0.6508444  3
  17656  17678  17662  17661     1  180.0000771  0.4184000  2
  17656  17678  17662  17661     1  0.0000000  1.6024720  3
  17656  17678  17662  17666     1  180.0000771  5.6484000  1
  17656  17678  17662  17666     1  180.0000771  3.5564000  2
  17656  17678  17662  17666     1  0.0000000  0.4184000  3
  17657  17656  17670  17676     1  0.0000000  0.6508444  3
  17657  17656  17678  17662     1  180.0000771  0.4184000  2
  17657  17656  17678  17662     1  0.0000000  1.6024720  3
  17657  17660  17661  17662     1  180.0000771  0.8368000  1
  17657  17660  17661  17662     1  180.0000771  1.0460000  2
  17657  17660  17661  17662     1  0.0000000  0.7531200  3
  17657  17660  17661  17667     1  0.0000000  0.6508444  3
  17660  17657  17656  17670     1  180.0000771  0.8368000  1
  17660  17657  17656  17670     1  180.0000771  1.0460000  2
  17660  17657  17656  17670     1  0.0000000  0.7531200  3
  17660  17657  17656  17678     1  0.0000000  0.6508444  3
  17660  17661  17662  17666     1  0.0000000  0.6508444  3
  17660  17661  17662  17678     1  0.0000000  0.6508444  3
  17661  17660  17657  17669     1  0.0000000  0.6508444  3
  17662  17661  17660  17668     1  0.0000000  0.6508444  3
  17662  17678  17656  17670     1  180.0000771  0.4184000  2
  17662  17678  17656  17670     1  0.0000000  1.6024720  3
  17666  17662  17661  17667     1  0.0000000  4.9162000  2
  17666  17662  17661  17667     1  0.0000000  0.6024960  3
  17667  17661  17660  17668     1  0.0000000  4.9162000  2
  17667  17661  17660  17668     1  0.0000000  0.6024960  3
  17667  17661  17662  17678     1  0.0000000  4.9162000  2
  17667  17661  17662  17678     1  0.0000000  0.6024960  3
  17668  17660  17657  17669     1  0.0000000  4.9162000  2
  17668  17660  17657  17669     1  0.0000000  0.6024960  3
  17669  17657  17656  17670     1  0.0000000  0.6508444  3
  17669  17657  17656  17678     1  0.0000000  4.9162000  2
  17669  17657  17656  17678     1  0.0000000  0.6024960  3
  17676  17670  17656  17678     1  0.0000000  4.9162000  2
  17676  17670  17656  17678     1  0.0000000  0.6024960  3
  17679  17680  17683  17684     1  180.0000771  0.8368000  1
  17679  17680  17683  17684     1  180.0000771  1.0460000  2
  17679  17680  17683  17684     1  0.0000000  0.7531200  3
  17679  17680  17683  17691     1  0.0000000  0.6508444  3
  17679  17701  17685  17689     1  180.0000771  5.6484000  1
  17679  17701  17685  17689     1  180.0000771  3.5564000  2
  17679  17701  17685  17689     1  0.0000000  0.4184000  3
  17679  17701  17685  17684     1  180.0000771  0.4184000  2
  17679  17701  17685  17684     1  0.0000000  1.6024720  3
  17680  17683  17684  17685     1  180.0000771  0.8368000  1
  17680  17683  17684  17685     1  180.0000771  1.0460000  2
  17680  17683  17684  17685     1  0.0000000  0.7531200  3
  17680  17683  17684  17690     1  0.0000000  0.6508444  3
  17680  17679  17693  17699     1  0.0000000  0.6508444  3
  17680  17679  17701  17685     1  180.0000771  0.4184000  2
  17680  17679  17701  17685     1  0.0000000  1.6024720  3
  17683  17684  17685  17689     1  0.0000000  0.6508444  3
  17683  17684  17685  17701     1  0.0000000  0.6508444  3
  17683  17680  17679  17693     1  180.0000771  0.8368000  1
  17683  17680  17679  17693     1  180.0000771  1.0460000  2
  17683  17680  17679  17693     1  0.0000000  0.7531200  3
  17683  17680  17679  17701     1  0.0000000  0.6508444  3
  17684  17683  17680  17692     1  0.0000000  0.6508444  3
  17685  17701  17679  17693     1  180.0000771  0.4184000  2
  17685  17701  17679  17693     1  0.0000000  1.6024720  3
  17685  17684  17683  17691     1  0.0000000  0.6508444  3
  17689  17685  17684  17690     1  0.0000000  4.9162000  2
  17689  17685  17684  17690     1  0.0000000  0.6024960  3
  17690  17684  17685  17701     1  0.0000000  4.9162000  2
  17690  17684  17685  17701     1  0.0000000  0.6024960  3
  17690  17684  17683  17691     1  0.0000000  4.9162000  2
  17690  17684  17683  17691     1  0.0000000  0.6024960  3
  17691  17683  17680  17692     1  0.0000000  4.9162000  2
  17691  17683  17680  17692     1  0.0000000  0.6024960  3
  17692  17680  17679  17693     1  0.0000000  0.6508444  3
  17692  17680  17679  17701     1  0.0000000  4.9162000  2
  17692  17680  17679  17701     1  0.0000000  0.6024960  3
  17699  17693  17679  17701     1  0.0000000  4.9162000  2
  17699  17693  17679  17701     1  0.0000000  0.6024960  3
  17702  17703  17706  17707     1  180.0000771  0.8368000  1
  17702  17703  17706  17707     1  180.0000771  1.0460000  2
  17702  17703  17706  17707     1  0.0000000  0.7531200  3
  17702  17703  17706  17714     1  0.0000000  0.6508444  3
  17702  17724  17708  17707     1  180.0000771  0.4184000  2
  17702  17724  17708  17707     1  0.0000000  1.6024720  3
  17702  17724  17708  17712     1  180.0000771  5.6484000  1
  17702  17724  17708  17712     1  180.0000771  3.5564000  2
  17702  17724  17708  17712     1  0.0000000  0.4184000  3
  17703  17702  17716  17722     1  0.0000000  0.6508444  3
  17703  17702  17724  17708     1  180.0000771  0.4184000  2
  17703  17702  17724  17708     1  0.0000000  1.6024720  3
  17703  17706  17707  17708     1  180.0000771  0.8368000  1
  17703  17706  17707  17708     1  180.0000771  1.0460000  2
  17703  17706  17707  17708     1  0.0000000  0.7531200  3
  17703  17706  17707  17713     1  0.0000000  0.6508444  3
  17706  17703  17702  17716     1  180.0000771  0.8368000  1
  17706  17703  17702  17716     1  180.0000771  1.0460000  2
  17706  17703  17702  17716     1  0.0000000  0.7531200  3
  17706  17703  17702  17724     1  0.0000000  0.6508444  3
  17706  17707  17708  17712     1  0.0000000  0.6508444  3
  17706  17707  17708  17724     1  0.0000000  0.6508444  3
  17707  17706  17703  17715     1  0.0000000  0.6508444  3
  17708  17707  17706  17714     1  0.0000000  0.6508444  3
  17708  17724  17702  17716     1  180.0000771  0.4184000  2
  17708  17724  17702  17716     1  0.0000000  1.6024720  3
  17712  17708  17707  17713     1  0.0000000  4.9162000  2
  17712  17708  17707  17713     1  0.0000000  0.6024960  3
  17713  17707  17706  17714     1  0.0000000  4.9162000  2
  17713  17707  17706  17714     1  0.0000000  0.6024960  3
  17713  17707  17708  17724     1  0.0000000  4.9162000  2
  17713  17707  17708  17724     1  0.0000000  0.6024960  3
  17714  17706  17703  17715     1  0.0000000  4.9162000  2
  17714  17706  17703  17715     1  0.0000000  0.6024960  3
  17715  17703  17702  17716     1  0.0000000  0.6508444  3
  17715  17703  17702  17724     1  0.0000000  4.9162000  2
  17715  17703  17702  17724     1  0.0000000  0.6024960  3
  17722  17716  17702  17724     1  0.0000000  4.9162000  2
  17722  17716  17702  17724     1  0.0000000  0.6024960  3
  17725  17726  17729  17730     1  180.0000771  0.8368000  1
  17725  17726  17729  17730     1  180.0000771  1.0460000  2
  17725  17726  17729  17730     1  0.0000000  0.7531200  3
  17725  17726  17729  17737     1  0.0000000  0.6508444  3
  17725  17747  17731  17735     1  180.0000771  5.6484000  1
  17725  17747  17731  17735     1  180.0000771  3.5564000  2
  17725  17747  17731  17735     1  0.0000000  0.4184000  3
  17725  17747  17731  17730     1  180.0000771  0.4184000  2
  17725  17747  17731  17730     1  0.0000000  1.6024720  3
  17726  17729  17730  17731     1  180.0000771  0.8368000  1
  17726  17729  17730  17731     1  180.0000771  1.0460000  2
  17726  17729  17730  17731     1  0.0000000  0.7531200  3
  17726  17729  17730  17736     1  0.0000000  0.6508444  3
  17726  17725  17739  17745     1  0.0000000  0.6508444  3
  17726  17725  17747  17731     1  180.0000771  0.4184000  2
  17726  17725  17747  17731     1  0.0000000  1.6024720  3
  17729  17730  17731  17735     1  0.0000000  0.6508444  3
  17729  17730  17731  17747     1  0.0000000  0.6508444  3
  17729  17726  17725  17739     1  180.0000771  0.8368000  1
  17729  17726  17725  17739     1  180.0000771  1.0460000  2
  17729  17726  17725  17739     1  0.0000000  0.7531200  3
  17729  17726  17725  17747     1  0.0000000  0.6508444  3
  17730  17729  17726  17738     1  0.0000000  0.6508444  3
  17731  17747  17725  17739     1  180.0000771  0.4184000  2
  17731  17747  17725  17739     1  0.0000000  1.6024720  3
  17731  17730  17729  17737     1  0.0000000  0.6508444  3
  17735  17731  17730  17736     1  0.0000000  4.9162000  2
  17735  17731  17730  17736     1  0.0000000  0.6024960  3
  17736  17730  17731  17747     1  0.0000000  4.9162000  2
  17736  17730  17731  17747     1  0.0000000  0.6024960  3
  17736  17730  17729  17737     1  0.0000000  4.9162000  2
  17736  17730  17729  17737     1  0.0000000  0.6024960  3
  17737  17729  17726  17738     1  0.0000000  4.9162000  2
  17737  17729  17726  17738     1  0.0000000  0.6024960  3
  17738  17726  17725  17739     1  0.0000000  0.6508444  3
  17738  17726  17725  17747     1  0.0000000  4.9162000  2
  17738  17726  17725  17747     1  0.0000000  0.6024960  3
  17745  17739  17725  17747     1  0.0000000  4.9162000  2
  17745  17739  17725  17747     1  0.0000000  0.6024960  3
  17748  17749  17752  17753     1  180.0000771  0.8368000  1
  17748  17749  17752  17753     1  180.0000771  1.0460000  2
  17748  17749  17752  17753     1  0.0000000  0.7531200  3
  17748  17749  17752  17760     1  0.0000000  0.6508444  3
  17748  17770  17754  17753     1  180.0000771  0.4184000  2
  17748  17770  17754  17753     1  0.0000000  1.6024720  3
  17748  17770  17754  17758     1  180.0000771  5.6484000  1
  17748  17770  17754  17758     1  180.0000771  3.5564000  2
  17748  17770  17754  17758     1  0.0000000  0.4184000  3
  17749  17748  17762  17768     1  0.0000000  0.6508444  3
  17749  17748  17770  17754     1  180.0000771  0.4184000  2
  17749  17748  17770  17754     1  0.0000000  1.6024720  3
  17749  17752  17753  17754     1  180.0000771  0.8368000  1
  17749  17752  17753  17754     1  180.0000771  1.0460000  2
  17749  17752  17753  17754     1  0.0000000  0.7531200  3
  17749  17752  17753  17759     1  0.0000000  0.6508444  3
  17752  17749  17748  17762     1  180.0000771  0.8368000  1
  17752  17749  17748  17762     1  180.0000771  1.0460000  2
  17752  17749  17748  17762     1  0.0000000  0.7531200  3
  17752  17749  17748  17770     1  0.0000000  0.6508444  3
  17752  17753  17754  17758     1  0.0000000  0.6508444  3
  17752  17753  17754  17770     1  0.0000000  0.6508444  3
  17753  17752  17749  17761     1  0.0000000  0.6508444  3
  17754  17753  17752  17760     1  0.0000000  0.6508444  3
  17754  17770  17748  17762     1  180.0000771  0.4184000  2
  17754  17770  17748  17762     1  0.0000000  1.6024720  3
  17758  17754  17753  17759     1  0.0000000  4.9162000  2
  17758  17754  17753  17759     1  0.0000000  0.6024960  3
  17759  17753  17752  17760     1  0.0000000  4.9162000  2
  17759  17753  17752  17760     1  0.0000000  0.6024960  3
  17759  17753  17754  17770     1  0.0000000  4.9162000  2
  17759  17753  17754  17770     1  0.0000000  0.6024960  3
  17760  17752  17749  17761     1  0.0000000  4.9162000  2
  17760  17752  17749  17761     1  0.0000000  0.6024960  3
  17761  17749  17748  17762     1  0.0000000  0.6508444  3
  17761  17749  17748  17770     1  0.0000000  4.9162000  2
  17761  17749  17748  17770     1  0.0000000  0.6024960  3
  17768  17762  17748  17770     1  0.0000000  4.9162000  2
  17768  17762  17748  17770     1  0.0000000  0.6024960  3
  17771  17772  17775  17776     1  180.0000771  0.8368000  1
  17771  17772  17775  17776     1  180.0000771  1.0460000  2
  17771  17772  17775  17776     1  0.0000000  0.7531200  3
  17771  17772  17775  17783     1  0.0000000  0.6508444  3
  17771  17793  17777  17781     1  180.0000771  5.6484000  1
  17771  17793  17777  17781     1  180.0000771  3.5564000  2
  17771  17793  17777  17781     1  0.0000000  0.4184000  3
  17771  17793  17777  17776     1  180.0000771  0.4184000  2
  17771  17793  17777  17776     1  0.0000000  1.6024720  3
  17772  17775  17776  17777     1  180.0000771  0.8368000  1
  17772  17775  17776  17777     1  180.0000771  1.0460000  2
  17772  17775  17776  17777     1  0.0000000  0.7531200  3
  17772  17775  17776  17782     1  0.0000000  0.6508444  3
  17772  17771  17785  17791     1  0.0000000  0.6508444  3
  17772  17771  17793  17777     1  180.0000771  0.4184000  2
  17772  17771  17793  17777     1  0.0000000  1.6024720  3
  17775  17776  17777  17781     1  0.0000000  0.6508444  3
  17775  17776  17777  17793     1  0.0000000  0.6508444  3
  17775  17772  17771  17785     1  180.0000771  0.8368000  1
  17775  17772  17771  17785     1  180.0000771  1.0460000  2
  17775  17772  17771  17785     1  0.0000000  0.7531200  3
  17775  17772  17771  17793     1  0.0000000  0.6508444  3
  17776  17775  17772  17784     1  0.0000000  0.6508444  3
  17777  17793  17771  17785     1  180.0000771  0.4184000  2
  17777  17793  17771  17785     1  0.0000000  1.6024720  3
  17777  17776  17775  17783     1  0.0000000  0.6508444  3
  17781  17777  17776  17782     1  0.0000000  4.9162000  2
  17781  17777  17776  17782     1  0.0000000  0.6024960  3
  17782  17776  17777  17793     1  0.0000000  4.9162000  2
  17782  17776  17777  17793     1  0.0000000  0.6024960  3
  17782  17776  17775  17783     1  0.0000000  4.9162000  2
  17782  17776  17775  17783     1  0.0000000  0.6024960  3
  17783  17775  17772  17784     1  0.0000000  4.9162000  2
  17783  17775  17772  17784     1  0.0000000  0.6024960  3
  17784  17772  17771  17785     1  0.0000000  0.6508444  3
  17784  17772  17771  17793     1  0.0000000  4.9162000  2
  17784  17772  17771  17793     1  0.0000000  0.6024960  3
  17791  17785  17771  17793     1  0.0000000  4.9162000  2
  17791  17785  17771  17793     1  0.0000000  0.6024960  3
  17794  17795  17798  17799     1  180.0000771  0.8368000  1
  17794  17795  17798  17799     1  180.0000771  1.0460000  2
  17794  17795  17798  17799     1  0.0000000  0.7531200  3
  17794  17795  17798  17806     1  0.0000000  0.6508444  3
  17794  17816  17800  17799     1  180.0000771  0.4184000  2
  17794  17816  17800  17799     1  0.0000000  1.6024720  3
  17794  17816  17800  17804     1  180.0000771  5.6484000  1
  17794  17816  17800  17804     1  180.0000771  3.5564000  2
  17794  17816  17800  17804     1  0.0000000  0.4184000  3
  17795  17794  17808  17814     1  0.0000000  0.6508444  3
  17795  17794  17816  17800     1  180.0000771  0.4184000  2
  17795  17794  17816  17800     1  0.0000000  1.6024720  3
  17795  17798  17799  17800     1  180.0000771  0.8368000  1
  17795  17798  17799  17800     1  180.0000771  1.0460000  2
  17795  17798  17799  17800     1  0.0000000  0.7531200  3
  17795  17798  17799  17805     1  0.0000000  0.6508444  3
  17798  17795  17794  17808     1  180.0000771  0.8368000  1
  17798  17795  17794  17808     1  180.0000771  1.0460000  2
  17798  17795  17794  17808     1  0.0000000  0.7531200  3
  17798  17795  17794  17816     1  0.0000000  0.6508444  3
  17798  17799  17800  17804     1  0.0000000  0.6508444  3
  17798  17799  17800  17816     1  0.0000000  0.6508444  3
  17799  17798  17795  17807     1  0.0000000  0.6508444  3
  17800  17799  17798  17806     1  0.0000000  0.6508444  3
  17800  17816  17794  17808     1  180.0000771  0.4184000  2
  17800  17816  17794  17808     1  0.0000000  1.6024720  3
  17804  17800  17799  17805     1  0.0000000  4.9162000  2
  17804  17800  17799  17805     1  0.0000000  0.6024960  3
  17805  17799  17798  17806     1  0.0000000  4.9162000  2
  17805  17799  17798  17806     1  0.0000000  0.6024960  3
  17805  17799  17800  17816     1  0.0000000  4.9162000  2
  17805  17799  17800  17816     1  0.0000000  0.6024960  3
  17806  17798  17795  17807     1  0.0000000  4.9162000  2
  17806  17798  17795  17807     1  0.0000000  0.6024960  3
  17807  17795  17794  17808     1  0.0000000  0.6508444  3
  17807  17795  17794  17816     1  0.0000000  4.9162000  2
  17807  17795  17794  17816     1  0.0000000  0.6024960  3
  17814  17808  17794  17816     1  0.0000000  4.9162000  2
  17814  17808  17794  17816     1  0.0000000  0.6024960  3
  17817  17818  17821  17822     1  180.0000771  0.8368000  1
  17817  17818  17821  17822     1  180.0000771  1.0460000  2
  17817  17818  17821  17822     1  0.0000000  0.7531200  3
  17817  17818  17821  17829     1  0.0000000  0.6508444  3
  17817  17839  17823  17827     1  180.0000771  5.6484000  1
  17817  17839  17823  17827     1  180.0000771  3.5564000  2
  17817  17839  17823  17827     1  0.0000000  0.4184000  3
  17817  17839  17823  17822     1  180.0000771  0.4184000  2
  17817  17839  17823  17822     1  0.0000000  1.6024720  3
  17818  17821  17822  17823     1  180.0000771  0.8368000  1
  17818  17821  17822  17823     1  180.0000771  1.0460000  2
  17818  17821  17822  17823     1  0.0000000  0.7531200  3
  17818  17821  17822  17828     1  0.0000000  0.6508444  3
  17818  17817  17831  17837     1  0.0000000  0.6508444  3
  17818  17817  17839  17823     1  180.0000771  0.4184000  2
  17818  17817  17839  17823     1  0.0000000  1.6024720  3
  17821  17822  17823  17827     1  0.0000000  0.6508444  3
  17821  17822  17823  17839     1  0.0000000  0.6508444  3
  17821  17818  17817  17831     1  180.0000771  0.8368000  1
  17821  17818  17817  17831     1  180.0000771  1.0460000  2
  17821  17818  17817  17831     1  0.0000000  0.7531200  3
  17821  17818  17817  17839     1  0.0000000  0.6508444  3
  17822  17821  17818  17830     1  0.0000000  0.6508444  3
  17823  17839  17817  17831     1  180.0000771  0.4184000  2
  17823  17839  17817  17831     1  0.0000000  1.6024720  3
  17823  17822  17821  17829     1  0.0000000  0.6508444  3
  17827  17823  17822  17828     1  0.0000000  4.9162000  2
  17827  17823  17822  17828     1  0.0000000  0.6024960  3
  17828  17822  17823  17839     1  0.0000000  4.9162000  2
  17828  17822  17823  17839     1  0.0000000  0.6024960  3
  17828  17822  17821  17829     1  0.0000000  4.9162000  2
  17828  17822  17821  17829     1  0.0000000  0.6024960  3
  17829  17821  17818  17830     1  0.0000000  4.9162000  2
  17829  17821  17818  17830     1  0.0000000  0.6024960  3
  17830  17818  17817  17831     1  0.0000000  0.6508444  3
  17830  17818  17817  17839     1  0.0000000  4.9162000  2
  17830  17818  17817  17839     1  0.0000000  0.6024960  3
  17837  17831  17817  17839     1  0.0000000  4.9162000  2
  17837  17831  17817  17839     1  0.0000000  0.6024960  3
  17840  17841  17844  17845     1  180.0000771  0.8368000  1
  17840  17841  17844  17845     1  180.0000771  1.0460000  2
  17840  17841  17844  17845     1  0.0000000  0.7531200  3
  17840  17841  17844  17852     1  0.0000000  0.6508444  3
  17840  17862  17846  17845     1  180.0000771  0.4184000  2
  17840  17862  17846  17845     1  0.0000000  1.6024720  3
  17840  17862  17846  17850     1  180.0000771  5.6484000  1
  17840  17862  17846  17850     1  180.0000771  3.5564000  2
  17840  17862  17846  17850     1  0.0000000  0.4184000  3
  17841  17840  17854  17860     1  0.0000000  0.6508444  3
  17841  17840  17862  17846     1  180.0000771  0.4184000  2
  17841  17840  17862  17846     1  0.0000000  1.6024720  3
  17841  17844  17845  17846     1  180.0000771  0.8368000  1
  17841  17844  17845  17846     1  180.0000771  1.0460000  2
  17841  17844  17845  17846     1  0.0000000  0.7531200  3
  17841  17844  17845  17851     1  0.0000000  0.6508444  3
  17844  17841  17840  17854     1  180.0000771  0.8368000  1
  17844  17841  17840  17854     1  180.0000771  1.0460000  2
  17844  17841  17840  17854     1  0.0000000  0.7531200  3
  17844  17841  17840  17862     1  0.0000000  0.6508444  3
  17844  17845  17846  17850     1  0.0000000  0.6508444  3
  17844  17845  17846  17862     1  0.0000000  0.6508444  3
  17845  17844  17841  17853     1  0.0000000  0.6508444  3
  17846  17845  17844  17852     1  0.0000000  0.6508444  3
  17846  17862  17840  17854     1  180.0000771  0.4184000  2
  17846  17862  17840  17854     1  0.0000000  1.6024720  3
  17850  17846  17845  17851     1  0.0000000  4.9162000  2
  17850  17846  17845  17851     1  0.0000000  0.6024960  3
  17851  17845  17844  17852     1  0.0000000  4.9162000  2
  17851  17845  17844  17852     1  0.0000000  0.6024960  3
  17851  17845  17846  17862     1  0.0000000  4.9162000  2
  17851  17845  17846  17862     1  0.0000000  0.6024960  3
  17852  17844  17841  17853     1  0.0000000  4.9162000  2
  17852  17844  17841  17853     1  0.0000000  0.6024960  3
  17853  17841  17840  17854     1  0.0000000  0.6508444  3
  17853  17841  17840  17862     1  0.0000000  4.9162000  2
  17853  17841  17840  17862     1  0.0000000  0.6024960  3
  17860  17854  17840  17862     1  0.0000000  4.9162000  2
  17860  17854  17840  17862     1  0.0000000  0.6024960  3
  17863  17864  17867  17868     1  180.0000771  0.8368000  1
  17863  17864  17867  17868     1  180.0000771  1.0460000  2
  17863  17864  17867  17868     1  0.0000000  0.7531200  3
  17863  17864  17867  17875     1  0.0000000  0.6508444  3
  17863  17885  17869  17873     1  180.0000771  5.6484000  1
  17863  17885  17869  17873     1  180.0000771  3.5564000  2
  17863  17885  17869  17873     1  0.0000000  0.4184000  3
  17863  17885  17869  17868     1  180.0000771  0.4184000  2
  17863  17885  17869  17868     1  0.0000000  1.6024720  3
  17864  17867  17868  17869     1  180.0000771  0.8368000  1
  17864  17867  17868  17869     1  180.0000771  1.0460000  2
  17864  17867  17868  17869     1  0.0000000  0.7531200  3
  17864  17867  17868  17874     1  0.0000000  0.6508444  3
  17864  17863  17877  17883     1  0.0000000  0.6508444  3
  17864  17863  17885  17869     1  180.0000771  0.4184000  2
  17864  17863  17885  17869     1  0.0000000  1.6024720  3
  17867  17868  17869  17873     1  0.0000000  0.6508444  3
  17867  17868  17869  17885     1  0.0000000  0.6508444  3
  17867  17864  17863  17877     1  180.0000771  0.8368000  1
  17867  17864  17863  17877     1  180.0000771  1.0460000  2
  17867  17864  17863  17877     1  0.0000000  0.7531200  3
  17867  17864  17863  17885     1  0.0000000  0.6508444  3
  17868  17867  17864  17876     1  0.0000000  0.6508444  3
  17869  17885  17863  17877     1  180.0000771  0.4184000  2
  17869  17885  17863  17877     1  0.0000000  1.6024720  3
  17869  17868  17867  17875     1  0.0000000  0.6508444  3
  17873  17869  17868  17874     1  0.0000000  4.9162000  2
  17873  17869  17868  17874     1  0.0000000  0.6024960  3
  17874  17868  17869  17885     1  0.0000000  4.9162000  2
  17874  17868  17869  17885     1  0.0000000  0.6024960  3
  17874  17868  17867  17875     1  0.0000000  4.9162000  2
  17874  17868  17867  17875     1  0.0000000  0.6024960  3
  17875  17867  17864  17876     1  0.0000000  4.9162000  2
  17875  17867  17864  17876     1  0.0000000  0.6024960  3
  17876  17864  17863  17877     1  0.0000000  0.6508444  3
  17876  17864  17863  17885     1  0.0000000  4.9162000  2
  17876  17864  17863  17885     1  0.0000000  0.6024960  3
  17883  17877  17863  17885     1  0.0000000  4.9162000  2
  17883  17877  17863  17885     1  0.0000000  0.6024960  3
  17886  17887  17890  17891     1  180.0000771  0.8368000  1
  17886  17887  17890  17891     1  180.0000771  1.0460000  2
  17886  17887  17890  17891     1  0.0000000  0.7531200  3
  17886  17887  17890  17898     1  0.0000000  0.6508444  3
  17886  17908  17892  17891     1  180.0000771  0.4184000  2
  17886  17908  17892  17891     1  0.0000000  1.6024720  3
  17886  17908  17892  17896     1  180.0000771  5.6484000  1
  17886  17908  17892  17896     1  180.0000771  3.5564000  2
  17886  17908  17892  17896     1  0.0000000  0.4184000  3
  17887  17886  17900  17906     1  0.0000000  0.6508444  3
  17887  17886  17908  17892     1  180.0000771  0.4184000  2
  17887  17886  17908  17892     1  0.0000000  1.6024720  3
  17887  17890  17891  17892     1  180.0000771  0.8368000  1
  17887  17890  17891  17892     1  180.0000771  1.0460000  2
  17887  17890  17891  17892     1  0.0000000  0.7531200  3
  17887  17890  17891  17897     1  0.0000000  0.6508444  3
  17890  17887  17886  17900     1  180.0000771  0.8368000  1
  17890  17887  17886  17900     1  180.0000771  1.0460000  2
  17890  17887  17886  17900     1  0.0000000  0.7531200  3
  17890  17887  17886  17908     1  0.0000000  0.6508444  3
  17890  17891  17892  17896     1  0.0000000  0.6508444  3
  17890  17891  17892  17908     1  0.0000000  0.6508444  3
  17891  17890  17887  17899     1  0.0000000  0.6508444  3
  17892  17891  17890  17898     1  0.0000000  0.6508444  3
  17892  17908  17886  17900     1  180.0000771  0.4184000  2
  17892  17908  17886  17900     1  0.0000000  1.6024720  3
  17896  17892  17891  17897     1  0.0000000  4.9162000  2
  17896  17892  17891  17897     1  0.0000000  0.6024960  3
  17897  17891  17890  17898     1  0.0000000  4.9162000  2
  17897  17891  17890  17898     1  0.0000000  0.6024960  3
  17897  17891  17892  17908     1  0.0000000  4.9162000  2
  17897  17891  17892  17908     1  0.0000000  0.6024960  3
  17898  17890  17887  17899     1  0.0000000  4.9162000  2
  17898  17890  17887  17899     1  0.0000000  0.6024960  3
  17899  17887  17886  17900     1  0.0000000  0.6508444  3
  17899  17887  17886  17908     1  0.0000000  4.9162000  2
  17899  17887  17886  17908     1  0.0000000  0.6024960  3
  17906  17900  17886  17908     1  0.0000000  4.9162000  2
  17906  17900  17886  17908     1  0.0000000  0.6024960  3
  17909  17910  17913  17914     1  180.0000771  0.8368000  1
  17909  17910  17913  17914     1  180.0000771  1.0460000  2
  17909  17910  17913  17914     1  0.0000000  0.7531200  3
  17909  17910  17913  17921     1  0.0000000  0.6508444  3
  17909  17931  17915  17919     1  180.0000771  5.6484000  1
  17909  17931  17915  17919     1  180.0000771  3.5564000  2
  17909  17931  17915  17919     1  0.0000000  0.4184000  3
  17909  17931  17915  17914     1  180.0000771  0.4184000  2
  17909  17931  17915  17914     1  0.0000000  1.6024720  3
  17910  17913  17914  17915     1  180.0000771  0.8368000  1
  17910  17913  17914  17915     1  180.0000771  1.0460000  2
  17910  17913  17914  17915     1  0.0000000  0.7531200  3
  17910  17913  17914  17920     1  0.0000000  0.6508444  3
  17910  17909  17923  17929     1  0.0000000  0.6508444  3
  17910  17909  17931  17915     1  180.0000771  0.4184000  2
  17910  17909  17931  17915     1  0.0000000  1.6024720  3
  17913  17914  17915  17919     1  0.0000000  0.6508444  3
  17913  17914  17915  17931     1  0.0000000  0.6508444  3
  17913  17910  17909  17923     1  180.0000771  0.8368000  1
  17913  17910  17909  17923     1  180.0000771  1.0460000  2
  17913  17910  17909  17923     1  0.0000000  0.7531200  3
  17913  17910  17909  17931     1  0.0000000  0.6508444  3
  17914  17913  17910  17922     1  0.0000000  0.6508444  3
  17915  17931  17909  17923     1  180.0000771  0.4184000  2
  17915  17931  17909  17923     1  0.0000000  1.6024720  3
  17915  17914  17913  17921     1  0.0000000  0.6508444  3
  17919  17915  17914  17920     1  0.0000000  4.9162000  2
  17919  17915  17914  17920     1  0.0000000  0.6024960  3
  17920  17914  17915  17931     1  0.0000000  4.9162000  2
  17920  17914  17915  17931     1  0.0000000  0.6024960  3
  17920  17914  17913  17921     1  0.0000000  4.9162000  2
  17920  17914  17913  17921     1  0.0000000  0.6024960  3
  17921  17913  17910  17922     1  0.0000000  4.9162000  2
  17921  17913  17910  17922     1  0.0000000  0.6024960  3
  17922  17910  17909  17923     1  0.0000000  0.6508444  3
  17922  17910  17909  17931     1  0.0000000  4.9162000  2
  17922  17910  17909  17931     1  0.0000000  0.6024960  3
  17929  17923  17909  17931     1  0.0000000  4.9162000  2
  17929  17923  17909  17931     1  0.0000000  0.6024960  3
  17932  17933  17936  17937     1  180.0000771  0.8368000  1
  17932  17933  17936  17937     1  180.0000771  1.0460000  2
  17932  17933  17936  17937     1  0.0000000  0.7531200  3
  17932  17933  17936  17944     1  0.0000000  0.6508444  3
  17932  17954  17938  17937     1  180.0000771  0.4184000  2
  17932  17954  17938  17937     1  0.0000000  1.6024720  3
  17932  17954  17938  17942     1  180.0000771  5.6484000  1
  17932  17954  17938  17942     1  180.0000771  3.5564000  2
  17932  17954  17938  17942     1  0.0000000  0.4184000  3
  17933  17932  17946  17952     1  0.0000000  0.6508444  3
  17933  17932  17954  17938     1  180.0000771  0.4184000  2
  17933  17932  17954  17938     1  0.0000000  1.6024720  3
  17933  17936  17937  17938     1  180.0000771  0.8368000  1
  17933  17936  17937  17938     1  180.0000771  1.0460000  2
  17933  17936  17937  17938     1  0.0000000  0.7531200  3
  17933  17936  17937  17943     1  0.0000000  0.6508444  3
  17936  17933  17932  17946     1  180.0000771  0.8368000  1
  17936  17933  17932  17946     1  180.0000771  1.0460000  2
  17936  17933  17932  17946     1  0.0000000  0.7531200  3
  17936  17933  17932  17954     1  0.0000000  0.6508444  3
  17936  17937  17938  17942     1  0.0000000  0.6508444  3
  17936  17937  17938  17954     1  0.0000000  0.6508444  3
  17937  17936  17933  17945     1  0.0000000  0.6508444  3
  17938  17937  17936  17944     1  0.0000000  0.6508444  3
  17938  17954  17932  17946     1  180.0000771  0.4184000  2
  17938  17954  17932  17946     1  0.0000000  1.6024720  3
  17942  17938  17937  17943     1  0.0000000  4.9162000  2
  17942  17938  17937  17943     1  0.0000000  0.6024960  3
  17943  17937  17936  17944     1  0.0000000  4.9162000  2
  17943  17937  17936  17944     1  0.0000000  0.6024960  3
  17943  17937  17938  17954     1  0.0000000  4.9162000  2
  17943  17937  17938  17954     1  0.0000000  0.6024960  3
  17944  17936  17933  17945     1  0.0000000  4.9162000  2
  17944  17936  17933  17945     1  0.0000000  0.6024960  3
  17945  17933  17932  17946     1  0.0000000  0.6508444  3
  17945  17933  17932  17954     1  0.0000000  4.9162000  2
  17945  17933  17932  17954     1  0.0000000  0.6024960  3
  17952  17946  17932  17954     1  0.0000000  4.9162000  2
  17952  17946  17932  17954     1  0.0000000  0.6024960  3
  17955  17956  17959  17960     1  180.0000771  0.8368000  1
  17955  17956  17959  17960     1  180.0000771  1.0460000  2
  17955  17956  17959  17960     1  0.0000000  0.7531200  3
  17955  17956  17959  17967     1  0.0000000  0.6508444  3
  17955  17977  17961  17965     1  180.0000771  5.6484000  1
  17955  17977  17961  17965     1  180.0000771  3.5564000  2
  17955  17977  17961  17965     1  0.0000000  0.4184000  3
  17955  17977  17961  17960     1  180.0000771  0.4184000  2
  17955  17977  17961  17960     1  0.0000000  1.6024720  3
  17956  17959  17960  17961     1  180.0000771  0.8368000  1
  17956  17959  17960  17961     1  180.0000771  1.0460000  2
  17956  17959  17960  17961     1  0.0000000  0.7531200  3
  17956  17959  17960  17966     1  0.0000000  0.6508444  3
  17956  17955  17969  17975     1  0.0000000  0.6508444  3
  17956  17955  17977  17961     1  180.0000771  0.4184000  2
  17956  17955  17977  17961     1  0.0000000  1.6024720  3
  17959  17960  17961  17965     1  0.0000000  0.6508444  3
  17959  17960  17961  17977     1  0.0000000  0.6508444  3
  17959  17956  17955  17969     1  180.0000771  0.8368000  1
  17959  17956  17955  17969     1  180.0000771  1.0460000  2
  17959  17956  17955  17969     1  0.0000000  0.7531200  3
  17959  17956  17955  17977     1  0.0000000  0.6508444  3
  17960  17959  17956  17968     1  0.0000000  0.6508444  3
  17961  17977  17955  17969     1  180.0000771  0.4184000  2
  17961  17977  17955  17969     1  0.0000000  1.6024720  3
  17961  17960  17959  17967     1  0.0000000  0.6508444  3
  17965  17961  17960  17966     1  0.0000000  4.9162000  2
  17965  17961  17960  17966     1  0.0000000  0.6024960  3
  17966  17960  17961  17977     1  0.0000000  4.9162000  2
  17966  17960  17961  17977     1  0.0000000  0.6024960  3
  17966  17960  17959  17967     1  0.0000000  4.9162000  2
  17966  17960  17959  17967     1  0.0000000  0.6024960  3
  17967  17959  17956  17968     1  0.0000000  4.9162000  2
  17967  17959  17956  17968     1  0.0000000  0.6024960  3
  17968  17956  17955  17969     1  0.0000000  0.6508444  3
  17968  17956  17955  17977     1  0.0000000  4.9162000  2
  17968  17956  17955  17977     1  0.0000000  0.6024960  3
  17975  17969  17955  17977     1  0.0000000  4.9162000  2
  17975  17969  17955  17977     1  0.0000000  0.6024960  3
  17978  17979  17982  17983     1  180.0000771  0.8368000  1
  17978  17979  17982  17983     1  180.0000771  1.0460000  2
  17978  17979  17982  17983     1  0.0000000  0.7531200  3
  17978  17979  17982  17990     1  0.0000000  0.6508444  3
  17978  18000  17984  17983     1  180.0000771  0.4184000  2
  17978  18000  17984  17983     1  0.0000000  1.6024720  3
  17978  18000  17984  17988     1  180.0000771  5.6484000  1
  17978  18000  17984  17988     1  180.0000771  3.5564000  2
  17978  18000  17984  17988     1  0.0000000  0.4184000  3
  17979  17978  17992  17998     1  0.0000000  0.6508444  3
  17979  17978  18000  17984     1  180.0000771  0.4184000  2
  17979  17978  18000  17984     1  0.0000000  1.6024720  3
  17979  17982  17983  17984     1  180.0000771  0.8368000  1
  17979  17982  17983  17984     1  180.0000771  1.0460000  2
  17979  17982  17983  17984     1  0.0000000  0.7531200  3
  17979  17982  17983  17989     1  0.0000000  0.6508444  3
  17982  17979  17978  17992     1  180.0000771  0.8368000  1
  17982  17979  17978  17992     1  180.0000771  1.0460000  2
  17982  17979  17978  17992     1  0.0000000  0.7531200  3
  17982  17979  17978  18000     1  0.0000000  0.6508444  3
  17982  17983  17984  17988     1  0.0000000  0.6508444  3
  17982  17983  17984  18000     1  0.0000000  0.6508444  3
  17983  17982  17979  17991     1  0.0000000  0.6508444  3
  17984  17983  17982  17990     1  0.0000000  0.6508444  3
  17984  18000  17978  17992     1  180.0000771  0.4184000  2
  17984  18000  17978  17992     1  0.0000000  1.6024720  3
  17988  17984  17983  17989     1  0.0000000  4.9162000  2
  17988  17984  17983  17989     1  0.0000000  0.6024960  3
  17989  17983  17982  17990     1  0.0000000  4.9162000  2
  17989  17983  17982  17990     1  0.0000000  0.6024960  3
  17989  17983  17984  18000     1  0.0000000  4.9162000  2
  17989  17983  17984  18000     1  0.0000000  0.6024960  3
  17990  17982  17979  17991     1  0.0000000  4.9162000  2
  17990  17982  17979  17991     1  0.0000000  0.6024960  3
  17991  17979  17978  17992     1  0.0000000  0.6508444  3
  17991  17979  17978  18000     1  0.0000000  4.9162000  2
  17991  17979  17978  18000     1  0.0000000  0.6024960  3
  17998  17992  17978  18000     1  0.0000000  4.9162000  2
  17998  17992  17978  18000     1  0.0000000  0.6024960  3
  18001  18002  18005  18006     1  180.0000771  0.8368000  1
  18001  18002  18005  18006     1  180.0000771  1.0460000  2
  18001  18002  18005  18006     1  0.0000000  0.7531200  3
  18001  18002  18005  18013     1  0.0000000  0.6508444  3
  18001  18023  18007  18011     1  180.0000771  5.6484000  1
  18001  18023  18007  18011     1  180.0000771  3.5564000  2
  18001  18023  18007  18011     1  0.0000000  0.4184000  3
  18001  18023  18007  18006     1  180.0000771  0.4184000  2
  18001  18023  18007  18006     1  0.0000000  1.6024720  3
  18002  18005  18006  18007     1  180.0000771  0.8368000  1
  18002  18005  18006  18007     1  180.0000771  1.0460000  2
  18002  18005  18006  18007     1  0.0000000  0.7531200  3
  18002  18005  18006  18012     1  0.0000000  0.6508444  3
  18002  18001  18015  18021     1  0.0000000  0.6508444  3
  18002  18001  18023  18007     1  180.0000771  0.4184000  2
  18002  18001  18023  18007     1  0.0000000  1.6024720  3
  18005  18006  18007  18011     1  0.0000000  0.6508444  3
  18005  18006  18007  18023     1  0.0000000  0.6508444  3
  18005  18002  18001  18015     1  180.0000771  0.8368000  1
  18005  18002  18001  18015     1  180.0000771  1.0460000  2
  18005  18002  18001  18015     1  0.0000000  0.7531200  3
  18005  18002  18001  18023     1  0.0000000  0.6508444  3
  18006  18005  18002  18014     1  0.0000000  0.6508444  3
  18007  18023  18001  18015     1  180.0000771  0.4184000  2
  18007  18023  18001  18015     1  0.0000000  1.6024720  3
  18007  18006  18005  18013     1  0.0000000  0.6508444  3
  18011  18007  18006  18012     1  0.0000000  4.9162000  2
  18011  18007  18006  18012     1  0.0000000  0.6024960  3
  18012  18006  18007  18023     1  0.0000000  4.9162000  2
  18012  18006  18007  18023     1  0.0000000  0.6024960  3
  18012  18006  18005  18013     1  0.0000000  4.9162000  2
  18012  18006  18005  18013     1  0.0000000  0.6024960  3
  18013  18005  18002  18014     1  0.0000000  4.9162000  2
  18013  18005  18002  18014     1  0.0000000  0.6024960  3
  18014  18002  18001  18015     1  0.0000000  0.6508444  3
  18014  18002  18001  18023     1  0.0000000  4.9162000  2
  18014  18002  18001  18023     1  0.0000000  0.6024960  3
  18021  18015  18001  18023     1  0.0000000  4.9162000  2
  18021  18015  18001  18023     1  0.0000000  0.6024960  3
  18024  18025  18028  18029     1  180.0000771  0.8368000  1
  18024  18025  18028  18029     1  180.0000771  1.0460000  2
  18024  18025  18028  18029     1  0.0000000  0.7531200  3
  18024  18025  18028  18036     1  0.0000000  0.6508444  3
  18024  18046  18030  18029     1  180.0000771  0.4184000  2
  18024  18046  18030  18029     1  0.0000000  1.6024720  3
  18024  18046  18030  18034     1  180.0000771  5.6484000  1
  18024  18046  18030  18034     1  180.0000771  3.5564000  2
  18024  18046  18030  18034     1  0.0000000  0.4184000  3
  18025  18024  18038  18044     1  0.0000000  0.6508444  3
  18025  18024  18046  18030     1  180.0000771  0.4184000  2
  18025  18024  18046  18030     1  0.0000000  1.6024720  3
  18025  18028  18029  18030     1  180.0000771  0.8368000  1
  18025  18028  18029  18030     1  180.0000771  1.0460000  2
  18025  18028  18029  18030     1  0.0000000  0.7531200  3
  18025  18028  18029  18035     1  0.0000000  0.6508444  3
  18028  18025  18024  18038     1  180.0000771  0.8368000  1
  18028  18025  18024  18038     1  180.0000771  1.0460000  2
  18028  18025  18024  18038     1  0.0000000  0.7531200  3
  18028  18025  18024  18046     1  0.0000000  0.6508444  3
  18028  18029  18030  18034     1  0.0000000  0.6508444  3
  18028  18029  18030  18046     1  0.0000000  0.6508444  3
  18029  18028  18025  18037     1  0.0000000  0.6508444  3
  18030  18029  18028  18036     1  0.0000000  0.6508444  3
  18030  18046  18024  18038     1  180.0000771  0.4184000  2
  18030  18046  18024  18038     1  0.0000000  1.6024720  3
  18034  18030  18029  18035     1  0.0000000  4.9162000  2
  18034  18030  18029  18035     1  0.0000000  0.6024960  3
  18035  18029  18028  18036     1  0.0000000  4.9162000  2
  18035  18029  18028  18036     1  0.0000000  0.6024960  3
  18035  18029  18030  18046     1  0.0000000  4.9162000  2
  18035  18029  18030  18046     1  0.0000000  0.6024960  3
  18036  18028  18025  18037     1  0.0000000  4.9162000  2
  18036  18028  18025  18037     1  0.0000000  0.6024960  3
  18037  18025  18024  18038     1  0.0000000  0.6508444  3
  18037  18025  18024  18046     1  0.0000000  4.9162000  2
  18037  18025  18024  18046     1  0.0000000  0.6024960  3
  18044  18038  18024  18046     1  0.0000000  4.9162000  2
  18044  18038  18024  18046     1  0.0000000  0.6024960  3
  18047  18048  18051  18052     1  180.0000771  0.8368000  1
  18047  18048  18051  18052     1  180.0000771  1.0460000  2
  18047  18048  18051  18052     1  0.0000000  0.7531200  3
  18047  18048  18051  18059     1  0.0000000  0.6508444  3
  18047  18069  18053  18057     1  180.0000771  5.6484000  1
  18047  18069  18053  18057     1  180.0000771  3.5564000  2
  18047  18069  18053  18057     1  0.0000000  0.4184000  3
  18047  18069  18053  18052     1  180.0000771  0.4184000  2
  18047  18069  18053  18052     1  0.0000000  1.6024720  3
  18048  18051  18052  18053     1  180.0000771  0.8368000  1
  18048  18051  18052  18053     1  180.0000771  1.0460000  2
  18048  18051  18052  18053     1  0.0000000  0.7531200  3
  18048  18051  18052  18058     1  0.0000000  0.6508444  3
  18048  18047  18061  18067     1  0.0000000  0.6508444  3
  18048  18047  18069  18053     1  180.0000771  0.4184000  2
  18048  18047  18069  18053     1  0.0000000  1.6024720  3
  18051  18052  18053  18057     1  0.0000000  0.6508444  3
  18051  18052  18053  18069     1  0.0000000  0.6508444  3
  18051  18048  18047  18061     1  180.0000771  0.8368000  1
  18051  18048  18047  18061     1  180.0000771  1.0460000  2
  18051  18048  18047  18061     1  0.0000000  0.7531200  3
  18051  18048  18047  18069     1  0.0000000  0.6508444  3
  18052  18051  18048  18060     1  0.0000000  0.6508444  3
  18053  18069  18047  18061     1  180.0000771  0.4184000  2
  18053  18069  18047  18061     1  0.0000000  1.6024720  3
  18053  18052  18051  18059     1  0.0000000  0.6508444  3
  18057  18053  18052  18058     1  0.0000000  4.9162000  2
  18057  18053  18052  18058     1  0.0000000  0.6024960  3
  18058  18052  18053  18069     1  0.0000000  4.9162000  2
  18058  18052  18053  18069     1  0.0000000  0.6024960  3
  18058  18052  18051  18059     1  0.0000000  4.9162000  2
  18058  18052  18051  18059     1  0.0000000  0.6024960  3
  18059  18051  18048  18060     1  0.0000000  4.9162000  2
  18059  18051  18048  18060     1  0.0000000  0.6024960  3
  18060  18048  18047  18061     1  0.0000000  0.6508444  3
  18060  18048  18047  18069     1  0.0000000  4.9162000  2
  18060  18048  18047  18069     1  0.0000000  0.6024960  3
  18067  18061  18047  18069     1  0.0000000  4.9162000  2
  18067  18061  18047  18069     1  0.0000000  0.6024960  3
  18070  18071  18074  18075     1  180.0000771  0.8368000  1
  18070  18071  18074  18075     1  180.0000771  1.0460000  2
  18070  18071  18074  18075     1  0.0000000  0.7531200  3
  18070  18071  18074  18082     1  0.0000000  0.6508444  3
  18070  18092  18076  18075     1  180.0000771  0.4184000  2
  18070  18092  18076  18075     1  0.0000000  1.6024720  3
  18070  18092  18076  18080     1  180.0000771  5.6484000  1
  18070  18092  18076  18080     1  180.0000771  3.5564000  2
  18070  18092  18076  18080     1  0.0000000  0.4184000  3
  18071  18070  18084  18090     1  0.0000000  0.6508444  3
  18071  18070  18092  18076     1  180.0000771  0.4184000  2
  18071  18070  18092  18076     1  0.0000000  1.6024720  3
  18071  18074  18075  18076     1  180.0000771  0.8368000  1
  18071  18074  18075  18076     1  180.0000771  1.0460000  2
  18071  18074  18075  18076     1  0.0000000  0.7531200  3
  18071  18074  18075  18081     1  0.0000000  0.6508444  3
  18074  18071  18070  18084     1  180.0000771  0.8368000  1
  18074  18071  18070  18084     1  180.0000771  1.0460000  2
  18074  18071  18070  18084     1  0.0000000  0.7531200  3
  18074  18071  18070  18092     1  0.0000000  0.6508444  3
  18074  18075  18076  18080     1  0.0000000  0.6508444  3
  18074  18075  18076  18092     1  0.0000000  0.6508444  3
  18075  18074  18071  18083     1  0.0000000  0.6508444  3
  18076  18075  18074  18082     1  0.0000000  0.6508444  3
  18076  18092  18070  18084     1  180.0000771  0.4184000  2
  18076  18092  18070  18084     1  0.0000000  1.6024720  3
  18080  18076  18075  18081     1  0.0000000  4.9162000  2
  18080  18076  18075  18081     1  0.0000000  0.6024960  3
  18081  18075  18074  18082     1  0.0000000  4.9162000  2
  18081  18075  18074  18082     1  0.0000000  0.6024960  3
  18081  18075  18076  18092     1  0.0000000  4.9162000  2
  18081  18075  18076  18092     1  0.0000000  0.6024960  3
  18082  18074  18071  18083     1  0.0000000  4.9162000  2
  18082  18074  18071  18083     1  0.0000000  0.6024960  3
  18083  18071  18070  18084     1  0.0000000  0.6508444  3
  18083  18071  18070  18092     1  0.0000000  4.9162000  2
  18083  18071  18070  18092     1  0.0000000  0.6024960  3
  18090  18084  18070  18092     1  0.0000000  4.9162000  2
  18090  18084  18070  18092     1  0.0000000  0.6024960  3
  18093  18094  18097  18098     1  180.0000771  0.8368000  1
  18093  18094  18097  18098     1  180.0000771  1.0460000  2
  18093  18094  18097  18098     1  0.0000000  0.7531200  3
  18093  18094  18097  18105     1  0.0000000  0.6508444  3
  18093  18115  18099  18103     1  180.0000771  5.6484000  1
  18093  18115  18099  18103     1  180.0000771  3.5564000  2
  18093  18115  18099  18103     1  0.0000000  0.4184000  3
  18093  18115  18099  18098     1  180.0000771  0.4184000  2
  18093  18115  18099  18098     1  0.0000000  1.6024720  3
  18094  18097  18098  18099     1  180.0000771  0.8368000  1
  18094  18097  18098  18099     1  180.0000771  1.0460000  2
  18094  18097  18098  18099     1  0.0000000  0.7531200  3
  18094  18097  18098  18104     1  0.0000000  0.6508444  3
  18094  18093  18107  18113     1  0.0000000  0.6508444  3
  18094  18093  18115  18099     1  180.0000771  0.4184000  2
  18094  18093  18115  18099     1  0.0000000  1.6024720  3
  18097  18098  18099  18103     1  0.0000000  0.6508444  3
  18097  18098  18099  18115     1  0.0000000  0.6508444  3
  18097  18094  18093  18107     1  180.0000771  0.8368000  1
  18097  18094  18093  18107     1  180.0000771  1.0460000  2
  18097  18094  18093  18107     1  0.0000000  0.7531200  3
  18097  18094  18093  18115     1  0.0000000  0.6508444  3
  18098  18097  18094  18106     1  0.0000000  0.6508444  3
  18099  18115  18093  18107     1  180.0000771  0.4184000  2
  18099  18115  18093  18107     1  0.0000000  1.6024720  3
  18099  18098  18097  18105     1  0.0000000  0.6508444  3
  18103  18099  18098  18104     1  0.0000000  4.9162000  2
  18103  18099  18098  18104     1  0.0000000  0.6024960  3
  18104  18098  18099  18115     1  0.0000000  4.9162000  2
  18104  18098  18099  18115     1  0.0000000  0.6024960  3
  18104  18098  18097  18105     1  0.0000000  4.9162000  2
  18104  18098  18097  18105     1  0.0000000  0.6024960  3
  18105  18097  18094  18106     1  0.0000000  4.9162000  2
  18105  18097  18094  18106     1  0.0000000  0.6024960  3
  18106  18094  18093  18107     1  0.0000000  0.6508444  3
  18106  18094  18093  18115     1  0.0000000  4.9162000  2
  18106  18094  18093  18115     1  0.0000000  0.6024960  3
  18113  18107  18093  18115     1  0.0000000  4.9162000  2
  18113  18107  18093  18115     1  0.0000000  0.6024960  3
  18116  18117  18120  18121     1  180.0000771  0.8368000  1
  18116  18117  18120  18121     1  180.0000771  1.0460000  2
  18116  18117  18120  18121     1  0.0000000  0.7531200  3
  18116  18117  18120  18128     1  0.0000000  0.6508444  3
  18116  18138  18122  18121     1  180.0000771  0.4184000  2
  18116  18138  18122  18121     1  0.0000000  1.6024720  3
  18116  18138  18122  18126     1  180.0000771  5.6484000  1
  18116  18138  18122  18126     1  180.0000771  3.5564000  2
  18116  18138  18122  18126     1  0.0000000  0.4184000  3
  18117  18116  18130  18136     1  0.0000000  0.6508444  3
  18117  18116  18138  18122     1  180.0000771  0.4184000  2
  18117  18116  18138  18122     1  0.0000000  1.6024720  3
  18117  18120  18121  18122     1  180.0000771  0.8368000  1
  18117  18120  18121  18122     1  180.0000771  1.0460000  2
  18117  18120  18121  18122     1  0.0000000  0.7531200  3
  18117  18120  18121  18127     1  0.0000000  0.6508444  3
  18120  18117  18116  18130     1  180.0000771  0.8368000  1
  18120  18117  18116  18130     1  180.0000771  1.0460000  2
  18120  18117  18116  18130     1  0.0000000  0.7531200  3
  18120  18117  18116  18138     1  0.0000000  0.6508444  3
  18120  18121  18122  18126     1  0.0000000  0.6508444  3
  18120  18121  18122  18138     1  0.0000000  0.6508444  3
  18121  18120  18117  18129     1  0.0000000  0.6508444  3
  18122  18121  18120  18128     1  0.0000000  0.6508444  3
  18122  18138  18116  18130     1  180.0000771  0.4184000  2
  18122  18138  18116  18130     1  0.0000000  1.6024720  3
  18126  18122  18121  18127     1  0.0000000  4.9162000  2
  18126  18122  18121  18127     1  0.0000000  0.6024960  3
  18127  18121  18120  18128     1  0.0000000  4.9162000  2
  18127  18121  18120  18128     1  0.0000000  0.6024960  3
  18127  18121  18122  18138     1  0.0000000  4.9162000  2
  18127  18121  18122  18138     1  0.0000000  0.6024960  3
  18128  18120  18117  18129     1  0.0000000  4.9162000  2
  18128  18120  18117  18129     1  0.0000000  0.6024960  3
  18129  18117  18116  18130     1  0.0000000  0.6508444  3
  18129  18117  18116  18138     1  0.0000000  4.9162000  2
  18129  18117  18116  18138     1  0.0000000  0.6024960  3
  18136  18130  18116  18138     1  0.0000000  4.9162000  2
  18136  18130  18116  18138     1  0.0000000  0.6024960  3
  18139  18140  18143  18144     1  180.0000771  0.8368000  1
  18139  18140  18143  18144     1  180.0000771  1.0460000  2
  18139  18140  18143  18144     1  0.0000000  0.7531200  3
  18139  18140  18143  18151     1  0.0000000  0.6508444  3
  18139  18161  18145  18149     1  180.0000771  5.6484000  1
  18139  18161  18145  18149     1  180.0000771  3.5564000  2
  18139  18161  18145  18149     1  0.0000000  0.4184000  3
  18139  18161  18145  18144     1  180.0000771  0.4184000  2
  18139  18161  18145  18144     1  0.0000000  1.6024720  3
  18140  18143  18144  18145     1  180.0000771  0.8368000  1
  18140  18143  18144  18145     1  180.0000771  1.0460000  2
  18140  18143  18144  18145     1  0.0000000  0.7531200  3
  18140  18143  18144  18150     1  0.0000000  0.6508444  3
  18140  18139  18153  18159     1  0.0000000  0.6508444  3
  18140  18139  18161  18145     1  180.0000771  0.4184000  2
  18140  18139  18161  18145     1  0.0000000  1.6024720  3
  18143  18144  18145  18149     1  0.0000000  0.6508444  3
  18143  18144  18145  18161     1  0.0000000  0.6508444  3
  18143  18140  18139  18153     1  180.0000771  0.8368000  1
  18143  18140  18139  18153     1  180.0000771  1.0460000  2
  18143  18140  18139  18153     1  0.0000000  0.7531200  3
  18143  18140  18139  18161     1  0.0000000  0.6508444  3
  18144  18143  18140  18152     1  0.0000000  0.6508444  3
  18145  18161  18139  18153     1  180.0000771  0.4184000  2
  18145  18161  18139  18153     1  0.0000000  1.6024720  3
  18145  18144  18143  18151     1  0.0000000  0.6508444  3
  18149  18145  18144  18150     1  0.0000000  4.9162000  2
  18149  18145  18144  18150     1  0.0000000  0.6024960  3
  18150  18144  18145  18161     1  0.0000000  4.9162000  2
  18150  18144  18145  18161     1  0.0000000  0.6024960  3
  18150  18144  18143  18151     1  0.0000000  4.9162000  2
  18150  18144  18143  18151     1  0.0000000  0.6024960  3
  18151  18143  18140  18152     1  0.0000000  4.9162000  2
  18151  18143  18140  18152     1  0.0000000  0.6024960  3
  18152  18140  18139  18153     1  0.0000000  0.6508444  3
  18152  18140  18139  18161     1  0.0000000  4.9162000  2
  18152  18140  18139  18161     1  0.0000000  0.6024960  3
  18159  18153  18139  18161     1  0.0000000  4.9162000  2
  18159  18153  18139  18161     1  0.0000000  0.6024960  3
  18162  18163  18166  18167     1  180.0000771  0.8368000  1
  18162  18163  18166  18167     1  180.0000771  1.0460000  2
  18162  18163  18166  18167     1  0.0000000  0.7531200  3
  18162  18163  18166  18174     1  0.0000000  0.6508444  3
  18162  18184  18168  18167     1  180.0000771  0.4184000  2
  18162  18184  18168  18167     1  0.0000000  1.6024720  3
  18162  18184  18168  18172     1  180.0000771  5.6484000  1
  18162  18184  18168  18172     1  180.0000771  3.5564000  2
  18162  18184  18168  18172     1  0.0000000  0.4184000  3
  18163  18162  18176  18182     1  0.0000000  0.6508444  3
  18163  18162  18184  18168     1  180.0000771  0.4184000  2
  18163  18162  18184  18168     1  0.0000000  1.6024720  3
  18163  18166  18167  18168     1  180.0000771  0.8368000  1
  18163  18166  18167  18168     1  180.0000771  1.0460000  2
  18163  18166  18167  18168     1  0.0000000  0.7531200  3
  18163  18166  18167  18173     1  0.0000000  0.6508444  3
  18166  18163  18162  18176     1  180.0000771  0.8368000  1
  18166  18163  18162  18176     1  180.0000771  1.0460000  2
  18166  18163  18162  18176     1  0.0000000  0.7531200  3
  18166  18163  18162  18184     1  0.0000000  0.6508444  3
  18166  18167  18168  18172     1  0.0000000  0.6508444  3
  18166  18167  18168  18184     1  0.0000000  0.6508444  3
  18167  18166  18163  18175     1  0.0000000  0.6508444  3
  18168  18167  18166  18174     1  0.0000000  0.6508444  3
  18168  18184  18162  18176     1  180.0000771  0.4184000  2
  18168  18184  18162  18176     1  0.0000000  1.6024720  3
  18172  18168  18167  18173     1  0.0000000  4.9162000  2
  18172  18168  18167  18173     1  0.0000000  0.6024960  3
  18173  18167  18166  18174     1  0.0000000  4.9162000  2
  18173  18167  18166  18174     1  0.0000000  0.6024960  3
  18173  18167  18168  18184     1  0.0000000  4.9162000  2
  18173  18167  18168  18184     1  0.0000000  0.6024960  3
  18174  18166  18163  18175     1  0.0000000  4.9162000  2
  18174  18166  18163  18175     1  0.0000000  0.6024960  3
  18175  18163  18162  18176     1  0.0000000  0.6508444  3
  18175  18163  18162  18184     1  0.0000000  4.9162000  2
  18175  18163  18162  18184     1  0.0000000  0.6024960  3
  18182  18176  18162  18184     1  0.0000000  4.9162000  2
  18182  18176  18162  18184     1  0.0000000  0.6024960  3
  18185  18186  18189  18190     1  180.0000771  0.8368000  1
  18185  18186  18189  18190     1  180.0000771  1.0460000  2
  18185  18186  18189  18190     1  0.0000000  0.7531200  3
  18185  18186  18189  18197     1  0.0000000  0.6508444  3
  18185  18207  18191  18195     1  180.0000771  5.6484000  1
  18185  18207  18191  18195     1  180.0000771  3.5564000  2
  18185  18207  18191  18195     1  0.0000000  0.4184000  3
  18185  18207  18191  18190     1  180.0000771  0.4184000  2
  18185  18207  18191  18190     1  0.0000000  1.6024720  3
  18186  18189  18190  18191     1  180.0000771  0.8368000  1
  18186  18189  18190  18191     1  180.0000771  1.0460000  2
  18186  18189  18190  18191     1  0.0000000  0.7531200  3
  18186  18189  18190  18196     1  0.0000000  0.6508444  3
  18186  18185  18199  18205     1  0.0000000  0.6508444  3
  18186  18185  18207  18191     1  180.0000771  0.4184000  2
  18186  18185  18207  18191     1  0.0000000  1.6024720  3
  18189  18190  18191  18195     1  0.0000000  0.6508444  3
  18189  18190  18191  18207     1  0.0000000  0.6508444  3
  18189  18186  18185  18199     1  180.0000771  0.8368000  1
  18189  18186  18185  18199     1  180.0000771  1.0460000  2
  18189  18186  18185  18199     1  0.0000000  0.7531200  3
  18189  18186  18185  18207     1  0.0000000  0.6508444  3
  18190  18189  18186  18198     1  0.0000000  0.6508444  3
  18191  18207  18185  18199     1  180.0000771  0.4184000  2
  18191  18207  18185  18199     1  0.0000000  1.6024720  3
  18191  18190  18189  18197     1  0.0000000  0.6508444  3
  18195  18191  18190  18196     1  0.0000000  4.9162000  2
  18195  18191  18190  18196     1  0.0000000  0.6024960  3
  18196  18190  18191  18207     1  0.0000000  4.9162000  2
  18196  18190  18191  18207     1  0.0000000  0.6024960  3
  18196  18190  18189  18197     1  0.0000000  4.9162000  2
  18196  18190  18189  18197     1  0.0000000  0.6024960  3
  18197  18189  18186  18198     1  0.0000000  4.9162000  2
  18197  18189  18186  18198     1  0.0000000  0.6024960  3
  18198  18186  18185  18199     1  0.0000000  0.6508444  3
  18198  18186  18185  18207     1  0.0000000  4.9162000  2
  18198  18186  18185  18207     1  0.0000000  0.6024960  3
  18205  18199  18185  18207     1  0.0000000  4.9162000  2
  18205  18199  18185  18207     1  0.0000000  0.6024960  3
  18208  18209  18212  18213     1  180.0000771  0.8368000  1
  18208  18209  18212  18213     1  180.0000771  1.0460000  2
  18208  18209  18212  18213     1  0.0000000  0.7531200  3
  18208  18209  18212  18220     1  0.0000000  0.6508444  3
  18208  18230  18214  18213     1  180.0000771  0.4184000  2
  18208  18230  18214  18213     1  0.0000000  1.6024720  3
  18208  18230  18214  18218     1  180.0000771  5.6484000  1
  18208  18230  18214  18218     1  180.0000771  3.5564000  2
  18208  18230  18214  18218     1  0.0000000  0.4184000  3
  18209  18208  18222  18228     1  0.0000000  0.6508444  3
  18209  18208  18230  18214     1  180.0000771  0.4184000  2
  18209  18208  18230  18214     1  0.0000000  1.6024720  3
  18209  18212  18213  18214     1  180.0000771  0.8368000  1
  18209  18212  18213  18214     1  180.0000771  1.0460000  2
  18209  18212  18213  18214     1  0.0000000  0.7531200  3
  18209  18212  18213  18219     1  0.0000000  0.6508444  3
  18212  18209  18208  18222     1  180.0000771  0.8368000  1
  18212  18209  18208  18222     1  180.0000771  1.0460000  2
  18212  18209  18208  18222     1  0.0000000  0.7531200  3
  18212  18209  18208  18230     1  0.0000000  0.6508444  3
  18212  18213  18214  18218     1  0.0000000  0.6508444  3
  18212  18213  18214  18230     1  0.0000000  0.6508444  3
  18213  18212  18209  18221     1  0.0000000  0.6508444  3
  18214  18213  18212  18220     1  0.0000000  0.6508444  3
  18214  18230  18208  18222     1  180.0000771  0.4184000  2
  18214  18230  18208  18222     1  0.0000000  1.6024720  3
  18218  18214  18213  18219     1  0.0000000  4.9162000  2
  18218  18214  18213  18219     1  0.0000000  0.6024960  3
  18219  18213  18212  18220     1  0.0000000  4.9162000  2
  18219  18213  18212  18220     1  0.0000000  0.6024960  3
  18219  18213  18214  18230     1  0.0000000  4.9162000  2
  18219  18213  18214  18230     1  0.0000000  0.6024960  3
  18220  18212  18209  18221     1  0.0000000  4.9162000  2
  18220  18212  18209  18221     1  0.0000000  0.6024960  3
  18221  18209  18208  18222     1  0.0000000  0.6508444  3
  18221  18209  18208  18230     1  0.0000000  4.9162000  2
  18221  18209  18208  18230     1  0.0000000  0.6024960  3
  18228  18222  18208  18230     1  0.0000000  4.9162000  2
  18228  18222  18208  18230     1  0.0000000  0.6024960  3
  18231  18232  18235  18236     1  180.0000771  0.8368000  1
  18231  18232  18235  18236     1  180.0000771  1.0460000  2
  18231  18232  18235  18236     1  0.0000000  0.7531200  3
  18231  18232  18235  18243     1  0.0000000  0.6508444  3
  18231  18253  18237  18241     1  180.0000771  5.6484000  1
  18231  18253  18237  18241     1  180.0000771  3.5564000  2
  18231  18253  18237  18241     1  0.0000000  0.4184000  3
  18231  18253  18237  18236     1  180.0000771  0.4184000  2
  18231  18253  18237  18236     1  0.0000000  1.6024720  3
  18232  18235  18236  18237     1  180.0000771  0.8368000  1
  18232  18235  18236  18237     1  180.0000771  1.0460000  2
  18232  18235  18236  18237     1  0.0000000  0.7531200  3
  18232  18235  18236  18242     1  0.0000000  0.6508444  3
  18232  18231  18245  18251     1  0.0000000  0.6508444  3
  18232  18231  18253  18237     1  180.0000771  0.4184000  2
  18232  18231  18253  18237     1  0.0000000  1.6024720  3
  18235  18236  18237  18241     1  0.0000000  0.6508444  3
  18235  18236  18237  18253     1  0.0000000  0.6508444  3
  18235  18232  18231  18245     1  180.0000771  0.8368000  1
  18235  18232  18231  18245     1  180.0000771  1.0460000  2
  18235  18232  18231  18245     1  0.0000000  0.7531200  3
  18235  18232  18231  18253     1  0.0000000  0.6508444  3
  18236  18235  18232  18244     1  0.0000000  0.6508444  3
  18237  18253  18231  18245     1  180.0000771  0.4184000  2
  18237  18253  18231  18245     1  0.0000000  1.6024720  3
  18237  18236  18235  18243     1  0.0000000  0.6508444  3
  18241  18237  18236  18242     1  0.0000000  4.9162000  2
  18241  18237  18236  18242     1  0.0000000  0.6024960  3
  18242  18236  18237  18253     1  0.0000000  4.9162000  2
  18242  18236  18237  18253     1  0.0000000  0.6024960  3
  18242  18236  18235  18243     1  0.0000000  4.9162000  2
  18242  18236  18235  18243     1  0.0000000  0.6024960  3
  18243  18235  18232  18244     1  0.0000000  4.9162000  2
  18243  18235  18232  18244     1  0.0000000  0.6024960  3
  18244  18232  18231  18245     1  0.0000000  0.6508444  3
  18244  18232  18231  18253     1  0.0000000  4.9162000  2
  18244  18232  18231  18253     1  0.0000000  0.6024960  3
  18251  18245  18231  18253     1  0.0000000  4.9162000  2
  18251  18245  18231  18253     1  0.0000000  0.6024960  3
  18254  18255  18258  18259     1  180.0000771  0.8368000  1
  18254  18255  18258  18259     1  180.0000771  1.0460000  2
  18254  18255  18258  18259     1  0.0000000  0.7531200  3
  18254  18255  18258  18266     1  0.0000000  0.6508444  3
  18254  18276  18260  18259     1  180.0000771  0.4184000  2
  18254  18276  18260  18259     1  0.0000000  1.6024720  3
  18254  18276  18260  18264     1  180.0000771  5.6484000  1
  18254  18276  18260  18264     1  180.0000771  3.5564000  2
  18254  18276  18260  18264     1  0.0000000  0.4184000  3
  18255  18254  18268  18274     1  0.0000000  0.6508444  3
  18255  18254  18276  18260     1  180.0000771  0.4184000  2
  18255  18254  18276  18260     1  0.0000000  1.6024720  3
  18255  18258  18259  18260     1  180.0000771  0.8368000  1
  18255  18258  18259  18260     1  180.0000771  1.0460000  2
  18255  18258  18259  18260     1  0.0000000  0.7531200  3
  18255  18258  18259  18265     1  0.0000000  0.6508444  3
  18258  18255  18254  18268     1  180.0000771  0.8368000  1
  18258  18255  18254  18268     1  180.0000771  1.0460000  2
  18258  18255  18254  18268     1  0.0000000  0.7531200  3
  18258  18255  18254  18276     1  0.0000000  0.6508444  3
  18258  18259  18260  18264     1  0.0000000  0.6508444  3
  18258  18259  18260  18276     1  0.0000000  0.6508444  3
  18259  18258  18255  18267     1  0.0000000  0.6508444  3
  18260  18259  18258  18266     1  0.0000000  0.6508444  3
  18260  18276  18254  18268     1  180.0000771  0.4184000  2
  18260  18276  18254  18268     1  0.0000000  1.6024720  3
  18264  18260  18259  18265     1  0.0000000  4.9162000  2
  18264  18260  18259  18265     1  0.0000000  0.6024960  3
  18265  18259  18258  18266     1  0.0000000  4.9162000  2
  18265  18259  18258  18266     1  0.0000000  0.6024960  3
  18265  18259  18260  18276     1  0.0000000  4.9162000  2
  18265  18259  18260  18276     1  0.0000000  0.6024960  3
  18266  18258  18255  18267     1  0.0000000  4.9162000  2
  18266  18258  18255  18267     1  0.0000000  0.6024960  3
  18267  18255  18254  18268     1  0.0000000  0.6508444  3
  18267  18255  18254  18276     1  0.0000000  4.9162000  2
  18267  18255  18254  18276     1  0.0000000  0.6024960  3
  18274  18268  18254  18276     1  0.0000000  4.9162000  2
  18274  18268  18254  18276     1  0.0000000  0.6024960  3
  18277  18278  18281  18282     1  180.0000771  0.8368000  1
  18277  18278  18281  18282     1  180.0000771  1.0460000  2
  18277  18278  18281  18282     1  0.0000000  0.7531200  3
  18277  18278  18281  18289     1  0.0000000  0.6508444  3
  18277  18299  18283  18287     1  180.0000771  5.6484000  1
  18277  18299  18283  18287     1  180.0000771  3.5564000  2
  18277  18299  18283  18287     1  0.0000000  0.4184000  3
  18277  18299  18283  18282     1  180.0000771  0.4184000  2
  18277  18299  18283  18282     1  0.0000000  1.6024720  3
  18278  18281  18282  18283     1  180.0000771  0.8368000  1
  18278  18281  18282  18283     1  180.0000771  1.0460000  2
  18278  18281  18282  18283     1  0.0000000  0.7531200  3
  18278  18281  18282  18288     1  0.0000000  0.6508444  3
  18278  18277  18291  18297     1  0.0000000  0.6508444  3
  18278  18277  18299  18283     1  180.0000771  0.4184000  2
  18278  18277  18299  18283     1  0.0000000  1.6024720  3
  18281  18282  18283  18287     1  0.0000000  0.6508444  3
  18281  18282  18283  18299     1  0.0000000  0.6508444  3
  18281  18278  18277  18291     1  180.0000771  0.8368000  1
  18281  18278  18277  18291     1  180.0000771  1.0460000  2
  18281  18278  18277  18291     1  0.0000000  0.7531200  3
  18281  18278  18277  18299     1  0.0000000  0.6508444  3
  18282  18281  18278  18290     1  0.0000000  0.6508444  3
  18283  18299  18277  18291     1  180.0000771  0.4184000  2
  18283  18299  18277  18291     1  0.0000000  1.6024720  3
  18283  18282  18281  18289     1  0.0000000  0.6508444  3
  18287  18283  18282  18288     1  0.0000000  4.9162000  2
  18287  18283  18282  18288     1  0.0000000  0.6024960  3
  18288  18282  18283  18299     1  0.0000000  4.9162000  2
  18288  18282  18283  18299     1  0.0000000  0.6024960  3
  18288  18282  18281  18289     1  0.0000000  4.9162000  2
  18288  18282  18281  18289     1  0.0000000  0.6024960  3
  18289  18281  18278  18290     1  0.0000000  4.9162000  2
  18289  18281  18278  18290     1  0.0000000  0.6024960  3
  18290  18278  18277  18291     1  0.0000000  0.6508444  3
  18290  18278  18277  18299     1  0.0000000  4.9162000  2
  18290  18278  18277  18299     1  0.0000000  0.6024960  3
  18297  18291  18277  18299     1  0.0000000  4.9162000  2
  18297  18291  18277  18299     1  0.0000000  0.6024960  3
  18300  18301  18304  18305     1  180.0000771  0.8368000  1
  18300  18301  18304  18305     1  180.0000771  1.0460000  2
  18300  18301  18304  18305     1  0.0000000  0.7531200  3
  18300  18301  18304  18312     1  0.0000000  0.6508444  3
  18300  18322  18306  18305     1  180.0000771  0.4184000  2
  18300  18322  18306  18305     1  0.0000000  1.6024720  3
  18300  18322  18306  18310     1  180.0000771  5.6484000  1
  18300  18322  18306  18310     1  180.0000771  3.5564000  2
  18300  18322  18306  18310     1  0.0000000  0.4184000  3
  18301  18300  18314  18320     1  0.0000000  0.6508444  3
  18301  18300  18322  18306     1  180.0000771  0.4184000  2
  18301  18300  18322  18306     1  0.0000000  1.6024720  3
  18301  18304  18305  18306     1  180.0000771  0.8368000  1
  18301  18304  18305  18306     1  180.0000771  1.0460000  2
  18301  18304  18305  18306     1  0.0000000  0.7531200  3
  18301  18304  18305  18311     1  0.0000000  0.6508444  3
  18304  18301  18300  18314     1  180.0000771  0.8368000  1
  18304  18301  18300  18314     1  180.0000771  1.0460000  2
  18304  18301  18300  18314     1  0.0000000  0.7531200  3
  18304  18301  18300  18322     1  0.0000000  0.6508444  3
  18304  18305  18306  18310     1  0.0000000  0.6508444  3
  18304  18305  18306  18322     1  0.0000000  0.6508444  3
  18305  18304  18301  18313     1  0.0000000  0.6508444  3
  18306  18305  18304  18312     1  0.0000000  0.6508444  3
  18306  18322  18300  18314     1  180.0000771  0.4184000  2
  18306  18322  18300  18314     1  0.0000000  1.6024720  3
  18310  18306  18305  18311     1  0.0000000  4.9162000  2
  18310  18306  18305  18311     1  0.0000000  0.6024960  3
  18311  18305  18304  18312     1  0.0000000  4.9162000  2
  18311  18305  18304  18312     1  0.0000000  0.6024960  3
  18311  18305  18306  18322     1  0.0000000  4.9162000  2
  18311  18305  18306  18322     1  0.0000000  0.6024960  3
  18312  18304  18301  18313     1  0.0000000  4.9162000  2
  18312  18304  18301  18313     1  0.0000000  0.6024960  3
  18313  18301  18300  18314     1  0.0000000  0.6508444  3
  18313  18301  18300  18322     1  0.0000000  4.9162000  2
  18313  18301  18300  18322     1  0.0000000  0.6024960  3
  18320  18314  18300  18322     1  0.0000000  4.9162000  2
  18320  18314  18300  18322     1  0.0000000  0.6024960  3
  18323  18324  18327  18328     1  180.0000771  0.8368000  1
  18323  18324  18327  18328     1  180.0000771  1.0460000  2
  18323  18324  18327  18328     1  0.0000000  0.7531200  3
  18323  18324  18327  18335     1  0.0000000  0.6508444  3
  18323  18345  18329  18333     1  180.0000771  5.6484000  1
  18323  18345  18329  18333     1  180.0000771  3.5564000  2
  18323  18345  18329  18333     1  0.0000000  0.4184000  3
  18323  18345  18329  18328     1  180.0000771  0.4184000  2
  18323  18345  18329  18328     1  0.0000000  1.6024720  3
  18324  18327  18328  18329     1  180.0000771  0.8368000  1
  18324  18327  18328  18329     1  180.0000771  1.0460000  2
  18324  18327  18328  18329     1  0.0000000  0.7531200  3
  18324  18327  18328  18334     1  0.0000000  0.6508444  3
  18324  18323  18337  18343     1  0.0000000  0.6508444  3
  18324  18323  18345  18329     1  180.0000771  0.4184000  2
  18324  18323  18345  18329     1  0.0000000  1.6024720  3
  18327  18328  18329  18333     1  0.0000000  0.6508444  3
  18327  18328  18329  18345     1  0.0000000  0.6508444  3
  18327  18324  18323  18337     1  180.0000771  0.8368000  1
  18327  18324  18323  18337     1  180.0000771  1.0460000  2
  18327  18324  18323  18337     1  0.0000000  0.7531200  3
  18327  18324  18323  18345     1  0.0000000  0.6508444  3
  18328  18327  18324  18336     1  0.0000000  0.6508444  3
  18329  18345  18323  18337     1  180.0000771  0.4184000  2
  18329  18345  18323  18337     1  0.0000000  1.6024720  3
  18329  18328  18327  18335     1  0.0000000  0.6508444  3
  18333  18329  18328  18334     1  0.0000000  4.9162000  2
  18333  18329  18328  18334     1  0.0000000  0.6024960  3
  18334  18328  18329  18345     1  0.0000000  4.9162000  2
  18334  18328  18329  18345     1  0.0000000  0.6024960  3
  18334  18328  18327  18335     1  0.0000000  4.9162000  2
  18334  18328  18327  18335     1  0.0000000  0.6024960  3
  18335  18327  18324  18336     1  0.0000000  4.9162000  2
  18335  18327  18324  18336     1  0.0000000  0.6024960  3
  18336  18324  18323  18337     1  0.0000000  0.6508444  3
  18336  18324  18323  18345     1  0.0000000  4.9162000  2
  18336  18324  18323  18345     1  0.0000000  0.6024960  3
  18343  18337  18323  18345     1  0.0000000  4.9162000  2
  18343  18337  18323  18345     1  0.0000000  0.6024960  3
  18346  18347  18350  18351     1  180.0000771  0.8368000  1
  18346  18347  18350  18351     1  180.0000771  1.0460000  2
  18346  18347  18350  18351     1  0.0000000  0.7531200  3
  18346  18347  18350  18358     1  0.0000000  0.6508444  3
  18346  18368  18352  18351     1  180.0000771  0.4184000  2
  18346  18368  18352  18351     1  0.0000000  1.6024720  3
  18346  18368  18352  18356     1  180.0000771  5.6484000  1
  18346  18368  18352  18356     1  180.0000771  3.5564000  2
  18346  18368  18352  18356     1  0.0000000  0.4184000  3
  18347  18346  18360  18366     1  0.0000000  0.6508444  3
  18347  18346  18368  18352     1  180.0000771  0.4184000  2
  18347  18346  18368  18352     1  0.0000000  1.6024720  3
  18347  18350  18351  18352     1  180.0000771  0.8368000  1
  18347  18350  18351  18352     1  180.0000771  1.0460000  2
  18347  18350  18351  18352     1  0.0000000  0.7531200  3
  18347  18350  18351  18357     1  0.0000000  0.6508444  3
  18350  18347  18346  18360     1  180.0000771  0.8368000  1
  18350  18347  18346  18360     1  180.0000771  1.0460000  2
  18350  18347  18346  18360     1  0.0000000  0.7531200  3
  18350  18347  18346  18368     1  0.0000000  0.6508444  3
  18350  18351  18352  18356     1  0.0000000  0.6508444  3
  18350  18351  18352  18368     1  0.0000000  0.6508444  3
  18351  18350  18347  18359     1  0.0000000  0.6508444  3
  18352  18351  18350  18358     1  0.0000000  0.6508444  3
  18352  18368  18346  18360     1  180.0000771  0.4184000  2
  18352  18368  18346  18360     1  0.0000000  1.6024720  3
  18356  18352  18351  18357     1  0.0000000  4.9162000  2
  18356  18352  18351  18357     1  0.0000000  0.6024960  3
  18357  18351  18350  18358     1  0.0000000  4.9162000  2
  18357  18351  18350  18358     1  0.0000000  0.6024960  3
  18357  18351  18352  18368     1  0.0000000  4.9162000  2
  18357  18351  18352  18368     1  0.0000000  0.6024960  3
  18358  18350  18347  18359     1  0.0000000  4.9162000  2
  18358  18350  18347  18359     1  0.0000000  0.6024960  3
  18359  18347  18346  18360     1  0.0000000  0.6508444  3
  18359  18347  18346  18368     1  0.0000000  4.9162000  2
  18359  18347  18346  18368     1  0.0000000  0.6024960  3
  18366  18360  18346  18368     1  0.0000000  4.9162000  2
  18366  18360  18346  18368     1  0.0000000  0.6024960  3
  18369  18370  18373  18374     1  180.0000771  0.8368000  1
  18369  18370  18373  18374     1  180.0000771  1.0460000  2
  18369  18370  18373  18374     1  0.0000000  0.7531200  3
  18369  18370  18373  18381     1  0.0000000  0.6508444  3
  18369  18391  18375  18379     1  180.0000771  5.6484000  1
  18369  18391  18375  18379     1  180.0000771  3.5564000  2
  18369  18391  18375  18379     1  0.0000000  0.4184000  3
  18369  18391  18375  18374     1  180.0000771  0.4184000  2
  18369  18391  18375  18374     1  0.0000000  1.6024720  3
  18370  18373  18374  18375     1  180.0000771  0.8368000  1
  18370  18373  18374  18375     1  180.0000771  1.0460000  2
  18370  18373  18374  18375     1  0.0000000  0.7531200  3
  18370  18373  18374  18380     1  0.0000000  0.6508444  3
  18370  18369  18383  18389     1  0.0000000  0.6508444  3
  18370  18369  18391  18375     1  180.0000771  0.4184000  2
  18370  18369  18391  18375     1  0.0000000  1.6024720  3
  18373  18374  18375  18379     1  0.0000000  0.6508444  3
  18373  18374  18375  18391     1  0.0000000  0.6508444  3
  18373  18370  18369  18383     1  180.0000771  0.8368000  1
  18373  18370  18369  18383     1  180.0000771  1.0460000  2
  18373  18370  18369  18383     1  0.0000000  0.7531200  3
  18373  18370  18369  18391     1  0.0000000  0.6508444  3
  18374  18373  18370  18382     1  0.0000000  0.6508444  3
  18375  18391  18369  18383     1  180.0000771  0.4184000  2
  18375  18391  18369  18383     1  0.0000000  1.6024720  3
  18375  18374  18373  18381     1  0.0000000  0.6508444  3
  18379  18375  18374  18380     1  0.0000000  4.9162000  2
  18379  18375  18374  18380     1  0.0000000  0.6024960  3
  18380  18374  18375  18391     1  0.0000000  4.9162000  2
  18380  18374  18375  18391     1  0.0000000  0.6024960  3
  18380  18374  18373  18381     1  0.0000000  4.9162000  2
  18380  18374  18373  18381     1  0.0000000  0.6024960  3
  18381  18373  18370  18382     1  0.0000000  4.9162000  2
  18381  18373  18370  18382     1  0.0000000  0.6024960  3
  18382  18370  18369  18383     1  0.0000000  0.6508444  3
  18382  18370  18369  18391     1  0.0000000  4.9162000  2
  18382  18370  18369  18391     1  0.0000000  0.6024960  3
  18389  18383  18369  18391     1  0.0000000  4.9162000  2
  18389  18383  18369  18391     1  0.0000000  0.6024960  3
  18392  18393  18396  18397     1  180.0000771  0.8368000  1
  18392  18393  18396  18397     1  180.0000771  1.0460000  2
  18392  18393  18396  18397     1  0.0000000  0.7531200  3
  18392  18393  18396  18404     1  0.0000000  0.6508444  3
  18392  18414  18398  18397     1  180.0000771  0.4184000  2
  18392  18414  18398  18397     1  0.0000000  1.6024720  3
  18392  18414  18398  18402     1  180.0000771  5.6484000  1
  18392  18414  18398  18402     1  180.0000771  3.5564000  2
  18392  18414  18398  18402     1  0.0000000  0.4184000  3
  18393  18392  18406  18412     1  0.0000000  0.6508444  3
  18393  18392  18414  18398     1  180.0000771  0.4184000  2
  18393  18392  18414  18398     1  0.0000000  1.6024720  3
  18393  18396  18397  18398     1  180.0000771  0.8368000  1
  18393  18396  18397  18398     1  180.0000771  1.0460000  2
  18393  18396  18397  18398     1  0.0000000  0.7531200  3
  18393  18396  18397  18403     1  0.0000000  0.6508444  3
  18396  18393  18392  18406     1  180.0000771  0.8368000  1
  18396  18393  18392  18406     1  180.0000771  1.0460000  2
  18396  18393  18392  18406     1  0.0000000  0.7531200  3
  18396  18393  18392  18414     1  0.0000000  0.6508444  3
  18396  18397  18398  18402     1  0.0000000  0.6508444  3
  18396  18397  18398  18414     1  0.0000000  0.6508444  3
  18397  18396  18393  18405     1  0.0000000  0.6508444  3
  18398  18397  18396  18404     1  0.0000000  0.6508444  3
  18398  18414  18392  18406     1  180.0000771  0.4184000  2
  18398  18414  18392  18406     1  0.0000000  1.6024720  3
  18402  18398  18397  18403     1  0.0000000  4.9162000  2
  18402  18398  18397  18403     1  0.0000000  0.6024960  3
  18403  18397  18396  18404     1  0.0000000  4.9162000  2
  18403  18397  18396  18404     1  0.0000000  0.6024960  3
  18403  18397  18398  18414     1  0.0000000  4.9162000  2
  18403  18397  18398  18414     1  0.0000000  0.6024960  3
  18404  18396  18393  18405     1  0.0000000  4.9162000  2
  18404  18396  18393  18405     1  0.0000000  0.6024960  3
  18405  18393  18392  18406     1  0.0000000  0.6508444  3
  18405  18393  18392  18414     1  0.0000000  4.9162000  2
  18405  18393  18392  18414     1  0.0000000  0.6024960  3
  18412  18406  18392  18414     1  0.0000000  4.9162000  2
  18412  18406  18392  18414     1  0.0000000  0.6024960  3
  18415  18416  18419  18420     1  180.0000771  0.8368000  1
  18415  18416  18419  18420     1  180.0000771  1.0460000  2
  18415  18416  18419  18420     1  0.0000000  0.7531200  3
  18415  18416  18419  18427     1  0.0000000  0.6508444  3
  18415  18437  18421  18425     1  180.0000771  5.6484000  1
  18415  18437  18421  18425     1  180.0000771  3.5564000  2
  18415  18437  18421  18425     1  0.0000000  0.4184000  3
  18415  18437  18421  18420     1  180.0000771  0.4184000  2
  18415  18437  18421  18420     1  0.0000000  1.6024720  3
  18416  18419  18420  18421     1  180.0000771  0.8368000  1
  18416  18419  18420  18421     1  180.0000771  1.0460000  2
  18416  18419  18420  18421     1  0.0000000  0.7531200  3
  18416  18419  18420  18426     1  0.0000000  0.6508444  3
  18416  18415  18429  18435     1  0.0000000  0.6508444  3
  18416  18415  18437  18421     1  180.0000771  0.4184000  2
  18416  18415  18437  18421     1  0.0000000  1.6024720  3
  18419  18420  18421  18425     1  0.0000000  0.6508444  3
  18419  18420  18421  18437     1  0.0000000  0.6508444  3
  18419  18416  18415  18429     1  180.0000771  0.8368000  1
  18419  18416  18415  18429     1  180.0000771  1.0460000  2
  18419  18416  18415  18429     1  0.0000000  0.7531200  3
  18419  18416  18415  18437     1  0.0000000  0.6508444  3
  18420  18419  18416  18428     1  0.0000000  0.6508444  3
  18421  18437  18415  18429     1  180.0000771  0.4184000  2
  18421  18437  18415  18429     1  0.0000000  1.6024720  3
  18421  18420  18419  18427     1  0.0000000  0.6508444  3
  18425  18421  18420  18426     1  0.0000000  4.9162000  2
  18425  18421  18420  18426     1  0.0000000  0.6024960  3
  18426  18420  18421  18437     1  0.0000000  4.9162000  2
  18426  18420  18421  18437     1  0.0000000  0.6024960  3
  18426  18420  18419  18427     1  0.0000000  4.9162000  2
  18426  18420  18419  18427     1  0.0000000  0.6024960  3
  18427  18419  18416  18428     1  0.0000000  4.9162000  2
  18427  18419  18416  18428     1  0.0000000  0.6024960  3
  18428  18416  18415  18429     1  0.0000000  0.6508444  3
  18428  18416  18415  18437     1  0.0000000  4.9162000  2
  18428  18416  18415  18437     1  0.0000000  0.6024960  3
  18435  18429  18415  18437     1  0.0000000  4.9162000  2
  18435  18429  18415  18437     1  0.0000000  0.6024960  3
  18438  18439  18442  18443     1  180.0000771  0.8368000  1
  18438  18439  18442  18443     1  180.0000771  1.0460000  2
  18438  18439  18442  18443     1  0.0000000  0.7531200  3
  18438  18439  18442  18450     1  0.0000000  0.6508444  3
  18438  18460  18444  18443     1  180.0000771  0.4184000  2
  18438  18460  18444  18443     1  0.0000000  1.6024720  3
  18438  18460  18444  18448     1  180.0000771  5.6484000  1
  18438  18460  18444  18448     1  180.0000771  3.5564000  2
  18438  18460  18444  18448     1  0.0000000  0.4184000  3
  18439  18438  18452  18458     1  0.0000000  0.6508444  3
  18439  18438  18460  18444     1  180.0000771  0.4184000  2
  18439  18438  18460  18444     1  0.0000000  1.6024720  3
  18439  18442  18443  18444     1  180.0000771  0.8368000  1
  18439  18442  18443  18444     1  180.0000771  1.0460000  2
  18439  18442  18443  18444     1  0.0000000  0.7531200  3
  18439  18442  18443  18449     1  0.0000000  0.6508444  3
  18442  18439  18438  18452     1  180.0000771  0.8368000  1
  18442  18439  18438  18452     1  180.0000771  1.0460000  2
  18442  18439  18438  18452     1  0.0000000  0.7531200  3
  18442  18439  18438  18460     1  0.0000000  0.6508444  3
  18442  18443  18444  18448     1  0.0000000  0.6508444  3
  18442  18443  18444  18460     1  0.0000000  0.6508444  3
  18443  18442  18439  18451     1  0.0000000  0.6508444  3
  18444  18443  18442  18450     1  0.0000000  0.6508444  3
  18444  18460  18438  18452     1  180.0000771  0.4184000  2
  18444  18460  18438  18452     1  0.0000000  1.6024720  3
  18448  18444  18443  18449     1  0.0000000  4.9162000  2
  18448  18444  18443  18449     1  0.0000000  0.6024960  3
  18449  18443  18442  18450     1  0.0000000  4.9162000  2
  18449  18443  18442  18450     1  0.0000000  0.6024960  3
  18449  18443  18444  18460     1  0.0000000  4.9162000  2
  18449  18443  18444  18460     1  0.0000000  0.6024960  3
  18450  18442  18439  18451     1  0.0000000  4.9162000  2
  18450  18442  18439  18451     1  0.0000000  0.6024960  3
  18451  18439  18438  18452     1  0.0000000  0.6508444  3
  18451  18439  18438  18460     1  0.0000000  4.9162000  2
  18451  18439  18438  18460     1  0.0000000  0.6024960  3
  18458  18452  18438  18460     1  0.0000000  4.9162000  2
  18458  18452  18438  18460     1  0.0000000  0.6024960  3
  18461  18462  18465  18466     1  180.0000771  0.8368000  1
  18461  18462  18465  18466     1  180.0000771  1.0460000  2
  18461  18462  18465  18466     1  0.0000000  0.7531200  3
  18461  18462  18465  18473     1  0.0000000  0.6508444  3
  18461  18483  18467  18471     1  180.0000771  5.6484000  1
  18461  18483  18467  18471     1  180.0000771  3.5564000  2
  18461  18483  18467  18471     1  0.0000000  0.4184000  3
  18461  18483  18467  18466     1  180.0000771  0.4184000  2
  18461  18483  18467  18466     1  0.0000000  1.6024720  3
  18462  18465  18466  18467     1  180.0000771  0.8368000  1
  18462  18465  18466  18467     1  180.0000771  1.0460000  2
  18462  18465  18466  18467     1  0.0000000  0.7531200  3
  18462  18465  18466  18472     1  0.0000000  0.6508444  3
  18462  18461  18475  18481     1  0.0000000  0.6508444  3
  18462  18461  18483  18467     1  180.0000771  0.4184000  2
  18462  18461  18483  18467     1  0.0000000  1.6024720  3
  18465  18466  18467  18471     1  0.0000000  0.6508444  3
  18465  18466  18467  18483     1  0.0000000  0.6508444  3
  18465  18462  18461  18475     1  180.0000771  0.8368000  1
  18465  18462  18461  18475     1  180.0000771  1.0460000  2
  18465  18462  18461  18475     1  0.0000000  0.7531200  3
  18465  18462  18461  18483     1  0.0000000  0.6508444  3
  18466  18465  18462  18474     1  0.0000000  0.6508444  3
  18467  18483  18461  18475     1  180.0000771  0.4184000  2
  18467  18483  18461  18475     1  0.0000000  1.6024720  3
  18467  18466  18465  18473     1  0.0000000  0.6508444  3
  18471  18467  18466  18472     1  0.0000000  4.9162000  2
  18471  18467  18466  18472     1  0.0000000  0.6024960  3
  18472  18466  18467  18483     1  0.0000000  4.9162000  2
  18472  18466  18467  18483     1  0.0000000  0.6024960  3
  18472  18466  18465  18473     1  0.0000000  4.9162000  2
  18472  18466  18465  18473     1  0.0000000  0.6024960  3
  18473  18465  18462  18474     1  0.0000000  4.9162000  2
  18473  18465  18462  18474     1  0.0000000  0.6024960  3
  18474  18462  18461  18475     1  0.0000000  0.6508444  3
  18474  18462  18461  18483     1  0.0000000  4.9162000  2
  18474  18462  18461  18483     1  0.0000000  0.6024960  3
  18481  18475  18461  18483     1  0.0000000  4.9162000  2
  18481  18475  18461  18483     1  0.0000000  0.6024960  3
  18484  18485  18488  18489     1  180.0000771  0.8368000  1
  18484  18485  18488  18489     1  180.0000771  1.0460000  2
  18484  18485  18488  18489     1  0.0000000  0.7531200  3
  18484  18485  18488  18496     1  0.0000000  0.6508444  3
  18484  18506  18490  18489     1  180.0000771  0.4184000  2
  18484  18506  18490  18489     1  0.0000000  1.6024720  3
  18484  18506  18490  18494     1  180.0000771  5.6484000  1
  18484  18506  18490  18494     1  180.0000771  3.5564000  2
  18484  18506  18490  18494     1  0.0000000  0.4184000  3
  18485  18484  18498  18504     1  0.0000000  0.6508444  3
  18485  18484  18506  18490     1  180.0000771  0.4184000  2
  18485  18484  18506  18490     1  0.0000000  1.6024720  3
  18485  18488  18489  18490     1  180.0000771  0.8368000  1
  18485  18488  18489  18490     1  180.0000771  1.0460000  2
  18485  18488  18489  18490     1  0.0000000  0.7531200  3
  18485  18488  18489  18495     1  0.0000000  0.6508444  3
  18488  18485  18484  18498     1  180.0000771  0.8368000  1
  18488  18485  18484  18498     1  180.0000771  1.0460000  2
  18488  18485  18484  18498     1  0.0000000  0.7531200  3
  18488  18485  18484  18506     1  0.0000000  0.6508444  3
  18488  18489  18490  18494     1  0.0000000  0.6508444  3
  18488  18489  18490  18506     1  0.0000000  0.6508444  3
  18489  18488  18485  18497     1  0.0000000  0.6508444  3
  18490  18489  18488  18496     1  0.0000000  0.6508444  3
  18490  18506  18484  18498     1  180.0000771  0.4184000  2
  18490  18506  18484  18498     1  0.0000000  1.6024720  3
  18494  18490  18489  18495     1  0.0000000  4.9162000  2
  18494  18490  18489  18495     1  0.0000000  0.6024960  3
  18495  18489  18488  18496     1  0.0000000  4.9162000  2
  18495  18489  18488  18496     1  0.0000000  0.6024960  3
  18495  18489  18490  18506     1  0.0000000  4.9162000  2
  18495  18489  18490  18506     1  0.0000000  0.6024960  3
  18496  18488  18485  18497     1  0.0000000  4.9162000  2
  18496  18488  18485  18497     1  0.0000000  0.6024960  3
  18497  18485  18484  18498     1  0.0000000  0.6508444  3
  18497  18485  18484  18506     1  0.0000000  4.9162000  2
  18497  18485  18484  18506     1  0.0000000  0.6024960  3
  18504  18498  18484  18506     1  0.0000000  4.9162000  2
  18504  18498  18484  18506     1  0.0000000  0.6024960  3
  18507  18508  18511  18512     1  180.0000771  0.8368000  1
  18507  18508  18511  18512     1  180.0000771  1.0460000  2
  18507  18508  18511  18512     1  0.0000000  0.7531200  3
  18507  18508  18511  18519     1  0.0000000  0.6508444  3
  18507  18529  18513  18517     1  180.0000771  5.6484000  1
  18507  18529  18513  18517     1  180.0000771  3.5564000  2
  18507  18529  18513  18517     1  0.0000000  0.4184000  3
  18507  18529  18513  18512     1  180.0000771  0.4184000  2
  18507  18529  18513  18512     1  0.0000000  1.6024720  3
  18508  18511  18512  18513     1  180.0000771  0.8368000  1
  18508  18511  18512  18513     1  180.0000771  1.0460000  2
  18508  18511  18512  18513     1  0.0000000  0.7531200  3
  18508  18511  18512  18518     1  0.0000000  0.6508444  3
  18508  18507  18521  18527     1  0.0000000  0.6508444  3
  18508  18507  18529  18513     1  180.0000771  0.4184000  2
  18508  18507  18529  18513     1  0.0000000  1.6024720  3
  18511  18512  18513  18517     1  0.0000000  0.6508444  3
  18511  18512  18513  18529     1  0.0000000  0.6508444  3
  18511  18508  18507  18521     1  180.0000771  0.8368000  1
  18511  18508  18507  18521     1  180.0000771  1.0460000  2
  18511  18508  18507  18521     1  0.0000000  0.7531200  3
  18511  18508  18507  18529     1  0.0000000  0.6508444  3
  18512  18511  18508  18520     1  0.0000000  0.6508444  3
  18513  18529  18507  18521     1  180.0000771  0.4184000  2
  18513  18529  18507  18521     1  0.0000000  1.6024720  3
  18513  18512  18511  18519     1  0.0000000  0.6508444  3
  18517  18513  18512  18518     1  0.0000000  4.9162000  2
  18517  18513  18512  18518     1  0.0000000  0.6024960  3
  18518  18512  18513  18529     1  0.0000000  4.9162000  2
  18518  18512  18513  18529     1  0.0000000  0.6024960  3
  18518  18512  18511  18519     1  0.0000000  4.9162000  2
  18518  18512  18511  18519     1  0.0000000  0.6024960  3
  18519  18511  18508  18520     1  0.0000000  4.9162000  2
  18519  18511  18508  18520     1  0.0000000  0.6024960  3
  18520  18508  18507  18521     1  0.0000000  0.6508444  3
  18520  18508  18507  18529     1  0.0000000  4.9162000  2
  18520  18508  18507  18529     1  0.0000000  0.6024960  3
  18527  18521  18507  18529     1  0.0000000  4.9162000  2
  18527  18521  18507  18529     1  0.0000000  0.6024960  3
  18530  18531  18534  18535     1  180.0000771  0.8368000  1
  18530  18531  18534  18535     1  180.0000771  1.0460000  2
  18530  18531  18534  18535     1  0.0000000  0.7531200  3
  18530  18531  18534  18542     1  0.0000000  0.6508444  3
  18530  18552  18536  18535     1  180.0000771  0.4184000  2
  18530  18552  18536  18535     1  0.0000000  1.6024720  3
  18530  18552  18536  18540     1  180.0000771  5.6484000  1
  18530  18552  18536  18540     1  180.0000771  3.5564000  2
  18530  18552  18536  18540     1  0.0000000  0.4184000  3
  18531  18530  18544  18550     1  0.0000000  0.6508444  3
  18531  18530  18552  18536     1  180.0000771  0.4184000  2
  18531  18530  18552  18536     1  0.0000000  1.6024720  3
  18531  18534  18535  18536     1  180.0000771  0.8368000  1
  18531  18534  18535  18536     1  180.0000771  1.0460000  2
  18531  18534  18535  18536     1  0.0000000  0.7531200  3
  18531  18534  18535  18541     1  0.0000000  0.6508444  3
  18534  18531  18530  18544     1  180.0000771  0.8368000  1
  18534  18531  18530  18544     1  180.0000771  1.0460000  2
  18534  18531  18530  18544     1  0.0000000  0.7531200  3
  18534  18531  18530  18552     1  0.0000000  0.6508444  3
  18534  18535  18536  18540     1  0.0000000  0.6508444  3
  18534  18535  18536  18552     1  0.0000000  0.6508444  3
  18535  18534  18531  18543     1  0.0000000  0.6508444  3
  18536  18535  18534  18542     1  0.0000000  0.6508444  3
  18536  18552  18530  18544     1  180.0000771  0.4184000  2
  18536  18552  18530  18544     1  0.0000000  1.6024720  3
  18540  18536  18535  18541     1  0.0000000  4.9162000  2
  18540  18536  18535  18541     1  0.0000000  0.6024960  3
  18541  18535  18534  18542     1  0.0000000  4.9162000  2
  18541  18535  18534  18542     1  0.0000000  0.6024960  3
  18541  18535  18536  18552     1  0.0000000  4.9162000  2
  18541  18535  18536  18552     1  0.0000000  0.6024960  3
  18542  18534  18531  18543     1  0.0000000  4.9162000  2
  18542  18534  18531  18543     1  0.0000000  0.6024960  3
  18543  18531  18530  18544     1  0.0000000  0.6508444  3
  18543  18531  18530  18552     1  0.0000000  4.9162000  2
  18543  18531  18530  18552     1  0.0000000  0.6024960  3
  18550  18544  18530  18552     1  0.0000000  4.9162000  2
  18550  18544  18530  18552     1  0.0000000  0.6024960  3
  18553  18554  18557  18558     1  180.0000771  0.8368000  1
  18553  18554  18557  18558     1  180.0000771  1.0460000  2
  18553  18554  18557  18558     1  0.0000000  0.7531200  3
  18553  18554  18557  18565     1  0.0000000  0.6508444  3
  18553  18575  18559  18563     1  180.0000771  5.6484000  1
  18553  18575  18559  18563     1  180.0000771  3.5564000  2
  18553  18575  18559  18563     1  0.0000000  0.4184000  3
  18553  18575  18559  18558     1  180.0000771  0.4184000  2
  18553  18575  18559  18558     1  0.0000000  1.6024720  3
  18554  18557  18558  18559     1  180.0000771  0.8368000  1
  18554  18557  18558  18559     1  180.0000771  1.0460000  2
  18554  18557  18558  18559     1  0.0000000  0.7531200  3
  18554  18557  18558  18564     1  0.0000000  0.6508444  3
  18554  18553  18567  18573     1  0.0000000  0.6508444  3
  18554  18553  18575  18559     1  180.0000771  0.4184000  2
  18554  18553  18575  18559     1  0.0000000  1.6024720  3
  18557  18558  18559  18563     1  0.0000000  0.6508444  3
  18557  18558  18559  18575     1  0.0000000  0.6508444  3
  18557  18554  18553  18567     1  180.0000771  0.8368000  1
  18557  18554  18553  18567     1  180.0000771  1.0460000  2
  18557  18554  18553  18567     1  0.0000000  0.7531200  3
  18557  18554  18553  18575     1  0.0000000  0.6508444  3
  18558  18557  18554  18566     1  0.0000000  0.6508444  3
  18559  18575  18553  18567     1  180.0000771  0.4184000  2
  18559  18575  18553  18567     1  0.0000000  1.6024720  3
  18559  18558  18557  18565     1  0.0000000  0.6508444  3
  18563  18559  18558  18564     1  0.0000000  4.9162000  2
  18563  18559  18558  18564     1  0.0000000  0.6024960  3
  18564  18558  18559  18575     1  0.0000000  4.9162000  2
  18564  18558  18559  18575     1  0.0000000  0.6024960  3
  18564  18558  18557  18565     1  0.0000000  4.9162000  2
  18564  18558  18557  18565     1  0.0000000  0.6024960  3
  18565  18557  18554  18566     1  0.0000000  4.9162000  2
  18565  18557  18554  18566     1  0.0000000  0.6024960  3
  18566  18554  18553  18567     1  0.0000000  0.6508444  3
  18566  18554  18553  18575     1  0.0000000  4.9162000  2
  18566  18554  18553  18575     1  0.0000000  0.6024960  3
  18573  18567  18553  18575     1  0.0000000  4.9162000  2
  18573  18567  18553  18575     1  0.0000000  0.6024960  3
  18576  18577  18580  18581     1  180.0000771  0.8368000  1
  18576  18577  18580  18581     1  180.0000771  1.0460000  2
  18576  18577  18580  18581     1  0.0000000  0.7531200  3
  18576  18577  18580  18588     1  0.0000000  0.6508444  3
  18576  18598  18582  18581     1  180.0000771  0.4184000  2
  18576  18598  18582  18581     1  0.0000000  1.6024720  3
  18576  18598  18582  18586     1  180.0000771  5.6484000  1
  18576  18598  18582  18586     1  180.0000771  3.5564000  2
  18576  18598  18582  18586     1  0.0000000  0.4184000  3
  18577  18576  18590  18596     1  0.0000000  0.6508444  3
  18577  18576  18598  18582     1  180.0000771  0.4184000  2
  18577  18576  18598  18582     1  0.0000000  1.6024720  3
  18577  18580  18581  18582     1  180.0000771  0.8368000  1
  18577  18580  18581  18582     1  180.0000771  1.0460000  2
  18577  18580  18581  18582     1  0.0000000  0.7531200  3
  18577  18580  18581  18587     1  0.0000000  0.6508444  3
  18580  18577  18576  18590     1  180.0000771  0.8368000  1
  18580  18577  18576  18590     1  180.0000771  1.0460000  2
  18580  18577  18576  18590     1  0.0000000  0.7531200  3
  18580  18577  18576  18598     1  0.0000000  0.6508444  3
  18580  18581  18582  18586     1  0.0000000  0.6508444  3
  18580  18581  18582  18598     1  0.0000000  0.6508444  3
  18581  18580  18577  18589     1  0.0000000  0.6508444  3
  18582  18581  18580  18588     1  0.0000000  0.6508444  3
  18582  18598  18576  18590     1  180.0000771  0.4184000  2
  18582  18598  18576  18590     1  0.0000000  1.6024720  3
  18586  18582  18581  18587     1  0.0000000  4.9162000  2
  18586  18582  18581  18587     1  0.0000000  0.6024960  3
  18587  18581  18580  18588     1  0.0000000  4.9162000  2
  18587  18581  18580  18588     1  0.0000000  0.6024960  3
  18587  18581  18582  18598     1  0.0000000  4.9162000  2
  18587  18581  18582  18598     1  0.0000000  0.6024960  3
  18588  18580  18577  18589     1  0.0000000  4.9162000  2
  18588  18580  18577  18589     1  0.0000000  0.6024960  3
  18589  18577  18576  18590     1  0.0000000  0.6508444  3
  18589  18577  18576  18598     1  0.0000000  4.9162000  2
  18589  18577  18576  18598     1  0.0000000  0.6024960  3
  18596  18590  18576  18598     1  0.0000000  4.9162000  2
  18596  18590  18576  18598     1  0.0000000  0.6024960  3
  18599  18600  18603  18604     1  180.0000771  0.8368000  1
  18599  18600  18603  18604     1  180.0000771  1.0460000  2
  18599  18600  18603  18604     1  0.0000000  0.7531200  3
  18599  18600  18603  18611     1  0.0000000  0.6508444  3
  18599  18621  18605  18609     1  180.0000771  5.6484000  1
  18599  18621  18605  18609     1  180.0000771  3.5564000  2
  18599  18621  18605  18609     1  0.0000000  0.4184000  3
  18599  18621  18605  18604     1  180.0000771  0.4184000  2
  18599  18621  18605  18604     1  0.0000000  1.6024720  3
  18600  18603  18604  18605     1  180.0000771  0.8368000  1
  18600  18603  18604  18605     1  180.0000771  1.0460000  2
  18600  18603  18604  18605     1  0.0000000  0.7531200  3
  18600  18603  18604  18610     1  0.0000000  0.6508444  3
  18600  18599  18613  18619     1  0.0000000  0.6508444  3
  18600  18599  18621  18605     1  180.0000771  0.4184000  2
  18600  18599  18621  18605     1  0.0000000  1.6024720  3
  18603  18604  18605  18609     1  0.0000000  0.6508444  3
  18603  18604  18605  18621     1  0.0000000  0.6508444  3
  18603  18600  18599  18613     1  180.0000771  0.8368000  1
  18603  18600  18599  18613     1  180.0000771  1.0460000  2
  18603  18600  18599  18613     1  0.0000000  0.7531200  3
  18603  18600  18599  18621     1  0.0000000  0.6508444  3
  18604  18603  18600  18612     1  0.0000000  0.6508444  3
  18605  18621  18599  18613     1  180.0000771  0.4184000  2
  18605  18621  18599  18613     1  0.0000000  1.6024720  3
  18605  18604  18603  18611     1  0.0000000  0.6508444  3
  18609  18605  18604  18610     1  0.0000000  4.9162000  2
  18609  18605  18604  18610     1  0.0000000  0.6024960  3
  18610  18604  18605  18621     1  0.0000000  4.9162000  2
  18610  18604  18605  18621     1  0.0000000  0.6024960  3
  18610  18604  18603  18611     1  0.0000000  4.9162000  2
  18610  18604  18603  18611     1  0.0000000  0.6024960  3
  18611  18603  18600  18612     1  0.0000000  4.9162000  2
  18611  18603  18600  18612     1  0.0000000  0.6024960  3
  18612  18600  18599  18613     1  0.0000000  0.6508444  3
  18612  18600  18599  18621     1  0.0000000  4.9162000  2
  18612  18600  18599  18621     1  0.0000000  0.6024960  3
  18619  18613  18599  18621     1  0.0000000  4.9162000  2
  18619  18613  18599  18621     1  0.0000000  0.6024960  3
  18622  18623  18626  18627     1  180.0000771  0.8368000  1
  18622  18623  18626  18627     1  180.0000771  1.0460000  2
  18622  18623  18626  18627     1  0.0000000  0.7531200  3
  18622  18623  18626  18634     1  0.0000000  0.6508444  3
  18622  18644  18628  18627     1  180.0000771  0.4184000  2
  18622  18644  18628  18627     1  0.0000000  1.6024720  3
  18622  18644  18628  18632     1  180.0000771  5.6484000  1
  18622  18644  18628  18632     1  180.0000771  3.5564000  2
  18622  18644  18628  18632     1  0.0000000  0.4184000  3
  18623  18622  18636  18642     1  0.0000000  0.6508444  3
  18623  18622  18644  18628     1  180.0000771  0.4184000  2
  18623  18622  18644  18628     1  0.0000000  1.6024720  3
  18623  18626  18627  18628     1  180.0000771  0.8368000  1
  18623  18626  18627  18628     1  180.0000771  1.0460000  2
  18623  18626  18627  18628     1  0.0000000  0.7531200  3
  18623  18626  18627  18633     1  0.0000000  0.6508444  3
  18626  18623  18622  18636     1  180.0000771  0.8368000  1
  18626  18623  18622  18636     1  180.0000771  1.0460000  2
  18626  18623  18622  18636     1  0.0000000  0.7531200  3
  18626  18623  18622  18644     1  0.0000000  0.6508444  3
  18626  18627  18628  18632     1  0.0000000  0.6508444  3
  18626  18627  18628  18644     1  0.0000000  0.6508444  3
  18627  18626  18623  18635     1  0.0000000  0.6508444  3
  18628  18627  18626  18634     1  0.0000000  0.6508444  3
  18628  18644  18622  18636     1  180.0000771  0.4184000  2
  18628  18644  18622  18636     1  0.0000000  1.6024720  3
  18632  18628  18627  18633     1  0.0000000  4.9162000  2
  18632  18628  18627  18633     1  0.0000000  0.6024960  3
  18633  18627  18626  18634     1  0.0000000  4.9162000  2
  18633  18627  18626  18634     1  0.0000000  0.6024960  3
  18633  18627  18628  18644     1  0.0000000  4.9162000  2
  18633  18627  18628  18644     1  0.0000000  0.6024960  3
  18634  18626  18623  18635     1  0.0000000  4.9162000  2
  18634  18626  18623  18635     1  0.0000000  0.6024960  3
  18635  18623  18622  18636     1  0.0000000  0.6508444  3
  18635  18623  18622  18644     1  0.0000000  4.9162000  2
  18635  18623  18622  18644     1  0.0000000  0.6024960  3
  18642  18636  18622  18644     1  0.0000000  4.9162000  2
  18642  18636  18622  18644     1  0.0000000  0.6024960  3
  18645  18646  18649  18650     1  180.0000771  0.8368000  1
  18645  18646  18649  18650     1  180.0000771  1.0460000  2
  18645  18646  18649  18650     1  0.0000000  0.7531200  3
  18645  18646  18649  18657     1  0.0000000  0.6508444  3
  18645  18667  18651  18655     1  180.0000771  5.6484000  1
  18645  18667  18651  18655     1  180.0000771  3.5564000  2
  18645  18667  18651  18655     1  0.0000000  0.4184000  3
  18645  18667  18651  18650     1  180.0000771  0.4184000  2
  18645  18667  18651  18650     1  0.0000000  1.6024720  3
  18646  18649  18650  18651     1  180.0000771  0.8368000  1
  18646  18649  18650  18651     1  180.0000771  1.0460000  2
  18646  18649  18650  18651     1  0.0000000  0.7531200  3
  18646  18649  18650  18656     1  0.0000000  0.6508444  3
  18646  18645  18659  18665     1  0.0000000  0.6508444  3
  18646  18645  18667  18651     1  180.0000771  0.4184000  2
  18646  18645  18667  18651     1  0.0000000  1.6024720  3
  18649  18650  18651  18655     1  0.0000000  0.6508444  3
  18649  18650  18651  18667     1  0.0000000  0.6508444  3
  18649  18646  18645  18659     1  180.0000771  0.8368000  1
  18649  18646  18645  18659     1  180.0000771  1.0460000  2
  18649  18646  18645  18659     1  0.0000000  0.7531200  3
  18649  18646  18645  18667     1  0.0000000  0.6508444  3
  18650  18649  18646  18658     1  0.0000000  0.6508444  3
  18651  18667  18645  18659     1  180.0000771  0.4184000  2
  18651  18667  18645  18659     1  0.0000000  1.6024720  3
  18651  18650  18649  18657     1  0.0000000  0.6508444  3
  18655  18651  18650  18656     1  0.0000000  4.9162000  2
  18655  18651  18650  18656     1  0.0000000  0.6024960  3
  18656  18650  18651  18667     1  0.0000000  4.9162000  2
  18656  18650  18651  18667     1  0.0000000  0.6024960  3
  18656  18650  18649  18657     1  0.0000000  4.9162000  2
  18656  18650  18649  18657     1  0.0000000  0.6024960  3
  18657  18649  18646  18658     1  0.0000000  4.9162000  2
  18657  18649  18646  18658     1  0.0000000  0.6024960  3
  18658  18646  18645  18659     1  0.0000000  0.6508444  3
  18658  18646  18645  18667     1  0.0000000  4.9162000  2
  18658  18646  18645  18667     1  0.0000000  0.6024960  3
  18665  18659  18645  18667     1  0.0000000  4.9162000  2
  18665  18659  18645  18667     1  0.0000000  0.6024960  3
  18668  18669  18672  18673     1  180.0000771  0.8368000  1
  18668  18669  18672  18673     1  180.0000771  1.0460000  2
  18668  18669  18672  18673     1  0.0000000  0.7531200  3
  18668  18669  18672  18680     1  0.0000000  0.6508444  3
  18668  18690  18674  18673     1  180.0000771  0.4184000  2
  18668  18690  18674  18673     1  0.0000000  1.6024720  3
  18668  18690  18674  18678     1  180.0000771  5.6484000  1
  18668  18690  18674  18678     1  180.0000771  3.5564000  2
  18668  18690  18674  18678     1  0.0000000  0.4184000  3
  18669  18668  18682  18688     1  0.0000000  0.6508444  3
  18669  18668  18690  18674     1  180.0000771  0.4184000  2
  18669  18668  18690  18674     1  0.0000000  1.6024720  3
  18669  18672  18673  18674     1  180.0000771  0.8368000  1
  18669  18672  18673  18674     1  180.0000771  1.0460000  2
  18669  18672  18673  18674     1  0.0000000  0.7531200  3
  18669  18672  18673  18679     1  0.0000000  0.6508444  3
  18672  18669  18668  18682     1  180.0000771  0.8368000  1
  18672  18669  18668  18682     1  180.0000771  1.0460000  2
  18672  18669  18668  18682     1  0.0000000  0.7531200  3
  18672  18669  18668  18690     1  0.0000000  0.6508444  3
  18672  18673  18674  18678     1  0.0000000  0.6508444  3
  18672  18673  18674  18690     1  0.0000000  0.6508444  3
  18673  18672  18669  18681     1  0.0000000  0.6508444  3
  18674  18673  18672  18680     1  0.0000000  0.6508444  3
  18674  18690  18668  18682     1  180.0000771  0.4184000  2
  18674  18690  18668  18682     1  0.0000000  1.6024720  3
  18678  18674  18673  18679     1  0.0000000  4.9162000  2
  18678  18674  18673  18679     1  0.0000000  0.6024960  3
  18679  18673  18672  18680     1  0.0000000  4.9162000  2
  18679  18673  18672  18680     1  0.0000000  0.6024960  3
  18679  18673  18674  18690     1  0.0000000  4.9162000  2
  18679  18673  18674  18690     1  0.0000000  0.6024960  3
  18680  18672  18669  18681     1  0.0000000  4.9162000  2
  18680  18672  18669  18681     1  0.0000000  0.6024960  3
  18681  18669  18668  18682     1  0.0000000  0.6508444  3
  18681  18669  18668  18690     1  0.0000000  4.9162000  2
  18681  18669  18668  18690     1  0.0000000  0.6024960  3
  18688  18682  18668  18690     1  0.0000000  4.9162000  2
  18688  18682  18668  18690     1  0.0000000  0.6024960  3
  18691  18692  18695  18696     1  180.0000771  0.8368000  1
  18691  18692  18695  18696     1  180.0000771  1.0460000  2
  18691  18692  18695  18696     1  0.0000000  0.7531200  3
  18691  18692  18695  18703     1  0.0000000  0.6508444  3
  18691  18713  18697  18701     1  180.0000771  5.6484000  1
  18691  18713  18697  18701     1  180.0000771  3.5564000  2
  18691  18713  18697  18701     1  0.0000000  0.4184000  3
  18691  18713  18697  18696     1  180.0000771  0.4184000  2
  18691  18713  18697  18696     1  0.0000000  1.6024720  3
  18692  18695  18696  18697     1  180.0000771  0.8368000  1
  18692  18695  18696  18697     1  180.0000771  1.0460000  2
  18692  18695  18696  18697     1  0.0000000  0.7531200  3
  18692  18695  18696  18702     1  0.0000000  0.6508444  3
  18692  18691  18705  18711     1  0.0000000  0.6508444  3
  18692  18691  18713  18697     1  180.0000771  0.4184000  2
  18692  18691  18713  18697     1  0.0000000  1.6024720  3
  18695  18696  18697  18701     1  0.0000000  0.6508444  3
  18695  18696  18697  18713     1  0.0000000  0.6508444  3
  18695  18692  18691  18705     1  180.0000771  0.8368000  1
  18695  18692  18691  18705     1  180.0000771  1.0460000  2
  18695  18692  18691  18705     1  0.0000000  0.7531200  3
  18695  18692  18691  18713     1  0.0000000  0.6508444  3
  18696  18695  18692  18704     1  0.0000000  0.6508444  3
  18697  18713  18691  18705     1  180.0000771  0.4184000  2
  18697  18713  18691  18705     1  0.0000000  1.6024720  3
  18697  18696  18695  18703     1  0.0000000  0.6508444  3
  18701  18697  18696  18702     1  0.0000000  4.9162000  2
  18701  18697  18696  18702     1  0.0000000  0.6024960  3
  18702  18696  18697  18713     1  0.0000000  4.9162000  2
  18702  18696  18697  18713     1  0.0000000  0.6024960  3
  18702  18696  18695  18703     1  0.0000000  4.9162000  2
  18702  18696  18695  18703     1  0.0000000  0.6024960  3
  18703  18695  18692  18704     1  0.0000000  4.9162000  2
  18703  18695  18692  18704     1  0.0000000  0.6024960  3
  18704  18692  18691  18705     1  0.0000000  0.6508444  3
  18704  18692  18691  18713     1  0.0000000  4.9162000  2
  18704  18692  18691  18713     1  0.0000000  0.6024960  3
  18711  18705  18691  18713     1  0.0000000  4.9162000  2
  18711  18705  18691  18713     1  0.0000000  0.6024960  3
  18714  18715  18718  18719     1  180.0000771  0.8368000  1
  18714  18715  18718  18719     1  180.0000771  1.0460000  2
  18714  18715  18718  18719     1  0.0000000  0.7531200  3
  18714  18715  18718  18726     1  0.0000000  0.6508444  3
  18714  18736  18720  18719     1  180.0000771  0.4184000  2
  18714  18736  18720  18719     1  0.0000000  1.6024720  3
  18714  18736  18720  18724     1  180.0000771  5.6484000  1
  18714  18736  18720  18724     1  180.0000771  3.5564000  2
  18714  18736  18720  18724     1  0.0000000  0.4184000  3
  18715  18714  18728  18734     1  0.0000000  0.6508444  3
  18715  18714  18736  18720     1  180.0000771  0.4184000  2
  18715  18714  18736  18720     1  0.0000000  1.6024720  3
  18715  18718  18719  18720     1  180.0000771  0.8368000  1
  18715  18718  18719  18720     1  180.0000771  1.0460000  2
  18715  18718  18719  18720     1  0.0000000  0.7531200  3
  18715  18718  18719  18725     1  0.0000000  0.6508444  3
  18718  18715  18714  18728     1  180.0000771  0.8368000  1
  18718  18715  18714  18728     1  180.0000771  1.0460000  2
  18718  18715  18714  18728     1  0.0000000  0.7531200  3
  18718  18715  18714  18736     1  0.0000000  0.6508444  3
  18718  18719  18720  18724     1  0.0000000  0.6508444  3
  18718  18719  18720  18736     1  0.0000000  0.6508444  3
  18719  18718  18715  18727     1  0.0000000  0.6508444  3
  18720  18719  18718  18726     1  0.0000000  0.6508444  3
  18720  18736  18714  18728     1  180.0000771  0.4184000  2
  18720  18736  18714  18728     1  0.0000000  1.6024720  3
  18724  18720  18719  18725     1  0.0000000  4.9162000  2
  18724  18720  18719  18725     1  0.0000000  0.6024960  3
  18725  18719  18718  18726     1  0.0000000  4.9162000  2
  18725  18719  18718  18726     1  0.0000000  0.6024960  3
  18725  18719  18720  18736     1  0.0000000  4.9162000  2
  18725  18719  18720  18736     1  0.0000000  0.6024960  3
  18726  18718  18715  18727     1  0.0000000  4.9162000  2
  18726  18718  18715  18727     1  0.0000000  0.6024960  3
  18727  18715  18714  18728     1  0.0000000  0.6508444  3
  18727  18715  18714  18736     1  0.0000000  4.9162000  2
  18727  18715  18714  18736     1  0.0000000  0.6024960  3
  18734  18728  18714  18736     1  0.0000000  4.9162000  2
  18734  18728  18714  18736     1  0.0000000  0.6024960  3
  18737  18738  18741  18742     1  180.0000771  0.8368000  1
  18737  18738  18741  18742     1  180.0000771  1.0460000  2
  18737  18738  18741  18742     1  0.0000000  0.7531200  3
  18737  18738  18741  18749     1  0.0000000  0.6508444  3
  18737  18759  18743  18747     1  180.0000771  5.6484000  1
  18737  18759  18743  18747     1  180.0000771  3.5564000  2
  18737  18759  18743  18747     1  0.0000000  0.4184000  3
  18737  18759  18743  18742     1  180.0000771  0.4184000  2
  18737  18759  18743  18742     1  0.0000000  1.6024720  3
  18738  18741  18742  18743     1  180.0000771  0.8368000  1
  18738  18741  18742  18743     1  180.0000771  1.0460000  2
  18738  18741  18742  18743     1  0.0000000  0.7531200  3
  18738  18741  18742  18748     1  0.0000000  0.6508444  3
  18738  18737  18751  18757     1  0.0000000  0.6508444  3
  18738  18737  18759  18743     1  180.0000771  0.4184000  2
  18738  18737  18759  18743     1  0.0000000  1.6024720  3
  18741  18742  18743  18747     1  0.0000000  0.6508444  3
  18741  18742  18743  18759     1  0.0000000  0.6508444  3
  18741  18738  18737  18751     1  180.0000771  0.8368000  1
  18741  18738  18737  18751     1  180.0000771  1.0460000  2
  18741  18738  18737  18751     1  0.0000000  0.7531200  3
  18741  18738  18737  18759     1  0.0000000  0.6508444  3
  18742  18741  18738  18750     1  0.0000000  0.6508444  3
  18743  18759  18737  18751     1  180.0000771  0.4184000  2
  18743  18759  18737  18751     1  0.0000000  1.6024720  3
  18743  18742  18741  18749     1  0.0000000  0.6508444  3
  18747  18743  18742  18748     1  0.0000000  4.9162000  2
  18747  18743  18742  18748     1  0.0000000  0.6024960  3
  18748  18742  18743  18759     1  0.0000000  4.9162000  2
  18748  18742  18743  18759     1  0.0000000  0.6024960  3
  18748  18742  18741  18749     1  0.0000000  4.9162000  2
  18748  18742  18741  18749     1  0.0000000  0.6024960  3
  18749  18741  18738  18750     1  0.0000000  4.9162000  2
  18749  18741  18738  18750     1  0.0000000  0.6024960  3
  18750  18738  18737  18751     1  0.0000000  0.6508444  3
  18750  18738  18737  18759     1  0.0000000  4.9162000  2
  18750  18738  18737  18759     1  0.0000000  0.6024960  3
  18757  18751  18737  18759     1  0.0000000  4.9162000  2
  18757  18751  18737  18759     1  0.0000000  0.6024960  3
  18760  18761  18764  18765     1  180.0000771  0.8368000  1
  18760  18761  18764  18765     1  180.0000771  1.0460000  2
  18760  18761  18764  18765     1  0.0000000  0.7531200  3
  18760  18761  18764  18772     1  0.0000000  0.6508444  3
  18760  18782  18766  18765     1  180.0000771  0.4184000  2
  18760  18782  18766  18765     1  0.0000000  1.6024720  3
  18760  18782  18766  18770     1  180.0000771  5.6484000  1
  18760  18782  18766  18770     1  180.0000771  3.5564000  2
  18760  18782  18766  18770     1  0.0000000  0.4184000  3
  18761  18760  18774  18780     1  0.0000000  0.6508444  3
  18761  18760  18782  18766     1  180.0000771  0.4184000  2
  18761  18760  18782  18766     1  0.0000000  1.6024720  3
  18761  18764  18765  18766     1  180.0000771  0.8368000  1
  18761  18764  18765  18766     1  180.0000771  1.0460000  2
  18761  18764  18765  18766     1  0.0000000  0.7531200  3
  18761  18764  18765  18771     1  0.0000000  0.6508444  3
  18764  18761  18760  18774     1  180.0000771  0.8368000  1
  18764  18761  18760  18774     1  180.0000771  1.0460000  2
  18764  18761  18760  18774     1  0.0000000  0.7531200  3
  18764  18761  18760  18782     1  0.0000000  0.6508444  3
  18764  18765  18766  18770     1  0.0000000  0.6508444  3
  18764  18765  18766  18782     1  0.0000000  0.6508444  3
  18765  18764  18761  18773     1  0.0000000  0.6508444  3
  18766  18765  18764  18772     1  0.0000000  0.6508444  3
  18766  18782  18760  18774     1  180.0000771  0.4184000  2
  18766  18782  18760  18774     1  0.0000000  1.6024720  3
  18770  18766  18765  18771     1  0.0000000  4.9162000  2
  18770  18766  18765  18771     1  0.0000000  0.6024960  3
  18771  18765  18764  18772     1  0.0000000  4.9162000  2
  18771  18765  18764  18772     1  0.0000000  0.6024960  3
  18771  18765  18766  18782     1  0.0000000  4.9162000  2
  18771  18765  18766  18782     1  0.0000000  0.6024960  3
  18772  18764  18761  18773     1  0.0000000  4.9162000  2
  18772  18764  18761  18773     1  0.0000000  0.6024960  3
  18773  18761  18760  18774     1  0.0000000  0.6508444  3
  18773  18761  18760  18782     1  0.0000000  4.9162000  2
  18773  18761  18760  18782     1  0.0000000  0.6024960  3
  18780  18774  18760  18782     1  0.0000000  4.9162000  2
  18780  18774  18760  18782     1  0.0000000  0.6024960  3
  18783  18784  18787  18788     1  180.0000771  0.8368000  1
  18783  18784  18787  18788     1  180.0000771  1.0460000  2
  18783  18784  18787  18788     1  0.0000000  0.7531200  3
  18783  18784  18787  18795     1  0.0000000  0.6508444  3
  18783  18805  18789  18793     1  180.0000771  5.6484000  1
  18783  18805  18789  18793     1  180.0000771  3.5564000  2
  18783  18805  18789  18793     1  0.0000000  0.4184000  3
  18783  18805  18789  18788     1  180.0000771  0.4184000  2
  18783  18805  18789  18788     1  0.0000000  1.6024720  3
  18784  18787  18788  18789     1  180.0000771  0.8368000  1
  18784  18787  18788  18789     1  180.0000771  1.0460000  2
  18784  18787  18788  18789     1  0.0000000  0.7531200  3
  18784  18787  18788  18794     1  0.0000000  0.6508444  3
  18784  18783  18797  18803     1  0.0000000  0.6508444  3
  18784  18783  18805  18789     1  180.0000771  0.4184000  2
  18784  18783  18805  18789     1  0.0000000  1.6024720  3
  18787  18788  18789  18793     1  0.0000000  0.6508444  3
  18787  18788  18789  18805     1  0.0000000  0.6508444  3
  18787  18784  18783  18797     1  180.0000771  0.8368000  1
  18787  18784  18783  18797     1  180.0000771  1.0460000  2
  18787  18784  18783  18797     1  0.0000000  0.7531200  3
  18787  18784  18783  18805     1  0.0000000  0.6508444  3
  18788  18787  18784  18796     1  0.0000000  0.6508444  3
  18789  18805  18783  18797     1  180.0000771  0.4184000  2
  18789  18805  18783  18797     1  0.0000000  1.6024720  3
  18789  18788  18787  18795     1  0.0000000  0.6508444  3
  18793  18789  18788  18794     1  0.0000000  4.9162000  2
  18793  18789  18788  18794     1  0.0000000  0.6024960  3
  18794  18788  18789  18805     1  0.0000000  4.9162000  2
  18794  18788  18789  18805     1  0.0000000  0.6024960  3
  18794  18788  18787  18795     1  0.0000000  4.9162000  2
  18794  18788  18787  18795     1  0.0000000  0.6024960  3
  18795  18787  18784  18796     1  0.0000000  4.9162000  2
  18795  18787  18784  18796     1  0.0000000  0.6024960  3
  18796  18784  18783  18797     1  0.0000000  0.6508444  3
  18796  18784  18783  18805     1  0.0000000  4.9162000  2
  18796  18784  18783  18805     1  0.0000000  0.6024960  3
  18803  18797  18783  18805     1  0.0000000  4.9162000  2
  18803  18797  18783  18805     1  0.0000000  0.6024960  3
  18806  18807  18810  18811     1  180.0000771  0.8368000  1
  18806  18807  18810  18811     1  180.0000771  1.0460000  2
  18806  18807  18810  18811     1  0.0000000  0.7531200  3
  18806  18807  18810  18818     1  0.0000000  0.6508444  3
  18806  18828  18812  18811     1  180.0000771  0.4184000  2
  18806  18828  18812  18811     1  0.0000000  1.6024720  3
  18806  18828  18812  18816     1  180.0000771  5.6484000  1
  18806  18828  18812  18816     1  180.0000771  3.5564000  2
  18806  18828  18812  18816     1  0.0000000  0.4184000  3
  18807  18806  18820  18826     1  0.0000000  0.6508444  3
  18807  18806  18828  18812     1  180.0000771  0.4184000  2
  18807  18806  18828  18812     1  0.0000000  1.6024720  3
  18807  18810  18811  18812     1  180.0000771  0.8368000  1
  18807  18810  18811  18812     1  180.0000771  1.0460000  2
  18807  18810  18811  18812     1  0.0000000  0.7531200  3
  18807  18810  18811  18817     1  0.0000000  0.6508444  3
  18810  18807  18806  18820     1  180.0000771  0.8368000  1
  18810  18807  18806  18820     1  180.0000771  1.0460000  2
  18810  18807  18806  18820     1  0.0000000  0.7531200  3
  18810  18807  18806  18828     1  0.0000000  0.6508444  3
  18810  18811  18812  18816     1  0.0000000  0.6508444  3
  18810  18811  18812  18828     1  0.0000000  0.6508444  3
  18811  18810  18807  18819     1  0.0000000  0.6508444  3
  18812  18811  18810  18818     1  0.0000000  0.6508444  3
  18812  18828  18806  18820     1  180.0000771  0.4184000  2
  18812  18828  18806  18820     1  0.0000000  1.6024720  3
  18816  18812  18811  18817     1  0.0000000  4.9162000  2
  18816  18812  18811  18817     1  0.0000000  0.6024960  3
  18817  18811  18810  18818     1  0.0000000  4.9162000  2
  18817  18811  18810  18818     1  0.0000000  0.6024960  3
  18817  18811  18812  18828     1  0.0000000  4.9162000  2
  18817  18811  18812  18828     1  0.0000000  0.6024960  3
  18818  18810  18807  18819     1  0.0000000  4.9162000  2
  18818  18810  18807  18819     1  0.0000000  0.6024960  3
  18819  18807  18806  18820     1  0.0000000  0.6508444  3
  18819  18807  18806  18828     1  0.0000000  4.9162000  2
  18819  18807  18806  18828     1  0.0000000  0.6024960  3
  18826  18820  18806  18828     1  0.0000000  4.9162000  2
  18826  18820  18806  18828     1  0.0000000  0.6024960  3
  18829  18830  18833  18834     1  180.0000771  0.8368000  1
  18829  18830  18833  18834     1  180.0000771  1.0460000  2
  18829  18830  18833  18834     1  0.0000000  0.7531200  3
  18829  18830  18833  18841     1  0.0000000  0.6508444  3
  18829  18851  18835  18839     1  180.0000771  5.6484000  1
  18829  18851  18835  18839     1  180.0000771  3.5564000  2
  18829  18851  18835  18839     1  0.0000000  0.4184000  3
  18829  18851  18835  18834     1  180.0000771  0.4184000  2
  18829  18851  18835  18834     1  0.0000000  1.6024720  3
  18830  18833  18834  18835     1  180.0000771  0.8368000  1
  18830  18833  18834  18835     1  180.0000771  1.0460000  2
  18830  18833  18834  18835     1  0.0000000  0.7531200  3
  18830  18833  18834  18840     1  0.0000000  0.6508444  3
  18830  18829  18843  18849     1  0.0000000  0.6508444  3
  18830  18829  18851  18835     1  180.0000771  0.4184000  2
  18830  18829  18851  18835     1  0.0000000  1.6024720  3
  18833  18834  18835  18839     1  0.0000000  0.6508444  3
  18833  18834  18835  18851     1  0.0000000  0.6508444  3
  18833  18830  18829  18843     1  180.0000771  0.8368000  1
  18833  18830  18829  18843     1  180.0000771  1.0460000  2
  18833  18830  18829  18843     1  0.0000000  0.7531200  3
  18833  18830  18829  18851     1  0.0000000  0.6508444  3
  18834  18833  18830  18842     1  0.0000000  0.6508444  3
  18835  18851  18829  18843     1  180.0000771  0.4184000  2
  18835  18851  18829  18843     1  0.0000000  1.6024720  3
  18835  18834  18833  18841     1  0.0000000  0.6508444  3
  18839  18835  18834  18840     1  0.0000000  4.9162000  2
  18839  18835  18834  18840     1  0.0000000  0.6024960  3
  18840  18834  18835  18851     1  0.0000000  4.9162000  2
  18840  18834  18835  18851     1  0.0000000  0.6024960  3
  18840  18834  18833  18841     1  0.0000000  4.9162000  2
  18840  18834  18833  18841     1  0.0000000  0.6024960  3
  18841  18833  18830  18842     1  0.0000000  4.9162000  2
  18841  18833  18830  18842     1  0.0000000  0.6024960  3
  18842  18830  18829  18843     1  0.0000000  0.6508444  3
  18842  18830  18829  18851     1  0.0000000  4.9162000  2
  18842  18830  18829  18851     1  0.0000000  0.6024960  3
  18849  18843  18829  18851     1  0.0000000  4.9162000  2
  18849  18843  18829  18851     1  0.0000000  0.6024960  3
  18852  18853  18856  18857     1  180.0000771  0.8368000  1
  18852  18853  18856  18857     1  180.0000771  1.0460000  2
  18852  18853  18856  18857     1  0.0000000  0.7531200  3
  18852  18853  18856  18864     1  0.0000000  0.6508444  3
  18852  18874  18858  18857     1  180.0000771  0.4184000  2
  18852  18874  18858  18857     1  0.0000000  1.6024720  3
  18852  18874  18858  18862     1  180.0000771  5.6484000  1
  18852  18874  18858  18862     1  180.0000771  3.5564000  2
  18852  18874  18858  18862     1  0.0000000  0.4184000  3
  18853  18852  18866  18872     1  0.0000000  0.6508444  3
  18853  18852  18874  18858     1  180.0000771  0.4184000  2
  18853  18852  18874  18858     1  0.0000000  1.6024720  3
  18853  18856  18857  18858     1  180.0000771  0.8368000  1
  18853  18856  18857  18858     1  180.0000771  1.0460000  2
  18853  18856  18857  18858     1  0.0000000  0.7531200  3
  18853  18856  18857  18863     1  0.0000000  0.6508444  3
  18856  18853  18852  18866     1  180.0000771  0.8368000  1
  18856  18853  18852  18866     1  180.0000771  1.0460000  2
  18856  18853  18852  18866     1  0.0000000  0.7531200  3
  18856  18853  18852  18874     1  0.0000000  0.6508444  3
  18856  18857  18858  18862     1  0.0000000  0.6508444  3
  18856  18857  18858  18874     1  0.0000000  0.6508444  3
  18857  18856  18853  18865     1  0.0000000  0.6508444  3
  18858  18857  18856  18864     1  0.0000000  0.6508444  3
  18858  18874  18852  18866     1  180.0000771  0.4184000  2
  18858  18874  18852  18866     1  0.0000000  1.6024720  3
  18862  18858  18857  18863     1  0.0000000  4.9162000  2
  18862  18858  18857  18863     1  0.0000000  0.6024960  3
  18863  18857  18856  18864     1  0.0000000  4.9162000  2
  18863  18857  18856  18864     1  0.0000000  0.6024960  3
  18863  18857  18858  18874     1  0.0000000  4.9162000  2
  18863  18857  18858  18874     1  0.0000000  0.6024960  3
  18864  18856  18853  18865     1  0.0000000  4.9162000  2
  18864  18856  18853  18865     1  0.0000000  0.6024960  3
  18865  18853  18852  18866     1  0.0000000  0.6508444  3
  18865  18853  18852  18874     1  0.0000000  4.9162000  2
  18865  18853  18852  18874     1  0.0000000  0.6024960  3
  18872  18866  18852  18874     1  0.0000000  4.9162000  2
  18872  18866  18852  18874     1  0.0000000  0.6024960  3
  18875  18876  18879  18880     1  180.0000771  0.8368000  1
  18875  18876  18879  18880     1  180.0000771  1.0460000  2
  18875  18876  18879  18880     1  0.0000000  0.7531200  3
  18875  18876  18879  18887     1  0.0000000  0.6508444  3
  18875  18897  18881  18885     1  180.0000771  5.6484000  1
  18875  18897  18881  18885     1  180.0000771  3.5564000  2
  18875  18897  18881  18885     1  0.0000000  0.4184000  3
  18875  18897  18881  18880     1  180.0000771  0.4184000  2
  18875  18897  18881  18880     1  0.0000000  1.6024720  3
  18876  18879  18880  18881     1  180.0000771  0.8368000  1
  18876  18879  18880  18881     1  180.0000771  1.0460000  2
  18876  18879  18880  18881     1  0.0000000  0.7531200  3
  18876  18879  18880  18886     1  0.0000000  0.6508444  3
  18876  18875  18889  18895     1  0.0000000  0.6508444  3
  18876  18875  18897  18881     1  180.0000771  0.4184000  2
  18876  18875  18897  18881     1  0.0000000  1.6024720  3
  18879  18880  18881  18885     1  0.0000000  0.6508444  3
  18879  18880  18881  18897     1  0.0000000  0.6508444  3
  18879  18876  18875  18889     1  180.0000771  0.8368000  1
  18879  18876  18875  18889     1  180.0000771  1.0460000  2
  18879  18876  18875  18889     1  0.0000000  0.7531200  3
  18879  18876  18875  18897     1  0.0000000  0.6508444  3
  18880  18879  18876  18888     1  0.0000000  0.6508444  3
  18881  18897  18875  18889     1  180.0000771  0.4184000  2
  18881  18897  18875  18889     1  0.0000000  1.6024720  3
  18881  18880  18879  18887     1  0.0000000  0.6508444  3
  18885  18881  18880  18886     1  0.0000000  4.9162000  2
  18885  18881  18880  18886     1  0.0000000  0.6024960  3
  18886  18880  18881  18897     1  0.0000000  4.9162000  2
  18886  18880  18881  18897     1  0.0000000  0.6024960  3
  18886  18880  18879  18887     1  0.0000000  4.9162000  2
  18886  18880  18879  18887     1  0.0000000  0.6024960  3
  18887  18879  18876  18888     1  0.0000000  4.9162000  2
  18887  18879  18876  18888     1  0.0000000  0.6024960  3
  18888  18876  18875  18889     1  0.0000000  0.6508444  3
  18888  18876  18875  18897     1  0.0000000  4.9162000  2
  18888  18876  18875  18897     1  0.0000000  0.6024960  3
  18895  18889  18875  18897     1  0.0000000  4.9162000  2
  18895  18889  18875  18897     1  0.0000000  0.6024960  3
  18898  18899  18902  18903     1  180.0000771  0.8368000  1
  18898  18899  18902  18903     1  180.0000771  1.0460000  2
  18898  18899  18902  18903     1  0.0000000  0.7531200  3
  18898  18899  18902  18910     1  0.0000000  0.6508444  3
  18898  18920  18904  18903     1  180.0000771  0.4184000  2
  18898  18920  18904  18903     1  0.0000000  1.6024720  3
  18898  18920  18904  18908     1  180.0000771  5.6484000  1
  18898  18920  18904  18908     1  180.0000771  3.5564000  2
  18898  18920  18904  18908     1  0.0000000  0.4184000  3
  18899  18898  18912  18918     1  0.0000000  0.6508444  3
  18899  18898  18920  18904     1  180.0000771  0.4184000  2
  18899  18898  18920  18904     1  0.0000000  1.6024720  3
  18899  18902  18903  18904     1  180.0000771  0.8368000  1
  18899  18902  18903  18904     1  180.0000771  1.0460000  2
  18899  18902  18903  18904     1  0.0000000  0.7531200  3
  18899  18902  18903  18909     1  0.0000000  0.6508444  3
  18902  18899  18898  18912     1  180.0000771  0.8368000  1
  18902  18899  18898  18912     1  180.0000771  1.0460000  2
  18902  18899  18898  18912     1  0.0000000  0.7531200  3
  18902  18899  18898  18920     1  0.0000000  0.6508444  3
  18902  18903  18904  18908     1  0.0000000  0.6508444  3
  18902  18903  18904  18920     1  0.0000000  0.6508444  3
  18903  18902  18899  18911     1  0.0000000  0.6508444  3
  18904  18903  18902  18910     1  0.0000000  0.6508444  3
  18904  18920  18898  18912     1  180.0000771  0.4184000  2
  18904  18920  18898  18912     1  0.0000000  1.6024720  3
  18908  18904  18903  18909     1  0.0000000  4.9162000  2
  18908  18904  18903  18909     1  0.0000000  0.6024960  3
  18909  18903  18902  18910     1  0.0000000  4.9162000  2
  18909  18903  18902  18910     1  0.0000000  0.6024960  3
  18909  18903  18904  18920     1  0.0000000  4.9162000  2
  18909  18903  18904  18920     1  0.0000000  0.6024960  3
  18910  18902  18899  18911     1  0.0000000  4.9162000  2
  18910  18902  18899  18911     1  0.0000000  0.6024960  3
  18911  18899  18898  18912     1  0.0000000  0.6508444  3
  18911  18899  18898  18920     1  0.0000000  4.9162000  2
  18911  18899  18898  18920     1  0.0000000  0.6024960  3
  18918  18912  18898  18920     1  0.0000000  4.9162000  2
  18918  18912  18898  18920     1  0.0000000  0.6024960  3
  18921  18922  18925  18926     1  180.0000771  0.8368000  1
  18921  18922  18925  18926     1  180.0000771  1.0460000  2
  18921  18922  18925  18926     1  0.0000000  0.7531200  3
  18921  18922  18925  18933     1  0.0000000  0.6508444  3
  18921  18943  18927  18931     1  180.0000771  5.6484000  1
  18921  18943  18927  18931     1  180.0000771  3.5564000  2
  18921  18943  18927  18931     1  0.0000000  0.4184000  3
  18921  18943  18927  18926     1  180.0000771  0.4184000  2
  18921  18943  18927  18926     1  0.0000000  1.6024720  3
  18922  18925  18926  18927     1  180.0000771  0.8368000  1
  18922  18925  18926  18927     1  180.0000771  1.0460000  2
  18922  18925  18926  18927     1  0.0000000  0.7531200  3
  18922  18925  18926  18932     1  0.0000000  0.6508444  3
  18922  18921  18935  18941     1  0.0000000  0.6508444  3
  18922  18921  18943  18927     1  180.0000771  0.4184000  2
  18922  18921  18943  18927     1  0.0000000  1.6024720  3
  18925  18926  18927  18931     1  0.0000000  0.6508444  3
  18925  18926  18927  18943     1  0.0000000  0.6508444  3
  18925  18922  18921  18935     1  180.0000771  0.8368000  1
  18925  18922  18921  18935     1  180.0000771  1.0460000  2
  18925  18922  18921  18935     1  0.0000000  0.7531200  3
  18925  18922  18921  18943     1  0.0000000  0.6508444  3
  18926  18925  18922  18934     1  0.0000000  0.6508444  3
  18927  18943  18921  18935     1  180.0000771  0.4184000  2
  18927  18943  18921  18935     1  0.0000000  1.6024720  3
  18927  18926  18925  18933     1  0.0000000  0.6508444  3
  18931  18927  18926  18932     1  0.0000000  4.9162000  2
  18931  18927  18926  18932     1  0.0000000  0.6024960  3
  18932  18926  18927  18943     1  0.0000000  4.9162000  2
  18932  18926  18927  18943     1  0.0000000  0.6024960  3
  18932  18926  18925  18933     1  0.0000000  4.9162000  2
  18932  18926  18925  18933     1  0.0000000  0.6024960  3
  18933  18925  18922  18934     1  0.0000000  4.9162000  2
  18933  18925  18922  18934     1  0.0000000  0.6024960  3
  18934  18922  18921  18935     1  0.0000000  0.6508444  3
  18934  18922  18921  18943     1  0.0000000  4.9162000  2
  18934  18922  18921  18943     1  0.0000000  0.6024960  3
  18941  18935  18921  18943     1  0.0000000  4.9162000  2
  18941  18935  18921  18943     1  0.0000000  0.6024960  3
  18944  18945  18948  18949     1  180.0000771  0.8368000  1
  18944  18945  18948  18949     1  180.0000771  1.0460000  2
  18944  18945  18948  18949     1  0.0000000  0.7531200  3
  18944  18945  18948  18956     1  0.0000000  0.6508444  3
  18944  18966  18950  18949     1  180.0000771  0.4184000  2
  18944  18966  18950  18949     1  0.0000000  1.6024720  3
  18944  18966  18950  18954     1  180.0000771  5.6484000  1
  18944  18966  18950  18954     1  180.0000771  3.5564000  2
  18944  18966  18950  18954     1  0.0000000  0.4184000  3
  18945  18944  18958  18964     1  0.0000000  0.6508444  3
  18945  18944  18966  18950     1  180.0000771  0.4184000  2
  18945  18944  18966  18950     1  0.0000000  1.6024720  3
  18945  18948  18949  18950     1  180.0000771  0.8368000  1
  18945  18948  18949  18950     1  180.0000771  1.0460000  2
  18945  18948  18949  18950     1  0.0000000  0.7531200  3
  18945  18948  18949  18955     1  0.0000000  0.6508444  3
  18948  18945  18944  18958     1  180.0000771  0.8368000  1
  18948  18945  18944  18958     1  180.0000771  1.0460000  2
  18948  18945  18944  18958     1  0.0000000  0.7531200  3
  18948  18945  18944  18966     1  0.0000000  0.6508444  3
  18948  18949  18950  18954     1  0.0000000  0.6508444  3
  18948  18949  18950  18966     1  0.0000000  0.6508444  3
  18949  18948  18945  18957     1  0.0000000  0.6508444  3
  18950  18949  18948  18956     1  0.0000000  0.6508444  3
  18950  18966  18944  18958     1  180.0000771  0.4184000  2
  18950  18966  18944  18958     1  0.0000000  1.6024720  3
  18954  18950  18949  18955     1  0.0000000  4.9162000  2
  18954  18950  18949  18955     1  0.0000000  0.6024960  3
  18955  18949  18948  18956     1  0.0000000  4.9162000  2
  18955  18949  18948  18956     1  0.0000000  0.6024960  3
  18955  18949  18950  18966     1  0.0000000  4.9162000  2
  18955  18949  18950  18966     1  0.0000000  0.6024960  3
  18956  18948  18945  18957     1  0.0000000  4.9162000  2
  18956  18948  18945  18957     1  0.0000000  0.6024960  3
  18957  18945  18944  18958     1  0.0000000  0.6508444  3
  18957  18945  18944  18966     1  0.0000000  4.9162000  2
  18957  18945  18944  18966     1  0.0000000  0.6024960  3
  18964  18958  18944  18966     1  0.0000000  4.9162000  2
  18964  18958  18944  18966     1  0.0000000  0.6024960  3
  18967  18968  18971  18972     1  180.0000771  0.8368000  1
  18967  18968  18971  18972     1  180.0000771  1.0460000  2
  18967  18968  18971  18972     1  0.0000000  0.7531200  3
  18967  18968  18971  18979     1  0.0000000  0.6508444  3
  18967  18989  18973  18977     1  180.0000771  5.6484000  1
  18967  18989  18973  18977     1  180.0000771  3.5564000  2
  18967  18989  18973  18977     1  0.0000000  0.4184000  3
  18967  18989  18973  18972     1  180.0000771  0.4184000  2
  18967  18989  18973  18972     1  0.0000000  1.6024720  3
  18968  18971  18972  18973     1  180.0000771  0.8368000  1
  18968  18971  18972  18973     1  180.0000771  1.0460000  2
  18968  18971  18972  18973     1  0.0000000  0.7531200  3
  18968  18971  18972  18978     1  0.0000000  0.6508444  3
  18968  18967  18981  18987     1  0.0000000  0.6508444  3
  18968  18967  18989  18973     1  180.0000771  0.4184000  2
  18968  18967  18989  18973     1  0.0000000  1.6024720  3
  18971  18972  18973  18977     1  0.0000000  0.6508444  3
  18971  18972  18973  18989     1  0.0000000  0.6508444  3
  18971  18968  18967  18981     1  180.0000771  0.8368000  1
  18971  18968  18967  18981     1  180.0000771  1.0460000  2
  18971  18968  18967  18981     1  0.0000000  0.7531200  3
  18971  18968  18967  18989     1  0.0000000  0.6508444  3
  18972  18971  18968  18980     1  0.0000000  0.6508444  3
  18973  18989  18967  18981     1  180.0000771  0.4184000  2
  18973  18989  18967  18981     1  0.0000000  1.6024720  3
  18973  18972  18971  18979     1  0.0000000  0.6508444  3
  18977  18973  18972  18978     1  0.0000000  4.9162000  2
  18977  18973  18972  18978     1  0.0000000  0.6024960  3
  18978  18972  18973  18989     1  0.0000000  4.9162000  2
  18978  18972  18973  18989     1  0.0000000  0.6024960  3
  18978  18972  18971  18979     1  0.0000000  4.9162000  2
  18978  18972  18971  18979     1  0.0000000  0.6024960  3
  18979  18971  18968  18980     1  0.0000000  4.9162000  2
  18979  18971  18968  18980     1  0.0000000  0.6024960  3
  18980  18968  18967  18981     1  0.0000000  0.6508444  3
  18980  18968  18967  18989     1  0.0000000  4.9162000  2
  18980  18968  18967  18989     1  0.0000000  0.6024960  3
  18987  18981  18967  18989     1  0.0000000  4.9162000  2
  18987  18981  18967  18989     1  0.0000000  0.6024960  3
  18990  18991  18994  18995     1  180.0000771  0.8368000  1
  18990  18991  18994  18995     1  180.0000771  1.0460000  2
  18990  18991  18994  18995     1  0.0000000  0.7531200  3
  18990  18991  18994  19002     1  0.0000000  0.6508444  3
  18990  19012  18996  18995     1  180.0000771  0.4184000  2
  18990  19012  18996  18995     1  0.0000000  1.6024720  3
  18990  19012  18996  19000     1  180.0000771  5.6484000  1
  18990  19012  18996  19000     1  180.0000771  3.5564000  2
  18990  19012  18996  19000     1  0.0000000  0.4184000  3
  18991  18990  19004  19010     1  0.0000000  0.6508444  3
  18991  18990  19012  18996     1  180.0000771  0.4184000  2
  18991  18990  19012  18996     1  0.0000000  1.6024720  3
  18991  18994  18995  18996     1  180.0000771  0.8368000  1
  18991  18994  18995  18996     1  180.0000771  1.0460000  2
  18991  18994  18995  18996     1  0.0000000  0.7531200  3
  18991  18994  18995  19001     1  0.0000000  0.6508444  3
  18994  18991  18990  19004     1  180.0000771  0.8368000  1
  18994  18991  18990  19004     1  180.0000771  1.0460000  2
  18994  18991  18990  19004     1  0.0000000  0.7531200  3
  18994  18991  18990  19012     1  0.0000000  0.6508444  3
  18994  18995  18996  19000     1  0.0000000  0.6508444  3
  18994  18995  18996  19012     1  0.0000000  0.6508444  3
  18995  18994  18991  19003     1  0.0000000  0.6508444  3
  18996  18995  18994  19002     1  0.0000000  0.6508444  3
  18996  19012  18990  19004     1  180.0000771  0.4184000  2
  18996  19012  18990  19004     1  0.0000000  1.6024720  3
  19000  18996  18995  19001     1  0.0000000  4.9162000  2
  19000  18996  18995  19001     1  0.0000000  0.6024960  3
  19001  18995  18994  19002     1  0.0000000  4.9162000  2
  19001  18995  18994  19002     1  0.0000000  0.6024960  3
  19001  18995  18996  19012     1  0.0000000  4.9162000  2
  19001  18995  18996  19012     1  0.0000000  0.6024960  3
  19002  18994  18991  19003     1  0.0000000  4.9162000  2
  19002  18994  18991  19003     1  0.0000000  0.6024960  3
  19003  18991  18990  19004     1  0.0000000  0.6508444  3
  19003  18991  18990  19012     1  0.0000000  4.9162000  2
  19003  18991  18990  19012     1  0.0000000  0.6024960  3
  19010  19004  18990  19012     1  0.0000000  4.9162000  2
  19010  19004  18990  19012     1  0.0000000  0.6024960  3
  19013  19014  19017  19018     1  180.0000771  0.8368000  1
  19013  19014  19017  19018     1  180.0000771  1.0460000  2
  19013  19014  19017  19018     1  0.0000000  0.7531200  3
  19013  19014  19017  19025     1  0.0000000  0.6508444  3
  19013  19035  19019  19023     1  180.0000771  5.6484000  1
  19013  19035  19019  19023     1  180.0000771  3.5564000  2
  19013  19035  19019  19023     1  0.0000000  0.4184000  3
  19013  19035  19019  19018     1  180.0000771  0.4184000  2
  19013  19035  19019  19018     1  0.0000000  1.6024720  3
  19014  19017  19018  19019     1  180.0000771  0.8368000  1
  19014  19017  19018  19019     1  180.0000771  1.0460000  2
  19014  19017  19018  19019     1  0.0000000  0.7531200  3
  19014  19017  19018  19024     1  0.0000000  0.6508444  3
  19014  19013  19027  19033     1  0.0000000  0.6508444  3
  19014  19013  19035  19019     1  180.0000771  0.4184000  2
  19014  19013  19035  19019     1  0.0000000  1.6024720  3
  19017  19018  19019  19023     1  0.0000000  0.6508444  3
  19017  19018  19019  19035     1  0.0000000  0.6508444  3
  19017  19014  19013  19027     1  180.0000771  0.8368000  1
  19017  19014  19013  19027     1  180.0000771  1.0460000  2
  19017  19014  19013  19027     1  0.0000000  0.7531200  3
  19017  19014  19013  19035     1  0.0000000  0.6508444  3
  19018  19017  19014  19026     1  0.0000000  0.6508444  3
  19019  19035  19013  19027     1  180.0000771  0.4184000  2
  19019  19035  19013  19027     1  0.0000000  1.6024720  3
  19019  19018  19017  19025     1  0.0000000  0.6508444  3
  19023  19019  19018  19024     1  0.0000000  4.9162000  2
  19023  19019  19018  19024     1  0.0000000  0.6024960  3
  19024  19018  19019  19035     1  0.0000000  4.9162000  2
  19024  19018  19019  19035     1  0.0000000  0.6024960  3
  19024  19018  19017  19025     1  0.0000000  4.9162000  2
  19024  19018  19017  19025     1  0.0000000  0.6024960  3
  19025  19017  19014  19026     1  0.0000000  4.9162000  2
  19025  19017  19014  19026     1  0.0000000  0.6024960  3
  19026  19014  19013  19027     1  0.0000000  0.6508444  3
  19026  19014  19013  19035     1  0.0000000  4.9162000  2
  19026  19014  19013  19035     1  0.0000000  0.6024960  3
  19033  19027  19013  19035     1  0.0000000  4.9162000  2
  19033  19027  19013  19035     1  0.0000000  0.6024960  3
  19036  19037  19040  19041     1  180.0000771  0.8368000  1
  19036  19037  19040  19041     1  180.0000771  1.0460000  2
  19036  19037  19040  19041     1  0.0000000  0.7531200  3
  19036  19037  19040  19048     1  0.0000000  0.6508444  3
  19036  19058  19042  19041     1  180.0000771  0.4184000  2
  19036  19058  19042  19041     1  0.0000000  1.6024720  3
  19036  19058  19042  19046     1  180.0000771  5.6484000  1
  19036  19058  19042  19046     1  180.0000771  3.5564000  2
  19036  19058  19042  19046     1  0.0000000  0.4184000  3
  19037  19036  19050  19056     1  0.0000000  0.6508444  3
  19037  19036  19058  19042     1  180.0000771  0.4184000  2
  19037  19036  19058  19042     1  0.0000000  1.6024720  3
  19037  19040  19041  19042     1  180.0000771  0.8368000  1
  19037  19040  19041  19042     1  180.0000771  1.0460000  2
  19037  19040  19041  19042     1  0.0000000  0.7531200  3
  19037  19040  19041  19047     1  0.0000000  0.6508444  3
  19040  19037  19036  19050     1  180.0000771  0.8368000  1
  19040  19037  19036  19050     1  180.0000771  1.0460000  2
  19040  19037  19036  19050     1  0.0000000  0.7531200  3
  19040  19037  19036  19058     1  0.0000000  0.6508444  3
  19040  19041  19042  19046     1  0.0000000  0.6508444  3
  19040  19041  19042  19058     1  0.0000000  0.6508444  3
  19041  19040  19037  19049     1  0.0000000  0.6508444  3
  19042  19041  19040  19048     1  0.0000000  0.6508444  3
  19042  19058  19036  19050     1  180.0000771  0.4184000  2
  19042  19058  19036  19050     1  0.0000000  1.6024720  3
  19046  19042  19041  19047     1  0.0000000  4.9162000  2
  19046  19042  19041  19047     1  0.0000000  0.6024960  3
  19047  19041  19040  19048     1  0.0000000  4.9162000  2
  19047  19041  19040  19048     1  0.0000000  0.6024960  3
  19047  19041  19042  19058     1  0.0000000  4.9162000  2
  19047  19041  19042  19058     1  0.0000000  0.6024960  3
  19048  19040  19037  19049     1  0.0000000  4.9162000  2
  19048  19040  19037  19049     1  0.0000000  0.6024960  3
  19049  19037  19036  19050     1  0.0000000  0.6508444  3
  19049  19037  19036  19058     1  0.0000000  4.9162000  2
  19049  19037  19036  19058     1  0.0000000  0.6024960  3
  19056  19050  19036  19058     1  0.0000000  4.9162000  2
  19056  19050  19036  19058     1  0.0000000  0.6024960  3
  19059  19060  19063  19064     1  180.0000771  0.8368000  1
  19059  19060  19063  19064     1  180.0000771  1.0460000  2
  19059  19060  19063  19064     1  0.0000000  0.7531200  3
  19059  19060  19063  19071     1  0.0000000  0.6508444  3
  19059  19081  19065  19069     1  180.0000771  5.6484000  1
  19059  19081  19065  19069     1  180.0000771  3.5564000  2
  19059  19081  19065  19069     1  0.0000000  0.4184000  3
  19059  19081  19065  19064     1  180.0000771  0.4184000  2
  19059  19081  19065  19064     1  0.0000000  1.6024720  3
  19060  19063  19064  19065     1  180.0000771  0.8368000  1
  19060  19063  19064  19065     1  180.0000771  1.0460000  2
  19060  19063  19064  19065     1  0.0000000  0.7531200  3
  19060  19063  19064  19070     1  0.0000000  0.6508444  3
  19060  19059  19073  19079     1  0.0000000  0.6508444  3
  19060  19059  19081  19065     1  180.0000771  0.4184000  2
  19060  19059  19081  19065     1  0.0000000  1.6024720  3
  19063  19064  19065  19069     1  0.0000000  0.6508444  3
  19063  19064  19065  19081     1  0.0000000  0.6508444  3
  19063  19060  19059  19073     1  180.0000771  0.8368000  1
  19063  19060  19059  19073     1  180.0000771  1.0460000  2
  19063  19060  19059  19073     1  0.0000000  0.7531200  3
  19063  19060  19059  19081     1  0.0000000  0.6508444  3
  19064  19063  19060  19072     1  0.0000000  0.6508444  3
  19065  19081  19059  19073     1  180.0000771  0.4184000  2
  19065  19081  19059  19073     1  0.0000000  1.6024720  3
  19065  19064  19063  19071     1  0.0000000  0.6508444  3
  19069  19065  19064  19070     1  0.0000000  4.9162000  2
  19069  19065  19064  19070     1  0.0000000  0.6024960  3
  19070  19064  19065  19081     1  0.0000000  4.9162000  2
  19070  19064  19065  19081     1  0.0000000  0.6024960  3
  19070  19064  19063  19071     1  0.0000000  4.9162000  2
  19070  19064  19063  19071     1  0.0000000  0.6024960  3
  19071  19063  19060  19072     1  0.0000000  4.9162000  2
  19071  19063  19060  19072     1  0.0000000  0.6024960  3
  19072  19060  19059  19073     1  0.0000000  0.6508444  3
  19072  19060  19059  19081     1  0.0000000  4.9162000  2
  19072  19060  19059  19081     1  0.0000000  0.6024960  3
  19079  19073  19059  19081     1  0.0000000  4.9162000  2
  19079  19073  19059  19081     1  0.0000000  0.6024960  3
  19082  19083  19086  19087     1  180.0000771  0.8368000  1
  19082  19083  19086  19087     1  180.0000771  1.0460000  2
  19082  19083  19086  19087     1  0.0000000  0.7531200  3
  19082  19083  19086  19094     1  0.0000000  0.6508444  3
  19082  19104  19088  19087     1  180.0000771  0.4184000  2
  19082  19104  19088  19087     1  0.0000000  1.6024720  3
  19082  19104  19088  19092     1  180.0000771  5.6484000  1
  19082  19104  19088  19092     1  180.0000771  3.5564000  2
  19082  19104  19088  19092     1  0.0000000  0.4184000  3
  19083  19082  19096  19102     1  0.0000000  0.6508444  3
  19083  19082  19104  19088     1  180.0000771  0.4184000  2
  19083  19082  19104  19088     1  0.0000000  1.6024720  3
  19083  19086  19087  19088     1  180.0000771  0.8368000  1
  19083  19086  19087  19088     1  180.0000771  1.0460000  2
  19083  19086  19087  19088     1  0.0000000  0.7531200  3
  19083  19086  19087  19093     1  0.0000000  0.6508444  3
  19086  19083  19082  19096     1  180.0000771  0.8368000  1
  19086  19083  19082  19096     1  180.0000771  1.0460000  2
  19086  19083  19082  19096     1  0.0000000  0.7531200  3
  19086  19083  19082  19104     1  0.0000000  0.6508444  3
  19086  19087  19088  19092     1  0.0000000  0.6508444  3
  19086  19087  19088  19104     1  0.0000000  0.6508444  3
  19087  19086  19083  19095     1  0.0000000  0.6508444  3
  19088  19087  19086  19094     1  0.0000000  0.6508444  3
  19088  19104  19082  19096     1  180.0000771  0.4184000  2
  19088  19104  19082  19096     1  0.0000000  1.6024720  3
  19092  19088  19087  19093     1  0.0000000  4.9162000  2
  19092  19088  19087  19093     1  0.0000000  0.6024960  3
  19093  19087  19086  19094     1  0.0000000  4.9162000  2
  19093  19087  19086  19094     1  0.0000000  0.6024960  3
  19093  19087  19088  19104     1  0.0000000  4.9162000  2
  19093  19087  19088  19104     1  0.0000000  0.6024960  3
  19094  19086  19083  19095     1  0.0000000  4.9162000  2
  19094  19086  19083  19095     1  0.0000000  0.6024960  3
  19095  19083  19082  19096     1  0.0000000  0.6508444  3
  19095  19083  19082  19104     1  0.0000000  4.9162000  2
  19095  19083  19082  19104     1  0.0000000  0.6024960  3
  19102  19096  19082  19104     1  0.0000000  4.9162000  2
  19102  19096  19082  19104     1  0.0000000  0.6024960  3
  19105  19106  19109  19110     1  180.0000771  0.8368000  1
  19105  19106  19109  19110     1  180.0000771  1.0460000  2
  19105  19106  19109  19110     1  0.0000000  0.7531200  3
  19105  19106  19109  19117     1  0.0000000  0.6508444  3
  19105  19127  19111  19115     1  180.0000771  5.6484000  1
  19105  19127  19111  19115     1  180.0000771  3.5564000  2
  19105  19127  19111  19115     1  0.0000000  0.4184000  3
  19105  19127  19111  19110     1  180.0000771  0.4184000  2
  19105  19127  19111  19110     1  0.0000000  1.6024720  3
  19106  19109  19110  19111     1  180.0000771  0.8368000  1
  19106  19109  19110  19111     1  180.0000771  1.0460000  2
  19106  19109  19110  19111     1  0.0000000  0.7531200  3
  19106  19109  19110  19116     1  0.0000000  0.6508444  3
  19106  19105  19119  19125     1  0.0000000  0.6508444  3
  19106  19105  19127  19111     1  180.0000771  0.4184000  2
  19106  19105  19127  19111     1  0.0000000  1.6024720  3
  19109  19110  19111  19115     1  0.0000000  0.6508444  3
  19109  19110  19111  19127     1  0.0000000  0.6508444  3
  19109  19106  19105  19119     1  180.0000771  0.8368000  1
  19109  19106  19105  19119     1  180.0000771  1.0460000  2
  19109  19106  19105  19119     1  0.0000000  0.7531200  3
  19109  19106  19105  19127     1  0.0000000  0.6508444  3
  19110  19109  19106  19118     1  0.0000000  0.6508444  3
  19111  19127  19105  19119     1  180.0000771  0.4184000  2
  19111  19127  19105  19119     1  0.0000000  1.6024720  3
  19111  19110  19109  19117     1  0.0000000  0.6508444  3
  19115  19111  19110  19116     1  0.0000000  4.9162000  2
  19115  19111  19110  19116     1  0.0000000  0.6024960  3
  19116  19110  19111  19127     1  0.0000000  4.9162000  2
  19116  19110  19111  19127     1  0.0000000  0.6024960  3
  19116  19110  19109  19117     1  0.0000000  4.9162000  2
  19116  19110  19109  19117     1  0.0000000  0.6024960  3
  19117  19109  19106  19118     1  0.0000000  4.9162000  2
  19117  19109  19106  19118     1  0.0000000  0.6024960  3
  19118  19106  19105  19119     1  0.0000000  0.6508444  3
  19118  19106  19105  19127     1  0.0000000  4.9162000  2
  19118  19106  19105  19127     1  0.0000000  0.6024960  3
  19125  19119  19105  19127     1  0.0000000  4.9162000  2
  19125  19119  19105  19127     1  0.0000000  0.6024960  3
  19128  19129  19132  19133     1  180.0000771  0.8368000  1
  19128  19129  19132  19133     1  180.0000771  1.0460000  2
  19128  19129  19132  19133     1  0.0000000  0.7531200  3
  19128  19129  19132  19140     1  0.0000000  0.6508444  3
  19128  19150  19134  19133     1  180.0000771  0.4184000  2
  19128  19150  19134  19133     1  0.0000000  1.6024720  3
  19128  19150  19134  19138     1  180.0000771  5.6484000  1
  19128  19150  19134  19138     1  180.0000771  3.5564000  2
  19128  19150  19134  19138     1  0.0000000  0.4184000  3
  19129  19128  19142  19148     1  0.0000000  0.6508444  3
  19129  19128  19150  19134     1  180.0000771  0.4184000  2
  19129  19128  19150  19134     1  0.0000000  1.6024720  3
  19129  19132  19133  19134     1  180.0000771  0.8368000  1
  19129  19132  19133  19134     1  180.0000771  1.0460000  2
  19129  19132  19133  19134     1  0.0000000  0.7531200  3
  19129  19132  19133  19139     1  0.0000000  0.6508444  3
  19132  19129  19128  19142     1  180.0000771  0.8368000  1
  19132  19129  19128  19142     1  180.0000771  1.0460000  2
  19132  19129  19128  19142     1  0.0000000  0.7531200  3
  19132  19129  19128  19150     1  0.0000000  0.6508444  3
  19132  19133  19134  19138     1  0.0000000  0.6508444  3
  19132  19133  19134  19150     1  0.0000000  0.6508444  3
  19133  19132  19129  19141     1  0.0000000  0.6508444  3
  19134  19133  19132  19140     1  0.0000000  0.6508444  3
  19134  19150  19128  19142     1  180.0000771  0.4184000  2
  19134  19150  19128  19142     1  0.0000000  1.6024720  3
  19138  19134  19133  19139     1  0.0000000  4.9162000  2
  19138  19134  19133  19139     1  0.0000000  0.6024960  3
  19139  19133  19132  19140     1  0.0000000  4.9162000  2
  19139  19133  19132  19140     1  0.0000000  0.6024960  3
  19139  19133  19134  19150     1  0.0000000  4.9162000  2
  19139  19133  19134  19150     1  0.0000000  0.6024960  3
  19140  19132  19129  19141     1  0.0000000  4.9162000  2
  19140  19132  19129  19141     1  0.0000000  0.6024960  3
  19141  19129  19128  19142     1  0.0000000  0.6508444  3
  19141  19129  19128  19150     1  0.0000000  4.9162000  2
  19141  19129  19128  19150     1  0.0000000  0.6024960  3
  19148  19142  19128  19150     1  0.0000000  4.9162000  2
  19148  19142  19128  19150     1  0.0000000  0.6024960  3
  19151  19152  19155  19156     1  180.0000771  0.8368000  1
  19151  19152  19155  19156     1  180.0000771  1.0460000  2
  19151  19152  19155  19156     1  0.0000000  0.7531200  3
  19151  19152  19155  19163     1  0.0000000  0.6508444  3
  19151  19173  19157  19161     1  180.0000771  5.6484000  1
  19151  19173  19157  19161     1  180.0000771  3.5564000  2
  19151  19173  19157  19161     1  0.0000000  0.4184000  3
  19151  19173  19157  19156     1  180.0000771  0.4184000  2
  19151  19173  19157  19156     1  0.0000000  1.6024720  3
  19152  19155  19156  19157     1  180.0000771  0.8368000  1
  19152  19155  19156  19157     1  180.0000771  1.0460000  2
  19152  19155  19156  19157     1  0.0000000  0.7531200  3
  19152  19155  19156  19162     1  0.0000000  0.6508444  3
  19152  19151  19165  19171     1  0.0000000  0.6508444  3
  19152  19151  19173  19157     1  180.0000771  0.4184000  2
  19152  19151  19173  19157     1  0.0000000  1.6024720  3
  19155  19156  19157  19161     1  0.0000000  0.6508444  3
  19155  19156  19157  19173     1  0.0000000  0.6508444  3
  19155  19152  19151  19165     1  180.0000771  0.8368000  1
  19155  19152  19151  19165     1  180.0000771  1.0460000  2
  19155  19152  19151  19165     1  0.0000000  0.7531200  3
  19155  19152  19151  19173     1  0.0000000  0.6508444  3
  19156  19155  19152  19164     1  0.0000000  0.6508444  3
  19157  19173  19151  19165     1  180.0000771  0.4184000  2
  19157  19173  19151  19165     1  0.0000000  1.6024720  3
  19157  19156  19155  19163     1  0.0000000  0.6508444  3
  19161  19157  19156  19162     1  0.0000000  4.9162000  2
  19161  19157  19156  19162     1  0.0000000  0.6024960  3
  19162  19156  19157  19173     1  0.0000000  4.9162000  2
  19162  19156  19157  19173     1  0.0000000  0.6024960  3
  19162  19156  19155  19163     1  0.0000000  4.9162000  2
  19162  19156  19155  19163     1  0.0000000  0.6024960  3
  19163  19155  19152  19164     1  0.0000000  4.9162000  2
  19163  19155  19152  19164     1  0.0000000  0.6024960  3
  19164  19152  19151  19165     1  0.0000000  0.6508444  3
  19164  19152  19151  19173     1  0.0000000  4.9162000  2
  19164  19152  19151  19173     1  0.0000000  0.6024960  3
  19171  19165  19151  19173     1  0.0000000  4.9162000  2
  19171  19165  19151  19173     1  0.0000000  0.6024960  3
  19174  19175  19178  19179     1  180.0000771  0.8368000  1
  19174  19175  19178  19179     1  180.0000771  1.0460000  2
  19174  19175  19178  19179     1  0.0000000  0.7531200  3
  19174  19175  19178  19186     1  0.0000000  0.6508444  3
  19174  19196  19180  19179     1  180.0000771  0.4184000  2
  19174  19196  19180  19179     1  0.0000000  1.6024720  3
  19174  19196  19180  19184     1  180.0000771  5.6484000  1
  19174  19196  19180  19184     1  180.0000771  3.5564000  2
  19174  19196  19180  19184     1  0.0000000  0.4184000  3
  19175  19174  19188  19194     1  0.0000000  0.6508444  3
  19175  19174  19196  19180     1  180.0000771  0.4184000  2
  19175  19174  19196  19180     1  0.0000000  1.6024720  3
  19175  19178  19179  19180     1  180.0000771  0.8368000  1
  19175  19178  19179  19180     1  180.0000771  1.0460000  2
  19175  19178  19179  19180     1  0.0000000  0.7531200  3
  19175  19178  19179  19185     1  0.0000000  0.6508444  3
  19178  19175  19174  19188     1  180.0000771  0.8368000  1
  19178  19175  19174  19188     1  180.0000771  1.0460000  2
  19178  19175  19174  19188     1  0.0000000  0.7531200  3
  19178  19175  19174  19196     1  0.0000000  0.6508444  3
  19178  19179  19180  19184     1  0.0000000  0.6508444  3
  19178  19179  19180  19196     1  0.0000000  0.6508444  3
  19179  19178  19175  19187     1  0.0000000  0.6508444  3
  19180  19179  19178  19186     1  0.0000000  0.6508444  3
  19180  19196  19174  19188     1  180.0000771  0.4184000  2
  19180  19196  19174  19188     1  0.0000000  1.6024720  3
  19184  19180  19179  19185     1  0.0000000  4.9162000  2
  19184  19180  19179  19185     1  0.0000000  0.6024960  3
  19185  19179  19178  19186     1  0.0000000  4.9162000  2
  19185  19179  19178  19186     1  0.0000000  0.6024960  3
  19185  19179  19180  19196     1  0.0000000  4.9162000  2
  19185  19179  19180  19196     1  0.0000000  0.6024960  3
  19186  19178  19175  19187     1  0.0000000  4.9162000  2
  19186  19178  19175  19187     1  0.0000000  0.6024960  3
  19187  19175  19174  19188     1  0.0000000  0.6508444  3
  19187  19175  19174  19196     1  0.0000000  4.9162000  2
  19187  19175  19174  19196     1  0.0000000  0.6024960  3
  19194  19188  19174  19196     1  0.0000000  4.9162000  2
  19194  19188  19174  19196     1  0.0000000  0.6024960  3
  19197  19198  19201  19202     1  180.0000771  0.8368000  1
  19197  19198  19201  19202     1  180.0000771  1.0460000  2
  19197  19198  19201  19202     1  0.0000000  0.7531200  3
  19197  19198  19201  19209     1  0.0000000  0.6508444  3
  19197  19219  19203  19207     1  180.0000771  5.6484000  1
  19197  19219  19203  19207     1  180.0000771  3.5564000  2
  19197  19219  19203  19207     1  0.0000000  0.4184000  3
  19197  19219  19203  19202     1  180.0000771  0.4184000  2
  19197  19219  19203  19202     1  0.0000000  1.6024720  3
  19198  19201  19202  19203     1  180.0000771  0.8368000  1
  19198  19201  19202  19203     1  180.0000771  1.0460000  2
  19198  19201  19202  19203     1  0.0000000  0.7531200  3
  19198  19201  19202  19208     1  0.0000000  0.6508444  3
  19198  19197  19211  19217     1  0.0000000  0.6508444  3
  19198  19197  19219  19203     1  180.0000771  0.4184000  2
  19198  19197  19219  19203     1  0.0000000  1.6024720  3
  19201  19202  19203  19207     1  0.0000000  0.6508444  3
  19201  19202  19203  19219     1  0.0000000  0.6508444  3
  19201  19198  19197  19211     1  180.0000771  0.8368000  1
  19201  19198  19197  19211     1  180.0000771  1.0460000  2
  19201  19198  19197  19211     1  0.0000000  0.7531200  3
  19201  19198  19197  19219     1  0.0000000  0.6508444  3
  19202  19201  19198  19210     1  0.0000000  0.6508444  3
  19203  19219  19197  19211     1  180.0000771  0.4184000  2
  19203  19219  19197  19211     1  0.0000000  1.6024720  3
  19203  19202  19201  19209     1  0.0000000  0.6508444  3
  19207  19203  19202  19208     1  0.0000000  4.9162000  2
  19207  19203  19202  19208     1  0.0000000  0.6024960  3
  19208  19202  19203  19219     1  0.0000000  4.9162000  2
  19208  19202  19203  19219     1  0.0000000  0.6024960  3
  19208  19202  19201  19209     1  0.0000000  4.9162000  2
  19208  19202  19201  19209     1  0.0000000  0.6024960  3
  19209  19201  19198  19210     1  0.0000000  4.9162000  2
  19209  19201  19198  19210     1  0.0000000  0.6024960  3
  19210  19198  19197  19211     1  0.0000000  0.6508444  3
  19210  19198  19197  19219     1  0.0000000  4.9162000  2
  19210  19198  19197  19219     1  0.0000000  0.6024960  3
  19217  19211  19197  19219     1  0.0000000  4.9162000  2
  19217  19211  19197  19219     1  0.0000000  0.6024960  3
  19220  19221  19224  19225     1  180.0000771  0.8368000  1
  19220  19221  19224  19225     1  180.0000771  1.0460000  2
  19220  19221  19224  19225     1  0.0000000  0.7531200  3
  19220  19221  19224  19232     1  0.0000000  0.6508444  3
  19220  19242  19226  19225     1  180.0000771  0.4184000  2
  19220  19242  19226  19225     1  0.0000000  1.6024720  3
  19220  19242  19226  19230     1  180.0000771  5.6484000  1
  19220  19242  19226  19230     1  180.0000771  3.5564000  2
  19220  19242  19226  19230     1  0.0000000  0.4184000  3
  19221  19220  19234  19240     1  0.0000000  0.6508444  3
  19221  19220  19242  19226     1  180.0000771  0.4184000  2
  19221  19220  19242  19226     1  0.0000000  1.6024720  3
  19221  19224  19225  19226     1  180.0000771  0.8368000  1
  19221  19224  19225  19226     1  180.0000771  1.0460000  2
  19221  19224  19225  19226     1  0.0000000  0.7531200  3
  19221  19224  19225  19231     1  0.0000000  0.6508444  3
  19224  19221  19220  19234     1  180.0000771  0.8368000  1
  19224  19221  19220  19234     1  180.0000771  1.0460000  2
  19224  19221  19220  19234     1  0.0000000  0.7531200  3
  19224  19221  19220  19242     1  0.0000000  0.6508444  3
  19224  19225  19226  19230     1  0.0000000  0.6508444  3
  19224  19225  19226  19242     1  0.0000000  0.6508444  3
  19225  19224  19221  19233     1  0.0000000  0.6508444  3
  19226  19225  19224  19232     1  0.0000000  0.6508444  3
  19226  19242  19220  19234     1  180.0000771  0.4184000  2
  19226  19242  19220  19234     1  0.0000000  1.6024720  3
  19230  19226  19225  19231     1  0.0000000  4.9162000  2
  19230  19226  19225  19231     1  0.0000000  0.6024960  3
  19231  19225  19224  19232     1  0.0000000  4.9162000  2
  19231  19225  19224  19232     1  0.0000000  0.6024960  3
  19231  19225  19226  19242     1  0.0000000  4.9162000  2
  19231  19225  19226  19242     1  0.0000000  0.6024960  3
  19232  19224  19221  19233     1  0.0000000  4.9162000  2
  19232  19224  19221  19233     1  0.0000000  0.6024960  3
  19233  19221  19220  19234     1  0.0000000  0.6508444  3
  19233  19221  19220  19242     1  0.0000000  4.9162000  2
  19233  19221  19220  19242     1  0.0000000  0.6024960  3
  19240  19234  19220  19242     1  0.0000000  4.9162000  2
  19240  19234  19220  19242     1  0.0000000  0.6024960  3
  19243  19244  19247  19248     1  180.0000771  0.8368000  1
  19243  19244  19247  19248     1  180.0000771  1.0460000  2
  19243  19244  19247  19248     1  0.0000000  0.7531200  3
  19243  19244  19247  19255     1  0.0000000  0.6508444  3
  19243  19265  19249  19253     1  180.0000771  5.6484000  1
  19243  19265  19249  19253     1  180.0000771  3.5564000  2
  19243  19265  19249  19253     1  0.0000000  0.4184000  3
  19243  19265  19249  19248     1  180.0000771  0.4184000  2
  19243  19265  19249  19248     1  0.0000000  1.6024720  3
  19244  19247  19248  19249     1  180.0000771  0.8368000  1
  19244  19247  19248  19249     1  180.0000771  1.0460000  2
  19244  19247  19248  19249     1  0.0000000  0.7531200  3
  19244  19247  19248  19254     1  0.0000000  0.6508444  3
  19244  19243  19257  19263     1  0.0000000  0.6508444  3
  19244  19243  19265  19249     1  180.0000771  0.4184000  2
  19244  19243  19265  19249     1  0.0000000  1.6024720  3
  19247  19248  19249  19253     1  0.0000000  0.6508444  3
  19247  19248  19249  19265     1  0.0000000  0.6508444  3
  19247  19244  19243  19257     1  180.0000771  0.8368000  1
  19247  19244  19243  19257     1  180.0000771  1.0460000  2
  19247  19244  19243  19257     1  0.0000000  0.7531200  3
  19247  19244  19243  19265     1  0.0000000  0.6508444  3
  19248  19247  19244  19256     1  0.0000000  0.6508444  3
  19249  19265  19243  19257     1  180.0000771  0.4184000  2
  19249  19265  19243  19257     1  0.0000000  1.6024720  3
  19249  19248  19247  19255     1  0.0000000  0.6508444  3
  19253  19249  19248  19254     1  0.0000000  4.9162000  2
  19253  19249  19248  19254     1  0.0000000  0.6024960  3
  19254  19248  19249  19265     1  0.0000000  4.9162000  2
  19254  19248  19249  19265     1  0.0000000  0.6024960  3
  19254  19248  19247  19255     1  0.0000000  4.9162000  2
  19254  19248  19247  19255     1  0.0000000  0.6024960  3
  19255  19247  19244  19256     1  0.0000000  4.9162000  2
  19255  19247  19244  19256     1  0.0000000  0.6024960  3
  19256  19244  19243  19257     1  0.0000000  0.6508444  3
  19256  19244  19243  19265     1  0.0000000  4.9162000  2
  19256  19244  19243  19265     1  0.0000000  0.6024960  3
  19263  19257  19243  19265     1  0.0000000  4.9162000  2
  19263  19257  19243  19265     1  0.0000000  0.6024960  3
  19266  19267  19270  19271     1  180.0000771  0.8368000  1
  19266  19267  19270  19271     1  180.0000771  1.0460000  2
  19266  19267  19270  19271     1  0.0000000  0.7531200  3
  19266  19267  19270  19278     1  0.0000000  0.6508444  3
  19266  19288  19272  19271     1  180.0000771  0.4184000  2
  19266  19288  19272  19271     1  0.0000000  1.6024720  3
  19266  19288  19272  19276     1  180.0000771  5.6484000  1
  19266  19288  19272  19276     1  180.0000771  3.5564000  2
  19266  19288  19272  19276     1  0.0000000  0.4184000  3
  19267  19266  19280  19286     1  0.0000000  0.6508444  3
  19267  19266  19288  19272     1  180.0000771  0.4184000  2
  19267  19266  19288  19272     1  0.0000000  1.6024720  3
  19267  19270  19271  19272     1  180.0000771  0.8368000  1
  19267  19270  19271  19272     1  180.0000771  1.0460000  2
  19267  19270  19271  19272     1  0.0000000  0.7531200  3
  19267  19270  19271  19277     1  0.0000000  0.6508444  3
  19270  19267  19266  19280     1  180.0000771  0.8368000  1
  19270  19267  19266  19280     1  180.0000771  1.0460000  2
  19270  19267  19266  19280     1  0.0000000  0.7531200  3
  19270  19267  19266  19288     1  0.0000000  0.6508444  3
  19270  19271  19272  19276     1  0.0000000  0.6508444  3
  19270  19271  19272  19288     1  0.0000000  0.6508444  3
  19271  19270  19267  19279     1  0.0000000  0.6508444  3
  19272  19271  19270  19278     1  0.0000000  0.6508444  3
  19272  19288  19266  19280     1  180.0000771  0.4184000  2
  19272  19288  19266  19280     1  0.0000000  1.6024720  3
  19276  19272  19271  19277     1  0.0000000  4.9162000  2
  19276  19272  19271  19277     1  0.0000000  0.6024960  3
  19277  19271  19270  19278     1  0.0000000  4.9162000  2
  19277  19271  19270  19278     1  0.0000000  0.6024960  3
  19277  19271  19272  19288     1  0.0000000  4.9162000  2
  19277  19271  19272  19288     1  0.0000000  0.6024960  3
  19278  19270  19267  19279     1  0.0000000  4.9162000  2
  19278  19270  19267  19279     1  0.0000000  0.6024960  3
  19279  19267  19266  19280     1  0.0000000  0.6508444  3
  19279  19267  19266  19288     1  0.0000000  4.9162000  2
  19279  19267  19266  19288     1  0.0000000  0.6024960  3
  19286  19280  19266  19288     1  0.0000000  4.9162000  2
  19286  19280  19266  19288     1  0.0000000  0.6024960  3
  19289  19290  19293  19294     1  180.0000771  0.8368000  1
  19289  19290  19293  19294     1  180.0000771  1.0460000  2
  19289  19290  19293  19294     1  0.0000000  0.7531200  3
  19289  19290  19293  19301     1  0.0000000  0.6508444  3
  19289  19311  19295  19299     1  180.0000771  5.6484000  1
  19289  19311  19295  19299     1  180.0000771  3.5564000  2
  19289  19311  19295  19299     1  0.0000000  0.4184000  3
  19289  19311  19295  19294     1  180.0000771  0.4184000  2
  19289  19311  19295  19294     1  0.0000000  1.6024720  3
  19290  19293  19294  19295     1  180.0000771  0.8368000  1
  19290  19293  19294  19295     1  180.0000771  1.0460000  2
  19290  19293  19294  19295     1  0.0000000  0.7531200  3
  19290  19293  19294  19300     1  0.0000000  0.6508444  3
  19290  19289  19303  19309     1  0.0000000  0.6508444  3
  19290  19289  19311  19295     1  180.0000771  0.4184000  2
  19290  19289  19311  19295     1  0.0000000  1.6024720  3
  19293  19294  19295  19299     1  0.0000000  0.6508444  3
  19293  19294  19295  19311     1  0.0000000  0.6508444  3
  19293  19290  19289  19303     1  180.0000771  0.8368000  1
  19293  19290  19289  19303     1  180.0000771  1.0460000  2
  19293  19290  19289  19303     1  0.0000000  0.7531200  3
  19293  19290  19289  19311     1  0.0000000  0.6508444  3
  19294  19293  19290  19302     1  0.0000000  0.6508444  3
  19295  19311  19289  19303     1  180.0000771  0.4184000  2
  19295  19311  19289  19303     1  0.0000000  1.6024720  3
  19295  19294  19293  19301     1  0.0000000  0.6508444  3
  19299  19295  19294  19300     1  0.0000000  4.9162000  2
  19299  19295  19294  19300     1  0.0000000  0.6024960  3
  19300  19294  19295  19311     1  0.0000000  4.9162000  2
  19300  19294  19295  19311     1  0.0000000  0.6024960  3
  19300  19294  19293  19301     1  0.0000000  4.9162000  2
  19300  19294  19293  19301     1  0.0000000  0.6024960  3
  19301  19293  19290  19302     1  0.0000000  4.9162000  2
  19301  19293  19290  19302     1  0.0000000  0.6024960  3
  19302  19290  19289  19303     1  0.0000000  0.6508444  3
  19302  19290  19289  19311     1  0.0000000  4.9162000  2
  19302  19290  19289  19311     1  0.0000000  0.6024960  3
  19309  19303  19289  19311     1  0.0000000  4.9162000  2
  19309  19303  19289  19311     1  0.0000000  0.6024960  3
  19312  19313  19316  19317     1  180.0000771  0.8368000  1
  19312  19313  19316  19317     1  180.0000771  1.0460000  2
  19312  19313  19316  19317     1  0.0000000  0.7531200  3
  19312  19313  19316  19324     1  0.0000000  0.6508444  3
  19312  19334  19318  19317     1  180.0000771  0.4184000  2
  19312  19334  19318  19317     1  0.0000000  1.6024720  3
  19312  19334  19318  19322     1  180.0000771  5.6484000  1
  19312  19334  19318  19322     1  180.0000771  3.5564000  2
  19312  19334  19318  19322     1  0.0000000  0.4184000  3
  19313  19312  19326  19332     1  0.0000000  0.6508444  3
  19313  19312  19334  19318     1  180.0000771  0.4184000  2
  19313  19312  19334  19318     1  0.0000000  1.6024720  3
  19313  19316  19317  19318     1  180.0000771  0.8368000  1
  19313  19316  19317  19318     1  180.0000771  1.0460000  2
  19313  19316  19317  19318     1  0.0000000  0.7531200  3
  19313  19316  19317  19323     1  0.0000000  0.6508444  3
  19316  19313  19312  19326     1  180.0000771  0.8368000  1
  19316  19313  19312  19326     1  180.0000771  1.0460000  2
  19316  19313  19312  19326     1  0.0000000  0.7531200  3
  19316  19313  19312  19334     1  0.0000000  0.6508444  3
  19316  19317  19318  19322     1  0.0000000  0.6508444  3
  19316  19317  19318  19334     1  0.0000000  0.6508444  3
  19317  19316  19313  19325     1  0.0000000  0.6508444  3
  19318  19317  19316  19324     1  0.0000000  0.6508444  3
  19318  19334  19312  19326     1  180.0000771  0.4184000  2
  19318  19334  19312  19326     1  0.0000000  1.6024720  3
  19322  19318  19317  19323     1  0.0000000  4.9162000  2
  19322  19318  19317  19323     1  0.0000000  0.6024960  3
  19323  19317  19316  19324     1  0.0000000  4.9162000  2
  19323  19317  19316  19324     1  0.0000000  0.6024960  3
  19323  19317  19318  19334     1  0.0000000  4.9162000  2
  19323  19317  19318  19334     1  0.0000000  0.6024960  3
  19324  19316  19313  19325     1  0.0000000  4.9162000  2
  19324  19316  19313  19325     1  0.0000000  0.6024960  3
  19325  19313  19312  19326     1  0.0000000  0.6508444  3
  19325  19313  19312  19334     1  0.0000000  4.9162000  2
  19325  19313  19312  19334     1  0.0000000  0.6024960  3
  19332  19326  19312  19334     1  0.0000000  4.9162000  2
  19332  19326  19312  19334     1  0.0000000  0.6024960  3
  19335  19336  19339  19340     1  180.0000771  0.8368000  1
  19335  19336  19339  19340     1  180.0000771  1.0460000  2
  19335  19336  19339  19340     1  0.0000000  0.7531200  3
  19335  19336  19339  19347     1  0.0000000  0.6508444  3
  19335  19357  19341  19345     1  180.0000771  5.6484000  1
  19335  19357  19341  19345     1  180.0000771  3.5564000  2
  19335  19357  19341  19345     1  0.0000000  0.4184000  3
  19335  19357  19341  19340     1  180.0000771  0.4184000  2
  19335  19357  19341  19340     1  0.0000000  1.6024720  3
  19336  19339  19340  19341     1  180.0000771  0.8368000  1
  19336  19339  19340  19341     1  180.0000771  1.0460000  2
  19336  19339  19340  19341     1  0.0000000  0.7531200  3
  19336  19339  19340  19346     1  0.0000000  0.6508444  3
  19336  19335  19349  19355     1  0.0000000  0.6508444  3
  19336  19335  19357  19341     1  180.0000771  0.4184000  2
  19336  19335  19357  19341     1  0.0000000  1.6024720  3
  19339  19340  19341  19345     1  0.0000000  0.6508444  3
  19339  19340  19341  19357     1  0.0000000  0.6508444  3
  19339  19336  19335  19349     1  180.0000771  0.8368000  1
  19339  19336  19335  19349     1  180.0000771  1.0460000  2
  19339  19336  19335  19349     1  0.0000000  0.7531200  3
  19339  19336  19335  19357     1  0.0000000  0.6508444  3
  19340  19339  19336  19348     1  0.0000000  0.6508444  3
  19341  19357  19335  19349     1  180.0000771  0.4184000  2
  19341  19357  19335  19349     1  0.0000000  1.6024720  3
  19341  19340  19339  19347     1  0.0000000  0.6508444  3
  19345  19341  19340  19346     1  0.0000000  4.9162000  2
  19345  19341  19340  19346     1  0.0000000  0.6024960  3
  19346  19340  19341  19357     1  0.0000000  4.9162000  2
  19346  19340  19341  19357     1  0.0000000  0.6024960  3
  19346  19340  19339  19347     1  0.0000000  4.9162000  2
  19346  19340  19339  19347     1  0.0000000  0.6024960  3
  19347  19339  19336  19348     1  0.0000000  4.9162000  2
  19347  19339  19336  19348     1  0.0000000  0.6024960  3
  19348  19336  19335  19349     1  0.0000000  0.6508444  3
  19348  19336  19335  19357     1  0.0000000  4.9162000  2
  19348  19336  19335  19357     1  0.0000000  0.6024960  3
  19355  19349  19335  19357     1  0.0000000  4.9162000  2
  19355  19349  19335  19357     1  0.0000000  0.6024960  3
  19358  19359  19362  19363     1  180.0000771  0.8368000  1
  19358  19359  19362  19363     1  180.0000771  1.0460000  2
  19358  19359  19362  19363     1  0.0000000  0.7531200  3
  19358  19359  19362  19370     1  0.0000000  0.6508444  3
  19358  19380  19364  19363     1  180.0000771  0.4184000  2
  19358  19380  19364  19363     1  0.0000000  1.6024720  3
  19358  19380  19364  19368     1  180.0000771  5.6484000  1
  19358  19380  19364  19368     1  180.0000771  3.5564000  2
  19358  19380  19364  19368     1  0.0000000  0.4184000  3
  19359  19358  19372  19378     1  0.0000000  0.6508444  3
  19359  19358  19380  19364     1  180.0000771  0.4184000  2
  19359  19358  19380  19364     1  0.0000000  1.6024720  3
  19359  19362  19363  19364     1  180.0000771  0.8368000  1
  19359  19362  19363  19364     1  180.0000771  1.0460000  2
  19359  19362  19363  19364     1  0.0000000  0.7531200  3
  19359  19362  19363  19369     1  0.0000000  0.6508444  3
  19362  19359  19358  19372     1  180.0000771  0.8368000  1
  19362  19359  19358  19372     1  180.0000771  1.0460000  2
  19362  19359  19358  19372     1  0.0000000  0.7531200  3
  19362  19359  19358  19380     1  0.0000000  0.6508444  3
  19362  19363  19364  19368     1  0.0000000  0.6508444  3
  19362  19363  19364  19380     1  0.0000000  0.6508444  3
  19363  19362  19359  19371     1  0.0000000  0.6508444  3
  19364  19363  19362  19370     1  0.0000000  0.6508444  3
  19364  19380  19358  19372     1  180.0000771  0.4184000  2
  19364  19380  19358  19372     1  0.0000000  1.6024720  3
  19368  19364  19363  19369     1  0.0000000  4.9162000  2
  19368  19364  19363  19369     1  0.0000000  0.6024960  3
  19369  19363  19362  19370     1  0.0000000  4.9162000  2
  19369  19363  19362  19370     1  0.0000000  0.6024960  3
  19369  19363  19364  19380     1  0.0000000  4.9162000  2
  19369  19363  19364  19380     1  0.0000000  0.6024960  3
  19370  19362  19359  19371     1  0.0000000  4.9162000  2
  19370  19362  19359  19371     1  0.0000000  0.6024960  3
  19371  19359  19358  19372     1  0.0000000  0.6508444  3
  19371  19359  19358  19380     1  0.0000000  4.9162000  2
  19371  19359  19358  19380     1  0.0000000  0.6024960  3
  19378  19372  19358  19380     1  0.0000000  4.9162000  2
  19378  19372  19358  19380     1  0.0000000  0.6024960  3
  19381  19382  19385  19386     1  180.0000771  0.8368000  1
  19381  19382  19385  19386     1  180.0000771  1.0460000  2
  19381  19382  19385  19386     1  0.0000000  0.7531200  3
  19381  19382  19385  19393     1  0.0000000  0.6508444  3
  19381  19403  19387  19391     1  180.0000771  5.6484000  1
  19381  19403  19387  19391     1  180.0000771  3.5564000  2
  19381  19403  19387  19391     1  0.0000000  0.4184000  3
  19381  19403  19387  19386     1  180.0000771  0.4184000  2
  19381  19403  19387  19386     1  0.0000000  1.6024720  3
  19382  19385  19386  19387     1  180.0000771  0.8368000  1
  19382  19385  19386  19387     1  180.0000771  1.0460000  2
  19382  19385  19386  19387     1  0.0000000  0.7531200  3
  19382  19385  19386  19392     1  0.0000000  0.6508444  3
  19382  19381  19395  19401     1  0.0000000  0.6508444  3
  19382  19381  19403  19387     1  180.0000771  0.4184000  2
  19382  19381  19403  19387     1  0.0000000  1.6024720  3
  19385  19386  19387  19391     1  0.0000000  0.6508444  3
  19385  19386  19387  19403     1  0.0000000  0.6508444  3
  19385  19382  19381  19395     1  180.0000771  0.8368000  1
  19385  19382  19381  19395     1  180.0000771  1.0460000  2
  19385  19382  19381  19395     1  0.0000000  0.7531200  3
  19385  19382  19381  19403     1  0.0000000  0.6508444  3
  19386  19385  19382  19394     1  0.0000000  0.6508444  3
  19387  19403  19381  19395     1  180.0000771  0.4184000  2
  19387  19403  19381  19395     1  0.0000000  1.6024720  3
  19387  19386  19385  19393     1  0.0000000  0.6508444  3
  19391  19387  19386  19392     1  0.0000000  4.9162000  2
  19391  19387  19386  19392     1  0.0000000  0.6024960  3
  19392  19386  19387  19403     1  0.0000000  4.9162000  2
  19392  19386  19387  19403     1  0.0000000  0.6024960  3
  19392  19386  19385  19393     1  0.0000000  4.9162000  2
  19392  19386  19385  19393     1  0.0000000  0.6024960  3
  19393  19385  19382  19394     1  0.0000000  4.9162000  2
  19393  19385  19382  19394     1  0.0000000  0.6024960  3
  19394  19382  19381  19395     1  0.0000000  0.6508444  3
  19394  19382  19381  19403     1  0.0000000  4.9162000  2
  19394  19382  19381  19403     1  0.0000000  0.6024960  3
  19401  19395  19381  19403     1  0.0000000  4.9162000  2
  19401  19395  19381  19403     1  0.0000000  0.6024960  3
  19404  19405  19408  19409     1  180.0000771  0.8368000  1
  19404  19405  19408  19409     1  180.0000771  1.0460000  2
  19404  19405  19408  19409     1  0.0000000  0.7531200  3
  19404  19405  19408  19416     1  0.0000000  0.6508444  3
  19404  19426  19410  19409     1  180.0000771  0.4184000  2
  19404  19426  19410  19409     1  0.0000000  1.6024720  3
  19404  19426  19410  19414     1  180.0000771  5.6484000  1
  19404  19426  19410  19414     1  180.0000771  3.5564000  2
  19404  19426  19410  19414     1  0.0000000  0.4184000  3
  19405  19404  19418  19424     1  0.0000000  0.6508444  3
  19405  19404  19426  19410     1  180.0000771  0.4184000  2
  19405  19404  19426  19410     1  0.0000000  1.6024720  3
  19405  19408  19409  19410     1  180.0000771  0.8368000  1
  19405  19408  19409  19410     1  180.0000771  1.0460000  2
  19405  19408  19409  19410     1  0.0000000  0.7531200  3
  19405  19408  19409  19415     1  0.0000000  0.6508444  3
  19408  19405  19404  19418     1  180.0000771  0.8368000  1
  19408  19405  19404  19418     1  180.0000771  1.0460000  2
  19408  19405  19404  19418     1  0.0000000  0.7531200  3
  19408  19405  19404  19426     1  0.0000000  0.6508444  3
  19408  19409  19410  19414     1  0.0000000  0.6508444  3
  19408  19409  19410  19426     1  0.0000000  0.6508444  3
  19409  19408  19405  19417     1  0.0000000  0.6508444  3
  19410  19409  19408  19416     1  0.0000000  0.6508444  3
  19410  19426  19404  19418     1  180.0000771  0.4184000  2
  19410  19426  19404  19418     1  0.0000000  1.6024720  3
  19414  19410  19409  19415     1  0.0000000  4.9162000  2
  19414  19410  19409  19415     1  0.0000000  0.6024960  3
  19415  19409  19408  19416     1  0.0000000  4.9162000  2
  19415  19409  19408  19416     1  0.0000000  0.6024960  3
  19415  19409  19410  19426     1  0.0000000  4.9162000  2
  19415  19409  19410  19426     1  0.0000000  0.6024960  3
  19416  19408  19405  19417     1  0.0000000  4.9162000  2
  19416  19408  19405  19417     1  0.0000000  0.6024960  3
  19417  19405  19404  19418     1  0.0000000  0.6508444  3
  19417  19405  19404  19426     1  0.0000000  4.9162000  2
  19417  19405  19404  19426     1  0.0000000  0.6024960  3
  19424  19418  19404  19426     1  0.0000000  4.9162000  2
  19424  19418  19404  19426     1  0.0000000  0.6024960  3
  19427  19428  19431  19432     1  180.0000771  0.8368000  1
  19427  19428  19431  19432     1  180.0000771  1.0460000  2
  19427  19428  19431  19432     1  0.0000000  0.7531200  3
  19427  19428  19431  19439     1  0.0000000  0.6508444  3
  19427  19449  19433  19437     1  180.0000771  5.6484000  1
  19427  19449  19433  19437     1  180.0000771  3.5564000  2
  19427  19449  19433  19437     1  0.0000000  0.4184000  3
  19427  19449  19433  19432     1  180.0000771  0.4184000  2
  19427  19449  19433  19432     1  0.0000000  1.6024720  3
  19428  19431  19432  19433     1  180.0000771  0.8368000  1
  19428  19431  19432  19433     1  180.0000771  1.0460000  2
  19428  19431  19432  19433     1  0.0000000  0.7531200  3
  19428  19431  19432  19438     1  0.0000000  0.6508444  3
  19428  19427  19441  19447     1  0.0000000  0.6508444  3
  19428  19427  19449  19433     1  180.0000771  0.4184000  2
  19428  19427  19449  19433     1  0.0000000  1.6024720  3
  19431  19432  19433  19437     1  0.0000000  0.6508444  3
  19431  19432  19433  19449     1  0.0000000  0.6508444  3
  19431  19428  19427  19441     1  180.0000771  0.8368000  1
  19431  19428  19427  19441     1  180.0000771  1.0460000  2
  19431  19428  19427  19441     1  0.0000000  0.7531200  3
  19431  19428  19427  19449     1  0.0000000  0.6508444  3
  19432  19431  19428  19440     1  0.0000000  0.6508444  3
  19433  19449  19427  19441     1  180.0000771  0.4184000  2
  19433  19449  19427  19441     1  0.0000000  1.6024720  3
  19433  19432  19431  19439     1  0.0000000  0.6508444  3
  19437  19433  19432  19438     1  0.0000000  4.9162000  2
  19437  19433  19432  19438     1  0.0000000  0.6024960  3
  19438  19432  19433  19449     1  0.0000000  4.9162000  2
  19438  19432  19433  19449     1  0.0000000  0.6024960  3
  19438  19432  19431  19439     1  0.0000000  4.9162000  2
  19438  19432  19431  19439     1  0.0000000  0.6024960  3
  19439  19431  19428  19440     1  0.0000000  4.9162000  2
  19439  19431  19428  19440     1  0.0000000  0.6024960  3
  19440  19428  19427  19441     1  0.0000000  0.6508444  3
  19440  19428  19427  19449     1  0.0000000  4.9162000  2
  19440  19428  19427  19449     1  0.0000000  0.6024960  3
  19447  19441  19427  19449     1  0.0000000  4.9162000  2
  19447  19441  19427  19449     1  0.0000000  0.6024960  3
  19450  19451  19454  19455     1  180.0000771  0.8368000  1
  19450  19451  19454  19455     1  180.0000771  1.0460000  2
  19450  19451  19454  19455     1  0.0000000  0.7531200  3
  19450  19451  19454  19462     1  0.0000000  0.6508444  3
  19450  19472  19456  19455     1  180.0000771  0.4184000  2
  19450  19472  19456  19455     1  0.0000000  1.6024720  3
  19450  19472  19456  19460     1  180.0000771  5.6484000  1
  19450  19472  19456  19460     1  180.0000771  3.5564000  2
  19450  19472  19456  19460     1  0.0000000  0.4184000  3
  19451  19450  19464  19470     1  0.0000000  0.6508444  3
  19451  19450  19472  19456     1  180.0000771  0.4184000  2
  19451  19450  19472  19456     1  0.0000000  1.6024720  3
  19451  19454  19455  19456     1  180.0000771  0.8368000  1
  19451  19454  19455  19456     1  180.0000771  1.0460000  2
  19451  19454  19455  19456     1  0.0000000  0.7531200  3
  19451  19454  19455  19461     1  0.0000000  0.6508444  3
  19454  19451  19450  19464     1  180.0000771  0.8368000  1
  19454  19451  19450  19464     1  180.0000771  1.0460000  2
  19454  19451  19450  19464     1  0.0000000  0.7531200  3
  19454  19451  19450  19472     1  0.0000000  0.6508444  3
  19454  19455  19456  19460     1  0.0000000  0.6508444  3
  19454  19455  19456  19472     1  0.0000000  0.6508444  3
  19455  19454  19451  19463     1  0.0000000  0.6508444  3
  19456  19455  19454  19462     1  0.0000000  0.6508444  3
  19456  19472  19450  19464     1  180.0000771  0.4184000  2
  19456  19472  19450  19464     1  0.0000000  1.6024720  3
  19460  19456  19455  19461     1  0.0000000  4.9162000  2
  19460  19456  19455  19461     1  0.0000000  0.6024960  3
  19461  19455  19454  19462     1  0.0000000  4.9162000  2
  19461  19455  19454  19462     1  0.0000000  0.6024960  3
  19461  19455  19456  19472     1  0.0000000  4.9162000  2
  19461  19455  19456  19472     1  0.0000000  0.6024960  3
  19462  19454  19451  19463     1  0.0000000  4.9162000  2
  19462  19454  19451  19463     1  0.0000000  0.6024960  3
  19463  19451  19450  19464     1  0.0000000  0.6508444  3
  19463  19451  19450  19472     1  0.0000000  4.9162000  2
  19463  19451  19450  19472     1  0.0000000  0.6024960  3
  19470  19464  19450  19472     1  0.0000000  4.9162000  2
  19470  19464  19450  19472     1  0.0000000  0.6024960  3
  19473  19474  19477  19478     1  180.0000771  0.8368000  1
  19473  19474  19477  19478     1  180.0000771  1.0460000  2
  19473  19474  19477  19478     1  0.0000000  0.7531200  3
  19473  19474  19477  19485     1  0.0000000  0.6508444  3
  19473  19495  19479  19483     1  180.0000771  5.6484000  1
  19473  19495  19479  19483     1  180.0000771  3.5564000  2
  19473  19495  19479  19483     1  0.0000000  0.4184000  3
  19473  19495  19479  19478     1  180.0000771  0.4184000  2
  19473  19495  19479  19478     1  0.0000000  1.6024720  3
  19474  19477  19478  19479     1  180.0000771  0.8368000  1
  19474  19477  19478  19479     1  180.0000771  1.0460000  2
  19474  19477  19478  19479     1  0.0000000  0.7531200  3
  19474  19477  19478  19484     1  0.0000000  0.6508444  3
  19474  19473  19487  19493     1  0.0000000  0.6508444  3
  19474  19473  19495  19479     1  180.0000771  0.4184000  2
  19474  19473  19495  19479     1  0.0000000  1.6024720  3
  19477  19478  19479  19483     1  0.0000000  0.6508444  3
  19477  19478  19479  19495     1  0.0000000  0.6508444  3
  19477  19474  19473  19487     1  180.0000771  0.8368000  1
  19477  19474  19473  19487     1  180.0000771  1.0460000  2
  19477  19474  19473  19487     1  0.0000000  0.7531200  3
  19477  19474  19473  19495     1  0.0000000  0.6508444  3
  19478  19477  19474  19486     1  0.0000000  0.6508444  3
  19479  19495  19473  19487     1  180.0000771  0.4184000  2
  19479  19495  19473  19487     1  0.0000000  1.6024720  3
  19479  19478  19477  19485     1  0.0000000  0.6508444  3
  19483  19479  19478  19484     1  0.0000000  4.9162000  2
  19483  19479  19478  19484     1  0.0000000  0.6024960  3
  19484  19478  19479  19495     1  0.0000000  4.9162000  2
  19484  19478  19479  19495     1  0.0000000  0.6024960  3
  19484  19478  19477  19485     1  0.0000000  4.9162000  2
  19484  19478  19477  19485     1  0.0000000  0.6024960  3
  19485  19477  19474  19486     1  0.0000000  4.9162000  2
  19485  19477  19474  19486     1  0.0000000  0.6024960  3
  19486  19474  19473  19487     1  0.0000000  0.6508444  3
  19486  19474  19473  19495     1  0.0000000  4.9162000  2
  19486  19474  19473  19495     1  0.0000000  0.6024960  3
  19493  19487  19473  19495     1  0.0000000  4.9162000  2
  19493  19487  19473  19495     1  0.0000000  0.6024960  3
  19496  19497  19500  19501     1  180.0000771  0.8368000  1
  19496  19497  19500  19501     1  180.0000771  1.0460000  2
  19496  19497  19500  19501     1  0.0000000  0.7531200  3
  19496  19497  19500  19508     1  0.0000000  0.6508444  3
  19496  19518  19502  19501     1  180.0000771  0.4184000  2
  19496  19518  19502  19501     1  0.0000000  1.6024720  3
  19496  19518  19502  19506     1  180.0000771  5.6484000  1
  19496  19518  19502  19506     1  180.0000771  3.5564000  2
  19496  19518  19502  19506     1  0.0000000  0.4184000  3
  19497  19496  19510  19516     1  0.0000000  0.6508444  3
  19497  19496  19518  19502     1  180.0000771  0.4184000  2
  19497  19496  19518  19502     1  0.0000000  1.6024720  3
  19497  19500  19501  19502     1  180.0000771  0.8368000  1
  19497  19500  19501  19502     1  180.0000771  1.0460000  2
  19497  19500  19501  19502     1  0.0000000  0.7531200  3
  19497  19500  19501  19507     1  0.0000000  0.6508444  3
  19500  19497  19496  19510     1  180.0000771  0.8368000  1
  19500  19497  19496  19510     1  180.0000771  1.0460000  2
  19500  19497  19496  19510     1  0.0000000  0.7531200  3
  19500  19497  19496  19518     1  0.0000000  0.6508444  3
  19500  19501  19502  19506     1  0.0000000  0.6508444  3
  19500  19501  19502  19518     1  0.0000000  0.6508444  3
  19501  19500  19497  19509     1  0.0000000  0.6508444  3
  19502  19501  19500  19508     1  0.0000000  0.6508444  3
  19502  19518  19496  19510     1  180.0000771  0.4184000  2
  19502  19518  19496  19510     1  0.0000000  1.6024720  3
  19506  19502  19501  19507     1  0.0000000  4.9162000  2
  19506  19502  19501  19507     1  0.0000000  0.6024960  3
  19507  19501  19500  19508     1  0.0000000  4.9162000  2
  19507  19501  19500  19508     1  0.0000000  0.6024960  3
  19507  19501  19502  19518     1  0.0000000  4.9162000  2
  19507  19501  19502  19518     1  0.0000000  0.6024960  3
  19508  19500  19497  19509     1  0.0000000  4.9162000  2
  19508  19500  19497  19509     1  0.0000000  0.6024960  3
  19509  19497  19496  19510     1  0.0000000  0.6508444  3
  19509  19497  19496  19518     1  0.0000000  4.9162000  2
  19509  19497  19496  19518     1  0.0000000  0.6024960  3
  19516  19510  19496  19518     1  0.0000000  4.9162000  2
  19516  19510  19496  19518     1  0.0000000  0.6024960  3
  19519  19520  19523  19524     1  180.0000771  0.8368000  1
  19519  19520  19523  19524     1  180.0000771  1.0460000  2
  19519  19520  19523  19524     1  0.0000000  0.7531200  3
  19519  19520  19523  19531     1  0.0000000  0.6508444  3
  19519  19541  19525  19529     1  180.0000771  5.6484000  1
  19519  19541  19525  19529     1  180.0000771  3.5564000  2
  19519  19541  19525  19529     1  0.0000000  0.4184000  3
  19519  19541  19525  19524     1  180.0000771  0.4184000  2
  19519  19541  19525  19524     1  0.0000000  1.6024720  3
  19520  19523  19524  19525     1  180.0000771  0.8368000  1
  19520  19523  19524  19525     1  180.0000771  1.0460000  2
  19520  19523  19524  19525     1  0.0000000  0.7531200  3
  19520  19523  19524  19530     1  0.0000000  0.6508444  3
  19520  19519  19533  19539     1  0.0000000  0.6508444  3
  19520  19519  19541  19525     1  180.0000771  0.4184000  2
  19520  19519  19541  19525     1  0.0000000  1.6024720  3
  19523  19524  19525  19529     1  0.0000000  0.6508444  3
  19523  19524  19525  19541     1  0.0000000  0.6508444  3
  19523  19520  19519  19533     1  180.0000771  0.8368000  1
  19523  19520  19519  19533     1  180.0000771  1.0460000  2
  19523  19520  19519  19533     1  0.0000000  0.7531200  3
  19523  19520  19519  19541     1  0.0000000  0.6508444  3
  19524  19523  19520  19532     1  0.0000000  0.6508444  3
  19525  19541  19519  19533     1  180.0000771  0.4184000  2
  19525  19541  19519  19533     1  0.0000000  1.6024720  3
  19525  19524  19523  19531     1  0.0000000  0.6508444  3
  19529  19525  19524  19530     1  0.0000000  4.9162000  2
  19529  19525  19524  19530     1  0.0000000  0.6024960  3
  19530  19524  19525  19541     1  0.0000000  4.9162000  2
  19530  19524  19525  19541     1  0.0000000  0.6024960  3
  19530  19524  19523  19531     1  0.0000000  4.9162000  2
  19530  19524  19523  19531     1  0.0000000  0.6024960  3
  19531  19523  19520  19532     1  0.0000000  4.9162000  2
  19531  19523  19520  19532     1  0.0000000  0.6024960  3
  19532  19520  19519  19533     1  0.0000000  0.6508444  3
  19532  19520  19519  19541     1  0.0000000  4.9162000  2
  19532  19520  19519  19541     1  0.0000000  0.6024960  3
  19539  19533  19519  19541     1  0.0000000  4.9162000  2
  19539  19533  19519  19541     1  0.0000000  0.6024960  3
  19542  19543  19546  19547     1  180.0000771  0.8368000  1
  19542  19543  19546  19547     1  180.0000771  1.0460000  2
  19542  19543  19546  19547     1  0.0000000  0.7531200  3
  19542  19543  19546  19554     1  0.0000000  0.6508444  3
  19542  19564  19548  19547     1  180.0000771  0.4184000  2
  19542  19564  19548  19547     1  0.0000000  1.6024720  3
  19542  19564  19548  19552     1  180.0000771  5.6484000  1
  19542  19564  19548  19552     1  180.0000771  3.5564000  2
  19542  19564  19548  19552     1  0.0000000  0.4184000  3
  19543  19542  19556  19562     1  0.0000000  0.6508444  3
  19543  19542  19564  19548     1  180.0000771  0.4184000  2
  19543  19542  19564  19548     1  0.0000000  1.6024720  3
  19543  19546  19547  19548     1  180.0000771  0.8368000  1
  19543  19546  19547  19548     1  180.0000771  1.0460000  2
  19543  19546  19547  19548     1  0.0000000  0.7531200  3
  19543  19546  19547  19553     1  0.0000000  0.6508444  3
  19546  19543  19542  19556     1  180.0000771  0.8368000  1
  19546  19543  19542  19556     1  180.0000771  1.0460000  2
  19546  19543  19542  19556     1  0.0000000  0.7531200  3
  19546  19543  19542  19564     1  0.0000000  0.6508444  3
  19546  19547  19548  19552     1  0.0000000  0.6508444  3
  19546  19547  19548  19564     1  0.0000000  0.6508444  3
  19547  19546  19543  19555     1  0.0000000  0.6508444  3
  19548  19547  19546  19554     1  0.0000000  0.6508444  3
  19548  19564  19542  19556     1  180.0000771  0.4184000  2
  19548  19564  19542  19556     1  0.0000000  1.6024720  3
  19552  19548  19547  19553     1  0.0000000  4.9162000  2
  19552  19548  19547  19553     1  0.0000000  0.6024960  3
  19553  19547  19546  19554     1  0.0000000  4.9162000  2
  19553  19547  19546  19554     1  0.0000000  0.6024960  3
  19553  19547  19548  19564     1  0.0000000  4.9162000  2
  19553  19547  19548  19564     1  0.0000000  0.6024960  3
  19554  19546  19543  19555     1  0.0000000  4.9162000  2
  19554  19546  19543  19555     1  0.0000000  0.6024960  3
  19555  19543  19542  19556     1  0.0000000  0.6508444  3
  19555  19543  19542  19564     1  0.0000000  4.9162000  2
  19555  19543  19542  19564     1  0.0000000  0.6024960  3
  19562  19556  19542  19564     1  0.0000000  4.9162000  2
  19562  19556  19542  19564     1  0.0000000  0.6024960  3
  19565  19566  19569  19570     1  180.0000771  0.8368000  1
  19565  19566  19569  19570     1  180.0000771  1.0460000  2
  19565  19566  19569  19570     1  0.0000000  0.7531200  3
  19565  19566  19569  19577     1  0.0000000  0.6508444  3
  19565  19587  19571  19575     1  180.0000771  5.6484000  1
  19565  19587  19571  19575     1  180.0000771  3.5564000  2
  19565  19587  19571  19575     1  0.0000000  0.4184000  3
  19565  19587  19571  19570     1  180.0000771  0.4184000  2
  19565  19587  19571  19570     1  0.0000000  1.6024720  3
  19566  19569  19570  19571     1  180.0000771  0.8368000  1
  19566  19569  19570  19571     1  180.0000771  1.0460000  2
  19566  19569  19570  19571     1  0.0000000  0.7531200  3
  19566  19569  19570  19576     1  0.0000000  0.6508444  3
  19566  19565  19579  19585     1  0.0000000  0.6508444  3
  19566  19565  19587  19571     1  180.0000771  0.4184000  2
  19566  19565  19587  19571     1  0.0000000  1.6024720  3
  19569  19570  19571  19575     1  0.0000000  0.6508444  3
  19569  19570  19571  19587     1  0.0000000  0.6508444  3
  19569  19566  19565  19579     1  180.0000771  0.8368000  1
  19569  19566  19565  19579     1  180.0000771  1.0460000  2
  19569  19566  19565  19579     1  0.0000000  0.7531200  3
  19569  19566  19565  19587     1  0.0000000  0.6508444  3
  19570  19569  19566  19578     1  0.0000000  0.6508444  3
  19571  19587  19565  19579     1  180.0000771  0.4184000  2
  19571  19587  19565  19579     1  0.0000000  1.6024720  3
  19571  19570  19569  19577     1  0.0000000  0.6508444  3
  19575  19571  19570  19576     1  0.0000000  4.9162000  2
  19575  19571  19570  19576     1  0.0000000  0.6024960  3
  19576  19570  19571  19587     1  0.0000000  4.9162000  2
  19576  19570  19571  19587     1  0.0000000  0.6024960  3
  19576  19570  19569  19577     1  0.0000000  4.9162000  2
  19576  19570  19569  19577     1  0.0000000  0.6024960  3
  19577  19569  19566  19578     1  0.0000000  4.9162000  2
  19577  19569  19566  19578     1  0.0000000  0.6024960  3
  19578  19566  19565  19579     1  0.0000000  0.6508444  3
  19578  19566  19565  19587     1  0.0000000  4.9162000  2
  19578  19566  19565  19587     1  0.0000000  0.6024960  3
  19585  19579  19565  19587     1  0.0000000  4.9162000  2
  19585  19579  19565  19587     1  0.0000000  0.6024960  3
  19588  19589  19592  19593     1  180.0000771  0.8368000  1
  19588  19589  19592  19593     1  180.0000771  1.0460000  2
  19588  19589  19592  19593     1  0.0000000  0.7531200  3
  19588  19589  19592  19600     1  0.0000000  0.6508444  3
  19588  19610  19594  19593     1  180.0000771  0.4184000  2
  19588  19610  19594  19593     1  0.0000000  1.6024720  3
  19588  19610  19594  19598     1  180.0000771  5.6484000  1
  19588  19610  19594  19598     1  180.0000771  3.5564000  2
  19588  19610  19594  19598     1  0.0000000  0.4184000  3
  19589  19588  19602  19608     1  0.0000000  0.6508444  3
  19589  19588  19610  19594     1  180.0000771  0.4184000  2
  19589  19588  19610  19594     1  0.0000000  1.6024720  3
  19589  19592  19593  19594     1  180.0000771  0.8368000  1
  19589  19592  19593  19594     1  180.0000771  1.0460000  2
  19589  19592  19593  19594     1  0.0000000  0.7531200  3
  19589  19592  19593  19599     1  0.0000000  0.6508444  3
  19592  19589  19588  19602     1  180.0000771  0.8368000  1
  19592  19589  19588  19602     1  180.0000771  1.0460000  2
  19592  19589  19588  19602     1  0.0000000  0.7531200  3
  19592  19589  19588  19610     1  0.0000000  0.6508444  3
  19592  19593  19594  19598     1  0.0000000  0.6508444  3
  19592  19593  19594  19610     1  0.0000000  0.6508444  3
  19593  19592  19589  19601     1  0.0000000  0.6508444  3
  19594  19593  19592  19600     1  0.0000000  0.6508444  3
  19594  19610  19588  19602     1  180.0000771  0.4184000  2
  19594  19610  19588  19602     1  0.0000000  1.6024720  3
  19598  19594  19593  19599     1  0.0000000  4.9162000  2
  19598  19594  19593  19599     1  0.0000000  0.6024960  3
  19599  19593  19592  19600     1  0.0000000  4.9162000  2
  19599  19593  19592  19600     1  0.0000000  0.6024960  3
  19599  19593  19594  19610     1  0.0000000  4.9162000  2
  19599  19593  19594  19610     1  0.0000000  0.6024960  3
  19600  19592  19589  19601     1  0.0000000  4.9162000  2
  19600  19592  19589  19601     1  0.0000000  0.6024960  3
  19601  19589  19588  19602     1  0.0000000  0.6508444  3
  19601  19589  19588  19610     1  0.0000000  4.9162000  2
  19601  19589  19588  19610     1  0.0000000  0.6024960  3
  19608  19602  19588  19610     1  0.0000000  4.9162000  2
  19608  19602  19588  19610     1  0.0000000  0.6024960  3
  19611  19612  19615  19616     1  180.0000771  0.8368000  1
  19611  19612  19615  19616     1  180.0000771  1.0460000  2
  19611  19612  19615  19616     1  0.0000000  0.7531200  3
  19611  19612  19615  19623     1  0.0000000  0.6508444  3
  19611  19633  19617  19621     1  180.0000771  5.6484000  1
  19611  19633  19617  19621     1  180.0000771  3.5564000  2
  19611  19633  19617  19621     1  0.0000000  0.4184000  3
  19611  19633  19617  19616     1  180.0000771  0.4184000  2
  19611  19633  19617  19616     1  0.0000000  1.6024720  3
  19612  19615  19616  19617     1  180.0000771  0.8368000  1
  19612  19615  19616  19617     1  180.0000771  1.0460000  2
  19612  19615  19616  19617     1  0.0000000  0.7531200  3
  19612  19615  19616  19622     1  0.0000000  0.6508444  3
  19612  19611  19625  19631     1  0.0000000  0.6508444  3
  19612  19611  19633  19617     1  180.0000771  0.4184000  2
  19612  19611  19633  19617     1  0.0000000  1.6024720  3
  19615  19616  19617  19621     1  0.0000000  0.6508444  3
  19615  19616  19617  19633     1  0.0000000  0.6508444  3
  19615  19612  19611  19625     1  180.0000771  0.8368000  1
  19615  19612  19611  19625     1  180.0000771  1.0460000  2
  19615  19612  19611  19625     1  0.0000000  0.7531200  3
  19615  19612  19611  19633     1  0.0000000  0.6508444  3
  19616  19615  19612  19624     1  0.0000000  0.6508444  3
  19617  19633  19611  19625     1  180.0000771  0.4184000  2
  19617  19633  19611  19625     1  0.0000000  1.6024720  3
  19617  19616  19615  19623     1  0.0000000  0.6508444  3
  19621  19617  19616  19622     1  0.0000000  4.9162000  2
  19621  19617  19616  19622     1  0.0000000  0.6024960  3
  19622  19616  19617  19633     1  0.0000000  4.9162000  2
  19622  19616  19617  19633     1  0.0000000  0.6024960  3
  19622  19616  19615  19623     1  0.0000000  4.9162000  2
  19622  19616  19615  19623     1  0.0000000  0.6024960  3
  19623  19615  19612  19624     1  0.0000000  4.9162000  2
  19623  19615  19612  19624     1  0.0000000  0.6024960  3
  19624  19612  19611  19625     1  0.0000000  0.6508444  3
  19624  19612  19611  19633     1  0.0000000  4.9162000  2
  19624  19612  19611  19633     1  0.0000000  0.6024960  3
  19631  19625  19611  19633     1  0.0000000  4.9162000  2
  19631  19625  19611  19633     1  0.0000000  0.6024960  3
  19634  19635  19638  19639     1  180.0000771  0.8368000  1
  19634  19635  19638  19639     1  180.0000771  1.0460000  2
  19634  19635  19638  19639     1  0.0000000  0.7531200  3
  19634  19635  19638  19646     1  0.0000000  0.6508444  3
  19634  19656  19640  19639     1  180.0000771  0.4184000  2
  19634  19656  19640  19639     1  0.0000000  1.6024720  3
  19634  19656  19640  19644     1  180.0000771  5.6484000  1
  19634  19656  19640  19644     1  180.0000771  3.5564000  2
  19634  19656  19640  19644     1  0.0000000  0.4184000  3
  19635  19634  19648  19654     1  0.0000000  0.6508444  3
  19635  19634  19656  19640     1  180.0000771  0.4184000  2
  19635  19634  19656  19640     1  0.0000000  1.6024720  3
  19635  19638  19639  19640     1  180.0000771  0.8368000  1
  19635  19638  19639  19640     1  180.0000771  1.0460000  2
  19635  19638  19639  19640     1  0.0000000  0.7531200  3
  19635  19638  19639  19645     1  0.0000000  0.6508444  3
  19638  19635  19634  19648     1  180.0000771  0.8368000  1
  19638  19635  19634  19648     1  180.0000771  1.0460000  2
  19638  19635  19634  19648     1  0.0000000  0.7531200  3
  19638  19635  19634  19656     1  0.0000000  0.6508444  3
  19638  19639  19640  19644     1  0.0000000  0.6508444  3
  19638  19639  19640  19656     1  0.0000000  0.6508444  3
  19639  19638  19635  19647     1  0.0000000  0.6508444  3
  19640  19639  19638  19646     1  0.0000000  0.6508444  3
  19640  19656  19634  19648     1  180.0000771  0.4184000  2
  19640  19656  19634  19648     1  0.0000000  1.6024720  3
  19644  19640  19639  19645     1  0.0000000  4.9162000  2
  19644  19640  19639  19645     1  0.0000000  0.6024960  3
  19645  19639  19638  19646     1  0.0000000  4.9162000  2
  19645  19639  19638  19646     1  0.0000000  0.6024960  3
  19645  19639  19640  19656     1  0.0000000  4.9162000  2
  19645  19639  19640  19656     1  0.0000000  0.6024960  3
  19646  19638  19635  19647     1  0.0000000  4.9162000  2
  19646  19638  19635  19647     1  0.0000000  0.6024960  3
  19647  19635  19634  19648     1  0.0000000  0.6508444  3
  19647  19635  19634  19656     1  0.0000000  4.9162000  2
  19647  19635  19634  19656     1  0.0000000  0.6024960  3
  19654  19648  19634  19656     1  0.0000000  4.9162000  2
  19654  19648  19634  19656     1  0.0000000  0.6024960  3
  19657  19658  19661  19662     1  180.0000771  0.8368000  1
  19657  19658  19661  19662     1  180.0000771  1.0460000  2
  19657  19658  19661  19662     1  0.0000000  0.7531200  3
  19657  19658  19661  19669     1  0.0000000  0.6508444  3
  19657  19679  19663  19667     1  180.0000771  5.6484000  1
  19657  19679  19663  19667     1  180.0000771  3.5564000  2
  19657  19679  19663  19667     1  0.0000000  0.4184000  3
  19657  19679  19663  19662     1  180.0000771  0.4184000  2
  19657  19679  19663  19662     1  0.0000000  1.6024720  3
  19658  19661  19662  19663     1  180.0000771  0.8368000  1
  19658  19661  19662  19663     1  180.0000771  1.0460000  2
  19658  19661  19662  19663     1  0.0000000  0.7531200  3
  19658  19661  19662  19668     1  0.0000000  0.6508444  3
  19658  19657  19671  19677     1  0.0000000  0.6508444  3
  19658  19657  19679  19663     1  180.0000771  0.4184000  2
  19658  19657  19679  19663     1  0.0000000  1.6024720  3
  19661  19662  19663  19667     1  0.0000000  0.6508444  3
  19661  19662  19663  19679     1  0.0000000  0.6508444  3
  19661  19658  19657  19671     1  180.0000771  0.8368000  1
  19661  19658  19657  19671     1  180.0000771  1.0460000  2
  19661  19658  19657  19671     1  0.0000000  0.7531200  3
  19661  19658  19657  19679     1  0.0000000  0.6508444  3
  19662  19661  19658  19670     1  0.0000000  0.6508444  3
  19663  19679  19657  19671     1  180.0000771  0.4184000  2
  19663  19679  19657  19671     1  0.0000000  1.6024720  3
  19663  19662  19661  19669     1  0.0000000  0.6508444  3
  19667  19663  19662  19668     1  0.0000000  4.9162000  2
  19667  19663  19662  19668     1  0.0000000  0.6024960  3
  19668  19662  19663  19679     1  0.0000000  4.9162000  2
  19668  19662  19663  19679     1  0.0000000  0.6024960  3
  19668  19662  19661  19669     1  0.0000000  4.9162000  2
  19668  19662  19661  19669     1  0.0000000  0.6024960  3
  19669  19661  19658  19670     1  0.0000000  4.9162000  2
  19669  19661  19658  19670     1  0.0000000  0.6024960  3
  19670  19658  19657  19671     1  0.0000000  0.6508444  3
  19670  19658  19657  19679     1  0.0000000  4.9162000  2
  19670  19658  19657  19679     1  0.0000000  0.6024960  3
  19677  19671  19657  19679     1  0.0000000  4.9162000  2
  19677  19671  19657  19679     1  0.0000000  0.6024960  3
  19680  19681  19684  19685     1  180.0000771  0.8368000  1
  19680  19681  19684  19685     1  180.0000771  1.0460000  2
  19680  19681  19684  19685     1  0.0000000  0.7531200  3
  19680  19681  19684  19692     1  0.0000000  0.6508444  3
  19680  19702  19686  19685     1  180.0000771  0.4184000  2
  19680  19702  19686  19685     1  0.0000000  1.6024720  3
  19680  19702  19686  19690     1  180.0000771  5.6484000  1
  19680  19702  19686  19690     1  180.0000771  3.5564000  2
  19680  19702  19686  19690     1  0.0000000  0.4184000  3
  19681  19680  19694  19700     1  0.0000000  0.6508444  3
  19681  19680  19702  19686     1  180.0000771  0.4184000  2
  19681  19680  19702  19686     1  0.0000000  1.6024720  3
  19681  19684  19685  19686     1  180.0000771  0.8368000  1
  19681  19684  19685  19686     1  180.0000771  1.0460000  2
  19681  19684  19685  19686     1  0.0000000  0.7531200  3
  19681  19684  19685  19691     1  0.0000000  0.6508444  3
  19684  19681  19680  19694     1  180.0000771  0.8368000  1
  19684  19681  19680  19694     1  180.0000771  1.0460000  2
  19684  19681  19680  19694     1  0.0000000  0.7531200  3
  19684  19681  19680  19702     1  0.0000000  0.6508444  3
  19684  19685  19686  19690     1  0.0000000  0.6508444  3
  19684  19685  19686  19702     1  0.0000000  0.6508444  3
  19685  19684  19681  19693     1  0.0000000  0.6508444  3
  19686  19685  19684  19692     1  0.0000000  0.6508444  3
  19686  19702  19680  19694     1  180.0000771  0.4184000  2
  19686  19702  19680  19694     1  0.0000000  1.6024720  3
  19690  19686  19685  19691     1  0.0000000  4.9162000  2
  19690  19686  19685  19691     1  0.0000000  0.6024960  3
  19691  19685  19684  19692     1  0.0000000  4.9162000  2
  19691  19685  19684  19692     1  0.0000000  0.6024960  3
  19691  19685  19686  19702     1  0.0000000  4.9162000  2
  19691  19685  19686  19702     1  0.0000000  0.6024960  3
  19692  19684  19681  19693     1  0.0000000  4.9162000  2
  19692  19684  19681  19693     1  0.0000000  0.6024960  3
  19693  19681  19680  19694     1  0.0000000  0.6508444  3
  19693  19681  19680  19702     1  0.0000000  4.9162000  2
  19693  19681  19680  19702     1  0.0000000  0.6024960  3
  19700  19694  19680  19702     1  0.0000000  4.9162000  2
  19700  19694  19680  19702     1  0.0000000  0.6024960  3
  19703  19704  19707  19708     1  180.0000771  0.8368000  1
  19703  19704  19707  19708     1  180.0000771  1.0460000  2
  19703  19704  19707  19708     1  0.0000000  0.7531200  3
  19703  19704  19707  19715     1  0.0000000  0.6508444  3
  19703  19725  19709  19713     1  180.0000771  5.6484000  1
  19703  19725  19709  19713     1  180.0000771  3.5564000  2
  19703  19725  19709  19713     1  0.0000000  0.4184000  3
  19703  19725  19709  19708     1  180.0000771  0.4184000  2
  19703  19725  19709  19708     1  0.0000000  1.6024720  3
  19704  19707  19708  19709     1  180.0000771  0.8368000  1
  19704  19707  19708  19709     1  180.0000771  1.0460000  2
  19704  19707  19708  19709     1  0.0000000  0.7531200  3
  19704  19707  19708  19714     1  0.0000000  0.6508444  3
  19704  19703  19717  19723     1  0.0000000  0.6508444  3
  19704  19703  19725  19709     1  180.0000771  0.4184000  2
  19704  19703  19725  19709     1  0.0000000  1.6024720  3
  19707  19708  19709  19713     1  0.0000000  0.6508444  3
  19707  19708  19709  19725     1  0.0000000  0.6508444  3
  19707  19704  19703  19717     1  180.0000771  0.8368000  1
  19707  19704  19703  19717     1  180.0000771  1.0460000  2
  19707  19704  19703  19717     1  0.0000000  0.7531200  3
  19707  19704  19703  19725     1  0.0000000  0.6508444  3
  19708  19707  19704  19716     1  0.0000000  0.6508444  3
  19709  19725  19703  19717     1  180.0000771  0.4184000  2
  19709  19725  19703  19717     1  0.0000000  1.6024720  3
  19709  19708  19707  19715     1  0.0000000  0.6508444  3
  19713  19709  19708  19714     1  0.0000000  4.9162000  2
  19713  19709  19708  19714     1  0.0000000  0.6024960  3
  19714  19708  19709  19725     1  0.0000000  4.9162000  2
  19714  19708  19709  19725     1  0.0000000  0.6024960  3
  19714  19708  19707  19715     1  0.0000000  4.9162000  2
  19714  19708  19707  19715     1  0.0000000  0.6024960  3
  19715  19707  19704  19716     1  0.0000000  4.9162000  2
  19715  19707  19704  19716     1  0.0000000  0.6024960  3
  19716  19704  19703  19717     1  0.0000000  0.6508444  3
  19716  19704  19703  19725     1  0.0000000  4.9162000  2
  19716  19704  19703  19725     1  0.0000000  0.6024960  3
  19723  19717  19703  19725     1  0.0000000  4.9162000  2
  19723  19717  19703  19725     1  0.0000000  0.6024960  3
  19726  19727  19730  19731     1  180.0000771  0.8368000  1
  19726  19727  19730  19731     1  180.0000771  1.0460000  2
  19726  19727  19730  19731     1  0.0000000  0.7531200  3
  19726  19727  19730  19738     1  0.0000000  0.6508444  3
  19726  19748  19732  19731     1  180.0000771  0.4184000  2
  19726  19748  19732  19731     1  0.0000000  1.6024720  3
  19726  19748  19732  19736     1  180.0000771  5.6484000  1
  19726  19748  19732  19736     1  180.0000771  3.5564000  2
  19726  19748  19732  19736     1  0.0000000  0.4184000  3
  19727  19726  19740  19746     1  0.0000000  0.6508444  3
  19727  19726  19748  19732     1  180.0000771  0.4184000  2
  19727  19726  19748  19732     1  0.0000000  1.6024720  3
  19727  19730  19731  19732     1  180.0000771  0.8368000  1
  19727  19730  19731  19732     1  180.0000771  1.0460000  2
  19727  19730  19731  19732     1  0.0000000  0.7531200  3
  19727  19730  19731  19737     1  0.0000000  0.6508444  3
  19730  19727  19726  19740     1  180.0000771  0.8368000  1
  19730  19727  19726  19740     1  180.0000771  1.0460000  2
  19730  19727  19726  19740     1  0.0000000  0.7531200  3
  19730  19727  19726  19748     1  0.0000000  0.6508444  3
  19730  19731  19732  19736     1  0.0000000  0.6508444  3
  19730  19731  19732  19748     1  0.0000000  0.6508444  3
  19731  19730  19727  19739     1  0.0000000  0.6508444  3
  19732  19731  19730  19738     1  0.0000000  0.6508444  3
  19732  19748  19726  19740     1  180.0000771  0.4184000  2
  19732  19748  19726  19740     1  0.0000000  1.6024720  3
  19736  19732  19731  19737     1  0.0000000  4.9162000  2
  19736  19732  19731  19737     1  0.0000000  0.6024960  3
  19737  19731  19730  19738     1  0.0000000  4.9162000  2
  19737  19731  19730  19738     1  0.0000000  0.6024960  3
  19737  19731  19732  19748     1  0.0000000  4.9162000  2
  19737  19731  19732  19748     1  0.0000000  0.6024960  3
  19738  19730  19727  19739     1  0.0000000  4.9162000  2
  19738  19730  19727  19739     1  0.0000000  0.6024960  3
  19739  19727  19726  19740     1  0.0000000  0.6508444  3
  19739  19727  19726  19748     1  0.0000000  4.9162000  2
  19739  19727  19726  19748     1  0.0000000  0.6024960  3
  19746  19740  19726  19748     1  0.0000000  4.9162000  2
  19746  19740  19726  19748     1  0.0000000  0.6024960  3
  19749  19750  19753  19754     1  180.0000771  0.8368000  1
  19749  19750  19753  19754     1  180.0000771  1.0460000  2
  19749  19750  19753  19754     1  0.0000000  0.7531200  3
  19749  19750  19753  19761     1  0.0000000  0.6508444  3
  19749  19771  19755  19759     1  180.0000771  5.6484000  1
  19749  19771  19755  19759     1  180.0000771  3.5564000  2
  19749  19771  19755  19759     1  0.0000000  0.4184000  3
  19749  19771  19755  19754     1  180.0000771  0.4184000  2
  19749  19771  19755  19754     1  0.0000000  1.6024720  3
  19750  19753  19754  19755     1  180.0000771  0.8368000  1
  19750  19753  19754  19755     1  180.0000771  1.0460000  2
  19750  19753  19754  19755     1  0.0000000  0.7531200  3
  19750  19753  19754  19760     1  0.0000000  0.6508444  3
  19750  19749  19763  19769     1  0.0000000  0.6508444  3
  19750  19749  19771  19755     1  180.0000771  0.4184000  2
  19750  19749  19771  19755     1  0.0000000  1.6024720  3
  19753  19754  19755  19759     1  0.0000000  0.6508444  3
  19753  19754  19755  19771     1  0.0000000  0.6508444  3
  19753  19750  19749  19763     1  180.0000771  0.8368000  1
  19753  19750  19749  19763     1  180.0000771  1.0460000  2
  19753  19750  19749  19763     1  0.0000000  0.7531200  3
  19753  19750  19749  19771     1  0.0000000  0.6508444  3
  19754  19753  19750  19762     1  0.0000000  0.6508444  3
  19755  19771  19749  19763     1  180.0000771  0.4184000  2
  19755  19771  19749  19763     1  0.0000000  1.6024720  3
  19755  19754  19753  19761     1  0.0000000  0.6508444  3
  19759  19755  19754  19760     1  0.0000000  4.9162000  2
  19759  19755  19754  19760     1  0.0000000  0.6024960  3
  19760  19754  19755  19771     1  0.0000000  4.9162000  2
  19760  19754  19755  19771     1  0.0000000  0.6024960  3
  19760  19754  19753  19761     1  0.0000000  4.9162000  2
  19760  19754  19753  19761     1  0.0000000  0.6024960  3
  19761  19753  19750  19762     1  0.0000000  4.9162000  2
  19761  19753  19750  19762     1  0.0000000  0.6024960  3
  19762  19750  19749  19763     1  0.0000000  0.6508444  3
  19762  19750  19749  19771     1  0.0000000  4.9162000  2
  19762  19750  19749  19771     1  0.0000000  0.6024960  3
  19769  19763  19749  19771     1  0.0000000  4.9162000  2
  19769  19763  19749  19771     1  0.0000000  0.6024960  3
  19772  19773  19776  19777     1  180.0000771  0.8368000  1
  19772  19773  19776  19777     1  180.0000771  1.0460000  2
  19772  19773  19776  19777     1  0.0000000  0.7531200  3
  19772  19773  19776  19784     1  0.0000000  0.6508444  3
  19772  19794  19778  19777     1  180.0000771  0.4184000  2
  19772  19794  19778  19777     1  0.0000000  1.6024720  3
  19772  19794  19778  19782     1  180.0000771  5.6484000  1
  19772  19794  19778  19782     1  180.0000771  3.5564000  2
  19772  19794  19778  19782     1  0.0000000  0.4184000  3
  19773  19772  19786  19792     1  0.0000000  0.6508444  3
  19773  19772  19794  19778     1  180.0000771  0.4184000  2
  19773  19772  19794  19778     1  0.0000000  1.6024720  3
  19773  19776  19777  19778     1  180.0000771  0.8368000  1
  19773  19776  19777  19778     1  180.0000771  1.0460000  2
  19773  19776  19777  19778     1  0.0000000  0.7531200  3
  19773  19776  19777  19783     1  0.0000000  0.6508444  3
  19776  19773  19772  19786     1  180.0000771  0.8368000  1
  19776  19773  19772  19786     1  180.0000771  1.0460000  2
  19776  19773  19772  19786     1  0.0000000  0.7531200  3
  19776  19773  19772  19794     1  0.0000000  0.6508444  3
  19776  19777  19778  19782     1  0.0000000  0.6508444  3
  19776  19777  19778  19794     1  0.0000000  0.6508444  3
  19777  19776  19773  19785     1  0.0000000  0.6508444  3
  19778  19777  19776  19784     1  0.0000000  0.6508444  3
  19778  19794  19772  19786     1  180.0000771  0.4184000  2
  19778  19794  19772  19786     1  0.0000000  1.6024720  3
  19782  19778  19777  19783     1  0.0000000  4.9162000  2
  19782  19778  19777  19783     1  0.0000000  0.6024960  3
  19783  19777  19776  19784     1  0.0000000  4.9162000  2
  19783  19777  19776  19784     1  0.0000000  0.6024960  3
  19783  19777  19778  19794     1  0.0000000  4.9162000  2
  19783  19777  19778  19794     1  0.0000000  0.6024960  3
  19784  19776  19773  19785     1  0.0000000  4.9162000  2
  19784  19776  19773  19785     1  0.0000000  0.6024960  3
  19785  19773  19772  19786     1  0.0000000  0.6508444  3
  19785  19773  19772  19794     1  0.0000000  4.9162000  2
  19785  19773  19772  19794     1  0.0000000  0.6024960  3
  19792  19786  19772  19794     1  0.0000000  4.9162000  2
  19792  19786  19772  19794     1  0.0000000  0.6024960  3
  19795  19796  19799  19800     1  180.0000771  0.8368000  1
  19795  19796  19799  19800     1  180.0000771  1.0460000  2
  19795  19796  19799  19800     1  0.0000000  0.7531200  3
  19795  19796  19799  19807     1  0.0000000  0.6508444  3
  19795  19817  19801  19805     1  180.0000771  5.6484000  1
  19795  19817  19801  19805     1  180.0000771  3.5564000  2
  19795  19817  19801  19805     1  0.0000000  0.4184000  3
  19795  19817  19801  19800     1  180.0000771  0.4184000  2
  19795  19817  19801  19800     1  0.0000000  1.6024720  3
  19796  19799  19800  19801     1  180.0000771  0.8368000  1
  19796  19799  19800  19801     1  180.0000771  1.0460000  2
  19796  19799  19800  19801     1  0.0000000  0.7531200  3
  19796  19799  19800  19806     1  0.0000000  0.6508444  3
  19796  19795  19809  19815     1  0.0000000  0.6508444  3
  19796  19795  19817  19801     1  180.0000771  0.4184000  2
  19796  19795  19817  19801     1  0.0000000  1.6024720  3
  19799  19800  19801  19805     1  0.0000000  0.6508444  3
  19799  19800  19801  19817     1  0.0000000  0.6508444  3
  19799  19796  19795  19809     1  180.0000771  0.8368000  1
  19799  19796  19795  19809     1  180.0000771  1.0460000  2
  19799  19796  19795  19809     1  0.0000000  0.7531200  3
  19799  19796  19795  19817     1  0.0000000  0.6508444  3
  19800  19799  19796  19808     1  0.0000000  0.6508444  3
  19801  19817  19795  19809     1  180.0000771  0.4184000  2
  19801  19817  19795  19809     1  0.0000000  1.6024720  3
  19801  19800  19799  19807     1  0.0000000  0.6508444  3
  19805  19801  19800  19806     1  0.0000000  4.9162000  2
  19805  19801  19800  19806     1  0.0000000  0.6024960  3
  19806  19800  19801  19817     1  0.0000000  4.9162000  2
  19806  19800  19801  19817     1  0.0000000  0.6024960  3
  19806  19800  19799  19807     1  0.0000000  4.9162000  2
  19806  19800  19799  19807     1  0.0000000  0.6024960  3
  19807  19799  19796  19808     1  0.0000000  4.9162000  2
  19807  19799  19796  19808     1  0.0000000  0.6024960  3
  19808  19796  19795  19809     1  0.0000000  0.6508444  3
  19808  19796  19795  19817     1  0.0000000  4.9162000  2
  19808  19796  19795  19817     1  0.0000000  0.6024960  3
  19815  19809  19795  19817     1  0.0000000  4.9162000  2
  19815  19809  19795  19817     1  0.0000000  0.6024960  3
  19818  19819  19822  19823     1  180.0000771  0.8368000  1
  19818  19819  19822  19823     1  180.0000771  1.0460000  2
  19818  19819  19822  19823     1  0.0000000  0.7531200  3
  19818  19819  19822  19830     1  0.0000000  0.6508444  3
  19818  19840  19824  19823     1  180.0000771  0.4184000  2
  19818  19840  19824  19823     1  0.0000000  1.6024720  3
  19818  19840  19824  19828     1  180.0000771  5.6484000  1
  19818  19840  19824  19828     1  180.0000771  3.5564000  2
  19818  19840  19824  19828     1  0.0000000  0.4184000  3
  19819  19818  19832  19838     1  0.0000000  0.6508444  3
  19819  19818  19840  19824     1  180.0000771  0.4184000  2
  19819  19818  19840  19824     1  0.0000000  1.6024720  3
  19819  19822  19823  19824     1  180.0000771  0.8368000  1
  19819  19822  19823  19824     1  180.0000771  1.0460000  2
  19819  19822  19823  19824     1  0.0000000  0.7531200  3
  19819  19822  19823  19829     1  0.0000000  0.6508444  3
  19822  19819  19818  19832     1  180.0000771  0.8368000  1
  19822  19819  19818  19832     1  180.0000771  1.0460000  2
  19822  19819  19818  19832     1  0.0000000  0.7531200  3
  19822  19819  19818  19840     1  0.0000000  0.6508444  3
  19822  19823  19824  19828     1  0.0000000  0.6508444  3
  19822  19823  19824  19840     1  0.0000000  0.6508444  3
  19823  19822  19819  19831     1  0.0000000  0.6508444  3
  19824  19823  19822  19830     1  0.0000000  0.6508444  3
  19824  19840  19818  19832     1  180.0000771  0.4184000  2
  19824  19840  19818  19832     1  0.0000000  1.6024720  3
  19828  19824  19823  19829     1  0.0000000  4.9162000  2
  19828  19824  19823  19829     1  0.0000000  0.6024960  3
  19829  19823  19822  19830     1  0.0000000  4.9162000  2
  19829  19823  19822  19830     1  0.0000000  0.6024960  3
  19829  19823  19824  19840     1  0.0000000  4.9162000  2
  19829  19823  19824  19840     1  0.0000000  0.6024960  3
  19830  19822  19819  19831     1  0.0000000  4.9162000  2
  19830  19822  19819  19831     1  0.0000000  0.6024960  3
  19831  19819  19818  19832     1  0.0000000  0.6508444  3
  19831  19819  19818  19840     1  0.0000000  4.9162000  2
  19831  19819  19818  19840     1  0.0000000  0.6024960  3
  19838  19832  19818  19840     1  0.0000000  4.9162000  2
  19838  19832  19818  19840     1  0.0000000  0.6024960  3
  19841  19842  19845  19846     1  180.0000771  0.8368000  1
  19841  19842  19845  19846     1  180.0000771  1.0460000  2
  19841  19842  19845  19846     1  0.0000000  0.7531200  3
  19841  19842  19845  19853     1  0.0000000  0.6508444  3
  19841  19863  19847  19851     1  180.0000771  5.6484000  1
  19841  19863  19847  19851     1  180.0000771  3.5564000  2
  19841  19863  19847  19851     1  0.0000000  0.4184000  3
  19841  19863  19847  19846     1  180.0000771  0.4184000  2
  19841  19863  19847  19846     1  0.0000000  1.6024720  3
  19842  19845  19846  19847     1  180.0000771  0.8368000  1
  19842  19845  19846  19847     1  180.0000771  1.0460000  2
  19842  19845  19846  19847     1  0.0000000  0.7531200  3
  19842  19845  19846  19852     1  0.0000000  0.6508444  3
  19842  19841  19855  19861     1  0.0000000  0.6508444  3
  19842  19841  19863  19847     1  180.0000771  0.4184000  2
  19842  19841  19863  19847     1  0.0000000  1.6024720  3
  19845  19846  19847  19851     1  0.0000000  0.6508444  3
  19845  19846  19847  19863     1  0.0000000  0.6508444  3
  19845  19842  19841  19855     1  180.0000771  0.8368000  1
  19845  19842  19841  19855     1  180.0000771  1.0460000  2
  19845  19842  19841  19855     1  0.0000000  0.7531200  3
  19845  19842  19841  19863     1  0.0000000  0.6508444  3
  19846  19845  19842  19854     1  0.0000000  0.6508444  3
  19847  19863  19841  19855     1  180.0000771  0.4184000  2
  19847  19863  19841  19855     1  0.0000000  1.6024720  3
  19847  19846  19845  19853     1  0.0000000  0.6508444  3
  19851  19847  19846  19852     1  0.0000000  4.9162000  2
  19851  19847  19846  19852     1  0.0000000  0.6024960  3
  19852  19846  19847  19863     1  0.0000000  4.9162000  2
  19852  19846  19847  19863     1  0.0000000  0.6024960  3
  19852  19846  19845  19853     1  0.0000000  4.9162000  2
  19852  19846  19845  19853     1  0.0000000  0.6024960  3
  19853  19845  19842  19854     1  0.0000000  4.9162000  2
  19853  19845  19842  19854     1  0.0000000  0.6024960  3
  19854  19842  19841  19855     1  0.0000000  0.6508444  3
  19854  19842  19841  19863     1  0.0000000  4.9162000  2
  19854  19842  19841  19863     1  0.0000000  0.6024960  3
  19861  19855  19841  19863     1  0.0000000  4.9162000  2
  19861  19855  19841  19863     1  0.0000000  0.6024960  3
  19864  19865  19868  19869     1  180.0000771  0.8368000  1
  19864  19865  19868  19869     1  180.0000771  1.0460000  2
  19864  19865  19868  19869     1  0.0000000  0.7531200  3
  19864  19865  19868  19876     1  0.0000000  0.6508444  3
  19864  19886  19870  19869     1  180.0000771  0.4184000  2
  19864  19886  19870  19869     1  0.0000000  1.6024720  3
  19864  19886  19870  19874     1  180.0000771  5.6484000  1
  19864  19886  19870  19874     1  180.0000771  3.5564000  2
  19864  19886  19870  19874     1  0.0000000  0.4184000  3
  19865  19864  19878  19884     1  0.0000000  0.6508444  3
  19865  19864  19886  19870     1  180.0000771  0.4184000  2
  19865  19864  19886  19870     1  0.0000000  1.6024720  3
  19865  19868  19869  19870     1  180.0000771  0.8368000  1
  19865  19868  19869  19870     1  180.0000771  1.0460000  2
  19865  19868  19869  19870     1  0.0000000  0.7531200  3
  19865  19868  19869  19875     1  0.0000000  0.6508444  3
  19868  19865  19864  19878     1  180.0000771  0.8368000  1
  19868  19865  19864  19878     1  180.0000771  1.0460000  2
  19868  19865  19864  19878     1  0.0000000  0.7531200  3
  19868  19865  19864  19886     1  0.0000000  0.6508444  3
  19868  19869  19870  19874     1  0.0000000  0.6508444  3
  19868  19869  19870  19886     1  0.0000000  0.6508444  3
  19869  19868  19865  19877     1  0.0000000  0.6508444  3
  19870  19869  19868  19876     1  0.0000000  0.6508444  3
  19870  19886  19864  19878     1  180.0000771  0.4184000  2
  19870  19886  19864  19878     1  0.0000000  1.6024720  3
  19874  19870  19869  19875     1  0.0000000  4.9162000  2
  19874  19870  19869  19875     1  0.0000000  0.6024960  3
  19875  19869  19868  19876     1  0.0000000  4.9162000  2
  19875  19869  19868  19876     1  0.0000000  0.6024960  3
  19875  19869  19870  19886     1  0.0000000  4.9162000  2
  19875  19869  19870  19886     1  0.0000000  0.6024960  3
  19876  19868  19865  19877     1  0.0000000  4.9162000  2
  19876  19868  19865  19877     1  0.0000000  0.6024960  3
  19877  19865  19864  19878     1  0.0000000  0.6508444  3
  19877  19865  19864  19886     1  0.0000000  4.9162000  2
  19877  19865  19864  19886     1  0.0000000  0.6024960  3
  19884  19878  19864  19886     1  0.0000000  4.9162000  2
  19884  19878  19864  19886     1  0.0000000  0.6024960  3
  19887  19888  19891  19892     1  180.0000771  0.8368000  1
  19887  19888  19891  19892     1  180.0000771  1.0460000  2
  19887  19888  19891  19892     1  0.0000000  0.7531200  3
  19887  19888  19891  19899     1  0.0000000  0.6508444  3
  19887  19909  19893  19897     1  180.0000771  5.6484000  1
  19887  19909  19893  19897     1  180.0000771  3.5564000  2
  19887  19909  19893  19897     1  0.0000000  0.4184000  3
  19887  19909  19893  19892     1  180.0000771  0.4184000  2
  19887  19909  19893  19892     1  0.0000000  1.6024720  3
  19888  19891  19892  19893     1  180.0000771  0.8368000  1
  19888  19891  19892  19893     1  180.0000771  1.0460000  2
  19888  19891  19892  19893     1  0.0000000  0.7531200  3
  19888  19891  19892  19898     1  0.0000000  0.6508444  3
  19888  19887  19901  19907     1  0.0000000  0.6508444  3
  19888  19887  19909  19893     1  180.0000771  0.4184000  2
  19888  19887  19909  19893     1  0.0000000  1.6024720  3
  19891  19892  19893  19897     1  0.0000000  0.6508444  3
  19891  19892  19893  19909     1  0.0000000  0.6508444  3
  19891  19888  19887  19901     1  180.0000771  0.8368000  1
  19891  19888  19887  19901     1  180.0000771  1.0460000  2
  19891  19888  19887  19901     1  0.0000000  0.7531200  3
  19891  19888  19887  19909     1  0.0000000  0.6508444  3
  19892  19891  19888  19900     1  0.0000000  0.6508444  3
  19893  19909  19887  19901     1  180.0000771  0.4184000  2
  19893  19909  19887  19901     1  0.0000000  1.6024720  3
  19893  19892  19891  19899     1  0.0000000  0.6508444  3
  19897  19893  19892  19898     1  0.0000000  4.9162000  2
  19897  19893  19892  19898     1  0.0000000  0.6024960  3
  19898  19892  19893  19909     1  0.0000000  4.9162000  2
  19898  19892  19893  19909     1  0.0000000  0.6024960  3
  19898  19892  19891  19899     1  0.0000000  4.9162000  2
  19898  19892  19891  19899     1  0.0000000  0.6024960  3
  19899  19891  19888  19900     1  0.0000000  4.9162000  2
  19899  19891  19888  19900     1  0.0000000  0.6024960  3
  19900  19888  19887  19901     1  0.0000000  0.6508444  3
  19900  19888  19887  19909     1  0.0000000  4.9162000  2
  19900  19888  19887  19909     1  0.0000000  0.6024960  3
  19907  19901  19887  19909     1  0.0000000  4.9162000  2
  19907  19901  19887  19909     1  0.0000000  0.6024960  3
      1      2     14     15     1  0.0000000  0.6508444  3
      1      2     14     16     1  0.0000000  0.6508444  3
      1      5     17     18     1  0.0000000  0.6508444  3
      1      5     17     19     1  0.0000000  0.6508444  3
      1      8     11     12     1  0.0000000  0.6508444  3
      1      8     11     13     1  0.0000000  0.6508444  3
      2      1      5      6     1  0.0000000  1.2552000  3
      2      1      5      7     1  0.0000000  1.2552000  3
      2      1      8      9     1  0.0000000  1.2552000  3
      2      1      8     10     1  0.0000000  1.2552000  3
      2     14     26     27     1  0.0000000  0.6508444  3
      2     14     26     28     1  0.0000000  0.6508444  3
      5      1      2      3     1  0.0000000  1.2552000  3
      8      1      2      3     1  0.0000000  1.2552000  3
      3      2     14     26     1  0.0000000  0.6508444  3
      3      2     14     15     1  0.0000000  0.6508444  3
      3      2     14     16     1  0.0000000  0.6508444  3
      5      1      2      4     1  0.0000000  1.2552000  3
      8      1      2      4     1  0.0000000  1.2552000  3
      4      2     14     26     1  0.0000000  0.6508444  3
      4      2     14     15     1  0.0000000  0.6508444  3
      4      2     14     16     1  0.0000000  0.6508444  3
      5      1      8      9     1  0.0000000  1.2552000  3
      5      1      8     10     1  0.0000000  1.2552000  3
      5     17     20     21     1  0.0000000  0.6508444  3
      5     17     20     22     1  0.0000000  0.6508444  3
      8      1      5      6     1  0.0000000  1.2552000  3
      6      5     17     20     1  0.0000000  0.6508444  3
      6      5     17     18     1  0.0000000  0.6508444  3
      6      5     17     19     1  0.0000000  0.6508444  3
      8      1      5      7     1  0.0000000  1.2552000  3
      7      5     17     20     1  0.0000000  0.6508444  3
      7      5     17     18     1  0.0000000  0.6508444  3
      7      5     17     19     1  0.0000000  0.6508444  3
      8     11     23     24     1  0.0000000  0.6508444  3
      8     11     23     25     1  0.0000000  0.6508444  3
      9      8     11     23     1  0.0000000  0.6508444  3
      9      8     11     12     1  0.0000000  0.6508444  3
      9      8     11     13     1  0.0000000  0.6508444  3
     10      8     11     23     1  0.0000000  0.6508444  3
     10      8     11     12     1  0.0000000  0.6508444  3
     10      8     11     13     1  0.0000000  0.6508444  3
     12     11     23     86     1  0.0000000  1.0460000  1
     12     11     23     86     1  0.0000000  0.0000000  3
     12     11     23     24     1  0.0000000  0.6508444  3
     12     11     23     25     1  0.0000000  0.6508444  3
     13     11     23     86     1  0.0000000  1.0460000  1
     13     11     23     86     1  0.0000000  0.0000000  3
     13     11     23     24     1  0.0000000  0.6508444  3
     13     11     23     25     1  0.0000000  0.6508444  3
     15     14     26    115     1  0.0000000  1.0460000  1
     15     14     26    115     1  0.0000000  0.0000000  3
     15     14     26     27     1  0.0000000  0.6508444  3
     15     14     26     28     1  0.0000000  0.6508444  3
     16     14     26    115     1  0.0000000  1.0460000  1
     16     14     26    115     1  0.0000000  0.0000000  3
     16     14     26     27     1  0.0000000  0.6508444  3
     16     14     26     28     1  0.0000000  0.6508444  3
     18     17     20     57     1  0.0000000  1.0460000  1
     18     17     20     57     1  0.0000000  0.0000000  3
     18     17     20     21     1  0.0000000  0.6508444  3
     18     17     20     22     1  0.0000000  0.6508444  3
     19     17     20     57     1  0.0000000  1.0460000  1
     19     17     20     57     1  0.0000000  0.0000000  3
     19     17     20     21     1  0.0000000  0.6508444  3
     19     17     20     22     1  0.0000000  0.6508444  3
     20     57     48     49     1  0.0000000  1.6038667  3
     20     57     48     50     1  0.0000000  1.6038667  3
     21     20     57     48     1  0.0000000  1.6038667  3
     22     20     57     48     1  0.0000000  1.6038667  3
     23     86     77     78     1  0.0000000  1.6038667  3
     23     86     77     79     1  0.0000000  1.6038667  3
     24     23     86     77     1  0.0000000  1.6038667  3
     25     23     86     77     1  0.0000000  1.6038667  3
     26    115    106    107     1  0.0000000  1.6038667  3
     26    115    106    108     1  0.0000000  1.6038667  3
     27     26    115    106     1  0.0000000  1.6038667  3
     28     26    115    106     1  0.0000000  1.6038667  3
     29     30     42     43     1  0.0000000  0.6508444  3
     29     30     42     44     1  0.0000000  0.6508444  3
     29     33     45     46     1  0.0000000  0.6508444  3
     29     33     45     47     1  0.0000000  0.6508444  3
     29     36     39     40     1  0.0000000  0.6508444  3
     29     36     39     41     1  0.0000000  0.6508444  3
     30     29     33     34     1  0.0000000  1.2552000  3
     30     29     33     35     1  0.0000000  1.2552000  3
     30     29     36     37     1  0.0000000  1.2552000  3
     30     29     36     38     1  0.0000000  1.2552000  3
     30     42     54     55     1  0.0000000  0.6508444  3
     30     42     54     56     1  0.0000000  0.6508444  3
     31     30     29     33     1  0.0000000  1.2552000  3
     31     30     29     36     1  0.0000000  1.2552000  3
     31     30     42     54     1  0.0000000  0.6508444  3
     31     30     42     43     1  0.0000000  0.6508444  3
     31     30     42     44     1  0.0000000  0.6508444  3
     32     30     29     33     1  0.0000000  1.2552000  3
     32     30     29     36     1  0.0000000  1.2552000  3
     32     30     42     54     1  0.0000000  0.6508444  3
     32     30     42     43     1  0.0000000  0.6508444  3
     32     30     42     44     1  0.0000000  0.6508444  3
     33     29     36     37     1  0.0000000  1.2552000  3
     33     29     36     38     1  0.0000000  1.2552000  3
     33     45     51     52     1  0.0000000  0.6508444  3
     33     45     51     53     1  0.0000000  0.6508444  3
     34     33     29     36     1  0.0000000  1.2552000  3
     34     33     45     51     1  0.0000000  0.6508444  3
     34     33     45     46     1  0.0000000  0.6508444  3
     34     33     45     47     1  0.0000000  0.6508444  3
     35     33     29     36     1  0.0000000  1.2552000  3
     35     33     45     51     1  0.0000000  0.6508444  3
     35     33     45     46     1  0.0000000  0.6508444  3
     35     33     45     47     1  0.0000000  0.6508444  3
     36     39     48     49     1  0.0000000  0.6508444  3
     36     39     48     50     1  0.0000000  0.6508444  3
     37     36     39     48     1  0.0000000  0.6508444  3
     37     36     39     40     1  0.0000000  0.6508444  3
     37     36     39     41     1  0.0000000  0.6508444  3
     38     36     39     48     1  0.0000000  0.6508444  3
     38     36     39     40     1  0.0000000  0.6508444  3
     38     36     39     41     1  0.0000000  0.6508444  3
     40     39     48     57     1  0.0000000  1.0460000  1
     40     39     48     57     1  0.0000000  0.0000000  3
     40     39     48     49     1  0.0000000  0.6508444  3
     40     39     48     50     1  0.0000000  0.6508444  3
     41     39     48     57     1  0.0000000  1.0460000  1
     41     39     48     57     1  0.0000000  0.0000000  3
     41     39     48     49     1  0.0000000  0.6508444  3
     41     39     48     50     1  0.0000000  0.6508444  3
     43     42     54    173     1  0.0000000  1.0460000  1
     43     42     54    173     1  0.0000000  0.0000000  3
     43     42     54     55     1  0.0000000  0.6508444  3
     43     42     54     56     1  0.0000000  0.6508444  3
     44     42     54    173     1  0.0000000  1.0460000  1
     44     42     54    173     1  0.0000000  0.0000000  3
     44     42     54     55     1  0.0000000  0.6508444  3
     44     42     54     56     1  0.0000000  0.6508444  3
     46     45     51    144     1  0.0000000  1.0460000  1
     46     45     51    144     1  0.0000000  0.0000000  3
     46     45     51     52     1  0.0000000  0.6508444  3
     46     45     51     53     1  0.0000000  0.6508444  3
     47     45     51    144     1  0.0000000  1.0460000  1
     47     45     51    144     1  0.0000000  0.0000000  3
     47     45     51     52     1  0.0000000  0.6508444  3
     47     45     51     53     1  0.0000000  0.6508444  3
     51    144    135    136     1  0.0000000  1.6038667  3
     51    144    135    137     1  0.0000000  1.6038667  3
     52     51    144    135     1  0.0000000  1.6038667  3
     53     51    144    135     1  0.0000000  1.6038667  3
     54    173    164    165     1  0.0000000  1.6038667  3
     54    173    164    166     1  0.0000000  1.6038667  3
     55     54    173    164     1  0.0000000  1.6038667  3
     56     54    173    164     1  0.0000000  1.6038667  3
     58     59     71     72     1  0.0000000  0.6508444  3
     58     59     71     73     1  0.0000000  0.6508444  3
     58     62     74     75     1  0.0000000  0.6508444  3
     58     62     74     76     1  0.0000000  0.6508444  3
     58     65     68     69     1  0.0000000  0.6508444  3
     58     65     68     70     1  0.0000000  0.6508444  3
     59     58     62     63     1  0.0000000  1.2552000  3
     59     58     62     64     1  0.0000000  1.2552000  3
     59     58     65     66     1  0.0000000  1.2552000  3
     59     58     65     67     1  0.0000000  1.2552000  3
     59     71     83     84     1  0.0000000  0.6508444  3
     59     71     83     85     1  0.0000000  0.6508444  3
     60     59     58     62     1  0.0000000  1.2552000  3
     60     59     58     65     1  0.0000000  1.2552000  3
     60     59     71     83     1  0.0000000  0.6508444  3
     60     59     71     72     1  0.0000000  0.6508444  3
     60     59     71     73     1  0.0000000  0.6508444  3
     61     59     58     62     1  0.0000000  1.2552000  3
     61     59     58     65     1  0.0000000  1.2552000  3
     61     59     71     83     1  0.0000000  0.6508444  3
     61     59     71     72     1  0.0000000  0.6508444  3
     61     59     71     73     1  0.0000000  0.6508444  3
     62     58     65     66     1  0.0000000  1.2552000  3
     62     58     65     67     1  0.0000000  1.2552000  3
     62     74     80     81     1  0.0000000  0.6508444  3
     62     74     80     82     1  0.0000000  0.6508444  3
     63     62     58     65     1  0.0000000  1.2552000  3
     63     62     74     80     1  0.0000000  0.6508444  3
     63     62     74     75     1  0.0000000  0.6508444  3
     63     62     74     76     1  0.0000000  0.6508444  3
     64     62     58     65     1  0.0000000  1.2552000  3
     64     62     74     80     1  0.0000000  0.6508444  3
     64     62     74     75     1  0.0000000  0.6508444  3
     64     62     74     76     1  0.0000000  0.6508444  3
     65     68     77     78     1  0.0000000  0.6508444  3
     65     68     77     79     1  0.0000000  0.6508444  3
     66     65     68     77     1  0.0000000  0.6508444  3
     66     65     68     69     1  0.0000000  0.6508444  3
     66     65     68     70     1  0.0000000  0.6508444  3
     67     65     68     77     1  0.0000000  0.6508444  3
     67     65     68     69     1  0.0000000  0.6508444  3
     67     65     68     70     1  0.0000000  0.6508444  3
     69     68     77     86     1  0.0000000  1.0460000  1
     69     68     77     86     1  0.0000000  0.0000000  3
     69     68     77     78     1  0.0000000  0.6508444  3
     69     68     77     79     1  0.0000000  0.6508444  3
     70     68     77     86     1  0.0000000  1.0460000  1
     70     68     77     86     1  0.0000000  0.0000000  3
     70     68     77     78     1  0.0000000  0.6508444  3
     70     68     77     79     1  0.0000000  0.6508444  3
     72     71     83    231     1  0.0000000  1.0460000  1
     72     71     83    231     1  0.0000000  0.0000000  3
     72     71     83     84     1  0.0000000  0.6508444  3
     72     71     83     85     1  0.0000000  0.6508444  3
     73     71     83    231     1  0.0000000  1.0460000  1
     73     71     83    231     1  0.0000000  0.0000000  3
     73     71     83     84     1  0.0000000  0.6508444  3
     73     71     83     85     1  0.0000000  0.6508444  3
     75     74     80    202     1  0.0000000  1.0460000  1
     75     74     80    202     1  0.0000000  0.0000000  3
     75     74     80     81     1  0.0000000  0.6508444  3
     75     74     80     82     1  0.0000000  0.6508444  3
     76     74     80    202     1  0.0000000  1.0460000  1
     76     74     80    202     1  0.0000000  0.0000000  3
     76     74     80     81     1  0.0000000  0.6508444  3
     76     74     80     82     1  0.0000000  0.6508444  3
     80    202    193    194     1  0.0000000  1.6038667  3
     80    202    193    195     1  0.0000000  1.6038667  3
     81     80    202    193     1  0.0000000  1.6038667  3
     82     80    202    193     1  0.0000000  1.6038667  3
     83    231    222    223     1  0.0000000  1.6038667  3
     83    231    222    224     1  0.0000000  1.6038667  3
     84     83    231    222     1  0.0000000  1.6038667  3
     85     83    231    222     1  0.0000000  1.6038667  3
     87     88    100    101     1  0.0000000  0.6508444  3
     87     88    100    102     1  0.0000000  0.6508444  3
     87     91    103    104     1  0.0000000  0.6508444  3
     87     91    103    105     1  0.0000000  0.6508444  3
     87     94     97     98     1  0.0000000  0.6508444  3
     87     94     97     99     1  0.0000000  0.6508444  3
     88     87     91     92     1  0.0000000  1.2552000  3
     88     87     91     93     1  0.0000000  1.2552000  3
     88     87     94     95     1  0.0000000  1.2552000  3
     88     87     94     96     1  0.0000000  1.2552000  3
     88    100    112    113     1  0.0000000  0.6508444  3
     88    100    112    114     1  0.0000000  0.6508444  3
     89     88     87     91     1  0.0000000  1.2552000  3
     89     88     87     94     1  0.0000000  1.2552000  3
     89     88    100    112     1  0.0000000  0.6508444  3
     89     88    100    101     1  0.0000000  0.6508444  3
     89     88    100    102     1  0.0000000  0.6508444  3
     90     88     87     91     1  0.0000000  1.2552000  3
     90     88     87     94     1  0.0000000  1.2552000  3
     90     88    100    112     1  0.0000000  0.6508444  3
     90     88    100    101     1  0.0000000  0.6508444  3
     90     88    100    102     1  0.0000000  0.6508444  3
     91     87     94     95     1  0.0000000  1.2552000  3
     91     87     94     96     1  0.0000000  1.2552000  3
     91    103    109    110     1  0.0000000  0.6508444  3
     91    103    109    111     1  0.0000000  0.6508444  3
     92     91     87     94     1  0.0000000  1.2552000  3
     92     91    103    109     1  0.0000000  0.6508444  3
     92     91    103    104     1  0.0000000  0.6508444  3
     92     91    103    105     1  0.0000000  0.6508444  3
     93     91     87     94     1  0.0000000  1.2552000  3
     93     91    103    109     1  0.0000000  0.6508444  3
     93     91    103    104     1  0.0000000  0.6508444  3
     93     91    103    105     1  0.0000000  0.6508444  3
     94     97    106    107     1  0.0000000  0.6508444  3
     94     97    106    108     1  0.0000000  0.6508444  3
     95     94     97    106     1  0.0000000  0.6508444  3
     95     94     97     98     1  0.0000000  0.6508444  3
     95     94     97     99     1  0.0000000  0.6508444  3
     96     94     97    106     1  0.0000000  0.6508444  3
     96     94     97     98     1  0.0000000  0.6508444  3
     96     94     97     99     1  0.0000000  0.6508444  3
     98     97    106    115     1  0.0000000  1.0460000  1
     98     97    106    115     1  0.0000000  0.0000000  3
     98     97    106    107     1  0.0000000  0.6508444  3
     98     97    106    108     1  0.0000000  0.6508444  3
     99     97    106    115     1  0.0000000  1.0460000  1
     99     97    106    115     1  0.0000000  0.0000000  3
     99     97    106    107     1  0.0000000  0.6508444  3
     99     97    106    108     1  0.0000000  0.6508444  3
    101    100    112    289     1  0.0000000  1.0460000  1
    101    100    112    289     1  0.0000000  0.0000000  3
    101    100    112    113     1  0.0000000  0.6508444  3
    101    100    112    114     1  0.0000000  0.6508444  3
    102    100    112    289     1  0.0000000  1.0460000  1
    102    100    112    289     1  0.0000000  0.0000000  3
    102    100    112    113     1  0.0000000  0.6508444  3
    102    100    112    114     1  0.0000000  0.6508444  3
    104    103    109    260     1  0.0000000  1.0460000  1
    104    103    109    260     1  0.0000000  0.0000000  3
    104    103    109    110     1  0.0000000  0.6508444  3
    104    103    109    111     1  0.0000000  0.6508444  3
    105    103    109    260     1  0.0000000  1.0460000  1
    105    103    109    260     1  0.0000000  0.0000000  3
    105    103    109    110     1  0.0000000  0.6508444  3
    105    103    109    111     1  0.0000000  0.6508444  3
    109    260    251    252     1  0.0000000  1.6038667  3
    109    260    251    253     1  0.0000000  1.6038667  3
    110    109    260    251     1  0.0000000  1.6038667  3
    111    109    260    251     1  0.0000000  1.6038667  3
    112    289    280    281     1  0.0000000  1.6038667  3
    112    289    280    282     1  0.0000000  1.6038667  3
    113    112    289    280     1  0.0000000  1.6038667  3
    114    112    289    280     1  0.0000000  1.6038667  3
    116    117    129    130     1  0.0000000  0.6508444  3
    116    117    129    131     1  0.0000000  0.6508444  3
    116    120    132    133     1  0.0000000  0.6508444  3
    116    120    132    134     1  0.0000000  0.6508444  3
    116    123    126    127     1  0.0000000  0.6508444  3
    116    123    126    128     1  0.0000000  0.6508444  3
    117    116    120    121     1  0.0000000  1.2552000  3
    117    116    120    122     1  0.0000000  1.2552000  3
    117    116    123    124     1  0.0000000  1.2552000  3
    117    116    123    125     1  0.0000000  1.2552000  3
    117    129    141    142     1  0.0000000  0.6508444  3
    117    129    141    143     1  0.0000000  0.6508444  3
    118    117    116    120     1  0.0000000  1.2552000  3
    118    117    116    123     1  0.0000000  1.2552000  3
    118    117    129    141     1  0.0000000  0.6508444  3
    118    117    129    130     1  0.0000000  0.6508444  3
    118    117    129    131     1  0.0000000  0.6508444  3
    119    117    116    120     1  0.0000000  1.2552000  3
    119    117    116    123     1  0.0000000  1.2552000  3
    119    117    129    141     1  0.0000000  0.6508444  3
    119    117    129    130     1  0.0000000  0.6508444  3
    119    117    129    131     1  0.0000000  0.6508444  3
    120    116    123    124     1  0.0000000  1.2552000  3
    120    116    123    125     1  0.0000000  1.2552000  3
    120    132    138    139     1  0.0000000  0.6508444  3
    120    132    138    140     1  0.0000000  0.6508444  3
    121    120    116    123     1  0.0000000  1.2552000  3
    121    120    132    138     1  0.0000000  0.6508444  3
    121    120    132    133     1  0.0000000  0.6508444  3
    121    120    132    134     1  0.0000000  0.6508444  3
    122    120    116    123     1  0.0000000  1.2552000  3
    122    120    132    138     1  0.0000000  0.6508444  3
    122    120    132    133     1  0.0000000  0.6508444  3
    122    120    132    134     1  0.0000000  0.6508444  3
    123    126    135    136     1  0.0000000  0.6508444  3
    123    126    135    137     1  0.0000000  0.6508444  3
    124    123    126    135     1  0.0000000  0.6508444  3
    124    123    126    127     1  0.0000000  0.6508444  3
    124    123    126    128     1  0.0000000  0.6508444  3
    125    123    126    135     1  0.0000000  0.6508444  3
    125    123    126    127     1  0.0000000  0.6508444  3
    125    123    126    128     1  0.0000000  0.6508444  3
    127    126    135    144     1  0.0000000  1.0460000  1
    127    126    135    144     1  0.0000000  0.0000000  3
    127    126    135    136     1  0.0000000  0.6508444  3
    127    126    135    137     1  0.0000000  0.6508444  3
    128    126    135    144     1  0.0000000  1.0460000  1
    128    126    135    144     1  0.0000000  0.0000000  3
    128    126    135    136     1  0.0000000  0.6508444  3
    128    126    135    137     1  0.0000000  0.6508444  3
    130    129    141    347     1  0.0000000  1.0460000  1
    130    129    141    347     1  0.0000000  0.0000000  3
    130    129    141    142     1  0.0000000  0.6508444  3
    130    129    141    143     1  0.0000000  0.6508444  3
    131    129    141    347     1  0.0000000  1.0460000  1
    131    129    141    347     1  0.0000000  0.0000000  3
    131    129    141    142     1  0.0000000  0.6508444  3
    131    129    141    143     1  0.0000000  0.6508444  3
    133    132    138    318     1  0.0000000  1.0460000  1
    133    132    138    318     1  0.0000000  0.0000000  3
    133    132    138    139     1  0.0000000  0.6508444  3
    133    132    138    140     1  0.0000000  0.6508444  3
    134    132    138    318     1  0.0000000  1.0460000  1
    134    132    138    318     1  0.0000000  0.0000000  3
    134    132    138    139     1  0.0000000  0.6508444  3
    134    132    138    140     1  0.0000000  0.6508444  3
    138    318    309    310     1  0.0000000  1.6038667  3
    138    318    309    311     1  0.0000000  1.6038667  3
    139    138    318    309     1  0.0000000  1.6038667  3
    140    138    318    309     1  0.0000000  1.6038667  3
    141    347    338    339     1  0.0000000  1.6038667  3
    141    347    338    340     1  0.0000000  1.6038667  3
    142    141    347    338     1  0.0000000  1.6038667  3
    143    141    347    338     1  0.0000000  1.6038667  3
    145    146    158    159     1  0.0000000  0.6508444  3
    145    146    158    160     1  0.0000000  0.6508444  3
    145    149    161    162     1  0.0000000  0.6508444  3
    145    149    161    163     1  0.0000000  0.6508444  3
    145    152    155    156     1  0.0000000  0.6508444  3
    145    152    155    157     1  0.0000000  0.6508444  3
    146    145    149    150     1  0.0000000  1.2552000  3
    146    145    149    151     1  0.0000000  1.2552000  3
    146    145    152    153     1  0.0000000  1.2552000  3
    146    145    152    154     1  0.0000000  1.2552000  3
    146    158    170    171     1  0.0000000  0.6508444  3
    146    158    170    172     1  0.0000000  0.6508444  3
    147    146    145    149     1  0.0000000  1.2552000  3
    147    146    145    152     1  0.0000000  1.2552000  3
    147    146    158    170     1  0.0000000  0.6508444  3
    147    146    158    159     1  0.0000000  0.6508444  3
    147    146    158    160     1  0.0000000  0.6508444  3
    148    146    145    149     1  0.0000000  1.2552000  3
    148    146    145    152     1  0.0000000  1.2552000  3
    148    146    158    170     1  0.0000000  0.6508444  3
    148    146    158    159     1  0.0000000  0.6508444  3
    148    146    158    160     1  0.0000000  0.6508444  3
    149    145    152    153     1  0.0000000  1.2552000  3
    149    145    152    154     1  0.0000000  1.2552000  3
    149    161    167    168     1  0.0000000  0.6508444  3
    149    161    167    169     1  0.0000000  0.6508444  3
    150    149    145    152     1  0.0000000  1.2552000  3
    150    149    161    167     1  0.0000000  0.6508444  3
    150    149    161    162     1  0.0000000  0.6508444  3
    150    149    161    163     1  0.0000000  0.6508444  3
    151    149    145    152     1  0.0000000  1.2552000  3
    151    149    161    167     1  0.0000000  0.6508444  3
    151    149    161    162     1  0.0000000  0.6508444  3
    151    149    161    163     1  0.0000000  0.6508444  3
    152    155    164    165     1  0.0000000  0.6508444  3
    152    155    164    166     1  0.0000000  0.6508444  3
    153    152    155    164     1  0.0000000  0.6508444  3
    153    152    155    156     1  0.0000000  0.6508444  3
    153    152    155    157     1  0.0000000  0.6508444  3
    154    152    155    164     1  0.0000000  0.6508444  3
    154    152    155    156     1  0.0000000  0.6508444  3
    154    152    155    157     1  0.0000000  0.6508444  3
    156    155    164    173     1  0.0000000  1.0460000  1
    156    155    164    173     1  0.0000000  0.0000000  3
    156    155    164    165     1  0.0000000  0.6508444  3
    156    155    164    166     1  0.0000000  0.6508444  3
    157    155    164    173     1  0.0000000  1.0460000  1
    157    155    164    173     1  0.0000000  0.0000000  3
    157    155    164    165     1  0.0000000  0.6508444  3
    157    155    164    166     1  0.0000000  0.6508444  3
    159    158    170    405     1  0.0000000  1.0460000  1
    159    158    170    405     1  0.0000000  0.0000000  3
    159    158    170    171     1  0.0000000  0.6508444  3
    159    158    170    172     1  0.0000000  0.6508444  3
    160    158    170    405     1  0.0000000  1.0460000  1
    160    158    170    405     1  0.0000000  0.0000000  3
    160    158    170    171     1  0.0000000  0.6508444  3
    160    158    170    172     1  0.0000000  0.6508444  3
    162    161    167    376     1  0.0000000  1.0460000  1
    162    161    167    376     1  0.0000000  0.0000000  3
    162    161    167    168     1  0.0000000  0.6508444  3
    162    161    167    169     1  0.0000000  0.6508444  3
    163    161    167    376     1  0.0000000  1.0460000  1
    163    161    167    376     1  0.0000000  0.0000000  3
    163    161    167    168     1  0.0000000  0.6508444  3
    163    161    167    169     1  0.0000000  0.6508444  3
    167    376    367    368     1  0.0000000  1.6038667  3
    167    376    367    369     1  0.0000000  1.6038667  3
    168    167    376    367     1  0.0000000  1.6038667  3
    169    167    376    367     1  0.0000000  1.6038667  3
    170    405    396    397     1  0.0000000  1.6038667  3
    170    405    396    398     1  0.0000000  1.6038667  3
    171    170    405    396     1  0.0000000  1.6038667  3
    172    170    405    396     1  0.0000000  1.6038667  3
    174    175    187    188     1  0.0000000  0.6508444  3
    174    175    187    189     1  0.0000000  0.6508444  3
    174    178    190    191     1  0.0000000  0.6508444  3
    174    178    190    192     1  0.0000000  0.6508444  3
    174    181    184    185     1  0.0000000  0.6508444  3
    174    181    184    186     1  0.0000000  0.6508444  3
    175    174    178    179     1  0.0000000  1.2552000  3
    175    174    178    180     1  0.0000000  1.2552000  3
    175    174    181    182     1  0.0000000  1.2552000  3
    175    174    181    183     1  0.0000000  1.2552000  3
    175    187    199    200     1  0.0000000  0.6508444  3
    175    187    199    201     1  0.0000000  0.6508444  3
    176    175    174    178     1  0.0000000  1.2552000  3
    176    175    174    181     1  0.0000000  1.2552000  3
    176    175    187    199     1  0.0000000  0.6508444  3
    176    175    187    188     1  0.0000000  0.6508444  3
    176    175    187    189     1  0.0000000  0.6508444  3
    177    175    174    178     1  0.0000000  1.2552000  3
    177    175    174    181     1  0.0000000  1.2552000  3
    177    175    187    199     1  0.0000000  0.6508444  3
    177    175    187    188     1  0.0000000  0.6508444  3
    177    175    187    189     1  0.0000000  0.6508444  3
    178    174    181    182     1  0.0000000  1.2552000  3
    178    174    181    183     1  0.0000000  1.2552000  3
    178    190    196    197     1  0.0000000  0.6508444  3
    178    190    196    198     1  0.0000000  0.6508444  3
    179    178    174    181     1  0.0000000  1.2552000  3
    179    178    190    196     1  0.0000000  0.6508444  3
    179    178    190    191     1  0.0000000  0.6508444  3
    179    178    190    192     1  0.0000000  0.6508444  3
    180    178    174    181     1  0.0000000  1.2552000  3
    180    178    190    196     1  0.0000000  0.6508444  3
    180    178    190    191     1  0.0000000  0.6508444  3
    180    178    190    192     1  0.0000000  0.6508444  3
    181    184    193    194     1  0.0000000  0.6508444  3
    181    184    193    195     1  0.0000000  0.6508444  3
    182    181    184    193     1  0.0000000  0.6508444  3
    182    181    184    185     1  0.0000000  0.6508444  3
    182    181    184    186     1  0.0000000  0.6508444  3
    183    181    184    193     1  0.0000000  0.6508444  3
    183    181    184    185     1  0.0000000  0.6508444  3
    183    181    184    186     1  0.0000000  0.6508444  3
    185    184    193    202     1  0.0000000  1.0460000  1
    185    184    193    202     1  0.0000000  0.0000000  3
    185    184    193    194     1  0.0000000  0.6508444  3
    185    184    193    195     1  0.0000000  0.6508444  3
    186    184    193    202     1  0.0000000  1.0460000  1
    186    184    193    202     1  0.0000000  0.0000000  3
    186    184    193    194     1  0.0000000  0.6508444  3
    186    184    193    195     1  0.0000000  0.6508444  3
    188    187    199    463     1  0.0000000  1.0460000  1
    188    187    199    463     1  0.0000000  0.0000000  3
    188    187    199    200     1  0.0000000  0.6508444  3
    188    187    199    201     1  0.0000000  0.6508444  3
    189    187    199    463     1  0.0000000  1.0460000  1
    189    187    199    463     1  0.0000000  0.0000000  3
    189    187    199    200     1  0.0000000  0.6508444  3
    189    187    199    201     1  0.0000000  0.6508444  3
    191    190    196    434     1  0.0000000  1.0460000  1
    191    190    196    434     1  0.0000000  0.0000000  3
    191    190    196    197     1  0.0000000  0.6508444  3
    191    190    196    198     1  0.0000000  0.6508444  3
    192    190    196    434     1  0.0000000  1.0460000  1
    192    190    196    434     1  0.0000000  0.0000000  3
    192    190    196    197     1  0.0000000  0.6508444  3
    192    190    196    198     1  0.0000000  0.6508444  3
    196    434    425    426     1  0.0000000  1.6038667  3
    196    434    425    427     1  0.0000000  1.6038667  3
    197    196    434    425     1  0.0000000  1.6038667  3
    198    196    434    425     1  0.0000000  1.6038667  3
    199    463    454    455     1  0.0000000  1.6038667  3
    199    463    454    456     1  0.0000000  1.6038667  3
    200    199    463    454     1  0.0000000  1.6038667  3
    201    199    463    454     1  0.0000000  1.6038667  3
    203    204    216    217     1  0.0000000  0.6508444  3
    203    204    216    218     1  0.0000000  0.6508444  3
    203    207    219    220     1  0.0000000  0.6508444  3
    203    207    219    221     1  0.0000000  0.6508444  3
    203    210    213    214     1  0.0000000  0.6508444  3
    203    210    213    215     1  0.0000000  0.6508444  3
    204    203    207    208     1  0.0000000  1.2552000  3
    204    203    207    209     1  0.0000000  1.2552000  3
    204    203    210    211     1  0.0000000  1.2552000  3
    204    203    210    212     1  0.0000000  1.2552000  3
    204    216    228    229     1  0.0000000  0.6508444  3
    204    216    228    230     1  0.0000000  0.6508444  3
    205    204    203    207     1  0.0000000  1.2552000  3
    205    204    203    210     1  0.0000000  1.2552000  3
    205    204    216    228     1  0.0000000  0.6508444  3
    205    204    216    217     1  0.0000000  0.6508444  3
    205    204    216    218     1  0.0000000  0.6508444  3
    206    204    203    207     1  0.0000000  1.2552000  3
    206    204    203    210     1  0.0000000  1.2552000  3
    206    204    216    228     1  0.0000000  0.6508444  3
    206    204    216    217     1  0.0000000  0.6508444  3
    206    204    216    218     1  0.0000000  0.6508444  3
    207    203    210    211     1  0.0000000  1.2552000  3
    207    203    210    212     1  0.0000000  1.2552000  3
    207    219    225    226     1  0.0000000  0.6508444  3
    207    219    225    227     1  0.0000000  0.6508444  3
    208    207    203    210     1  0.0000000  1.2552000  3
    208    207    219    225     1  0.0000000  0.6508444  3
    208    207    219    220     1  0.0000000  0.6508444  3
    208    207    219    221     1  0.0000000  0.6508444  3
    209    207    203    210     1  0.0000000  1.2552000  3
    209    207    219    225     1  0.0000000  0.6508444  3
    209    207    219    220     1  0.0000000  0.6508444  3
    209    207    219    221     1  0.0000000  0.6508444  3
    210    213    222    223     1  0.0000000  0.6508444  3
    210    213    222    224     1  0.0000000  0.6508444  3
    211    210    213    222     1  0.0000000  0.6508444  3
    211    210    213    214     1  0.0000000  0.6508444  3
    211    210    213    215     1  0.0000000  0.6508444  3
    212    210    213    222     1  0.0000000  0.6508444  3
    212    210    213    214     1  0.0000000  0.6508444  3
    212    210    213    215     1  0.0000000  0.6508444  3
    214    213    222    231     1  0.0000000  1.0460000  1
    214    213    222    231     1  0.0000000  0.0000000  3
    214    213    222    223     1  0.0000000  0.6508444  3
    214    213    222    224     1  0.0000000  0.6508444  3
    215    213    222    231     1  0.0000000  1.0460000  1
    215    213    222    231     1  0.0000000  0.0000000  3
    215    213    222    223     1  0.0000000  0.6508444  3
    215    213    222    224     1  0.0000000  0.6508444  3
    217    216    228    521     1  0.0000000  1.0460000  1
    217    216    228    521     1  0.0000000  0.0000000  3
    217    216    228    229     1  0.0000000  0.6508444  3
    217    216    228    230     1  0.0000000  0.6508444  3
    218    216    228    521     1  0.0000000  1.0460000  1
    218    216    228    521     1  0.0000000  0.0000000  3
    218    216    228    229     1  0.0000000  0.6508444  3
    218    216    228    230     1  0.0000000  0.6508444  3
    220    219    225    492     1  0.0000000  1.0460000  1
    220    219    225    492     1  0.0000000  0.0000000  3
    220    219    225    226     1  0.0000000  0.6508444  3
    220    219    225    227     1  0.0000000  0.6508444  3
    221    219    225    492     1  0.0000000  1.0460000  1
    221    219    225    492     1  0.0000000  0.0000000  3
    221    219    225    226     1  0.0000000  0.6508444  3
    221    219    225    227     1  0.0000000  0.6508444  3
    225    492    483    484     1  0.0000000  1.6038667  3
    225    492    483    485     1  0.0000000  1.6038667  3
    226    225    492    483     1  0.0000000  1.6038667  3
    227    225    492    483     1  0.0000000  1.6038667  3
    228    521    512    513     1  0.0000000  1.6038667  3
    228    521    512    514     1  0.0000000  1.6038667  3
    229    228    521    512     1  0.0000000  1.6038667  3
    230    228    521    512     1  0.0000000  1.6038667  3
    232    233    245    246     1  0.0000000  0.6508444  3
    232    233    245    247     1  0.0000000  0.6508444  3
    232    236    248    249     1  0.0000000  0.6508444  3
    232    236    248    250     1  0.0000000  0.6508444  3
    232    239    242    243     1  0.0000000  0.6508444  3
    232    239    242    244     1  0.0000000  0.6508444  3
    233    232    236    237     1  0.0000000  1.2552000  3
    233    232    236    238     1  0.0000000  1.2552000  3
    233    232    239    240     1  0.0000000  1.2552000  3
    233    232    239    241     1  0.0000000  1.2552000  3
    233    245    257    258     1  0.0000000  0.6508444  3
    233    245    257    259     1  0.0000000  0.6508444  3
    234    233    232    236     1  0.0000000  1.2552000  3
    234    233    232    239     1  0.0000000  1.2552000  3
    234    233    245    257     1  0.0000000  0.6508444  3
    234    233    245    246     1  0.0000000  0.6508444  3
    234    233    245    247     1  0.0000000  0.6508444  3
    235    233    232    236     1  0.0000000  1.2552000  3
    235    233    232    239     1  0.0000000  1.2552000  3
    235    233    245    257     1  0.0000000  0.6508444  3
    235    233    245    246     1  0.0000000  0.6508444  3
    235    233    245    247     1  0.0000000  0.6508444  3
    236    232    239    240     1  0.0000000  1.2552000  3
    236    232    239    241     1  0.0000000  1.2552000  3
    236    248    254    255     1  0.0000000  0.6508444  3
    236    248    254    256     1  0.0000000  0.6508444  3
    237    236    232    239     1  0.0000000  1.2552000  3
    237    236    248    254     1  0.0000000  0.6508444  3
    237    236    248    249     1  0.0000000  0.6508444  3
    237    236    248    250     1  0.0000000  0.6508444  3
    238    236    232    239     1  0.0000000  1.2552000  3
    238    236    248    254     1  0.0000000  0.6508444  3
    238    236    248    249     1  0.0000000  0.6508444  3
    238    236    248    250     1  0.0000000  0.6508444  3
    239    242    251    252     1  0.0000000  0.6508444  3
    239    242    251    253     1  0.0000000  0.6508444  3
    240    239    242    251     1  0.0000000  0.6508444  3
    240    239    242    243     1  0.0000000  0.6508444  3
    240    239    242    244     1  0.0000000  0.6508444  3
    241    239    242    251     1  0.0000000  0.6508444  3
    241    239    242    243     1  0.0000000  0.6508444  3
    241    239    242    244     1  0.0000000  0.6508444  3
    243    242    251    260     1  0.0000000  1.0460000  1
    243    242    251    260     1  0.0000000  0.0000000  3
    243    242    251    252     1  0.0000000  0.6508444  3
    243    242    251    253     1  0.0000000  0.6508444  3
    244    242    251    260     1  0.0000000  1.0460000  1
    244    242    251    260     1  0.0000000  0.0000000  3
    244    242    251    252     1  0.0000000  0.6508444  3
    244    242    251    253     1  0.0000000  0.6508444  3
    246    245    257    579     1  0.0000000  1.0460000  1
    246    245    257    579     1  0.0000000  0.0000000  3
    246    245    257    258     1  0.0000000  0.6508444  3
    246    245    257    259     1  0.0000000  0.6508444  3
    247    245    257    579     1  0.0000000  1.0460000  1
    247    245    257    579     1  0.0000000  0.0000000  3
    247    245    257    258     1  0.0000000  0.6508444  3
    247    245    257    259     1  0.0000000  0.6508444  3
    249    248    254    550     1  0.0000000  1.0460000  1
    249    248    254    550     1  0.0000000  0.0000000  3
    249    248    254    255     1  0.0000000  0.6508444  3
    249    248    254    256     1  0.0000000  0.6508444  3
    250    248    254    550     1  0.0000000  1.0460000  1
    250    248    254    550     1  0.0000000  0.0000000  3
    250    248    254    255     1  0.0000000  0.6508444  3
    250    248    254    256     1  0.0000000  0.6508444  3
    254    550    541    542     1  0.0000000  1.6038667  3
    254    550    541    543     1  0.0000000  1.6038667  3
    255    254    550    541     1  0.0000000  1.6038667  3
    256    254    550    541     1  0.0000000  1.6038667  3
    257    579    570    571     1  0.0000000  1.6038667  3
    257    579    570    572     1  0.0000000  1.6038667  3
    258    257    579    570     1  0.0000000  1.6038667  3
    259    257    579    570     1  0.0000000  1.6038667  3
    261    262    274    275     1  0.0000000  0.6508444  3
    261    262    274    276     1  0.0000000  0.6508444  3
    261    265    277    278     1  0.0000000  0.6508444  3
    261    265    277    279     1  0.0000000  0.6508444  3
    261    268    271    272     1  0.0000000  0.6508444  3
    261    268    271    273     1  0.0000000  0.6508444  3
    262    261    265    266     1  0.0000000  1.2552000  3
    262    261    265    267     1  0.0000000  1.2552000  3
    262    261    268    269     1  0.0000000  1.2552000  3
    262    261    268    270     1  0.0000000  1.2552000  3
    262    274    286    287     1  0.0000000  0.6508444  3
    262    274    286    288     1  0.0000000  0.6508444  3
    263    262    261    265     1  0.0000000  1.2552000  3
    263    262    261    268     1  0.0000000  1.2552000  3
    263    262    274    286     1  0.0000000  0.6508444  3
    263    262    274    275     1  0.0000000  0.6508444  3
    263    262    274    276     1  0.0000000  0.6508444  3
    264    262    261    265     1  0.0000000  1.2552000  3
    264    262    261    268     1  0.0000000  1.2552000  3
    264    262    274    286     1  0.0000000  0.6508444  3
    264    262    274    275     1  0.0000000  0.6508444  3
    264    262    274    276     1  0.0000000  0.6508444  3
    265    261    268    269     1  0.0000000  1.2552000  3
    265    261    268    270     1  0.0000000  1.2552000  3
    265    277    283    284     1  0.0000000  0.6508444  3
    265    277    283    285     1  0.0000000  0.6508444  3
    266    265    261    268     1  0.0000000  1.2552000  3
    266    265    277    283     1  0.0000000  0.6508444  3
    266    265    277    278     1  0.0000000  0.6508444  3
    266    265    277    279     1  0.0000000  0.6508444  3
    267    265    261    268     1  0.0000000  1.2552000  3
    267    265    277    283     1  0.0000000  0.6508444  3
    267    265    277    278     1  0.0000000  0.6508444  3
    267    265    277    279     1  0.0000000  0.6508444  3
    268    271    280    281     1  0.0000000  0.6508444  3
    268    271    280    282     1  0.0000000  0.6508444  3
    269    268    271    280     1  0.0000000  0.6508444  3
    269    268    271    272     1  0.0000000  0.6508444  3
    269    268    271    273     1  0.0000000  0.6508444  3
    270    268    271    280     1  0.0000000  0.6508444  3
    270    268    271    272     1  0.0000000  0.6508444  3
    270    268    271    273     1  0.0000000  0.6508444  3
    272    271    280    289     1  0.0000000  1.0460000  1
    272    271    280    289     1  0.0000000  0.0000000  3
    272    271    280    281     1  0.0000000  0.6508444  3
    272    271    280    282     1  0.0000000  0.6508444  3
    273    271    280    289     1  0.0000000  1.0460000  1
    273    271    280    289     1  0.0000000  0.0000000  3
    273    271    280    281     1  0.0000000  0.6508444  3
    273    271    280    282     1  0.0000000  0.6508444  3
    275    274    286    637     1  0.0000000  1.0460000  1
    275    274    286    637     1  0.0000000  0.0000000  3
    275    274    286    287     1  0.0000000  0.6508444  3
    275    274    286    288     1  0.0000000  0.6508444  3
    276    274    286    637     1  0.0000000  1.0460000  1
    276    274    286    637     1  0.0000000  0.0000000  3
    276    274    286    287     1  0.0000000  0.6508444  3
    276    274    286    288     1  0.0000000  0.6508444  3
    278    277    283    608     1  0.0000000  1.0460000  1
    278    277    283    608     1  0.0000000  0.0000000  3
    278    277    283    284     1  0.0000000  0.6508444  3
    278    277    283    285     1  0.0000000  0.6508444  3
    279    277    283    608     1  0.0000000  1.0460000  1
    279    277    283    608     1  0.0000000  0.0000000  3
    279    277    283    284     1  0.0000000  0.6508444  3
    279    277    283    285     1  0.0000000  0.6508444  3
    283    608    599    600     1  0.0000000  1.6038667  3
    283    608    599    601     1  0.0000000  1.6038667  3
    284    283    608    599     1  0.0000000  1.6038667  3
    285    283    608    599     1  0.0000000  1.6038667  3
    286    637    628    629     1  0.0000000  1.6038667  3
    286    637    628    630     1  0.0000000  1.6038667  3
    287    286    637    628     1  0.0000000  1.6038667  3
    288    286    637    628     1  0.0000000  1.6038667  3
    290    291    303    304     1  0.0000000  0.6508444  3
    290    291    303    305     1  0.0000000  0.6508444  3
    290    294    306    307     1  0.0000000  0.6508444  3
    290    294    306    308     1  0.0000000  0.6508444  3
    290    297    300    301     1  0.0000000  0.6508444  3
    290    297    300    302     1  0.0000000  0.6508444  3
    291    290    294    295     1  0.0000000  1.2552000  3
    291    290    294    296     1  0.0000000  1.2552000  3
    291    290    297    298     1  0.0000000  1.2552000  3
    291    290    297    299     1  0.0000000  1.2552000  3
    291    303    315    316     1  0.0000000  0.6508444  3
    291    303    315    317     1  0.0000000  0.6508444  3
    292    291    290    294     1  0.0000000  1.2552000  3
    292    291    290    297     1  0.0000000  1.2552000  3
    292    291    303    315     1  0.0000000  0.6508444  3
    292    291    303    304     1  0.0000000  0.6508444  3
    292    291    303    305     1  0.0000000  0.6508444  3
    293    291    290    294     1  0.0000000  1.2552000  3
    293    291    290    297     1  0.0000000  1.2552000  3
    293    291    303    315     1  0.0000000  0.6508444  3
    293    291    303    304     1  0.0000000  0.6508444  3
    293    291    303    305     1  0.0000000  0.6508444  3
    294    290    297    298     1  0.0000000  1.2552000  3
    294    290    297    299     1  0.0000000  1.2552000  3
    294    306    312    313     1  0.0000000  0.6508444  3
    294    306    312    314     1  0.0000000  0.6508444  3
    295    294    290    297     1  0.0000000  1.2552000  3
    295    294    306    312     1  0.0000000  0.6508444  3
    295    294    306    307     1  0.0000000  0.6508444  3
    295    294    306    308     1  0.0000000  0.6508444  3
    296    294    290    297     1  0.0000000  1.2552000  3
    296    294    306    312     1  0.0000000  0.6508444  3
    296    294    306    307     1  0.0000000  0.6508444  3
    296    294    306    308     1  0.0000000  0.6508444  3
    297    300    309    310     1  0.0000000  0.6508444  3
    297    300    309    311     1  0.0000000  0.6508444  3
    298    297    300    309     1  0.0000000  0.6508444  3
    298    297    300    301     1  0.0000000  0.6508444  3
    298    297    300    302     1  0.0000000  0.6508444  3
    299    297    300    309     1  0.0000000  0.6508444  3
    299    297    300    301     1  0.0000000  0.6508444  3
    299    297    300    302     1  0.0000000  0.6508444  3
    301    300    309    318     1  0.0000000  1.0460000  1
    301    300    309    318     1  0.0000000  0.0000000  3
    301    300    309    310     1  0.0000000  0.6508444  3
    301    300    309    311     1  0.0000000  0.6508444  3
    302    300    309    318     1  0.0000000  1.0460000  1
    302    300    309    318     1  0.0000000  0.0000000  3
    302    300    309    310     1  0.0000000  0.6508444  3
    302    300    309    311     1  0.0000000  0.6508444  3
    304    303    315    695     1  0.0000000  1.0460000  1
    304    303    315    695     1  0.0000000  0.0000000  3
    304    303    315    316     1  0.0000000  0.6508444  3
    304    303    315    317     1  0.0000000  0.6508444  3
    305    303    315    695     1  0.0000000  1.0460000  1
    305    303    315    695     1  0.0000000  0.0000000  3
    305    303    315    316     1  0.0000000  0.6508444  3
    305    303    315    317     1  0.0000000  0.6508444  3
    307    306    312    666     1  0.0000000  1.0460000  1
    307    306    312    666     1  0.0000000  0.0000000  3
    307    306    312    313     1  0.0000000  0.6508444  3
    307    306    312    314     1  0.0000000  0.6508444  3
    308    306    312    666     1  0.0000000  1.0460000  1
    308    306    312    666     1  0.0000000  0.0000000  3
    308    306    312    313     1  0.0000000  0.6508444  3
    308    306    312    314     1  0.0000000  0.6508444  3
    312    666    657    658     1  0.0000000  1.6038667  3
    312    666    657    659     1  0.0000000  1.6038667  3
    313    312    666    657     1  0.0000000  1.6038667  3
    314    312    666    657     1  0.0000000  1.6038667  3
    315    695    686    687     1  0.0000000  1.6038667  3
    315    695    686    688     1  0.0000000  1.6038667  3
    316    315    695    686     1  0.0000000  1.6038667  3
    317    315    695    686     1  0.0000000  1.6038667  3
    319    320    332    333     1  0.0000000  0.6508444  3
    319    320    332    334     1  0.0000000  0.6508444  3
    319    323    335    336     1  0.0000000  0.6508444  3
    319    323    335    337     1  0.0000000  0.6508444  3
    319    326    329    330     1  0.0000000  0.6508444  3
    319    326    329    331     1  0.0000000  0.6508444  3
    320    319    323    324     1  0.0000000  1.2552000  3
    320    319    323    325     1  0.0000000  1.2552000  3
    320    319    326    327     1  0.0000000  1.2552000  3
    320    319    326    328     1  0.0000000  1.2552000  3
    320    332    344    345     1  0.0000000  0.6508444  3
    320    332    344    346     1  0.0000000  0.6508444  3
    321    320    319    323     1  0.0000000  1.2552000  3
    321    320    319    326     1  0.0000000  1.2552000  3
    321    320    332    344     1  0.0000000  0.6508444  3
    321    320    332    333     1  0.0000000  0.6508444  3
    321    320    332    334     1  0.0000000  0.6508444  3
    322    320    319    323     1  0.0000000  1.2552000  3
    322    320    319    326     1  0.0000000  1.2552000  3
    322    320    332    344     1  0.0000000  0.6508444  3
    322    320    332    333     1  0.0000000  0.6508444  3
    322    320    332    334     1  0.0000000  0.6508444  3
    323    319    326    327     1  0.0000000  1.2552000  3
    323    319    326    328     1  0.0000000  1.2552000  3
    323    335    341    342     1  0.0000000  0.6508444  3
    323    335    341    343     1  0.0000000  0.6508444  3
    324    323    319    326     1  0.0000000  1.2552000  3
    324    323    335    341     1  0.0000000  0.6508444  3
    324    323    335    336     1  0.0000000  0.6508444  3
    324    323    335    337     1  0.0000000  0.6508444  3
    325    323    319    326     1  0.0000000  1.2552000  3
    325    323    335    341     1  0.0000000  0.6508444  3
    325    323    335    336     1  0.0000000  0.6508444  3
    325    323    335    337     1  0.0000000  0.6508444  3
    326    329    338    339     1  0.0000000  0.6508444  3
    326    329    338    340     1  0.0000000  0.6508444  3
    327    326    329    338     1  0.0000000  0.6508444  3
    327    326    329    330     1  0.0000000  0.6508444  3
    327    326    329    331     1  0.0000000  0.6508444  3
    328    326    329    338     1  0.0000000  0.6508444  3
    328    326    329    330     1  0.0000000  0.6508444  3
    328    326    329    331     1  0.0000000  0.6508444  3
    330    329    338    347     1  0.0000000  1.0460000  1
    330    329    338    347     1  0.0000000  0.0000000  3
    330    329    338    339     1  0.0000000  0.6508444  3
    330    329    338    340     1  0.0000000  0.6508444  3
    331    329    338    347     1  0.0000000  1.0460000  1
    331    329    338    347     1  0.0000000  0.0000000  3
    331    329    338    339     1  0.0000000  0.6508444  3
    331    329    338    340     1  0.0000000  0.6508444  3
    333    332    344    753     1  0.0000000  1.0460000  1
    333    332    344    753     1  0.0000000  0.0000000  3
    333    332    344    345     1  0.0000000  0.6508444  3
    333    332    344    346     1  0.0000000  0.6508444  3
    334    332    344    753     1  0.0000000  1.0460000  1
    334    332    344    753     1  0.0000000  0.0000000  3
    334    332    344    345     1  0.0000000  0.6508444  3
    334    332    344    346     1  0.0000000  0.6508444  3
    336    335    341    724     1  0.0000000  1.0460000  1
    336    335    341    724     1  0.0000000  0.0000000  3
    336    335    341    342     1  0.0000000  0.6508444  3
    336    335    341    343     1  0.0000000  0.6508444  3
    337    335    341    724     1  0.0000000  1.0460000  1
    337    335    341    724     1  0.0000000  0.0000000  3
    337    335    341    342     1  0.0000000  0.6508444  3
    337    335    341    343     1  0.0000000  0.6508444  3
    341    724    715    716     1  0.0000000  1.6038667  3
    341    724    715    717     1  0.0000000  1.6038667  3
    342    341    724    715     1  0.0000000  1.6038667  3
    343    341    724    715     1  0.0000000  1.6038667  3
    344    753    744    745     1  0.0000000  1.6038667  3
    344    753    744    746     1  0.0000000  1.6038667  3
    345    344    753    744     1  0.0000000  1.6038667  3
    346    344    753    744     1  0.0000000  1.6038667  3
    348    349    361    362     1  0.0000000  0.6508444  3
    348    349    361    363     1  0.0000000  0.6508444  3
    348    352    364    365     1  0.0000000  0.6508444  3
    348    352    364    366     1  0.0000000  0.6508444  3
    348    355    358    359     1  0.0000000  0.6508444  3
    348    355    358    360     1  0.0000000  0.6508444  3
    349    348    352    353     1  0.0000000  1.2552000  3
    349    348    352    354     1  0.0000000  1.2552000  3
    349    348    355    356     1  0.0000000  1.2552000  3
    349    348    355    357     1  0.0000000  1.2552000  3
    349    361    373    374     1  0.0000000  0.6508444  3
    349    361    373    375     1  0.0000000  0.6508444  3
    350    349    348    352     1  0.0000000  1.2552000  3
    350    349    348    355     1  0.0000000  1.2552000  3
    350    349    361    373     1  0.0000000  0.6508444  3
    350    349    361    362     1  0.0000000  0.6508444  3
    350    349    361    363     1  0.0000000  0.6508444  3
    351    349    348    352     1  0.0000000  1.2552000  3
    351    349    348    355     1  0.0000000  1.2552000  3
    351    349    361    373     1  0.0000000  0.6508444  3
    351    349    361    362     1  0.0000000  0.6508444  3
    351    349    361    363     1  0.0000000  0.6508444  3
    352    348    355    356     1  0.0000000  1.2552000  3
    352    348    355    357     1  0.0000000  1.2552000  3
    352    364    370    371     1  0.0000000  0.6508444  3
    352    364    370    372     1  0.0000000  0.6508444  3
    353    352    348    355     1  0.0000000  1.2552000  3
    353    352    364    370     1  0.0000000  0.6508444  3
    353    352    364    365     1  0.0000000  0.6508444  3
    353    352    364    366     1  0.0000000  0.6508444  3
    354    352    348    355     1  0.0000000  1.2552000  3
    354    352    364    370     1  0.0000000  0.6508444  3
    354    352    364    365     1  0.0000000  0.6508444  3
    354    352    364    366     1  0.0000000  0.6508444  3
    355    358    367    368     1  0.0000000  0.6508444  3
    355    358    367    369     1  0.0000000  0.6508444  3
    356    355    358    367     1  0.0000000  0.6508444  3
    356    355    358    359     1  0.0000000  0.6508444  3
    356    355    358    360     1  0.0000000  0.6508444  3
    357    355    358    367     1  0.0000000  0.6508444  3
    357    355    358    359     1  0.0000000  0.6508444  3
    357    355    358    360     1  0.0000000  0.6508444  3
    359    358    367    376     1  0.0000000  1.0460000  1
    359    358    367    376     1  0.0000000  0.0000000  3
    359    358    367    368     1  0.0000000  0.6508444  3
    359    358    367    369     1  0.0000000  0.6508444  3
    360    358    367    376     1  0.0000000  1.0460000  1
    360    358    367    376     1  0.0000000  0.0000000  3
    360    358    367    368     1  0.0000000  0.6508444  3
    360    358    367    369     1  0.0000000  0.6508444  3
    362    361    373    811     1  0.0000000  1.0460000  1
    362    361    373    811     1  0.0000000  0.0000000  3
    362    361    373    374     1  0.0000000  0.6508444  3
    362    361    373    375     1  0.0000000  0.6508444  3
    363    361    373    811     1  0.0000000  1.0460000  1
    363    361    373    811     1  0.0000000  0.0000000  3
    363    361    373    374     1  0.0000000  0.6508444  3
    363    361    373    375     1  0.0000000  0.6508444  3
    365    364    370    782     1  0.0000000  1.0460000  1
    365    364    370    782     1  0.0000000  0.0000000  3
    365    364    370    371     1  0.0000000  0.6508444  3
    365    364    370    372     1  0.0000000  0.6508444  3
    366    364    370    782     1  0.0000000  1.0460000  1
    366    364    370    782     1  0.0000000  0.0000000  3
    366    364    370    371     1  0.0000000  0.6508444  3
    366    364    370    372     1  0.0000000  0.6508444  3
    370    782    773    774     1  0.0000000  1.6038667  3
    370    782    773    775     1  0.0000000  1.6038667  3
    371    370    782    773     1  0.0000000  1.6038667  3
    372    370    782    773     1  0.0000000  1.6038667  3
    373    811    802    803     1  0.0000000  1.6038667  3
    373    811    802    804     1  0.0000000  1.6038667  3
    374    373    811    802     1  0.0000000  1.6038667  3
    375    373    811    802     1  0.0000000  1.6038667  3
    377    378    390    391     1  0.0000000  0.6508444  3
    377    378    390    392     1  0.0000000  0.6508444  3
    377    381    393    394     1  0.0000000  0.6508444  3
    377    381    393    395     1  0.0000000  0.6508444  3
    377    384    387    388     1  0.0000000  0.6508444  3
    377    384    387    389     1  0.0000000  0.6508444  3
    378    377    381    382     1  0.0000000  1.2552000  3
    378    377    381    383     1  0.0000000  1.2552000  3
    378    377    384    385     1  0.0000000  1.2552000  3
    378    377    384    386     1  0.0000000  1.2552000  3
    378    390    402    403     1  0.0000000  0.6508444  3
    378    390    402    404     1  0.0000000  0.6508444  3
    379    378    377    381     1  0.0000000  1.2552000  3
    379    378    377    384     1  0.0000000  1.2552000  3
    379    378    390    402     1  0.0000000  0.6508444  3
    379    378    390    391     1  0.0000000  0.6508444  3
    379    378    390    392     1  0.0000000  0.6508444  3
    380    378    377    381     1  0.0000000  1.2552000  3
    380    378    377    384     1  0.0000000  1.2552000  3
    380    378    390    402     1  0.0000000  0.6508444  3
    380    378    390    391     1  0.0000000  0.6508444  3
    380    378    390    392     1  0.0000000  0.6508444  3
    381    377    384    385     1  0.0000000  1.2552000  3
    381    377    384    386     1  0.0000000  1.2552000  3
    381    393    399    400     1  0.0000000  0.6508444  3
    381    393    399    401     1  0.0000000  0.6508444  3
    382    381    377    384     1  0.0000000  1.2552000  3
    382    381    393    399     1  0.0000000  0.6508444  3
    382    381    393    394     1  0.0000000  0.6508444  3
    382    381    393    395     1  0.0000000  0.6508444  3
    383    381    377    384     1  0.0000000  1.2552000  3
    383    381    393    399     1  0.0000000  0.6508444  3
    383    381    393    394     1  0.0000000  0.6508444  3
    383    381    393    395     1  0.0000000  0.6508444  3
    384    387    396    397     1  0.0000000  0.6508444  3
    384    387    396    398     1  0.0000000  0.6508444  3
    385    384    387    396     1  0.0000000  0.6508444  3
    385    384    387    388     1  0.0000000  0.6508444  3
    385    384    387    389     1  0.0000000  0.6508444  3
    386    384    387    396     1  0.0000000  0.6508444  3
    386    384    387    388     1  0.0000000  0.6508444  3
    386    384    387    389     1  0.0000000  0.6508444  3
    388    387    396    405     1  0.0000000  1.0460000  1
    388    387    396    405     1  0.0000000  0.0000000  3
    388    387    396    397     1  0.0000000  0.6508444  3
    388    387    396    398     1  0.0000000  0.6508444  3
    389    387    396    405     1  0.0000000  1.0460000  1
    389    387    396    405     1  0.0000000  0.0000000  3
    389    387    396    397     1  0.0000000  0.6508444  3
    389    387    396    398     1  0.0000000  0.6508444  3
    391    390    402    869     1  0.0000000  1.0460000  1
    391    390    402    869     1  0.0000000  0.0000000  3
    391    390    402    403     1  0.0000000  0.6508444  3
    391    390    402    404     1  0.0000000  0.6508444  3
    392    390    402    869     1  0.0000000  1.0460000  1
    392    390    402    869     1  0.0000000  0.0000000  3
    392    390    402    403     1  0.0000000  0.6508444  3
    392    390    402    404     1  0.0000000  0.6508444  3
    394    393    399    840     1  0.0000000  1.0460000  1
    394    393    399    840     1  0.0000000  0.0000000  3
    394    393    399    400     1  0.0000000  0.6508444  3
    394    393    399    401     1  0.0000000  0.6508444  3
    395    393    399    840     1  0.0000000  1.0460000  1
    395    393    399    840     1  0.0000000  0.0000000  3
    395    393    399    400     1  0.0000000  0.6508444  3
    395    393    399    401     1  0.0000000  0.6508444  3
    399    840    831    832     1  0.0000000  1.6038667  3
    399    840    831    833     1  0.0000000  1.6038667  3
    400    399    840    831     1  0.0000000  1.6038667  3
    401    399    840    831     1  0.0000000  1.6038667  3
    402    869    860    861     1  0.0000000  1.6038667  3
    402    869    860    862     1  0.0000000  1.6038667  3
    403    402    869    860     1  0.0000000  1.6038667  3
    404    402    869    860     1  0.0000000  1.6038667  3
    406    407    419    420     1  0.0000000  0.6508444  3
    406    407    419    421     1  0.0000000  0.6508444  3
    406    410    422    423     1  0.0000000  0.6508444  3
    406    410    422    424     1  0.0000000  0.6508444  3
    406    413    416    417     1  0.0000000  0.6508444  3
    406    413    416    418     1  0.0000000  0.6508444  3
    407    406    410    411     1  0.0000000  1.2552000  3
    407    406    410    412     1  0.0000000  1.2552000  3
    407    406    413    414     1  0.0000000  1.2552000  3
    407    406    413    415     1  0.0000000  1.2552000  3
    407    419    431    432     1  0.0000000  0.6508444  3
    407    419    431    433     1  0.0000000  0.6508444  3
    408    407    406    410     1  0.0000000  1.2552000  3
    408    407    406    413     1  0.0000000  1.2552000  3
    408    407    419    431     1  0.0000000  0.6508444  3
    408    407    419    420     1  0.0000000  0.6508444  3
    408    407    419    421     1  0.0000000  0.6508444  3
    409    407    406    410     1  0.0000000  1.2552000  3
    409    407    406    413     1  0.0000000  1.2552000  3
    409    407    419    431     1  0.0000000  0.6508444  3
    409    407    419    420     1  0.0000000  0.6508444  3
    409    407    419    421     1  0.0000000  0.6508444  3
    410    406    413    414     1  0.0000000  1.2552000  3
    410    406    413    415     1  0.0000000  1.2552000  3
    410    422    428    429     1  0.0000000  0.6508444  3
    410    422    428    430     1  0.0000000  0.6508444  3
    411    410    406    413     1  0.0000000  1.2552000  3
    411    410    422    428     1  0.0000000  0.6508444  3
    411    410    422    423     1  0.0000000  0.6508444  3
    411    410    422    424     1  0.0000000  0.6508444  3
    412    410    406    413     1  0.0000000  1.2552000  3
    412    410    422    428     1  0.0000000  0.6508444  3
    412    410    422    423     1  0.0000000  0.6508444  3
    412    410    422    424     1  0.0000000  0.6508444  3
    413    416    425    426     1  0.0000000  0.6508444  3
    413    416    425    427     1  0.0000000  0.6508444  3
    414    413    416    425     1  0.0000000  0.6508444  3
    414    413    416    417     1  0.0000000  0.6508444  3
    414    413    416    418     1  0.0000000  0.6508444  3
    415    413    416    425     1  0.0000000  0.6508444  3
    415    413    416    417     1  0.0000000  0.6508444  3
    415    413    416    418     1  0.0000000  0.6508444  3
    417    416    425    434     1  0.0000000  1.0460000  1
    417    416    425    434     1  0.0000000  0.0000000  3
    417    416    425    426     1  0.0000000  0.6508444  3
    417    416    425    427     1  0.0000000  0.6508444  3
    418    416    425    434     1  0.0000000  1.0460000  1
    418    416    425    434     1  0.0000000  0.0000000  3
    418    416    425    426     1  0.0000000  0.6508444  3
    418    416    425    427     1  0.0000000  0.6508444  3
    420    419    431    927     1  0.0000000  1.0460000  1
    420    419    431    927     1  0.0000000  0.0000000  3
    420    419    431    432     1  0.0000000  0.6508444  3
    420    419    431    433     1  0.0000000  0.6508444  3
    421    419    431    927     1  0.0000000  1.0460000  1
    421    419    431    927     1  0.0000000  0.0000000  3
    421    419    431    432     1  0.0000000  0.6508444  3
    421    419    431    433     1  0.0000000  0.6508444  3
    423    422    428    898     1  0.0000000  1.0460000  1
    423    422    428    898     1  0.0000000  0.0000000  3
    423    422    428    429     1  0.0000000  0.6508444  3
    423    422    428    430     1  0.0000000  0.6508444  3
    424    422    428    898     1  0.0000000  1.0460000  1
    424    422    428    898     1  0.0000000  0.0000000  3
    424    422    428    429     1  0.0000000  0.6508444  3
    424    422    428    430     1  0.0000000  0.6508444  3
    428    898    889    890     1  0.0000000  1.6038667  3
    428    898    889    891     1  0.0000000  1.6038667  3
    429    428    898    889     1  0.0000000  1.6038667  3
    430    428    898    889     1  0.0000000  1.6038667  3
    431    927    918    919     1  0.0000000  1.6038667  3
    431    927    918    920     1  0.0000000  1.6038667  3
    432    431    927    918     1  0.0000000  1.6038667  3
    433    431    927    918     1  0.0000000  1.6038667  3
    435    436    448    449     1  0.0000000  0.6508444  3
    435    436    448    450     1  0.0000000  0.6508444  3
    435    439    451    452     1  0.0000000  0.6508444  3
    435    439    451    453     1  0.0000000  0.6508444  3
    435    442    445    446     1  0.0000000  0.6508444  3
    435    442    445    447     1  0.0000000  0.6508444  3
    436    435    439    440     1  0.0000000  1.2552000  3
    436    435    439    441     1  0.0000000  1.2552000  3
    436    435    442    443     1  0.0000000  1.2552000  3
    436    435    442    444     1  0.0000000  1.2552000  3
    436    448    460    461     1  0.0000000  0.6508444  3
    436    448    460    462     1  0.0000000  0.6508444  3
    437    436    435    439     1  0.0000000  1.2552000  3
    437    436    435    442     1  0.0000000  1.2552000  3
    437    436    448    460     1  0.0000000  0.6508444  3
    437    436    448    449     1  0.0000000  0.6508444  3
    437    436    448    450     1  0.0000000  0.6508444  3
    438    436    435    439     1  0.0000000  1.2552000  3
    438    436    435    442     1  0.0000000  1.2552000  3
    438    436    448    460     1  0.0000000  0.6508444  3
    438    436    448    449     1  0.0000000  0.6508444  3
    438    436    448    450     1  0.0000000  0.6508444  3
    439    435    442    443     1  0.0000000  1.2552000  3
    439    435    442    444     1  0.0000000  1.2552000  3
    439    451    457    458     1  0.0000000  0.6508444  3
    439    451    457    459     1  0.0000000  0.6508444  3
    440    439    435    442     1  0.0000000  1.2552000  3
    440    439    451    457     1  0.0000000  0.6508444  3
    440    439    451    452     1  0.0000000  0.6508444  3
    440    439    451    453     1  0.0000000  0.6508444  3
    441    439    435    442     1  0.0000000  1.2552000  3
    441    439    451    457     1  0.0000000  0.6508444  3
    441    439    451    452     1  0.0000000  0.6508444  3
    441    439    451    453     1  0.0000000  0.6508444  3
    442    445    454    455     1  0.0000000  0.6508444  3
    442    445    454    456     1  0.0000000  0.6508444  3
    443    442    445    454     1  0.0000000  0.6508444  3
    443    442    445    446     1  0.0000000  0.6508444  3
    443    442    445    447     1  0.0000000  0.6508444  3
    444    442    445    454     1  0.0000000  0.6508444  3
    444    442    445    446     1  0.0000000  0.6508444  3
    444    442    445    447     1  0.0000000  0.6508444  3
    446    445    454    463     1  0.0000000  1.0460000  1
    446    445    454    463     1  0.0000000  0.0000000  3
    446    445    454    455     1  0.0000000  0.6508444  3
    446    445    454    456     1  0.0000000  0.6508444  3
    447    445    454    463     1  0.0000000  1.0460000  1
    447    445    454    463     1  0.0000000  0.0000000  3
    447    445    454    455     1  0.0000000  0.6508444  3
    447    445    454    456     1  0.0000000  0.6508444  3
    449    448    460    985     1  0.0000000  1.0460000  1
    449    448    460    985     1  0.0000000  0.0000000  3
    449    448    460    461     1  0.0000000  0.6508444  3
    449    448    460    462     1  0.0000000  0.6508444  3
    450    448    460    985     1  0.0000000  1.0460000  1
    450    448    460    985     1  0.0000000  0.0000000  3
    450    448    460    461     1  0.0000000  0.6508444  3
    450    448    460    462     1  0.0000000  0.6508444  3
    452    451    457    956     1  0.0000000  1.0460000  1
    452    451    457    956     1  0.0000000  0.0000000  3
    452    451    457    458     1  0.0000000  0.6508444  3
    452    451    457    459     1  0.0000000  0.6508444  3
    453    451    457    956     1  0.0000000  1.0460000  1
    453    451    457    956     1  0.0000000  0.0000000  3
    453    451    457    458     1  0.0000000  0.6508444  3
    453    451    457    459     1  0.0000000  0.6508444  3
    457    956    947    948     1  0.0000000  1.6038667  3
    457    956    947    949     1  0.0000000  1.6038667  3
    458    457    956    947     1  0.0000000  1.6038667  3
    459    457    956    947     1  0.0000000  1.6038667  3
    460    985    976    977     1  0.0000000  1.6038667  3
    460    985    976    978     1  0.0000000  1.6038667  3
    461    460    985    976     1  0.0000000  1.6038667  3
    462    460    985    976     1  0.0000000  1.6038667  3
    464    465    477    478     1  0.0000000  0.6508444  3
    464    465    477    479     1  0.0000000  0.6508444  3
    464    468    480    481     1  0.0000000  0.6508444  3
    464    468    480    482     1  0.0000000  0.6508444  3
    464    471    474    475     1  0.0000000  0.6508444  3
    464    471    474    476     1  0.0000000  0.6508444  3
    465    464    468    469     1  0.0000000  1.2552000  3
    465    464    468    470     1  0.0000000  1.2552000  3
    465    464    471    472     1  0.0000000  1.2552000  3
    465    464    471    473     1  0.0000000  1.2552000  3
    465    477    489    490     1  0.0000000  0.6508444  3
    465    477    489    491     1  0.0000000  0.6508444  3
    466    465    464    468     1  0.0000000  1.2552000  3
    466    465    464    471     1  0.0000000  1.2552000  3
    466    465    477    489     1  0.0000000  0.6508444  3
    466    465    477    478     1  0.0000000  0.6508444  3
    466    465    477    479     1  0.0000000  0.6508444  3
    467    465    464    468     1  0.0000000  1.2552000  3
    467    465    464    471     1  0.0000000  1.2552000  3
    467    465    477    489     1  0.0000000  0.6508444  3
    467    465    477    478     1  0.0000000  0.6508444  3
    467    465    477    479     1  0.0000000  0.6508444  3
    468    464    471    472     1  0.0000000  1.2552000  3
    468    464    471    473     1  0.0000000  1.2552000  3
    468    480    486    487     1  0.0000000  0.6508444  3
    468    480    486    488     1  0.0000000  0.6508444  3
    469    468    464    471     1  0.0000000  1.2552000  3
    469    468    480    486     1  0.0000000  0.6508444  3
    469    468    480    481     1  0.0000000  0.6508444  3
    469    468    480    482     1  0.0000000  0.6508444  3
    470    468    464    471     1  0.0000000  1.2552000  3
    470    468    480    486     1  0.0000000  0.6508444  3
    470    468    480    481     1  0.0000000  0.6508444  3
    470    468    480    482     1  0.0000000  0.6508444  3
    471    474    483    484     1  0.0000000  0.6508444  3
    471    474    483    485     1  0.0000000  0.6508444  3
    472    471    474    483     1  0.0000000  0.6508444  3
    472    471    474    475     1  0.0000000  0.6508444  3
    472    471    474    476     1  0.0000000  0.6508444  3
    473    471    474    483     1  0.0000000  0.6508444  3
    473    471    474    475     1  0.0000000  0.6508444  3
    473    471    474    476     1  0.0000000  0.6508444  3
    475    474    483    492     1  0.0000000  1.0460000  1
    475    474    483    492     1  0.0000000  0.0000000  3
    475    474    483    484     1  0.0000000  0.6508444  3
    475    474    483    485     1  0.0000000  0.6508444  3
    476    474    483    492     1  0.0000000  1.0460000  1
    476    474    483    492     1  0.0000000  0.0000000  3
    476    474    483    484     1  0.0000000  0.6508444  3
    476    474    483    485     1  0.0000000  0.6508444  3
    478    477    489   1043     1  0.0000000  1.0460000  1
    478    477    489   1043     1  0.0000000  0.0000000  3
    478    477    489    490     1  0.0000000  0.6508444  3
    478    477    489    491     1  0.0000000  0.6508444  3
    479    477    489   1043     1  0.0000000  1.0460000  1
    479    477    489   1043     1  0.0000000  0.0000000  3
    479    477    489    490     1  0.0000000  0.6508444  3
    479    477    489    491     1  0.0000000  0.6508444  3
    481    480    486   1014     1  0.0000000  1.0460000  1
    481    480    486   1014     1  0.0000000  0.0000000  3
    481    480    486    487     1  0.0000000  0.6508444  3
    481    480    486    488     1  0.0000000  0.6508444  3
    482    480    486   1014     1  0.0000000  1.0460000  1
    482    480    486   1014     1  0.0000000  0.0000000  3
    482    480    486    487     1  0.0000000  0.6508444  3
    482    480    486    488     1  0.0000000  0.6508444  3
    486   1014   1005   1006     1  0.0000000  1.6038667  3
    486   1014   1005   1007     1  0.0000000  1.6038667  3
    487    486   1014   1005     1  0.0000000  1.6038667  3
    488    486   1014   1005     1  0.0000000  1.6038667  3
    489   1043   1034   1035     1  0.0000000  1.6038667  3
    489   1043   1034   1036     1  0.0000000  1.6038667  3
    490    489   1043   1034     1  0.0000000  1.6038667  3
    491    489   1043   1034     1  0.0000000  1.6038667  3
    493    494    506    507     1  0.0000000  0.6508444  3
    493    494    506    508     1  0.0000000  0.6508444  3
    493    497    509    510     1  0.0000000  0.6508444  3
    493    497    509    511     1  0.0000000  0.6508444  3
    493    500    503    504     1  0.0000000  0.6508444  3
    493    500    503    505     1  0.0000000  0.6508444  3
    494    493    497    498     1  0.0000000  1.2552000  3
    494    493    497    499     1  0.0000000  1.2552000  3
    494    493    500    501     1  0.0000000  1.2552000  3
    494    493    500    502     1  0.0000000  1.2552000  3
    494    506    518    519     1  0.0000000  0.6508444  3
    494    506    518    520     1  0.0000000  0.6508444  3
    495    494    493    497     1  0.0000000  1.2552000  3
    495    494    493    500     1  0.0000000  1.2552000  3
    495    494    506    518     1  0.0000000  0.6508444  3
    495    494    506    507     1  0.0000000  0.6508444  3
    495    494    506    508     1  0.0000000  0.6508444  3
    496    494    493    497     1  0.0000000  1.2552000  3
    496    494    493    500     1  0.0000000  1.2552000  3
    496    494    506    518     1  0.0000000  0.6508444  3
    496    494    506    507     1  0.0000000  0.6508444  3
    496    494    506    508     1  0.0000000  0.6508444  3
    497    493    500    501     1  0.0000000  1.2552000  3
    497    493    500    502     1  0.0000000  1.2552000  3
    497    509    515    516     1  0.0000000  0.6508444  3
    497    509    515    517     1  0.0000000  0.6508444  3
    498    497    493    500     1  0.0000000  1.2552000  3
    498    497    509    515     1  0.0000000  0.6508444  3
    498    497    509    510     1  0.0000000  0.6508444  3
    498    497    509    511     1  0.0000000  0.6508444  3
    499    497    493    500     1  0.0000000  1.2552000  3
    499    497    509    515     1  0.0000000  0.6508444  3
    499    497    509    510     1  0.0000000  0.6508444  3
    499    497    509    511     1  0.0000000  0.6508444  3
    500    503    512    513     1  0.0000000  0.6508444  3
    500    503    512    514     1  0.0000000  0.6508444  3
    501    500    503    512     1  0.0000000  0.6508444  3
    501    500    503    504     1  0.0000000  0.6508444  3
    501    500    503    505     1  0.0000000  0.6508444  3
    502    500    503    512     1  0.0000000  0.6508444  3
    502    500    503    504     1  0.0000000  0.6508444  3
    502    500    503    505     1  0.0000000  0.6508444  3
    504    503    512    521     1  0.0000000  1.0460000  1
    504    503    512    521     1  0.0000000  0.0000000  3
    504    503    512    513     1  0.0000000  0.6508444  3
    504    503    512    514     1  0.0000000  0.6508444  3
    505    503    512    521     1  0.0000000  1.0460000  1
    505    503    512    521     1  0.0000000  0.0000000  3
    505    503    512    513     1  0.0000000  0.6508444  3
    505    503    512    514     1  0.0000000  0.6508444  3
    507    506    518   1101     1  0.0000000  1.0460000  1
    507    506    518   1101     1  0.0000000  0.0000000  3
    507    506    518    519     1  0.0000000  0.6508444  3
    507    506    518    520     1  0.0000000  0.6508444  3
    508    506    518   1101     1  0.0000000  1.0460000  1
    508    506    518   1101     1  0.0000000  0.0000000  3
    508    506    518    519     1  0.0000000  0.6508444  3
    508    506    518    520     1  0.0000000  0.6508444  3
    510    509    515   1072     1  0.0000000  1.0460000  1
    510    509    515   1072     1  0.0000000  0.0000000  3
    510    509    515    516     1  0.0000000  0.6508444  3
    510    509    515    517     1  0.0000000  0.6508444  3
    511    509    515   1072     1  0.0000000  1.0460000  1
    511    509    515   1072     1  0.0000000  0.0000000  3
    511    509    515    516     1  0.0000000  0.6508444  3
    511    509    515    517     1  0.0000000  0.6508444  3
    515   1072   1063   1064     1  0.0000000  1.6038667  3
    515   1072   1063   1065     1  0.0000000  1.6038667  3
    516    515   1072   1063     1  0.0000000  1.6038667  3
    517    515   1072   1063     1  0.0000000  1.6038667  3
    518   1101   1092   1093     1  0.0000000  1.6038667  3
    518   1101   1092   1094     1  0.0000000  1.6038667  3
    519    518   1101   1092     1  0.0000000  1.6038667  3
    520    518   1101   1092     1  0.0000000  1.6038667  3
    522    523    535    536     1  0.0000000  0.6508444  3
    522    523    535    537     1  0.0000000  0.6508444  3
    522    526    538    539     1  0.0000000  0.6508444  3
    522    526    538    540     1  0.0000000  0.6508444  3
    522    529    532    533     1  0.0000000  0.6508444  3
    522    529    532    534     1  0.0000000  0.6508444  3
    523    522    526    527     1  0.0000000  1.2552000  3
    523    522    526    528     1  0.0000000  1.2552000  3
    523    522    529    530     1  0.0000000  1.2552000  3
    523    522    529    531     1  0.0000000  1.2552000  3
    523    535    547    548     1  0.0000000  0.6508444  3
    523    535    547    549     1  0.0000000  0.6508444  3
    524    523    522    526     1  0.0000000  1.2552000  3
    524    523    522    529     1  0.0000000  1.2552000  3
    524    523    535    547     1  0.0000000  0.6508444  3
    524    523    535    536     1  0.0000000  0.6508444  3
    524    523    535    537     1  0.0000000  0.6508444  3
    525    523    522    526     1  0.0000000  1.2552000  3
    525    523    522    529     1  0.0000000  1.2552000  3
    525    523    535    547     1  0.0000000  0.6508444  3
    525    523    535    536     1  0.0000000  0.6508444  3
    525    523    535    537     1  0.0000000  0.6508444  3
    526    522    529    530     1  0.0000000  1.2552000  3
    526    522    529    531     1  0.0000000  1.2552000  3
    526    538    544    545     1  0.0000000  0.6508444  3
    526    538    544    546     1  0.0000000  0.6508444  3
    527    526    522    529     1  0.0000000  1.2552000  3
    527    526    538    544     1  0.0000000  0.6508444  3
    527    526    538    539     1  0.0000000  0.6508444  3
    527    526    538    540     1  0.0000000  0.6508444  3
    528    526    522    529     1  0.0000000  1.2552000  3
    528    526    538    544     1  0.0000000  0.6508444  3
    528    526    538    539     1  0.0000000  0.6508444  3
    528    526    538    540     1  0.0000000  0.6508444  3
    529    532    541    542     1  0.0000000  0.6508444  3
    529    532    541    543     1  0.0000000  0.6508444  3
    530    529    532    541     1  0.0000000  0.6508444  3
    530    529    532    533     1  0.0000000  0.6508444  3
    530    529    532    534     1  0.0000000  0.6508444  3
    531    529    532    541     1  0.0000000  0.6508444  3
    531    529    532    533     1  0.0000000  0.6508444  3
    531    529    532    534     1  0.0000000  0.6508444  3
    533    532    541    550     1  0.0000000  1.0460000  1
    533    532    541    550     1  0.0000000  0.0000000  3
    533    532    541    542     1  0.0000000  0.6508444  3
    533    532    541    543     1  0.0000000  0.6508444  3
    534    532    541    550     1  0.0000000  1.0460000  1
    534    532    541    550     1  0.0000000  0.0000000  3
    534    532    541    542     1  0.0000000  0.6508444  3
    534    532    541    543     1  0.0000000  0.6508444  3
    536    535    547   1159     1  0.0000000  1.0460000  1
    536    535    547   1159     1  0.0000000  0.0000000  3
    536    535    547    548     1  0.0000000  0.6508444  3
    536    535    547    549     1  0.0000000  0.6508444  3
    537    535    547   1159     1  0.0000000  1.0460000  1
    537    535    547   1159     1  0.0000000  0.0000000  3
    537    535    547    548     1  0.0000000  0.6508444  3
    537    535    547    549     1  0.0000000  0.6508444  3
    539    538    544   1130     1  0.0000000  1.0460000  1
    539    538    544   1130     1  0.0000000  0.0000000  3
    539    538    544    545     1  0.0000000  0.6508444  3
    539    538    544    546     1  0.0000000  0.6508444  3
    540    538    544   1130     1  0.0000000  1.0460000  1
    540    538    544   1130     1  0.0000000  0.0000000  3
    540    538    544    545     1  0.0000000  0.6508444  3
    540    538    544    546     1  0.0000000  0.6508444  3
    544   1130   1121   1122     1  0.0000000  1.6038667  3
    544   1130   1121   1123     1  0.0000000  1.6038667  3
    545    544   1130   1121     1  0.0000000  1.6038667  3
    546    544   1130   1121     1  0.0000000  1.6038667  3
    547   1159   1150   1151     1  0.0000000  1.6038667  3
    547   1159   1150   1152     1  0.0000000  1.6038667  3
    548    547   1159   1150     1  0.0000000  1.6038667  3
    549    547   1159   1150     1  0.0000000  1.6038667  3
    551    552    564    565     1  0.0000000  0.6508444  3
    551    552    564    566     1  0.0000000  0.6508444  3
    551    555    567    568     1  0.0000000  0.6508444  3
    551    555    567    569     1  0.0000000  0.6508444  3
    551    558    561    562     1  0.0000000  0.6508444  3
    551    558    561    563     1  0.0000000  0.6508444  3
    552    551    555    556     1  0.0000000  1.2552000  3
    552    551    555    557     1  0.0000000  1.2552000  3
    552    551    558    559     1  0.0000000  1.2552000  3
    552    551    558    560     1  0.0000000  1.2552000  3
    552    564    576    577     1  0.0000000  0.6508444  3
    552    564    576    578     1  0.0000000  0.6508444  3
    553    552    551    555     1  0.0000000  1.2552000  3
    553    552    551    558     1  0.0000000  1.2552000  3
    553    552    564    576     1  0.0000000  0.6508444  3
    553    552    564    565     1  0.0000000  0.6508444  3
    553    552    564    566     1  0.0000000  0.6508444  3
    554    552    551    555     1  0.0000000  1.2552000  3
    554    552    551    558     1  0.0000000  1.2552000  3
    554    552    564    576     1  0.0000000  0.6508444  3
    554    552    564    565     1  0.0000000  0.6508444  3
    554    552    564    566     1  0.0000000  0.6508444  3
    555    551    558    559     1  0.0000000  1.2552000  3
    555    551    558    560     1  0.0000000  1.2552000  3
    555    567    573    574     1  0.0000000  0.6508444  3
    555    567    573    575     1  0.0000000  0.6508444  3
    556    555    551    558     1  0.0000000  1.2552000  3
    556    555    567    573     1  0.0000000  0.6508444  3
    556    555    567    568     1  0.0000000  0.6508444  3
    556    555    567    569     1  0.0000000  0.6508444  3
    557    555    551    558     1  0.0000000  1.2552000  3
    557    555    567    573     1  0.0000000  0.6508444  3
    557    555    567    568     1  0.0000000  0.6508444  3
    557    555    567    569     1  0.0000000  0.6508444  3
    558    561    570    571     1  0.0000000  0.6508444  3
    558    561    570    572     1  0.0000000  0.6508444  3
    559    558    561    570     1  0.0000000  0.6508444  3
    559    558    561    562     1  0.0000000  0.6508444  3
    559    558    561    563     1  0.0000000  0.6508444  3
    560    558    561    570     1  0.0000000  0.6508444  3
    560    558    561    562     1  0.0000000  0.6508444  3
    560    558    561    563     1  0.0000000  0.6508444  3
    562    561    570    579     1  0.0000000  1.0460000  1
    562    561    570    579     1  0.0000000  0.0000000  3
    562    561    570    571     1  0.0000000  0.6508444  3
    562    561    570    572     1  0.0000000  0.6508444  3
    563    561    570    579     1  0.0000000  1.0460000  1
    563    561    570    579     1  0.0000000  0.0000000  3
    563    561    570    571     1  0.0000000  0.6508444  3
    563    561    570    572     1  0.0000000  0.6508444  3
    565    564    576   1217     1  0.0000000  1.0460000  1
    565    564    576   1217     1  0.0000000  0.0000000  3
    565    564    576    577     1  0.0000000  0.6508444  3
    565    564    576    578     1  0.0000000  0.6508444  3
    566    564    576   1217     1  0.0000000  1.0460000  1
    566    564    576   1217     1  0.0000000  0.0000000  3
    566    564    576    577     1  0.0000000  0.6508444  3
    566    564    576    578     1  0.0000000  0.6508444  3
    568    567    573   1188     1  0.0000000  1.0460000  1
    568    567    573   1188     1  0.0000000  0.0000000  3
    568    567    573    574     1  0.0000000  0.6508444  3
    568    567    573    575     1  0.0000000  0.6508444  3
    569    567    573   1188     1  0.0000000  1.0460000  1
    569    567    573   1188     1  0.0000000  0.0000000  3
    569    567    573    574     1  0.0000000  0.6508444  3
    569    567    573    575     1  0.0000000  0.6508444  3
    573   1188   1179   1180     1  0.0000000  1.6038667  3
    573   1188   1179   1181     1  0.0000000  1.6038667  3
    574    573   1188   1179     1  0.0000000  1.6038667  3
    575    573   1188   1179     1  0.0000000  1.6038667  3
    576   1217   1208   1209     1  0.0000000  1.6038667  3
    576   1217   1208   1210     1  0.0000000  1.6038667  3
    577    576   1217   1208     1  0.0000000  1.6038667  3
    578    576   1217   1208     1  0.0000000  1.6038667  3
    580    581    593    594     1  0.0000000  0.6508444  3
    580    581    593    595     1  0.0000000  0.6508444  3
    580    584    596    597     1  0.0000000  0.6508444  3
    580    584    596    598     1  0.0000000  0.6508444  3
    580    587    590    591     1  0.0000000  0.6508444  3
    580    587    590    592     1  0.0000000  0.6508444  3
    581    580    584    585     1  0.0000000  1.2552000  3
    581    580    584    586     1  0.0000000  1.2552000  3
    581    580    587    588     1  0.0000000  1.2552000  3
    581    580    587    589     1  0.0000000  1.2552000  3
    581    593    605    606     1  0.0000000  0.6508444  3
    581    593    605    607     1  0.0000000  0.6508444  3
    582    581    580    584     1  0.0000000  1.2552000  3
    582    581    580    587     1  0.0000000  1.2552000  3
    582    581    593    605     1  0.0000000  0.6508444  3
    582    581    593    594     1  0.0000000  0.6508444  3
    582    581    593    595     1  0.0000000  0.6508444  3
    583    581    580    584     1  0.0000000  1.2552000  3
    583    581    580    587     1  0.0000000  1.2552000  3
    583    581    593    605     1  0.0000000  0.6508444  3
    583    581    593    594     1  0.0000000  0.6508444  3
    583    581    593    595     1  0.0000000  0.6508444  3
    584    580    587    588     1  0.0000000  1.2552000  3
    584    580    587    589     1  0.0000000  1.2552000  3
    584    596    602    603     1  0.0000000  0.6508444  3
    584    596    602    604     1  0.0000000  0.6508444  3
    585    584    580    587     1  0.0000000  1.2552000  3
    585    584    596    602     1  0.0000000  0.6508444  3
    585    584    596    597     1  0.0000000  0.6508444  3
    585    584    596    598     1  0.0000000  0.6508444  3
    586    584    580    587     1  0.0000000  1.2552000  3
    586    584    596    602     1  0.0000000  0.6508444  3
    586    584    596    597     1  0.0000000  0.6508444  3
    586    584    596    598     1  0.0000000  0.6508444  3
    587    590    599    600     1  0.0000000  0.6508444  3
    587    590    599    601     1  0.0000000  0.6508444  3
    588    587    590    599     1  0.0000000  0.6508444  3
    588    587    590    591     1  0.0000000  0.6508444  3
    588    587    590    592     1  0.0000000  0.6508444  3
    589    587    590    599     1  0.0000000  0.6508444  3
    589    587    590    591     1  0.0000000  0.6508444  3
    589    587    590    592     1  0.0000000  0.6508444  3
    591    590    599    608     1  0.0000000  1.0460000  1
    591    590    599    608     1  0.0000000  0.0000000  3
    591    590    599    600     1  0.0000000  0.6508444  3
    591    590    599    601     1  0.0000000  0.6508444  3
    592    590    599    608     1  0.0000000  1.0460000  1
    592    590    599    608     1  0.0000000  0.0000000  3
    592    590    599    600     1  0.0000000  0.6508444  3
    592    590    599    601     1  0.0000000  0.6508444  3
    594    593    605   1275     1  0.0000000  1.0460000  1
    594    593    605   1275     1  0.0000000  0.0000000  3
    594    593    605    606     1  0.0000000  0.6508444  3
    594    593    605    607     1  0.0000000  0.6508444  3
    595    593    605   1275     1  0.0000000  1.0460000  1
    595    593    605   1275     1  0.0000000  0.0000000  3
    595    593    605    606     1  0.0000000  0.6508444  3
    595    593    605    607     1  0.0000000  0.6508444  3
    597    596    602   1246     1  0.0000000  1.0460000  1
    597    596    602   1246     1  0.0000000  0.0000000  3
    597    596    602    603     1  0.0000000  0.6508444  3
    597    596    602    604     1  0.0000000  0.6508444  3
    598    596    602   1246     1  0.0000000  1.0460000  1
    598    596    602   1246     1  0.0000000  0.0000000  3
    598    596    602    603     1  0.0000000  0.6508444  3
    598    596    602    604     1  0.0000000  0.6508444  3
    602   1246   1237   1238     1  0.0000000  1.6038667  3
    602   1246   1237   1239     1  0.0000000  1.6038667  3
    603    602   1246   1237     1  0.0000000  1.6038667  3
    604    602   1246   1237     1  0.0000000  1.6038667  3
    605   1275   1266   1267     1  0.0000000  1.6038667  3
    605   1275   1266   1268     1  0.0000000  1.6038667  3
    606    605   1275   1266     1  0.0000000  1.6038667  3
    607    605   1275   1266     1  0.0000000  1.6038667  3
    609    610    622    623     1  0.0000000  0.6508444  3
    609    610    622    624     1  0.0000000  0.6508444  3
    609    613    625    626     1  0.0000000  0.6508444  3
    609    613    625    627     1  0.0000000  0.6508444  3
    609    616    619    620     1  0.0000000  0.6508444  3
    609    616    619    621     1  0.0000000  0.6508444  3
    610    609    613    614     1  0.0000000  1.2552000  3
    610    609    613    615     1  0.0000000  1.2552000  3
    610    609    616    617     1  0.0000000  1.2552000  3
    610    609    616    618     1  0.0000000  1.2552000  3
    610    622    634    635     1  0.0000000  0.6508444  3
    610    622    634    636     1  0.0000000  0.6508444  3
    611    610    609    613     1  0.0000000  1.2552000  3
    611    610    609    616     1  0.0000000  1.2552000  3
    611    610    622    634     1  0.0000000  0.6508444  3
    611    610    622    623     1  0.0000000  0.6508444  3
    611    610    622    624     1  0.0000000  0.6508444  3
    612    610    609    613     1  0.0000000  1.2552000  3
    612    610    609    616     1  0.0000000  1.2552000  3
    612    610    622    634     1  0.0000000  0.6508444  3
    612    610    622    623     1  0.0000000  0.6508444  3
    612    610    622    624     1  0.0000000  0.6508444  3
    613    609    616    617     1  0.0000000  1.2552000  3
    613    609    616    618     1  0.0000000  1.2552000  3
    613    625    631    632     1  0.0000000  0.6508444  3
    613    625    631    633     1  0.0000000  0.6508444  3
    614    613    609    616     1  0.0000000  1.2552000  3
    614    613    625    631     1  0.0000000  0.6508444  3
    614    613    625    626     1  0.0000000  0.6508444  3
    614    613    625    627     1  0.0000000  0.6508444  3
    615    613    609    616     1  0.0000000  1.2552000  3
    615    613    625    631     1  0.0000000  0.6508444  3
    615    613    625    626     1  0.0000000  0.6508444  3
    615    613    625    627     1  0.0000000  0.6508444  3
    616    619    628    629     1  0.0000000  0.6508444  3
    616    619    628    630     1  0.0000000  0.6508444  3
    617    616    619    628     1  0.0000000  0.6508444  3
    617    616    619    620     1  0.0000000  0.6508444  3
    617    616    619    621     1  0.0000000  0.6508444  3
    618    616    619    628     1  0.0000000  0.6508444  3
    618    616    619    620     1  0.0000000  0.6508444  3
    618    616    619    621     1  0.0000000  0.6508444  3
    620    619    628    637     1  0.0000000  1.0460000  1
    620    619    628    637     1  0.0000000  0.0000000  3
    620    619    628    629     1  0.0000000  0.6508444  3
    620    619    628    630     1  0.0000000  0.6508444  3
    621    619    628    637     1  0.0000000  1.0460000  1
    621    619    628    637     1  0.0000000  0.0000000  3
    621    619    628    629     1  0.0000000  0.6508444  3
    621    619    628    630     1  0.0000000  0.6508444  3
    623    622    634   1333     1  0.0000000  1.0460000  1
    623    622    634   1333     1  0.0000000  0.0000000  3
    623    622    634    635     1  0.0000000  0.6508444  3
    623    622    634    636     1  0.0000000  0.6508444  3
    624    622    634   1333     1  0.0000000  1.0460000  1
    624    622    634   1333     1  0.0000000  0.0000000  3
    624    622    634    635     1  0.0000000  0.6508444  3
    624    622    634    636     1  0.0000000  0.6508444  3
    626    625    631   1304     1  0.0000000  1.0460000  1
    626    625    631   1304     1  0.0000000  0.0000000  3
    626    625    631    632     1  0.0000000  0.6508444  3
    626    625    631    633     1  0.0000000  0.6508444  3
    627    625    631   1304     1  0.0000000  1.0460000  1
    627    625    631   1304     1  0.0000000  0.0000000  3
    627    625    631    632     1  0.0000000  0.6508444  3
    627    625    631    633     1  0.0000000  0.6508444  3
    631   1304   1295   1296     1  0.0000000  1.6038667  3
    631   1304   1295   1297     1  0.0000000  1.6038667  3
    632    631   1304   1295     1  0.0000000  1.6038667  3
    633    631   1304   1295     1  0.0000000  1.6038667  3
    634   1333   1324   1325     1  0.0000000  1.6038667  3
    634   1333   1324   1326     1  0.0000000  1.6038667  3
    635    634   1333   1324     1  0.0000000  1.6038667  3
    636    634   1333   1324     1  0.0000000  1.6038667  3
    638    639    651    652     1  0.0000000  0.6508444  3
    638    639    651    653     1  0.0000000  0.6508444  3
    638    642    654    655     1  0.0000000  0.6508444  3
    638    642    654    656     1  0.0000000  0.6508444  3
    638    645    648    649     1  0.0000000  0.6508444  3
    638    645    648    650     1  0.0000000  0.6508444  3
    639    638    642    643     1  0.0000000  1.2552000  3
    639    638    642    644     1  0.0000000  1.2552000  3
    639    638    645    646     1  0.0000000  1.2552000  3
    639    638    645    647     1  0.0000000  1.2552000  3
    639    651    663    664     1  0.0000000  0.6508444  3
    639    651    663    665     1  0.0000000  0.6508444  3
    640    639    638    642     1  0.0000000  1.2552000  3
    640    639    638    645     1  0.0000000  1.2552000  3
    640    639    651    663     1  0.0000000  0.6508444  3
    640    639    651    652     1  0.0000000  0.6508444  3
    640    639    651    653     1  0.0000000  0.6508444  3
    641    639    638    642     1  0.0000000  1.2552000  3
    641    639    638    645     1  0.0000000  1.2552000  3
    641    639    651    663     1  0.0000000  0.6508444  3
    641    639    651    652     1  0.0000000  0.6508444  3
    641    639    651    653     1  0.0000000  0.6508444  3
    642    638    645    646     1  0.0000000  1.2552000  3
    642    638    645    647     1  0.0000000  1.2552000  3
    642    654    660    661     1  0.0000000  0.6508444  3
    642    654    660    662     1  0.0000000  0.6508444  3
    643    642    638    645     1  0.0000000  1.2552000  3
    643    642    654    660     1  0.0000000  0.6508444  3
    643    642    654    655     1  0.0000000  0.6508444  3
    643    642    654    656     1  0.0000000  0.6508444  3
    644    642    638    645     1  0.0000000  1.2552000  3
    644    642    654    660     1  0.0000000  0.6508444  3
    644    642    654    655     1  0.0000000  0.6508444  3
    644    642    654    656     1  0.0000000  0.6508444  3
    645    648    657    658     1  0.0000000  0.6508444  3
    645    648    657    659     1  0.0000000  0.6508444  3
    646    645    648    657     1  0.0000000  0.6508444  3
    646    645    648    649     1  0.0000000  0.6508444  3
    646    645    648    650     1  0.0000000  0.6508444  3
    647    645    648    657     1  0.0000000  0.6508444  3
    647    645    648    649     1  0.0000000  0.6508444  3
    647    645    648    650     1  0.0000000  0.6508444  3
    649    648    657    666     1  0.0000000  1.0460000  1
    649    648    657    666     1  0.0000000  0.0000000  3
    649    648    657    658     1  0.0000000  0.6508444  3
    649    648    657    659     1  0.0000000  0.6508444  3
    650    648    657    666     1  0.0000000  1.0460000  1
    650    648    657    666     1  0.0000000  0.0000000  3
    650    648    657    658     1  0.0000000  0.6508444  3
    650    648    657    659     1  0.0000000  0.6508444  3
    652    651    663   1391     1  0.0000000  1.0460000  1
    652    651    663   1391     1  0.0000000  0.0000000  3
    652    651    663    664     1  0.0000000  0.6508444  3
    652    651    663    665     1  0.0000000  0.6508444  3
    653    651    663   1391     1  0.0000000  1.0460000  1
    653    651    663   1391     1  0.0000000  0.0000000  3
    653    651    663    664     1  0.0000000  0.6508444  3
    653    651    663    665     1  0.0000000  0.6508444  3
    655    654    660   1362     1  0.0000000  1.0460000  1
    655    654    660   1362     1  0.0000000  0.0000000  3
    655    654    660    661     1  0.0000000  0.6508444  3
    655    654    660    662     1  0.0000000  0.6508444  3
    656    654    660   1362     1  0.0000000  1.0460000  1
    656    654    660   1362     1  0.0000000  0.0000000  3
    656    654    660    661     1  0.0000000  0.6508444  3
    656    654    660    662     1  0.0000000  0.6508444  3
    660   1362   1353   1354     1  0.0000000  1.6038667  3
    660   1362   1353   1355     1  0.0000000  1.6038667  3
    661    660   1362   1353     1  0.0000000  1.6038667  3
    662    660   1362   1353     1  0.0000000  1.6038667  3
    663   1391   1382   1383     1  0.0000000  1.6038667  3
    663   1391   1382   1384     1  0.0000000  1.6038667  3
    664    663   1391   1382     1  0.0000000  1.6038667  3
    665    663   1391   1382     1  0.0000000  1.6038667  3
    667    668    680    681     1  0.0000000  0.6508444  3
    667    668    680    682     1  0.0000000  0.6508444  3
    667    671    683    684     1  0.0000000  0.6508444  3
    667    671    683    685     1  0.0000000  0.6508444  3
    667    674    677    678     1  0.0000000  0.6508444  3
    667    674    677    679     1  0.0000000  0.6508444  3
    668    667    671    672     1  0.0000000  1.2552000  3
    668    667    671    673     1  0.0000000  1.2552000  3
    668    667    674    675     1  0.0000000  1.2552000  3
    668    667    674    676     1  0.0000000  1.2552000  3
    668    680    692    693     1  0.0000000  0.6508444  3
    668    680    692    694     1  0.0000000  0.6508444  3
    669    668    667    671     1  0.0000000  1.2552000  3
    669    668    667    674     1  0.0000000  1.2552000  3
    669    668    680    692     1  0.0000000  0.6508444  3
    669    668    680    681     1  0.0000000  0.6508444  3
    669    668    680    682     1  0.0000000  0.6508444  3
    670    668    667    671     1  0.0000000  1.2552000  3
    670    668    667    674     1  0.0000000  1.2552000  3
    670    668    680    692     1  0.0000000  0.6508444  3
    670    668    680    681     1  0.0000000  0.6508444  3
    670    668    680    682     1  0.0000000  0.6508444  3
    671    667    674    675     1  0.0000000  1.2552000  3
    671    667    674    676     1  0.0000000  1.2552000  3
    671    683    689    690     1  0.0000000  0.6508444  3
    671    683    689    691     1  0.0000000  0.6508444  3
    672    671    667    674     1  0.0000000  1.2552000  3
    672    671    683    689     1  0.0000000  0.6508444  3
    672    671    683    684     1  0.0000000  0.6508444  3
    672    671    683    685     1  0.0000000  0.6508444  3
    673    671    667    674     1  0.0000000  1.2552000  3
    673    671    683    689     1  0.0000000  0.6508444  3
    673    671    683    684     1  0.0000000  0.6508444  3
    673    671    683    685     1  0.0000000  0.6508444  3
    674    677    686    687     1  0.0000000  0.6508444  3
    674    677    686    688     1  0.0000000  0.6508444  3
    675    674    677    686     1  0.0000000  0.6508444  3
    675    674    677    678     1  0.0000000  0.6508444  3
    675    674    677    679     1  0.0000000  0.6508444  3
    676    674    677    686     1  0.0000000  0.6508444  3
    676    674    677    678     1  0.0000000  0.6508444  3
    676    674    677    679     1  0.0000000  0.6508444  3
    678    677    686    695     1  0.0000000  1.0460000  1
    678    677    686    695     1  0.0000000  0.0000000  3
    678    677    686    687     1  0.0000000  0.6508444  3
    678    677    686    688     1  0.0000000  0.6508444  3
    679    677    686    695     1  0.0000000  1.0460000  1
    679    677    686    695     1  0.0000000  0.0000000  3
    679    677    686    687     1  0.0000000  0.6508444  3
    679    677    686    688     1  0.0000000  0.6508444  3
    681    680    692   1449     1  0.0000000  1.0460000  1
    681    680    692   1449     1  0.0000000  0.0000000  3
    681    680    692    693     1  0.0000000  0.6508444  3
    681    680    692    694     1  0.0000000  0.6508444  3
    682    680    692   1449     1  0.0000000  1.0460000  1
    682    680    692   1449     1  0.0000000  0.0000000  3
    682    680    692    693     1  0.0000000  0.6508444  3
    682    680    692    694     1  0.0000000  0.6508444  3
    684    683    689   1420     1  0.0000000  1.0460000  1
    684    683    689   1420     1  0.0000000  0.0000000  3
    684    683    689    690     1  0.0000000  0.6508444  3
    684    683    689    691     1  0.0000000  0.6508444  3
    685    683    689   1420     1  0.0000000  1.0460000  1
    685    683    689   1420     1  0.0000000  0.0000000  3
    685    683    689    690     1  0.0000000  0.6508444  3
    685    683    689    691     1  0.0000000  0.6508444  3
    689   1420   1411   1412     1  0.0000000  1.6038667  3
    689   1420   1411   1413     1  0.0000000  1.6038667  3
    690    689   1420   1411     1  0.0000000  1.6038667  3
    691    689   1420   1411     1  0.0000000  1.6038667  3
    692   1449   1440   1441     1  0.0000000  1.6038667  3
    692   1449   1440   1442     1  0.0000000  1.6038667  3
    693    692   1449   1440     1  0.0000000  1.6038667  3
    694    692   1449   1440     1  0.0000000  1.6038667  3
    696    697    709    710     1  0.0000000  0.6508444  3
    696    697    709    711     1  0.0000000  0.6508444  3
    696    700    712    713     1  0.0000000  0.6508444  3
    696    700    712    714     1  0.0000000  0.6508444  3
    696    703    706    707     1  0.0000000  0.6508444  3
    696    703    706    708     1  0.0000000  0.6508444  3
    697    696    700    701     1  0.0000000  1.2552000  3
    697    696    700    702     1  0.0000000  1.2552000  3
    697    696    703    704     1  0.0000000  1.2552000  3
    697    696    703    705     1  0.0000000  1.2552000  3
    697    709    721    722     1  0.0000000  0.6508444  3
    697    709    721    723     1  0.0000000  0.6508444  3
    698    697    696    700     1  0.0000000  1.2552000  3
    698    697    696    703     1  0.0000000  1.2552000  3
    698    697    709    721     1  0.0000000  0.6508444  3
    698    697    709    710     1  0.0000000  0.6508444  3
    698    697    709    711     1  0.0000000  0.6508444  3
    699    697    696    700     1  0.0000000  1.2552000  3
    699    697    696    703     1  0.0000000  1.2552000  3
    699    697    709    721     1  0.0000000  0.6508444  3
    699    697    709    710     1  0.0000000  0.6508444  3
    699    697    709    711     1  0.0000000  0.6508444  3
    700    696    703    704     1  0.0000000  1.2552000  3
    700    696    703    705     1  0.0000000  1.2552000  3
    700    712    718    719     1  0.0000000  0.6508444  3
    700    712    718    720     1  0.0000000  0.6508444  3
    701    700    696    703     1  0.0000000  1.2552000  3
    701    700    712    718     1  0.0000000  0.6508444  3
    701    700    712    713     1  0.0000000  0.6508444  3
    701    700    712    714     1  0.0000000  0.6508444  3
    702    700    696    703     1  0.0000000  1.2552000  3
    702    700    712    718     1  0.0000000  0.6508444  3
    702    700    712    713     1  0.0000000  0.6508444  3
    702    700    712    714     1  0.0000000  0.6508444  3
    703    706    715    716     1  0.0000000  0.6508444  3
    703    706    715    717     1  0.0000000  0.6508444  3
    704    703    706    715     1  0.0000000  0.6508444  3
    704    703    706    707     1  0.0000000  0.6508444  3
    704    703    706    708     1  0.0000000  0.6508444  3
    705    703    706    715     1  0.0000000  0.6508444  3
    705    703    706    707     1  0.0000000  0.6508444  3
    705    703    706    708     1  0.0000000  0.6508444  3
    707    706    715    724     1  0.0000000  1.0460000  1
    707    706    715    724     1  0.0000000  0.0000000  3
    707    706    715    716     1  0.0000000  0.6508444  3
    707    706    715    717     1  0.0000000  0.6508444  3
    708    706    715    724     1  0.0000000  1.0460000  1
    708    706    715    724     1  0.0000000  0.0000000  3
    708    706    715    716     1  0.0000000  0.6508444  3
    708    706    715    717     1  0.0000000  0.6508444  3
    710    709    721   1507     1  0.0000000  1.0460000  1
    710    709    721   1507     1  0.0000000  0.0000000  3
    710    709    721    722     1  0.0000000  0.6508444  3
    710    709    721    723     1  0.0000000  0.6508444  3
    711    709    721   1507     1  0.0000000  1.0460000  1
    711    709    721   1507     1  0.0000000  0.0000000  3
    711    709    721    722     1  0.0000000  0.6508444  3
    711    709    721    723     1  0.0000000  0.6508444  3
    713    712    718   1478     1  0.0000000  1.0460000  1
    713    712    718   1478     1  0.0000000  0.0000000  3
    713    712    718    719     1  0.0000000  0.6508444  3
    713    712    718    720     1  0.0000000  0.6508444  3
    714    712    718   1478     1  0.0000000  1.0460000  1
    714    712    718   1478     1  0.0000000  0.0000000  3
    714    712    718    719     1  0.0000000  0.6508444  3
    714    712    718    720     1  0.0000000  0.6508444  3
    718   1478   1469   1470     1  0.0000000  1.6038667  3
    718   1478   1469   1471     1  0.0000000  1.6038667  3
    719    718   1478   1469     1  0.0000000  1.6038667  3
    720    718   1478   1469     1  0.0000000  1.6038667  3
    721   1507   1498   1499     1  0.0000000  1.6038667  3
    721   1507   1498   1500     1  0.0000000  1.6038667  3
    722    721   1507   1498     1  0.0000000  1.6038667  3
    723    721   1507   1498     1  0.0000000  1.6038667  3
    725    726    738    739     1  0.0000000  0.6508444  3
    725    726    738    740     1  0.0000000  0.6508444  3
    725    729    741    742     1  0.0000000  0.6508444  3
    725    729    741    743     1  0.0000000  0.6508444  3
    725    732    735    736     1  0.0000000  0.6508444  3
    725    732    735    737     1  0.0000000  0.6508444  3
    726    725    729    730     1  0.0000000  1.2552000  3
    726    725    729    731     1  0.0000000  1.2552000  3
    726    725    732    733     1  0.0000000  1.2552000  3
    726    725    732    734     1  0.0000000  1.2552000  3
    726    738    750    751     1  0.0000000  0.6508444  3
    726    738    750    752     1  0.0000000  0.6508444  3
    727    726    725    729     1  0.0000000  1.2552000  3
    727    726    725    732     1  0.0000000  1.2552000  3
    727    726    738    750     1  0.0000000  0.6508444  3
    727    726    738    739     1  0.0000000  0.6508444  3
    727    726    738    740     1  0.0000000  0.6508444  3
    728    726    725    729     1  0.0000000  1.2552000  3
    728    726    725    732     1  0.0000000  1.2552000  3
    728    726    738    750     1  0.0000000  0.6508444  3
    728    726    738    739     1  0.0000000  0.6508444  3
    728    726    738    740     1  0.0000000  0.6508444  3
    729    725    732    733     1  0.0000000  1.2552000  3
    729    725    732    734     1  0.0000000  1.2552000  3
    729    741    747    748     1  0.0000000  0.6508444  3
    729    741    747    749     1  0.0000000  0.6508444  3
    730    729    725    732     1  0.0000000  1.2552000  3
    730    729    741    747     1  0.0000000  0.6508444  3
    730    729    741    742     1  0.0000000  0.6508444  3
    730    729    741    743     1  0.0000000  0.6508444  3
    731    729    725    732     1  0.0000000  1.2552000  3
    731    729    741    747     1  0.0000000  0.6508444  3
    731    729    741    742     1  0.0000000  0.6508444  3
    731    729    741    743     1  0.0000000  0.6508444  3
    732    735    744    745     1  0.0000000  0.6508444  3
    732    735    744    746     1  0.0000000  0.6508444  3
    733    732    735    744     1  0.0000000  0.6508444  3
    733    732    735    736     1  0.0000000  0.6508444  3
    733    732    735    737     1  0.0000000  0.6508444  3
    734    732    735    744     1  0.0000000  0.6508444  3
    734    732    735    736     1  0.0000000  0.6508444  3
    734    732    735    737     1  0.0000000  0.6508444  3
    736    735    744    753     1  0.0000000  1.0460000  1
    736    735    744    753     1  0.0000000  0.0000000  3
    736    735    744    745     1  0.0000000  0.6508444  3
    736    735    744    746     1  0.0000000  0.6508444  3
    737    735    744    753     1  0.0000000  1.0460000  1
    737    735    744    753     1  0.0000000  0.0000000  3
    737    735    744    745     1  0.0000000  0.6508444  3
    737    735    744    746     1  0.0000000  0.6508444  3
    739    738    750   1565     1  0.0000000  1.0460000  1
    739    738    750   1565     1  0.0000000  0.0000000  3
    739    738    750    751     1  0.0000000  0.6508444  3
    739    738    750    752     1  0.0000000  0.6508444  3
    740    738    750   1565     1  0.0000000  1.0460000  1
    740    738    750   1565     1  0.0000000  0.0000000  3
    740    738    750    751     1  0.0000000  0.6508444  3
    740    738    750    752     1  0.0000000  0.6508444  3
    742    741    747   1536     1  0.0000000  1.0460000  1
    742    741    747   1536     1  0.0000000  0.0000000  3
    742    741    747    748     1  0.0000000  0.6508444  3
    742    741    747    749     1  0.0000000  0.6508444  3
    743    741    747   1536     1  0.0000000  1.0460000  1
    743    741    747   1536     1  0.0000000  0.0000000  3
    743    741    747    748     1  0.0000000  0.6508444  3
    743    741    747    749     1  0.0000000  0.6508444  3
    747   1536   1527   1528     1  0.0000000  1.6038667  3
    747   1536   1527   1529     1  0.0000000  1.6038667  3
    748    747   1536   1527     1  0.0000000  1.6038667  3
    749    747   1536   1527     1  0.0000000  1.6038667  3
    750   1565   1556   1557     1  0.0000000  1.6038667  3
    750   1565   1556   1558     1  0.0000000  1.6038667  3
    751    750   1565   1556     1  0.0000000  1.6038667  3
    752    750   1565   1556     1  0.0000000  1.6038667  3
    754    755    767    768     1  0.0000000  0.6508444  3
    754    755    767    769     1  0.0000000  0.6508444  3
    754    758    770    771     1  0.0000000  0.6508444  3
    754    758    770    772     1  0.0000000  0.6508444  3
    754    761    764    765     1  0.0000000  0.6508444  3
    754    761    764    766     1  0.0000000  0.6508444  3
    755    754    758    759     1  0.0000000  1.2552000  3
    755    754    758    760     1  0.0000000  1.2552000  3
    755    754    761    762     1  0.0000000  1.2552000  3
    755    754    761    763     1  0.0000000  1.2552000  3
    755    767    779    780     1  0.0000000  0.6508444  3
    755    767    779    781     1  0.0000000  0.6508444  3
    756    755    754    758     1  0.0000000  1.2552000  3
    756    755    754    761     1  0.0000000  1.2552000  3
    756    755    767    779     1  0.0000000  0.6508444  3
    756    755    767    768     1  0.0000000  0.6508444  3
    756    755    767    769     1  0.0000000  0.6508444  3
    757    755    754    758     1  0.0000000  1.2552000  3
    757    755    754    761     1  0.0000000  1.2552000  3
    757    755    767    779     1  0.0000000  0.6508444  3
    757    755    767    768     1  0.0000000  0.6508444  3
    757    755    767    769     1  0.0000000  0.6508444  3
    758    754    761    762     1  0.0000000  1.2552000  3
    758    754    761    763     1  0.0000000  1.2552000  3
    758    770    776    777     1  0.0000000  0.6508444  3
    758    770    776    778     1  0.0000000  0.6508444  3
    759    758    754    761     1  0.0000000  1.2552000  3
    759    758    770    776     1  0.0000000  0.6508444  3
    759    758    770    771     1  0.0000000  0.6508444  3
    759    758    770    772     1  0.0000000  0.6508444  3
    760    758    754    761     1  0.0000000  1.2552000  3
    760    758    770    776     1  0.0000000  0.6508444  3
    760    758    770    771     1  0.0000000  0.6508444  3
    760    758    770    772     1  0.0000000  0.6508444  3
    761    764    773    774     1  0.0000000  0.6508444  3
    761    764    773    775     1  0.0000000  0.6508444  3
    762    761    764    773     1  0.0000000  0.6508444  3
    762    761    764    765     1  0.0000000  0.6508444  3
    762    761    764    766     1  0.0000000  0.6508444  3
    763    761    764    773     1  0.0000000  0.6508444  3
    763    761    764    765     1  0.0000000  0.6508444  3
    763    761    764    766     1  0.0000000  0.6508444  3
    765    764    773    782     1  0.0000000  1.0460000  1
    765    764    773    782     1  0.0000000  0.0000000  3
    765    764    773    774     1  0.0000000  0.6508444  3
    765    764    773    775     1  0.0000000  0.6508444  3
    766    764    773    782     1  0.0000000  1.0460000  1
    766    764    773    782     1  0.0000000  0.0000000  3
    766    764    773    774     1  0.0000000  0.6508444  3
    766    764    773    775     1  0.0000000  0.6508444  3
    768    767    779   1623     1  0.0000000  1.0460000  1
    768    767    779   1623     1  0.0000000  0.0000000  3
    768    767    779    780     1  0.0000000  0.6508444  3
    768    767    779    781     1  0.0000000  0.6508444  3
    769    767    779   1623     1  0.0000000  1.0460000  1
    769    767    779   1623     1  0.0000000  0.0000000  3
    769    767    779    780     1  0.0000000  0.6508444  3
    769    767    779    781     1  0.0000000  0.6508444  3
    771    770    776   1594     1  0.0000000  1.0460000  1
    771    770    776   1594     1  0.0000000  0.0000000  3
    771    770    776    777     1  0.0000000  0.6508444  3
    771    770    776    778     1  0.0000000  0.6508444  3
    772    770    776   1594     1  0.0000000  1.0460000  1
    772    770    776   1594     1  0.0000000  0.0000000  3
    772    770    776    777     1  0.0000000  0.6508444  3
    772    770    776    778     1  0.0000000  0.6508444  3
    776   1594   1585   1586     1  0.0000000  1.6038667  3
    776   1594   1585   1587     1  0.0000000  1.6038667  3
    777    776   1594   1585     1  0.0000000  1.6038667  3
    778    776   1594   1585     1  0.0000000  1.6038667  3
    779   1623   1614   1615     1  0.0000000  1.6038667  3
    779   1623   1614   1616     1  0.0000000  1.6038667  3
    780    779   1623   1614     1  0.0000000  1.6038667  3
    781    779   1623   1614     1  0.0000000  1.6038667  3
    783    784    796    797     1  0.0000000  0.6508444  3
    783    784    796    798     1  0.0000000  0.6508444  3
    783    787    799    800     1  0.0000000  0.6508444  3
    783    787    799    801     1  0.0000000  0.6508444  3
    783    790    793    794     1  0.0000000  0.6508444  3
    783    790    793    795     1  0.0000000  0.6508444  3
    784    783    787    788     1  0.0000000  1.2552000  3
    784    783    787    789     1  0.0000000  1.2552000  3
    784    783    790    791     1  0.0000000  1.2552000  3
    784    783    790    792     1  0.0000000  1.2552000  3
    784    796    808    809     1  0.0000000  0.6508444  3
    784    796    808    810     1  0.0000000  0.6508444  3
    785    784    783    787     1  0.0000000  1.2552000  3
    785    784    783    790     1  0.0000000  1.2552000  3
    785    784    796    808     1  0.0000000  0.6508444  3
    785    784    796    797     1  0.0000000  0.6508444  3
    785    784    796    798     1  0.0000000  0.6508444  3
    786    784    783    787     1  0.0000000  1.2552000  3
    786    784    783    790     1  0.0000000  1.2552000  3
    786    784    796    808     1  0.0000000  0.6508444  3
    786    784    796    797     1  0.0000000  0.6508444  3
    786    784    796    798     1  0.0000000  0.6508444  3
    787    783    790    791     1  0.0000000  1.2552000  3
    787    783    790    792     1  0.0000000  1.2552000  3
    787    799    805    806     1  0.0000000  0.6508444  3
    787    799    805    807     1  0.0000000  0.6508444  3
    788    787    783    790     1  0.0000000  1.2552000  3
    788    787    799    805     1  0.0000000  0.6508444  3
    788    787    799    800     1  0.0000000  0.6508444  3
    788    787    799    801     1  0.0000000  0.6508444  3
    789    787    783    790     1  0.0000000  1.2552000  3
    789    787    799    805     1  0.0000000  0.6508444  3
    789    787    799    800     1  0.0000000  0.6508444  3
    789    787    799    801     1  0.0000000  0.6508444  3
    790    793    802    803     1  0.0000000  0.6508444  3
    790    793    802    804     1  0.0000000  0.6508444  3
    791    790    793    802     1  0.0000000  0.6508444  3
    791    790    793    794     1  0.0000000  0.6508444  3
    791    790    793    795     1  0.0000000  0.6508444  3
    792    790    793    802     1  0.0000000  0.6508444  3
    792    790    793    794     1  0.0000000  0.6508444  3
    792    790    793    795     1  0.0000000  0.6508444  3
    794    793    802    811     1  0.0000000  1.0460000  1
    794    793    802    811     1  0.0000000  0.0000000  3
    794    793    802    803     1  0.0000000  0.6508444  3
    794    793    802    804     1  0.0000000  0.6508444  3
    795    793    802    811     1  0.0000000  1.0460000  1
    795    793    802    811     1  0.0000000  0.0000000  3
    795    793    802    803     1  0.0000000  0.6508444  3
    795    793    802    804     1  0.0000000  0.6508444  3
    797    796    808   1681     1  0.0000000  1.0460000  1
    797    796    808   1681     1  0.0000000  0.0000000  3
    797    796    808    809     1  0.0000000  0.6508444  3
    797    796    808    810     1  0.0000000  0.6508444  3
    798    796    808   1681     1  0.0000000  1.0460000  1
    798    796    808   1681     1  0.0000000  0.0000000  3
    798    796    808    809     1  0.0000000  0.6508444  3
    798    796    808    810     1  0.0000000  0.6508444  3
    800    799    805   1652     1  0.0000000  1.0460000  1
    800    799    805   1652     1  0.0000000  0.0000000  3
    800    799    805    806     1  0.0000000  0.6508444  3
    800    799    805    807     1  0.0000000  0.6508444  3
    801    799    805   1652     1  0.0000000  1.0460000  1
    801    799    805   1652     1  0.0000000  0.0000000  3
    801    799    805    806     1  0.0000000  0.6508444  3
    801    799    805    807     1  0.0000000  0.6508444  3
    805   1652   1643   1644     1  0.0000000  1.6038667  3
    805   1652   1643   1645     1  0.0000000  1.6038667  3
    806    805   1652   1643     1  0.0000000  1.6038667  3
    807    805   1652   1643     1  0.0000000  1.6038667  3
    808   1681   1672   1673     1  0.0000000  1.6038667  3
    808   1681   1672   1674     1  0.0000000  1.6038667  3
    809    808   1681   1672     1  0.0000000  1.6038667  3
    810    808   1681   1672     1  0.0000000  1.6038667  3
    812    813    825    826     1  0.0000000  0.6508444  3
    812    813    825    827     1  0.0000000  0.6508444  3
    812    816    828    829     1  0.0000000  0.6508444  3
    812    816    828    830     1  0.0000000  0.6508444  3
    812    819    822    823     1  0.0000000  0.6508444  3
    812    819    822    824     1  0.0000000  0.6508444  3
    813    812    816    817     1  0.0000000  1.2552000  3
    813    812    816    818     1  0.0000000  1.2552000  3
    813    812    819    820     1  0.0000000  1.2552000  3
    813    812    819    821     1  0.0000000  1.2552000  3
    813    825    837    838     1  0.0000000  0.6508444  3
    813    825    837    839     1  0.0000000  0.6508444  3
    814    813    812    816     1  0.0000000  1.2552000  3
    814    813    812    819     1  0.0000000  1.2552000  3
    814    813    825    837     1  0.0000000  0.6508444  3
    814    813    825    826     1  0.0000000  0.6508444  3
    814    813    825    827     1  0.0000000  0.6508444  3
    815    813    812    816     1  0.0000000  1.2552000  3
    815    813    812    819     1  0.0000000  1.2552000  3
    815    813    825    837     1  0.0000000  0.6508444  3
    815    813    825    826     1  0.0000000  0.6508444  3
    815    813    825    827     1  0.0000000  0.6508444  3
    816    812    819    820     1  0.0000000  1.2552000  3
    816    812    819    821     1  0.0000000  1.2552000  3
    816    828    834    835     1  0.0000000  0.6508444  3
    816    828    834    836     1  0.0000000  0.6508444  3
    817    816    812    819     1  0.0000000  1.2552000  3
    817    816    828    834     1  0.0000000  0.6508444  3
    817    816    828    829     1  0.0000000  0.6508444  3
    817    816    828    830     1  0.0000000  0.6508444  3
    818    816    812    819     1  0.0000000  1.2552000  3
    818    816    828    834     1  0.0000000  0.6508444  3
    818    816    828    829     1  0.0000000  0.6508444  3
    818    816    828    830     1  0.0000000  0.6508444  3
    819    822    831    832     1  0.0000000  0.6508444  3
    819    822    831    833     1  0.0000000  0.6508444  3
    820    819    822    831     1  0.0000000  0.6508444  3
    820    819    822    823     1  0.0000000  0.6508444  3
    820    819    822    824     1  0.0000000  0.6508444  3
    821    819    822    831     1  0.0000000  0.6508444  3
    821    819    822    823     1  0.0000000  0.6508444  3
    821    819    822    824     1  0.0000000  0.6508444  3
    823    822    831    840     1  0.0000000  1.0460000  1
    823    822    831    840     1  0.0000000  0.0000000  3
    823    822    831    832     1  0.0000000  0.6508444  3
    823    822    831    833     1  0.0000000  0.6508444  3
    824    822    831    840     1  0.0000000  1.0460000  1
    824    822    831    840     1  0.0000000  0.0000000  3
    824    822    831    832     1  0.0000000  0.6508444  3
    824    822    831    833     1  0.0000000  0.6508444  3
    826    825    837   1739     1  0.0000000  1.0460000  1
    826    825    837   1739     1  0.0000000  0.0000000  3
    826    825    837    838     1  0.0000000  0.6508444  3
    826    825    837    839     1  0.0000000  0.6508444  3
    827    825    837   1739     1  0.0000000  1.0460000  1
    827    825    837   1739     1  0.0000000  0.0000000  3
    827    825    837    838     1  0.0000000  0.6508444  3
    827    825    837    839     1  0.0000000  0.6508444  3
    829    828    834   1710     1  0.0000000  1.0460000  1
    829    828    834   1710     1  0.0000000  0.0000000  3
    829    828    834    835     1  0.0000000  0.6508444  3
    829    828    834    836     1  0.0000000  0.6508444  3
    830    828    834   1710     1  0.0000000  1.0460000  1
    830    828    834   1710     1  0.0000000  0.0000000  3
    830    828    834    835     1  0.0000000  0.6508444  3
    830    828    834    836     1  0.0000000  0.6508444  3
    834   1710   1701   1702     1  0.0000000  1.6038667  3
    834   1710   1701   1703     1  0.0000000  1.6038667  3
    835    834   1710   1701     1  0.0000000  1.6038667  3
    836    834   1710   1701     1  0.0000000  1.6038667  3
    837   1739   1730   1731     1  0.0000000  1.6038667  3
    837   1739   1730   1732     1  0.0000000  1.6038667  3
    838    837   1739   1730     1  0.0000000  1.6038667  3
    839    837   1739   1730     1  0.0000000  1.6038667  3
    841    842    854    855     1  0.0000000  0.6508444  3
    841    842    854    856     1  0.0000000  0.6508444  3
    841    845    857    858     1  0.0000000  0.6508444  3
    841    845    857    859     1  0.0000000  0.6508444  3
    841    848    851    852     1  0.0000000  0.6508444  3
    841    848    851    853     1  0.0000000  0.6508444  3
    842    841    845    846     1  0.0000000  1.2552000  3
    842    841    845    847     1  0.0000000  1.2552000  3
    842    841    848    849     1  0.0000000  1.2552000  3
    842    841    848    850     1  0.0000000  1.2552000  3
    842    854    866    867     1  0.0000000  0.6508444  3
    842    854    866    868     1  0.0000000  0.6508444  3
    843    842    841    845     1  0.0000000  1.2552000  3
    843    842    841    848     1  0.0000000  1.2552000  3
    843    842    854    866     1  0.0000000  0.6508444  3
    843    842    854    855     1  0.0000000  0.6508444  3
    843    842    854    856     1  0.0000000  0.6508444  3
    844    842    841    845     1  0.0000000  1.2552000  3
    844    842    841    848     1  0.0000000  1.2552000  3
    844    842    854    866     1  0.0000000  0.6508444  3
    844    842    854    855     1  0.0000000  0.6508444  3
    844    842    854    856     1  0.0000000  0.6508444  3
    845    841    848    849     1  0.0000000  1.2552000  3
    845    841    848    850     1  0.0000000  1.2552000  3
    845    857    863    864     1  0.0000000  0.6508444  3
    845    857    863    865     1  0.0000000  0.6508444  3
    846    845    841    848     1  0.0000000  1.2552000  3
    846    845    857    863     1  0.0000000  0.6508444  3
    846    845    857    858     1  0.0000000  0.6508444  3
    846    845    857    859     1  0.0000000  0.6508444  3
    847    845    841    848     1  0.0000000  1.2552000  3
    847    845    857    863     1  0.0000000  0.6508444  3
    847    845    857    858     1  0.0000000  0.6508444  3
    847    845    857    859     1  0.0000000  0.6508444  3
    848    851    860    861     1  0.0000000  0.6508444  3
    848    851    860    862     1  0.0000000  0.6508444  3
    849    848    851    860     1  0.0000000  0.6508444  3
    849    848    851    852     1  0.0000000  0.6508444  3
    849    848    851    853     1  0.0000000  0.6508444  3
    850    848    851    860     1  0.0000000  0.6508444  3
    850    848    851    852     1  0.0000000  0.6508444  3
    850    848    851    853     1  0.0000000  0.6508444  3
    852    851    860    869     1  0.0000000  1.0460000  1
    852    851    860    869     1  0.0000000  0.0000000  3
    852    851    860    861     1  0.0000000  0.6508444  3
    852    851    860    862     1  0.0000000  0.6508444  3
    853    851    860    869     1  0.0000000  1.0460000  1
    853    851    860    869     1  0.0000000  0.0000000  3
    853    851    860    861     1  0.0000000  0.6508444  3
    853    851    860    862     1  0.0000000  0.6508444  3
    855    854    866   1797     1  0.0000000  1.0460000  1
    855    854    866   1797     1  0.0000000  0.0000000  3
    855    854    866    867     1  0.0000000  0.6508444  3
    855    854    866    868     1  0.0000000  0.6508444  3
    856    854    866   1797     1  0.0000000  1.0460000  1
    856    854    866   1797     1  0.0000000  0.0000000  3
    856    854    866    867     1  0.0000000  0.6508444  3
    856    854    866    868     1  0.0000000  0.6508444  3
    858    857    863   1768     1  0.0000000  1.0460000  1
    858    857    863   1768     1  0.0000000  0.0000000  3
    858    857    863    864     1  0.0000000  0.6508444  3
    858    857    863    865     1  0.0000000  0.6508444  3
    859    857    863   1768     1  0.0000000  1.0460000  1
    859    857    863   1768     1  0.0000000  0.0000000  3
    859    857    863    864     1  0.0000000  0.6508444  3
    859    857    863    865     1  0.0000000  0.6508444  3
    863   1768   1759   1760     1  0.0000000  1.6038667  3
    863   1768   1759   1761     1  0.0000000  1.6038667  3
    864    863   1768   1759     1  0.0000000  1.6038667  3
    865    863   1768   1759     1  0.0000000  1.6038667  3
    866   1797   1788   1789     1  0.0000000  1.6038667  3
    866   1797   1788   1790     1  0.0000000  1.6038667  3
    867    866   1797   1788     1  0.0000000  1.6038667  3
    868    866   1797   1788     1  0.0000000  1.6038667  3
    870    871    883    884     1  0.0000000  0.6508444  3
    870    871    883    885     1  0.0000000  0.6508444  3
    870    874    886    887     1  0.0000000  0.6508444  3
    870    874    886    888     1  0.0000000  0.6508444  3
    870    877    880    881     1  0.0000000  0.6508444  3
    870    877    880    882     1  0.0000000  0.6508444  3
    871    870    874    875     1  0.0000000  1.2552000  3
    871    870    874    876     1  0.0000000  1.2552000  3
    871    870    877    878     1  0.0000000  1.2552000  3
    871    870    877    879     1  0.0000000  1.2552000  3
    871    883    895    896     1  0.0000000  0.6508444  3
    871    883    895    897     1  0.0000000  0.6508444  3
    872    871    870    874     1  0.0000000  1.2552000  3
    872    871    870    877     1  0.0000000  1.2552000  3
    872    871    883    895     1  0.0000000  0.6508444  3
    872    871    883    884     1  0.0000000  0.6508444  3
    872    871    883    885     1  0.0000000  0.6508444  3
    873    871    870    874     1  0.0000000  1.2552000  3
    873    871    870    877     1  0.0000000  1.2552000  3
    873    871    883    895     1  0.0000000  0.6508444  3
    873    871    883    884     1  0.0000000  0.6508444  3
    873    871    883    885     1  0.0000000  0.6508444  3
    874    870    877    878     1  0.0000000  1.2552000  3
    874    870    877    879     1  0.0000000  1.2552000  3
    874    886    892    893     1  0.0000000  0.6508444  3
    874    886    892    894     1  0.0000000  0.6508444  3
    875    874    870    877     1  0.0000000  1.2552000  3
    875    874    886    892     1  0.0000000  0.6508444  3
    875    874    886    887     1  0.0000000  0.6508444  3
    875    874    886    888     1  0.0000000  0.6508444  3
    876    874    870    877     1  0.0000000  1.2552000  3
    876    874    886    892     1  0.0000000  0.6508444  3
    876    874    886    887     1  0.0000000  0.6508444  3
    876    874    886    888     1  0.0000000  0.6508444  3
    877    880    889    890     1  0.0000000  0.6508444  3
    877    880    889    891     1  0.0000000  0.6508444  3
    878    877    880    889     1  0.0000000  0.6508444  3
    878    877    880    881     1  0.0000000  0.6508444  3
    878    877    880    882     1  0.0000000  0.6508444  3
    879    877    880    889     1  0.0000000  0.6508444  3
    879    877    880    881     1  0.0000000  0.6508444  3
    879    877    880    882     1  0.0000000  0.6508444  3
    881    880    889    898     1  0.0000000  1.0460000  1
    881    880    889    898     1  0.0000000  0.0000000  3
    881    880    889    890     1  0.0000000  0.6508444  3
    881    880    889    891     1  0.0000000  0.6508444  3
    882    880    889    898     1  0.0000000  1.0460000  1
    882    880    889    898     1  0.0000000  0.0000000  3
    882    880    889    890     1  0.0000000  0.6508444  3
    882    880    889    891     1  0.0000000  0.6508444  3
    884    883    895   1855     1  0.0000000  1.0460000  1
    884    883    895   1855     1  0.0000000  0.0000000  3
    884    883    895    896     1  0.0000000  0.6508444  3
    884    883    895    897     1  0.0000000  0.6508444  3
    885    883    895   1855     1  0.0000000  1.0460000  1
    885    883    895   1855     1  0.0000000  0.0000000  3
    885    883    895    896     1  0.0000000  0.6508444  3
    885    883    895    897     1  0.0000000  0.6508444  3
    887    886    892   1826     1  0.0000000  1.0460000  1
    887    886    892   1826     1  0.0000000  0.0000000  3
    887    886    892    893     1  0.0000000  0.6508444  3
    887    886    892    894     1  0.0000000  0.6508444  3
    888    886    892   1826     1  0.0000000  1.0460000  1
    888    886    892   1826     1  0.0000000  0.0000000  3
    888    886    892    893     1  0.0000000  0.6508444  3
    888    886    892    894     1  0.0000000  0.6508444  3
    892   1826   1817   1818     1  0.0000000  1.6038667  3
    892   1826   1817   1819     1  0.0000000  1.6038667  3
    893    892   1826   1817     1  0.0000000  1.6038667  3
    894    892   1826   1817     1  0.0000000  1.6038667  3
    895   1855   1846   1847     1  0.0000000  1.6038667  3
    895   1855   1846   1848     1  0.0000000  1.6038667  3
    896    895   1855   1846     1  0.0000000  1.6038667  3
    897    895   1855   1846     1  0.0000000  1.6038667  3
    899    900    912    913     1  0.0000000  0.6508444  3
    899    900    912    914     1  0.0000000  0.6508444  3
    899    903    915    916     1  0.0000000  0.6508444  3
    899    903    915    917     1  0.0000000  0.6508444  3
    899    906    909    910     1  0.0000000  0.6508444  3
    899    906    909    911     1  0.0000000  0.6508444  3
    900    899    903    904     1  0.0000000  1.2552000  3
    900    899    903    905     1  0.0000000  1.2552000  3
    900    899    906    907     1  0.0000000  1.2552000  3
    900    899    906    908     1  0.0000000  1.2552000  3
    900    912    924    925     1  0.0000000  0.6508444  3
    900    912    924    926     1  0.0000000  0.6508444  3
    901    900    899    903     1  0.0000000  1.2552000  3
    901    900    899    906     1  0.0000000  1.2552000  3
    901    900    912    924     1  0.0000000  0.6508444  3
    901    900    912    913     1  0.0000000  0.6508444  3
    901    900    912    914     1  0.0000000  0.6508444  3
    902    900    899    903     1  0.0000000  1.2552000  3
    902    900    899    906     1  0.0000000  1.2552000  3
    902    900    912    924     1  0.0000000  0.6508444  3
    902    900    912    913     1  0.0000000  0.6508444  3
    902    900    912    914     1  0.0000000  0.6508444  3
    903    899    906    907     1  0.0000000  1.2552000  3
    903    899    906    908     1  0.0000000  1.2552000  3
    903    915    921    922     1  0.0000000  0.6508444  3
    903    915    921    923     1  0.0000000  0.6508444  3
    904    903    899    906     1  0.0000000  1.2552000  3
    904    903    915    921     1  0.0000000  0.6508444  3
    904    903    915    916     1  0.0000000  0.6508444  3
    904    903    915    917     1  0.0000000  0.6508444  3
    905    903    899    906     1  0.0000000  1.2552000  3
    905    903    915    921     1  0.0000000  0.6508444  3
    905    903    915    916     1  0.0000000  0.6508444  3
    905    903    915    917     1  0.0000000  0.6508444  3
    906    909    918    919     1  0.0000000  0.6508444  3
    906    909    918    920     1  0.0000000  0.6508444  3
    907    906    909    918     1  0.0000000  0.6508444  3
    907    906    909    910     1  0.0000000  0.6508444  3
    907    906    909    911     1  0.0000000  0.6508444  3
    908    906    909    918     1  0.0000000  0.6508444  3
    908    906    909    910     1  0.0000000  0.6508444  3
    908    906    909    911     1  0.0000000  0.6508444  3
    910    909    918    927     1  0.0000000  1.0460000  1
    910    909    918    927     1  0.0000000  0.0000000  3
    910    909    918    919     1  0.0000000  0.6508444  3
    910    909    918    920     1  0.0000000  0.6508444  3
    911    909    918    927     1  0.0000000  1.0460000  1
    911    909    918    927     1  0.0000000  0.0000000  3
    911    909    918    919     1  0.0000000  0.6508444  3
    911    909    918    920     1  0.0000000  0.6508444  3
    913    912    924   1913     1  0.0000000  1.0460000  1
    913    912    924   1913     1  0.0000000  0.0000000  3
    913    912    924    925     1  0.0000000  0.6508444  3
    913    912    924    926     1  0.0000000  0.6508444  3
    914    912    924   1913     1  0.0000000  1.0460000  1
    914    912    924   1913     1  0.0000000  0.0000000  3
    914    912    924    925     1  0.0000000  0.6508444  3
    914    912    924    926     1  0.0000000  0.6508444  3
    916    915    921   1884     1  0.0000000  1.0460000  1
    916    915    921   1884     1  0.0000000  0.0000000  3
    916    915    921    922     1  0.0000000  0.6508444  3
    916    915    921    923     1  0.0000000  0.6508444  3
    917    915    921   1884     1  0.0000000  1.0460000  1
    917    915    921   1884     1  0.0000000  0.0000000  3
    917    915    921    922     1  0.0000000  0.6508444  3
    917    915    921    923     1  0.0000000  0.6508444  3
    921   1884   1875   1876     1  0.0000000  1.6038667  3
    921   1884   1875   1877     1  0.0000000  1.6038667  3
    922    921   1884   1875     1  0.0000000  1.6038667  3
    923    921   1884   1875     1  0.0000000  1.6038667  3
    924   1913   1904   1905     1  0.0000000  1.6038667  3
    924   1913   1904   1906     1  0.0000000  1.6038667  3
    925    924   1913   1904     1  0.0000000  1.6038667  3
    926    924   1913   1904     1  0.0000000  1.6038667  3
    928    929    941    942     1  0.0000000  0.6508444  3
    928    929    941    943     1  0.0000000  0.6508444  3
    928    932    944    945     1  0.0000000  0.6508444  3
    928    932    944    946     1  0.0000000  0.6508444  3
    928    935    938    939     1  0.0000000  0.6508444  3
    928    935    938    940     1  0.0000000  0.6508444  3
    929    928    932    933     1  0.0000000  1.2552000  3
    929    928    932    934     1  0.0000000  1.2552000  3
    929    928    935    936     1  0.0000000  1.2552000  3
    929    928    935    937     1  0.0000000  1.2552000  3
    929    941    953    954     1  0.0000000  0.6508444  3
    929    941    953    955     1  0.0000000  0.6508444  3
    930    929    928    932     1  0.0000000  1.2552000  3
    930    929    928    935     1  0.0000000  1.2552000  3
    930    929    941    953     1  0.0000000  0.6508444  3
    930    929    941    942     1  0.0000000  0.6508444  3
    930    929    941    943     1  0.0000000  0.6508444  3
    931    929    928    932     1  0.0000000  1.2552000  3
    931    929    928    935     1  0.0000000  1.2552000  3
    931    929    941    953     1  0.0000000  0.6508444  3
    931    929    941    942     1  0.0000000  0.6508444  3
    931    929    941    943     1  0.0000000  0.6508444  3
    932    928    935    936     1  0.0000000  1.2552000  3
    932    928    935    937     1  0.0000000  1.2552000  3
    932    944    950    951     1  0.0000000  0.6508444  3
    932    944    950    952     1  0.0000000  0.6508444  3
    933    932    928    935     1  0.0000000  1.2552000  3
    933    932    944    950     1  0.0000000  0.6508444  3
    933    932    944    945     1  0.0000000  0.6508444  3
    933    932    944    946     1  0.0000000  0.6508444  3
    934    932    928    935     1  0.0000000  1.2552000  3
    934    932    944    950     1  0.0000000  0.6508444  3
    934    932    944    945     1  0.0000000  0.6508444  3
    934    932    944    946     1  0.0000000  0.6508444  3
    935    938    947    948     1  0.0000000  0.6508444  3
    935    938    947    949     1  0.0000000  0.6508444  3
    936    935    938    947     1  0.0000000  0.6508444  3
    936    935    938    939     1  0.0000000  0.6508444  3
    936    935    938    940     1  0.0000000  0.6508444  3
    937    935    938    947     1  0.0000000  0.6508444  3
    937    935    938    939     1  0.0000000  0.6508444  3
    937    935    938    940     1  0.0000000  0.6508444  3
    939    938    947    956     1  0.0000000  1.0460000  1
    939    938    947    956     1  0.0000000  0.0000000  3
    939    938    947    948     1  0.0000000  0.6508444  3
    939    938    947    949     1  0.0000000  0.6508444  3
    940    938    947    956     1  0.0000000  1.0460000  1
    940    938    947    956     1  0.0000000  0.0000000  3
    940    938    947    948     1  0.0000000  0.6508444  3
    940    938    947    949     1  0.0000000  0.6508444  3
    942    941    953   1971     1  0.0000000  1.0460000  1
    942    941    953   1971     1  0.0000000  0.0000000  3
    942    941    953    954     1  0.0000000  0.6508444  3
    942    941    953    955     1  0.0000000  0.6508444  3
    943    941    953   1971     1  0.0000000  1.0460000  1
    943    941    953   1971     1  0.0000000  0.0000000  3
    943    941    953    954     1  0.0000000  0.6508444  3
    943    941    953    955     1  0.0000000  0.6508444  3
    945    944    950   1942     1  0.0000000  1.0460000  1
    945    944    950   1942     1  0.0000000  0.0000000  3
    945    944    950    951     1  0.0000000  0.6508444  3
    945    944    950    952     1  0.0000000  0.6508444  3
    946    944    950   1942     1  0.0000000  1.0460000  1
    946    944    950   1942     1  0.0000000  0.0000000  3
    946    944    950    951     1  0.0000000  0.6508444  3
    946    944    950    952     1  0.0000000  0.6508444  3
    950   1942   1933   1934     1  0.0000000  1.6038667  3
    950   1942   1933   1935     1  0.0000000  1.6038667  3
    951    950   1942   1933     1  0.0000000  1.6038667  3
    952    950   1942   1933     1  0.0000000  1.6038667  3
    953   1971   1962   1963     1  0.0000000  1.6038667  3
    953   1971   1962   1964     1  0.0000000  1.6038667  3
    954    953   1971   1962     1  0.0000000  1.6038667  3
    955    953   1971   1962     1  0.0000000  1.6038667  3
    957    958    970    971     1  0.0000000  0.6508444  3
    957    958    970    972     1  0.0000000  0.6508444  3
    957    961    973    974     1  0.0000000  0.6508444  3
    957    961    973    975     1  0.0000000  0.6508444  3
    957    964    967    968     1  0.0000000  0.6508444  3
    957    964    967    969     1  0.0000000  0.6508444  3
    958    957    961    962     1  0.0000000  1.2552000  3
    958    957    961    963     1  0.0000000  1.2552000  3
    958    957    964    965     1  0.0000000  1.2552000  3
    958    957    964    966     1  0.0000000  1.2552000  3
    958    970    982    983     1  0.0000000  0.6508444  3
    958    970    982    984     1  0.0000000  0.6508444  3
    959    958    957    961     1  0.0000000  1.2552000  3
    959    958    957    964     1  0.0000000  1.2552000  3
    959    958    970    982     1  0.0000000  0.6508444  3
    959    958    970    971     1  0.0000000  0.6508444  3
    959    958    970    972     1  0.0000000  0.6508444  3
    960    958    957    961     1  0.0000000  1.2552000  3
    960    958    957    964     1  0.0000000  1.2552000  3
    960    958    970    982     1  0.0000000  0.6508444  3
    960    958    970    971     1  0.0000000  0.6508444  3
    960    958    970    972     1  0.0000000  0.6508444  3
    961    957    964    965     1  0.0000000  1.2552000  3
    961    957    964    966     1  0.0000000  1.2552000  3
    961    973    979    980     1  0.0000000  0.6508444  3
    961    973    979    981     1  0.0000000  0.6508444  3
    962    961    957    964     1  0.0000000  1.2552000  3
    962    961    973    979     1  0.0000000  0.6508444  3
    962    961    973    974     1  0.0000000  0.6508444  3
    962    961    973    975     1  0.0000000  0.6508444  3
    963    961    957    964     1  0.0000000  1.2552000  3
    963    961    973    979     1  0.0000000  0.6508444  3
    963    961    973    974     1  0.0000000  0.6508444  3
    963    961    973    975     1  0.0000000  0.6508444  3
    964    967    976    977     1  0.0000000  0.6508444  3
    964    967    976    978     1  0.0000000  0.6508444  3
    965    964    967    976     1  0.0000000  0.6508444  3
    965    964    967    968     1  0.0000000  0.6508444  3
    965    964    967    969     1  0.0000000  0.6508444  3
    966    964    967    976     1  0.0000000  0.6508444  3
    966    964    967    968     1  0.0000000  0.6508444  3
    966    964    967    969     1  0.0000000  0.6508444  3
    968    967    976    985     1  0.0000000  1.0460000  1
    968    967    976    985     1  0.0000000  0.0000000  3
    968    967    976    977     1  0.0000000  0.6508444  3
    968    967    976    978     1  0.0000000  0.6508444  3
    969    967    976    985     1  0.0000000  1.0460000  1
    969    967    976    985     1  0.0000000  0.0000000  3
    969    967    976    977     1  0.0000000  0.6508444  3
    969    967    976    978     1  0.0000000  0.6508444  3
    971    970    982   2029     1  0.0000000  1.0460000  1
    971    970    982   2029     1  0.0000000  0.0000000  3
    971    970    982    983     1  0.0000000  0.6508444  3
    971    970    982    984     1  0.0000000  0.6508444  3
    972    970    982   2029     1  0.0000000  1.0460000  1
    972    970    982   2029     1  0.0000000  0.0000000  3
    972    970    982    983     1  0.0000000  0.6508444  3
    972    970    982    984     1  0.0000000  0.6508444  3
    974    973    979   2000     1  0.0000000  1.0460000  1
    974    973    979   2000     1  0.0000000  0.0000000  3
    974    973    979    980     1  0.0000000  0.6508444  3
    974    973    979    981     1  0.0000000  0.6508444  3
    975    973    979   2000     1  0.0000000  1.0460000  1
    975    973    979   2000     1  0.0000000  0.0000000  3
    975    973    979    980     1  0.0000000  0.6508444  3
    975    973    979    981     1  0.0000000  0.6508444  3
    979   2000   1991   1992     1  0.0000000  1.6038667  3
    979   2000   1991   1993     1  0.0000000  1.6038667  3
    980    979   2000   1991     1  0.0000000  1.6038667  3
    981    979   2000   1991     1  0.0000000  1.6038667  3
    982   2029   2020   2021     1  0.0000000  1.6038667  3
    982   2029   2020   2022     1  0.0000000  1.6038667  3
    983    982   2029   2020     1  0.0000000  1.6038667  3
    984    982   2029   2020     1  0.0000000  1.6038667  3
    986    987    999   1000     1  0.0000000  0.6508444  3
    986    987    999   1001     1  0.0000000  0.6508444  3
    986    990   1002   1003     1  0.0000000  0.6508444  3
    986    990   1002   1004     1  0.0000000  0.6508444  3
    986    993    996    997     1  0.0000000  0.6508444  3
    986    993    996    998     1  0.0000000  0.6508444  3
    987    986    990    991     1  0.0000000  1.2552000  3
    987    986    990    992     1  0.0000000  1.2552000  3
    987    986    993    994     1  0.0000000  1.2552000  3
    987    986    993    995     1  0.0000000  1.2552000  3
    987    999   1011   1012     1  0.0000000  0.6508444  3
    987    999   1011   1013     1  0.0000000  0.6508444  3
    988    987    986    990     1  0.0000000  1.2552000  3
    988    987    986    993     1  0.0000000  1.2552000  3
    988    987    999   1011     1  0.0000000  0.6508444  3
    988    987    999   1000     1  0.0000000  0.6508444  3
    988    987    999   1001     1  0.0000000  0.6508444  3
    989    987    986    990     1  0.0000000  1.2552000  3
    989    987    986    993     1  0.0000000  1.2552000  3
    989    987    999   1011     1  0.0000000  0.6508444  3
    989    987    999   1000     1  0.0000000  0.6508444  3
    989    987    999   1001     1  0.0000000  0.6508444  3
    990    986    993    994     1  0.0000000  1.2552000  3
    990    986    993    995     1  0.0000000  1.2552000  3
    990   1002   1008   1009     1  0.0000000  0.6508444  3
    990   1002   1008   1010     1  0.0000000  0.6508444  3
    991    990    986    993     1  0.0000000  1.2552000  3
    991    990   1002   1008     1  0.0000000  0.6508444  3
    991    990   1002   1003     1  0.0000000  0.6508444  3
    991    990   1002   1004     1  0.0000000  0.6508444  3
    992    990    986    993     1  0.0000000  1.2552000  3
    992    990   1002   1008     1  0.0000000  0.6508444  3
    992    990   1002   1003     1  0.0000000  0.6508444  3
    992    990   1002   1004     1  0.0000000  0.6508444  3
    993    996   1005   1006     1  0.0000000  0.6508444  3
    993    996   1005   1007     1  0.0000000  0.6508444  3
    994    993    996   1005     1  0.0000000  0.6508444  3
    994    993    996    997     1  0.0000000  0.6508444  3
    994    993    996    998     1  0.0000000  0.6508444  3
    995    993    996   1005     1  0.0000000  0.6508444  3
    995    993    996    997     1  0.0000000  0.6508444  3
    995    993    996    998     1  0.0000000  0.6508444  3
    997    996   1005   1014     1  0.0000000  1.0460000  1
    997    996   1005   1014     1  0.0000000  0.0000000  3
    997    996   1005   1006     1  0.0000000  0.6508444  3
    997    996   1005   1007     1  0.0000000  0.6508444  3
    998    996   1005   1014     1  0.0000000  1.0460000  1
    998    996   1005   1014     1  0.0000000  0.0000000  3
    998    996   1005   1006     1  0.0000000  0.6508444  3
    998    996   1005   1007     1  0.0000000  0.6508444  3
   1000    999   1011   2087     1  0.0000000  1.0460000  1
   1000    999   1011   2087     1  0.0000000  0.0000000  3
   1000    999   1011   1012     1  0.0000000  0.6508444  3
   1000    999   1011   1013     1  0.0000000  0.6508444  3
   1001    999   1011   2087     1  0.0000000  1.0460000  1
   1001    999   1011   2087     1  0.0000000  0.0000000  3
   1001    999   1011   1012     1  0.0000000  0.6508444  3
   1001    999   1011   1013     1  0.0000000  0.6508444  3
   1003   1002   1008   2058     1  0.0000000  1.0460000  1
   1003   1002   1008   2058     1  0.0000000  0.0000000  3
   1003   1002   1008   1009     1  0.0000000  0.6508444  3
   1003   1002   1008   1010     1  0.0000000  0.6508444  3
   1004   1002   1008   2058     1  0.0000000  1.0460000  1
   1004   1002   1008   2058     1  0.0000000  0.0000000  3
   1004   1002   1008   1009     1  0.0000000  0.6508444  3
   1004   1002   1008   1010     1  0.0000000  0.6508444  3
   1008   2058   2049   2050     1  0.0000000  1.6038667  3
   1008   2058   2049   2051     1  0.0000000  1.6038667  3
   1009   1008   2058   2049     1  0.0000000  1.6038667  3
   1010   1008   2058   2049     1  0.0000000  1.6038667  3
   1011   2087   2078   2079     1  0.0000000  1.6038667  3
   1011   2087   2078   2080     1  0.0000000  1.6038667  3
   1012   1011   2087   2078     1  0.0000000  1.6038667  3
   1013   1011   2087   2078     1  0.0000000  1.6038667  3
   1015   1016   1028   1029     1  0.0000000  0.6508444  3
   1015   1016   1028   1030     1  0.0000000  0.6508444  3
   1015   1019   1031   1032     1  0.0000000  0.6508444  3
   1015   1019   1031   1033     1  0.0000000  0.6508444  3
   1015   1022   1025   1026     1  0.0000000  0.6508444  3
   1015   1022   1025   1027     1  0.0000000  0.6508444  3
   1016   1015   1019   1020     1  0.0000000  1.2552000  3
   1016   1015   1019   1021     1  0.0000000  1.2552000  3
   1016   1015   1022   1023     1  0.0000000  1.2552000  3
   1016   1015   1022   1024     1  0.0000000  1.2552000  3
   1016   1028   1040   1041     1  0.0000000  0.6508444  3
   1016   1028   1040   1042     1  0.0000000  0.6508444  3
   1017   1016   1015   1019     1  0.0000000  1.2552000  3
   1017   1016   1015   1022     1  0.0000000  1.2552000  3
   1017   1016   1028   1040     1  0.0000000  0.6508444  3
   1017   1016   1028   1029     1  0.0000000  0.6508444  3
   1017   1016   1028   1030     1  0.0000000  0.6508444  3
   1018   1016   1015   1019     1  0.0000000  1.2552000  3
   1018   1016   1015   1022     1  0.0000000  1.2552000  3
   1018   1016   1028   1040     1  0.0000000  0.6508444  3
   1018   1016   1028   1029     1  0.0000000  0.6508444  3
   1018   1016   1028   1030     1  0.0000000  0.6508444  3
   1019   1015   1022   1023     1  0.0000000  1.2552000  3
   1019   1015   1022   1024     1  0.0000000  1.2552000  3
   1019   1031   1037   1038     1  0.0000000  0.6508444  3
   1019   1031   1037   1039     1  0.0000000  0.6508444  3
   1020   1019   1015   1022     1  0.0000000  1.2552000  3
   1020   1019   1031   1037     1  0.0000000  0.6508444  3
   1020   1019   1031   1032     1  0.0000000  0.6508444  3
   1020   1019   1031   1033     1  0.0000000  0.6508444  3
   1021   1019   1015   1022     1  0.0000000  1.2552000  3
   1021   1019   1031   1037     1  0.0000000  0.6508444  3
   1021   1019   1031   1032     1  0.0000000  0.6508444  3
   1021   1019   1031   1033     1  0.0000000  0.6508444  3
   1022   1025   1034   1035     1  0.0000000  0.6508444  3
   1022   1025   1034   1036     1  0.0000000  0.6508444  3
   1023   1022   1025   1034     1  0.0000000  0.6508444  3
   1023   1022   1025   1026     1  0.0000000  0.6508444  3
   1023   1022   1025   1027     1  0.0000000  0.6508444  3
   1024   1022   1025   1034     1  0.0000000  0.6508444  3
   1024   1022   1025   1026     1  0.0000000  0.6508444  3
   1024   1022   1025   1027     1  0.0000000  0.6508444  3
   1026   1025   1034   1043     1  0.0000000  1.0460000  1
   1026   1025   1034   1043     1  0.0000000  0.0000000  3
   1026   1025   1034   1035     1  0.0000000  0.6508444  3
   1026   1025   1034   1036     1  0.0000000  0.6508444  3
   1027   1025   1034   1043     1  0.0000000  1.0460000  1
   1027   1025   1034   1043     1  0.0000000  0.0000000  3
   1027   1025   1034   1035     1  0.0000000  0.6508444  3
   1027   1025   1034   1036     1  0.0000000  0.6508444  3
   1029   1028   1040   2145     1  0.0000000  1.0460000  1
   1029   1028   1040   2145     1  0.0000000  0.0000000  3
   1029   1028   1040   1041     1  0.0000000  0.6508444  3
   1029   1028   1040   1042     1  0.0000000  0.6508444  3
   1030   1028   1040   2145     1  0.0000000  1.0460000  1
   1030   1028   1040   2145     1  0.0000000  0.0000000  3
   1030   1028   1040   1041     1  0.0000000  0.6508444  3
   1030   1028   1040   1042     1  0.0000000  0.6508444  3
   1032   1031   1037   2116     1  0.0000000  1.0460000  1
   1032   1031   1037   2116     1  0.0000000  0.0000000  3
   1032   1031   1037   1038     1  0.0000000  0.6508444  3
   1032   1031   1037   1039     1  0.0000000  0.6508444  3
   1033   1031   1037   2116     1  0.0000000  1.0460000  1
   1033   1031   1037   2116     1  0.0000000  0.0000000  3
   1033   1031   1037   1038     1  0.0000000  0.6508444  3
   1033   1031   1037   1039     1  0.0000000  0.6508444  3
   1037   2116   2107   2108     1  0.0000000  1.6038667  3
   1037   2116   2107   2109     1  0.0000000  1.6038667  3
   1038   1037   2116   2107     1  0.0000000  1.6038667  3
   1039   1037   2116   2107     1  0.0000000  1.6038667  3
   1040   2145   2136   2137     1  0.0000000  1.6038667  3
   1040   2145   2136   2138     1  0.0000000  1.6038667  3
   1041   1040   2145   2136     1  0.0000000  1.6038667  3
   1042   1040   2145   2136     1  0.0000000  1.6038667  3
   1044   1045   1057   1058     1  0.0000000  0.6508444  3
   1044   1045   1057   1059     1  0.0000000  0.6508444  3
   1044   1048   1060   1061     1  0.0000000  0.6508444  3
   1044   1048   1060   1062     1  0.0000000  0.6508444  3
   1044   1051   1054   1055     1  0.0000000  0.6508444  3
   1044   1051   1054   1056     1  0.0000000  0.6508444  3
   1045   1044   1048   1049     1  0.0000000  1.2552000  3
   1045   1044   1048   1050     1  0.0000000  1.2552000  3
   1045   1044   1051   1052     1  0.0000000  1.2552000  3
   1045   1044   1051   1053     1  0.0000000  1.2552000  3
   1045   1057   1069   1070     1  0.0000000  0.6508444  3
   1045   1057   1069   1071     1  0.0000000  0.6508444  3
   1046   1045   1044   1048     1  0.0000000  1.2552000  3
   1046   1045   1044   1051     1  0.0000000  1.2552000  3
   1046   1045   1057   1069     1  0.0000000  0.6508444  3
   1046   1045   1057   1058     1  0.0000000  0.6508444  3
   1046   1045   1057   1059     1  0.0000000  0.6508444  3
   1047   1045   1044   1048     1  0.0000000  1.2552000  3
   1047   1045   1044   1051     1  0.0000000  1.2552000  3
   1047   1045   1057   1069     1  0.0000000  0.6508444  3
   1047   1045   1057   1058     1  0.0000000  0.6508444  3
   1047   1045   1057   1059     1  0.0000000  0.6508444  3
   1048   1044   1051   1052     1  0.0000000  1.2552000  3
   1048   1044   1051   1053     1  0.0000000  1.2552000  3
   1048   1060   1066   1067     1  0.0000000  0.6508444  3
   1048   1060   1066   1068     1  0.0000000  0.6508444  3
   1049   1048   1044   1051     1  0.0000000  1.2552000  3
   1049   1048   1060   1066     1  0.0000000  0.6508444  3
   1049   1048   1060   1061     1  0.0000000  0.6508444  3
   1049   1048   1060   1062     1  0.0000000  0.6508444  3
   1050   1048   1044   1051     1  0.0000000  1.2552000  3
   1050   1048   1060   1066     1  0.0000000  0.6508444  3
   1050   1048   1060   1061     1  0.0000000  0.6508444  3
   1050   1048   1060   1062     1  0.0000000  0.6508444  3
   1051   1054   1063   1064     1  0.0000000  0.6508444  3
   1051   1054   1063   1065     1  0.0000000  0.6508444  3
   1052   1051   1054   1063     1  0.0000000  0.6508444  3
   1052   1051   1054   1055     1  0.0000000  0.6508444  3
   1052   1051   1054   1056     1  0.0000000  0.6508444  3
   1053   1051   1054   1063     1  0.0000000  0.6508444  3
   1053   1051   1054   1055     1  0.0000000  0.6508444  3
   1053   1051   1054   1056     1  0.0000000  0.6508444  3
   1055   1054   1063   1072     1  0.0000000  1.0460000  1
   1055   1054   1063   1072     1  0.0000000  0.0000000  3
   1055   1054   1063   1064     1  0.0000000  0.6508444  3
   1055   1054   1063   1065     1  0.0000000  0.6508444  3
   1056   1054   1063   1072     1  0.0000000  1.0460000  1
   1056   1054   1063   1072     1  0.0000000  0.0000000  3
   1056   1054   1063   1064     1  0.0000000  0.6508444  3
   1056   1054   1063   1065     1  0.0000000  0.6508444  3
   1058   1057   1069   2203     1  0.0000000  1.0460000  1
   1058   1057   1069   2203     1  0.0000000  0.0000000  3
   1058   1057   1069   1070     1  0.0000000  0.6508444  3
   1058   1057   1069   1071     1  0.0000000  0.6508444  3
   1059   1057   1069   2203     1  0.0000000  1.0460000  1
   1059   1057   1069   2203     1  0.0000000  0.0000000  3
   1059   1057   1069   1070     1  0.0000000  0.6508444  3
   1059   1057   1069   1071     1  0.0000000  0.6508444  3
   1061   1060   1066   2174     1  0.0000000  1.0460000  1
   1061   1060   1066   2174     1  0.0000000  0.0000000  3
   1061   1060   1066   1067     1  0.0000000  0.6508444  3
   1061   1060   1066   1068     1  0.0000000  0.6508444  3
   1062   1060   1066   2174     1  0.0000000  1.0460000  1
   1062   1060   1066   2174     1  0.0000000  0.0000000  3
   1062   1060   1066   1067     1  0.0000000  0.6508444  3
   1062   1060   1066   1068     1  0.0000000  0.6508444  3
   1066   2174   2165   2166     1  0.0000000  1.6038667  3
   1066   2174   2165   2167     1  0.0000000  1.6038667  3
   1067   1066   2174   2165     1  0.0000000  1.6038667  3
   1068   1066   2174   2165     1  0.0000000  1.6038667  3
   1069   2203   2194   2195     1  0.0000000  1.6038667  3
   1069   2203   2194   2196     1  0.0000000  1.6038667  3
   1070   1069   2203   2194     1  0.0000000  1.6038667  3
   1071   1069   2203   2194     1  0.0000000  1.6038667  3
   1073   1074   1086   1087     1  0.0000000  0.6508444  3
   1073   1074   1086   1088     1  0.0000000  0.6508444  3
   1073   1077   1089   1090     1  0.0000000  0.6508444  3
   1073   1077   1089   1091     1  0.0000000  0.6508444  3
   1073   1080   1083   1084     1  0.0000000  0.6508444  3
   1073   1080   1083   1085     1  0.0000000  0.6508444  3
   1074   1073   1077   1078     1  0.0000000  1.2552000  3
   1074   1073   1077   1079     1  0.0000000  1.2552000  3
   1074   1073   1080   1081     1  0.0000000  1.2552000  3
   1074   1073   1080   1082     1  0.0000000  1.2552000  3
   1074   1086   1098   1099     1  0.0000000  0.6508444  3
   1074   1086   1098   1100     1  0.0000000  0.6508444  3
   1075   1074   1073   1077     1  0.0000000  1.2552000  3
   1075   1074   1073   1080     1  0.0000000  1.2552000  3
   1075   1074   1086   1098     1  0.0000000  0.6508444  3
   1075   1074   1086   1087     1  0.0000000  0.6508444  3
   1075   1074   1086   1088     1  0.0000000  0.6508444  3
   1076   1074   1073   1077     1  0.0000000  1.2552000  3
   1076   1074   1073   1080     1  0.0000000  1.2552000  3
   1076   1074   1086   1098     1  0.0000000  0.6508444  3
   1076   1074   1086   1087     1  0.0000000  0.6508444  3
   1076   1074   1086   1088     1  0.0000000  0.6508444  3
   1077   1073   1080   1081     1  0.0000000  1.2552000  3
   1077   1073   1080   1082     1  0.0000000  1.2552000  3
   1077   1089   1095   1096     1  0.0000000  0.6508444  3
   1077   1089   1095   1097     1  0.0000000  0.6508444  3
   1078   1077   1073   1080     1  0.0000000  1.2552000  3
   1078   1077   1089   1095     1  0.0000000  0.6508444  3
   1078   1077   1089   1090     1  0.0000000  0.6508444  3
   1078   1077   1089   1091     1  0.0000000  0.6508444  3
   1079   1077   1073   1080     1  0.0000000  1.2552000  3
   1079   1077   1089   1095     1  0.0000000  0.6508444  3
   1079   1077   1089   1090     1  0.0000000  0.6508444  3
   1079   1077   1089   1091     1  0.0000000  0.6508444  3
   1080   1083   1092   1093     1  0.0000000  0.6508444  3
   1080   1083   1092   1094     1  0.0000000  0.6508444  3
   1081   1080   1083   1092     1  0.0000000  0.6508444  3
   1081   1080   1083   1084     1  0.0000000  0.6508444  3
   1081   1080   1083   1085     1  0.0000000  0.6508444  3
   1082   1080   1083   1092     1  0.0000000  0.6508444  3
   1082   1080   1083   1084     1  0.0000000  0.6508444  3
   1082   1080   1083   1085     1  0.0000000  0.6508444  3
   1084   1083   1092   1101     1  0.0000000  1.0460000  1
   1084   1083   1092   1101     1  0.0000000  0.0000000  3
   1084   1083   1092   1093     1  0.0000000  0.6508444  3
   1084   1083   1092   1094     1  0.0000000  0.6508444  3
   1085   1083   1092   1101     1  0.0000000  1.0460000  1
   1085   1083   1092   1101     1  0.0000000  0.0000000  3
   1085   1083   1092   1093     1  0.0000000  0.6508444  3
   1085   1083   1092   1094     1  0.0000000  0.6508444  3
   1087   1086   1098   2261     1  0.0000000  1.0460000  1
   1087   1086   1098   2261     1  0.0000000  0.0000000  3
   1087   1086   1098   1099     1  0.0000000  0.6508444  3
   1087   1086   1098   1100     1  0.0000000  0.6508444  3
   1088   1086   1098   2261     1  0.0000000  1.0460000  1
   1088   1086   1098   2261     1  0.0000000  0.0000000  3
   1088   1086   1098   1099     1  0.0000000  0.6508444  3
   1088   1086   1098   1100     1  0.0000000  0.6508444  3
   1090   1089   1095   2232     1  0.0000000  1.0460000  1
   1090   1089   1095   2232     1  0.0000000  0.0000000  3
   1090   1089   1095   1096     1  0.0000000  0.6508444  3
   1090   1089   1095   1097     1  0.0000000  0.6508444  3
   1091   1089   1095   2232     1  0.0000000  1.0460000  1
   1091   1089   1095   2232     1  0.0000000  0.0000000  3
   1091   1089   1095   1096     1  0.0000000  0.6508444  3
   1091   1089   1095   1097     1  0.0000000  0.6508444  3
   1095   2232   2223   2224     1  0.0000000  1.6038667  3
   1095   2232   2223   2225     1  0.0000000  1.6038667  3
   1096   1095   2232   2223     1  0.0000000  1.6038667  3
   1097   1095   2232   2223     1  0.0000000  1.6038667  3
   1098   2261   2252   2253     1  0.0000000  1.6038667  3
   1098   2261   2252   2254     1  0.0000000  1.6038667  3
   1099   1098   2261   2252     1  0.0000000  1.6038667  3
   1100   1098   2261   2252     1  0.0000000  1.6038667  3
   1102   1103   1115   1116     1  0.0000000  0.6508444  3
   1102   1103   1115   1117     1  0.0000000  0.6508444  3
   1102   1106   1118   1119     1  0.0000000  0.6508444  3
   1102   1106   1118   1120     1  0.0000000  0.6508444  3
   1102   1109   1112   1113     1  0.0000000  0.6508444  3
   1102   1109   1112   1114     1  0.0000000  0.6508444  3
   1103   1102   1106   1107     1  0.0000000  1.2552000  3
   1103   1102   1106   1108     1  0.0000000  1.2552000  3
   1103   1102   1109   1110     1  0.0000000  1.2552000  3
   1103   1102   1109   1111     1  0.0000000  1.2552000  3
   1103   1115   1127   1128     1  0.0000000  0.6508444  3
   1103   1115   1127   1129     1  0.0000000  0.6508444  3
   1104   1103   1102   1106     1  0.0000000  1.2552000  3
   1104   1103   1102   1109     1  0.0000000  1.2552000  3
   1104   1103   1115   1127     1  0.0000000  0.6508444  3
   1104   1103   1115   1116     1  0.0000000  0.6508444  3
   1104   1103   1115   1117     1  0.0000000  0.6508444  3
   1105   1103   1102   1106     1  0.0000000  1.2552000  3
   1105   1103   1102   1109     1  0.0000000  1.2552000  3
   1105   1103   1115   1127     1  0.0000000  0.6508444  3
   1105   1103   1115   1116     1  0.0000000  0.6508444  3
   1105   1103   1115   1117     1  0.0000000  0.6508444  3
   1106   1102   1109   1110     1  0.0000000  1.2552000  3
   1106   1102   1109   1111     1  0.0000000  1.2552000  3
   1106   1118   1124   1125     1  0.0000000  0.6508444  3
   1106   1118   1124   1126     1  0.0000000  0.6508444  3
   1107   1106   1102   1109     1  0.0000000  1.2552000  3
   1107   1106   1118   1124     1  0.0000000  0.6508444  3
   1107   1106   1118   1119     1  0.0000000  0.6508444  3
   1107   1106   1118   1120     1  0.0000000  0.6508444  3
   1108   1106   1102   1109     1  0.0000000  1.2552000  3
   1108   1106   1118   1124     1  0.0000000  0.6508444  3
   1108   1106   1118   1119     1  0.0000000  0.6508444  3
   1108   1106   1118   1120     1  0.0000000  0.6508444  3
   1109   1112   1121   1122     1  0.0000000  0.6508444  3
   1109   1112   1121   1123     1  0.0000000  0.6508444  3
   1110   1109   1112   1121     1  0.0000000  0.6508444  3
   1110   1109   1112   1113     1  0.0000000  0.6508444  3
   1110   1109   1112   1114     1  0.0000000  0.6508444  3
   1111   1109   1112   1121     1  0.0000000  0.6508444  3
   1111   1109   1112   1113     1  0.0000000  0.6508444  3
   1111   1109   1112   1114     1  0.0000000  0.6508444  3
   1113   1112   1121   1130     1  0.0000000  1.0460000  1
   1113   1112   1121   1130     1  0.0000000  0.0000000  3
   1113   1112   1121   1122     1  0.0000000  0.6508444  3
   1113   1112   1121   1123     1  0.0000000  0.6508444  3
   1114   1112   1121   1130     1  0.0000000  1.0460000  1
   1114   1112   1121   1130     1  0.0000000  0.0000000  3
   1114   1112   1121   1122     1  0.0000000  0.6508444  3
   1114   1112   1121   1123     1  0.0000000  0.6508444  3
   1116   1115   1127   2319     1  0.0000000  1.0460000  1
   1116   1115   1127   2319     1  0.0000000  0.0000000  3
   1116   1115   1127   1128     1  0.0000000  0.6508444  3
   1116   1115   1127   1129     1  0.0000000  0.6508444  3
   1117   1115   1127   2319     1  0.0000000  1.0460000  1
   1117   1115   1127   2319     1  0.0000000  0.0000000  3
   1117   1115   1127   1128     1  0.0000000  0.6508444  3
   1117   1115   1127   1129     1  0.0000000  0.6508444  3
   1119   1118   1124   2290     1  0.0000000  1.0460000  1
   1119   1118   1124   2290     1  0.0000000  0.0000000  3
   1119   1118   1124   1125     1  0.0000000  0.6508444  3
   1119   1118   1124   1126     1  0.0000000  0.6508444  3
   1120   1118   1124   2290     1  0.0000000  1.0460000  1
   1120   1118   1124   2290     1  0.0000000  0.0000000  3
   1120   1118   1124   1125     1  0.0000000  0.6508444  3
   1120   1118   1124   1126     1  0.0000000  0.6508444  3
   1124   2290   2281   2282     1  0.0000000  1.6038667  3
   1124   2290   2281   2283     1  0.0000000  1.6038667  3
   1125   1124   2290   2281     1  0.0000000  1.6038667  3
   1126   1124   2290   2281     1  0.0000000  1.6038667  3
   1127   2319   2310   2311     1  0.0000000  1.6038667  3
   1127   2319   2310   2312     1  0.0000000  1.6038667  3
   1128   1127   2319   2310     1  0.0000000  1.6038667  3
   1129   1127   2319   2310     1  0.0000000  1.6038667  3
   1131   1132   1144   1145     1  0.0000000  0.6508444  3
   1131   1132   1144   1146     1  0.0000000  0.6508444  3
   1131   1135   1147   1148     1  0.0000000  0.6508444  3
   1131   1135   1147   1149     1  0.0000000  0.6508444  3
   1131   1138   1141   1142     1  0.0000000  0.6508444  3
   1131   1138   1141   1143     1  0.0000000  0.6508444  3
   1132   1131   1135   1136     1  0.0000000  1.2552000  3
   1132   1131   1135   1137     1  0.0000000  1.2552000  3
   1132   1131   1138   1139     1  0.0000000  1.2552000  3
   1132   1131   1138   1140     1  0.0000000  1.2552000  3
   1132   1144   1156   1157     1  0.0000000  0.6508444  3
   1132   1144   1156   1158     1  0.0000000  0.6508444  3
   1133   1132   1131   1135     1  0.0000000  1.2552000  3
   1133   1132   1131   1138     1  0.0000000  1.2552000  3
   1133   1132   1144   1156     1  0.0000000  0.6508444  3
   1133   1132   1144   1145     1  0.0000000  0.6508444  3
   1133   1132   1144   1146     1  0.0000000  0.6508444  3
   1134   1132   1131   1135     1  0.0000000  1.2552000  3
   1134   1132   1131   1138     1  0.0000000  1.2552000  3
   1134   1132   1144   1156     1  0.0000000  0.6508444  3
   1134   1132   1144   1145     1  0.0000000  0.6508444  3
   1134   1132   1144   1146     1  0.0000000  0.6508444  3
   1135   1131   1138   1139     1  0.0000000  1.2552000  3
   1135   1131   1138   1140     1  0.0000000  1.2552000  3
   1135   1147   1153   1154     1  0.0000000  0.6508444  3
   1135   1147   1153   1155     1  0.0000000  0.6508444  3
   1136   1135   1131   1138     1  0.0000000  1.2552000  3
   1136   1135   1147   1153     1  0.0000000  0.6508444  3
   1136   1135   1147   1148     1  0.0000000  0.6508444  3
   1136   1135   1147   1149     1  0.0000000  0.6508444  3
   1137   1135   1131   1138     1  0.0000000  1.2552000  3
   1137   1135   1147   1153     1  0.0000000  0.6508444  3
   1137   1135   1147   1148     1  0.0000000  0.6508444  3
   1137   1135   1147   1149     1  0.0000000  0.6508444  3
   1138   1141   1150   1151     1  0.0000000  0.6508444  3
   1138   1141   1150   1152     1  0.0000000  0.6508444  3
   1139   1138   1141   1150     1  0.0000000  0.6508444  3
   1139   1138   1141   1142     1  0.0000000  0.6508444  3
   1139   1138   1141   1143     1  0.0000000  0.6508444  3
   1140   1138   1141   1150     1  0.0000000  0.6508444  3
   1140   1138   1141   1142     1  0.0000000  0.6508444  3
   1140   1138   1141   1143     1  0.0000000  0.6508444  3
   1142   1141   1150   1159     1  0.0000000  1.0460000  1
   1142   1141   1150   1159     1  0.0000000  0.0000000  3
   1142   1141   1150   1151     1  0.0000000  0.6508444  3
   1142   1141   1150   1152     1  0.0000000  0.6508444  3
   1143   1141   1150   1159     1  0.0000000  1.0460000  1
   1143   1141   1150   1159     1  0.0000000  0.0000000  3
   1143   1141   1150   1151     1  0.0000000  0.6508444  3
   1143   1141   1150   1152     1  0.0000000  0.6508444  3
   1145   1144   1156   2377     1  0.0000000  1.0460000  1
   1145   1144   1156   2377     1  0.0000000  0.0000000  3
   1145   1144   1156   1157     1  0.0000000  0.6508444  3
   1145   1144   1156   1158     1  0.0000000  0.6508444  3
   1146   1144   1156   2377     1  0.0000000  1.0460000  1
   1146   1144   1156   2377     1  0.0000000  0.0000000  3
   1146   1144   1156   1157     1  0.0000000  0.6508444  3
   1146   1144   1156   1158     1  0.0000000  0.6508444  3
   1148   1147   1153   2348     1  0.0000000  1.0460000  1
   1148   1147   1153   2348     1  0.0000000  0.0000000  3
   1148   1147   1153   1154     1  0.0000000  0.6508444  3
   1148   1147   1153   1155     1  0.0000000  0.6508444  3
   1149   1147   1153   2348     1  0.0000000  1.0460000  1
   1149   1147   1153   2348     1  0.0000000  0.0000000  3
   1149   1147   1153   1154     1  0.0000000  0.6508444  3
   1149   1147   1153   1155     1  0.0000000  0.6508444  3
   1153   2348   2339   2340     1  0.0000000  1.6038667  3
   1153   2348   2339   2341     1  0.0000000  1.6038667  3
   1154   1153   2348   2339     1  0.0000000  1.6038667  3
   1155   1153   2348   2339     1  0.0000000  1.6038667  3
   1156   2377   2368   2369     1  0.0000000  1.6038667  3
   1156   2377   2368   2370     1  0.0000000  1.6038667  3
   1157   1156   2377   2368     1  0.0000000  1.6038667  3
   1158   1156   2377   2368     1  0.0000000  1.6038667  3
   1160   1161   1173   1174     1  0.0000000  0.6508444  3
   1160   1161   1173   1175     1  0.0000000  0.6508444  3
   1160   1164   1176   1177     1  0.0000000  0.6508444  3
   1160   1164   1176   1178     1  0.0000000  0.6508444  3
   1160   1167   1170   1171     1  0.0000000  0.6508444  3
   1160   1167   1170   1172     1  0.0000000  0.6508444  3
   1161   1160   1164   1165     1  0.0000000  1.2552000  3
   1161   1160   1164   1166     1  0.0000000  1.2552000  3
   1161   1160   1167   1168     1  0.0000000  1.2552000  3
   1161   1160   1167   1169     1  0.0000000  1.2552000  3
   1161   1173   1185   1186     1  0.0000000  0.6508444  3
   1161   1173   1185   1187     1  0.0000000  0.6508444  3
   1162   1161   1160   1164     1  0.0000000  1.2552000  3
   1162   1161   1160   1167     1  0.0000000  1.2552000  3
   1162   1161   1173   1185     1  0.0000000  0.6508444  3
   1162   1161   1173   1174     1  0.0000000  0.6508444  3
   1162   1161   1173   1175     1  0.0000000  0.6508444  3
   1163   1161   1160   1164     1  0.0000000  1.2552000  3
   1163   1161   1160   1167     1  0.0000000  1.2552000  3
   1163   1161   1173   1185     1  0.0000000  0.6508444  3
   1163   1161   1173   1174     1  0.0000000  0.6508444  3
   1163   1161   1173   1175     1  0.0000000  0.6508444  3
   1164   1160   1167   1168     1  0.0000000  1.2552000  3
   1164   1160   1167   1169     1  0.0000000  1.2552000  3
   1164   1176   1182   1183     1  0.0000000  0.6508444  3
   1164   1176   1182   1184     1  0.0000000  0.6508444  3
   1165   1164   1160   1167     1  0.0000000  1.2552000  3
   1165   1164   1176   1182     1  0.0000000  0.6508444  3
   1165   1164   1176   1177     1  0.0000000  0.6508444  3
   1165   1164   1176   1178     1  0.0000000  0.6508444  3
   1166   1164   1160   1167     1  0.0000000  1.2552000  3
   1166   1164   1176   1182     1  0.0000000  0.6508444  3
   1166   1164   1176   1177     1  0.0000000  0.6508444  3
   1166   1164   1176   1178     1  0.0000000  0.6508444  3
   1167   1170   1179   1180     1  0.0000000  0.6508444  3
   1167   1170   1179   1181     1  0.0000000  0.6508444  3
   1168   1167   1170   1179     1  0.0000000  0.6508444  3
   1168   1167   1170   1171     1  0.0000000  0.6508444  3
   1168   1167   1170   1172     1  0.0000000  0.6508444  3
   1169   1167   1170   1179     1  0.0000000  0.6508444  3
   1169   1167   1170   1171     1  0.0000000  0.6508444  3
   1169   1167   1170   1172     1  0.0000000  0.6508444  3
   1171   1170   1179   1188     1  0.0000000  1.0460000  1
   1171   1170   1179   1188     1  0.0000000  0.0000000  3
   1171   1170   1179   1180     1  0.0000000  0.6508444  3
   1171   1170   1179   1181     1  0.0000000  0.6508444  3
   1172   1170   1179   1188     1  0.0000000  1.0460000  1
   1172   1170   1179   1188     1  0.0000000  0.0000000  3
   1172   1170   1179   1180     1  0.0000000  0.6508444  3
   1172   1170   1179   1181     1  0.0000000  0.6508444  3
   1174   1173   1185   2435     1  0.0000000  1.0460000  1
   1174   1173   1185   2435     1  0.0000000  0.0000000  3
   1174   1173   1185   1186     1  0.0000000  0.6508444  3
   1174   1173   1185   1187     1  0.0000000  0.6508444  3
   1175   1173   1185   2435     1  0.0000000  1.0460000  1
   1175   1173   1185   2435     1  0.0000000  0.0000000  3
   1175   1173   1185   1186     1  0.0000000  0.6508444  3
   1175   1173   1185   1187     1  0.0000000  0.6508444  3
   1177   1176   1182   2406     1  0.0000000  1.0460000  1
   1177   1176   1182   2406     1  0.0000000  0.0000000  3
   1177   1176   1182   1183     1  0.0000000  0.6508444  3
   1177   1176   1182   1184     1  0.0000000  0.6508444  3
   1178   1176   1182   2406     1  0.0000000  1.0460000  1
   1178   1176   1182   2406     1  0.0000000  0.0000000  3
   1178   1176   1182   1183     1  0.0000000  0.6508444  3
   1178   1176   1182   1184     1  0.0000000  0.6508444  3
   1182   2406   2397   2398     1  0.0000000  1.6038667  3
   1182   2406   2397   2399     1  0.0000000  1.6038667  3
   1183   1182   2406   2397     1  0.0000000  1.6038667  3
   1184   1182   2406   2397     1  0.0000000  1.6038667  3
   1185   2435   2426   2427     1  0.0000000  1.6038667  3
   1185   2435   2426   2428     1  0.0000000  1.6038667  3
   1186   1185   2435   2426     1  0.0000000  1.6038667  3
   1187   1185   2435   2426     1  0.0000000  1.6038667  3
   1189   1190   1202   1203     1  0.0000000  0.6508444  3
   1189   1190   1202   1204     1  0.0000000  0.6508444  3
   1189   1193   1205   1206     1  0.0000000  0.6508444  3
   1189   1193   1205   1207     1  0.0000000  0.6508444  3
   1189   1196   1199   1200     1  0.0000000  0.6508444  3
   1189   1196   1199   1201     1  0.0000000  0.6508444  3
   1190   1189   1193   1194     1  0.0000000  1.2552000  3
   1190   1189   1193   1195     1  0.0000000  1.2552000  3
   1190   1189   1196   1197     1  0.0000000  1.2552000  3
   1190   1189   1196   1198     1  0.0000000  1.2552000  3
   1190   1202   1214   1215     1  0.0000000  0.6508444  3
   1190   1202   1214   1216     1  0.0000000  0.6508444  3
   1191   1190   1189   1193     1  0.0000000  1.2552000  3
   1191   1190   1189   1196     1  0.0000000  1.2552000  3
   1191   1190   1202   1214     1  0.0000000  0.6508444  3
   1191   1190   1202   1203     1  0.0000000  0.6508444  3
   1191   1190   1202   1204     1  0.0000000  0.6508444  3
   1192   1190   1189   1193     1  0.0000000  1.2552000  3
   1192   1190   1189   1196     1  0.0000000  1.2552000  3
   1192   1190   1202   1214     1  0.0000000  0.6508444  3
   1192   1190   1202   1203     1  0.0000000  0.6508444  3
   1192   1190   1202   1204     1  0.0000000  0.6508444  3
   1193   1189   1196   1197     1  0.0000000  1.2552000  3
   1193   1189   1196   1198     1  0.0000000  1.2552000  3
   1193   1205   1211   1212     1  0.0000000  0.6508444  3
   1193   1205   1211   1213     1  0.0000000  0.6508444  3
   1194   1193   1189   1196     1  0.0000000  1.2552000  3
   1194   1193   1205   1211     1  0.0000000  0.6508444  3
   1194   1193   1205   1206     1  0.0000000  0.6508444  3
   1194   1193   1205   1207     1  0.0000000  0.6508444  3
   1195   1193   1189   1196     1  0.0000000  1.2552000  3
   1195   1193   1205   1211     1  0.0000000  0.6508444  3
   1195   1193   1205   1206     1  0.0000000  0.6508444  3
   1195   1193   1205   1207     1  0.0000000  0.6508444  3
   1196   1199   1208   1209     1  0.0000000  0.6508444  3
   1196   1199   1208   1210     1  0.0000000  0.6508444  3
   1197   1196   1199   1208     1  0.0000000  0.6508444  3
   1197   1196   1199   1200     1  0.0000000  0.6508444  3
   1197   1196   1199   1201     1  0.0000000  0.6508444  3
   1198   1196   1199   1208     1  0.0000000  0.6508444  3
   1198   1196   1199   1200     1  0.0000000  0.6508444  3
   1198   1196   1199   1201     1  0.0000000  0.6508444  3
   1200   1199   1208   1217     1  0.0000000  1.0460000  1
   1200   1199   1208   1217     1  0.0000000  0.0000000  3
   1200   1199   1208   1209     1  0.0000000  0.6508444  3
   1200   1199   1208   1210     1  0.0000000  0.6508444  3
   1201   1199   1208   1217     1  0.0000000  1.0460000  1
   1201   1199   1208   1217     1  0.0000000  0.0000000  3
   1201   1199   1208   1209     1  0.0000000  0.6508444  3
   1201   1199   1208   1210     1  0.0000000  0.6508444  3
   1203   1202   1214   2493     1  0.0000000  1.0460000  1
   1203   1202   1214   2493     1  0.0000000  0.0000000  3
   1203   1202   1214   1215     1  0.0000000  0.6508444  3
   1203   1202   1214   1216     1  0.0000000  0.6508444  3
   1204   1202   1214   2493     1  0.0000000  1.0460000  1
   1204   1202   1214   2493     1  0.0000000  0.0000000  3
   1204   1202   1214   1215     1  0.0000000  0.6508444  3
   1204   1202   1214   1216     1  0.0000000  0.6508444  3
   1206   1205   1211   2464     1  0.0000000  1.0460000  1
   1206   1205   1211   2464     1  0.0000000  0.0000000  3
   1206   1205   1211   1212     1  0.0000000  0.6508444  3
   1206   1205   1211   1213     1  0.0000000  0.6508444  3
   1207   1205   1211   2464     1  0.0000000  1.0460000  1
   1207   1205   1211   2464     1  0.0000000  0.0000000  3
   1207   1205   1211   1212     1  0.0000000  0.6508444  3
   1207   1205   1211   1213     1  0.0000000  0.6508444  3
   1211   2464   2455   2456     1  0.0000000  1.6038667  3
   1211   2464   2455   2457     1  0.0000000  1.6038667  3
   1212   1211   2464   2455     1  0.0000000  1.6038667  3
   1213   1211   2464   2455     1  0.0000000  1.6038667  3
   1214   2493   2484   2485     1  0.0000000  1.6038667  3
   1214   2493   2484   2486     1  0.0000000  1.6038667  3
   1215   1214   2493   2484     1  0.0000000  1.6038667  3
   1216   1214   2493   2484     1  0.0000000  1.6038667  3
   1218   1219   1231   1232     1  0.0000000  0.6508444  3
   1218   1219   1231   1233     1  0.0000000  0.6508444  3
   1218   1222   1234   1235     1  0.0000000  0.6508444  3
   1218   1222   1234   1236     1  0.0000000  0.6508444  3
   1218   1225   1228   1229     1  0.0000000  0.6508444  3
   1218   1225   1228   1230     1  0.0000000  0.6508444  3
   1219   1218   1222   1223     1  0.0000000  1.2552000  3
   1219   1218   1222   1224     1  0.0000000  1.2552000  3
   1219   1218   1225   1226     1  0.0000000  1.2552000  3
   1219   1218   1225   1227     1  0.0000000  1.2552000  3
   1219   1231   1243   1244     1  0.0000000  0.6508444  3
   1219   1231   1243   1245     1  0.0000000  0.6508444  3
   1220   1219   1218   1222     1  0.0000000  1.2552000  3
   1220   1219   1218   1225     1  0.0000000  1.2552000  3
   1220   1219   1231   1243     1  0.0000000  0.6508444  3
   1220   1219   1231   1232     1  0.0000000  0.6508444  3
   1220   1219   1231   1233     1  0.0000000  0.6508444  3
   1221   1219   1218   1222     1  0.0000000  1.2552000  3
   1221   1219   1218   1225     1  0.0000000  1.2552000  3
   1221   1219   1231   1243     1  0.0000000  0.6508444  3
   1221   1219   1231   1232     1  0.0000000  0.6508444  3
   1221   1219   1231   1233     1  0.0000000  0.6508444  3
   1222   1218   1225   1226     1  0.0000000  1.2552000  3
   1222   1218   1225   1227     1  0.0000000  1.2552000  3
   1222   1234   1240   1241     1  0.0000000  0.6508444  3
   1222   1234   1240   1242     1  0.0000000  0.6508444  3
   1223   1222   1218   1225     1  0.0000000  1.2552000  3
   1223   1222   1234   1240     1  0.0000000  0.6508444  3
   1223   1222   1234   1235     1  0.0000000  0.6508444  3
   1223   1222   1234   1236     1  0.0000000  0.6508444  3
   1224   1222   1218   1225     1  0.0000000  1.2552000  3
   1224   1222   1234   1240     1  0.0000000  0.6508444  3
   1224   1222   1234   1235     1  0.0000000  0.6508444  3
   1224   1222   1234   1236     1  0.0000000  0.6508444  3
   1225   1228   1237   1238     1  0.0000000  0.6508444  3
   1225   1228   1237   1239     1  0.0000000  0.6508444  3
   1226   1225   1228   1237     1  0.0000000  0.6508444  3
   1226   1225   1228   1229     1  0.0000000  0.6508444  3
   1226   1225   1228   1230     1  0.0000000  0.6508444  3
   1227   1225   1228   1237     1  0.0000000  0.6508444  3
   1227   1225   1228   1229     1  0.0000000  0.6508444  3
   1227   1225   1228   1230     1  0.0000000  0.6508444  3
   1229   1228   1237   1246     1  0.0000000  1.0460000  1
   1229   1228   1237   1246     1  0.0000000  0.0000000  3
   1229   1228   1237   1238     1  0.0000000  0.6508444  3
   1229   1228   1237   1239     1  0.0000000  0.6508444  3
   1230   1228   1237   1246     1  0.0000000  1.0460000  1
   1230   1228   1237   1246     1  0.0000000  0.0000000  3
   1230   1228   1237   1238     1  0.0000000  0.6508444  3
   1230   1228   1237   1239     1  0.0000000  0.6508444  3
   1232   1231   1243   2551     1  0.0000000  1.0460000  1
   1232   1231   1243   2551     1  0.0000000  0.0000000  3
   1232   1231   1243   1244     1  0.0000000  0.6508444  3
   1232   1231   1243   1245     1  0.0000000  0.6508444  3
   1233   1231   1243   2551     1  0.0000000  1.0460000  1
   1233   1231   1243   2551     1  0.0000000  0.0000000  3
   1233   1231   1243   1244     1  0.0000000  0.6508444  3
   1233   1231   1243   1245     1  0.0000000  0.6508444  3
   1235   1234   1240   2522     1  0.0000000  1.0460000  1
   1235   1234   1240   2522     1  0.0000000  0.0000000  3
   1235   1234   1240   1241     1  0.0000000  0.6508444  3
   1235   1234   1240   1242     1  0.0000000  0.6508444  3
   1236   1234   1240   2522     1  0.0000000  1.0460000  1
   1236   1234   1240   2522     1  0.0000000  0.0000000  3
   1236   1234   1240   1241     1  0.0000000  0.6508444  3
   1236   1234   1240   1242     1  0.0000000  0.6508444  3
   1240   2522   2513   2514     1  0.0000000  1.6038667  3
   1240   2522   2513   2515     1  0.0000000  1.6038667  3
   1241   1240   2522   2513     1  0.0000000  1.6038667  3
   1242   1240   2522   2513     1  0.0000000  1.6038667  3
   1243   2551   2542   2543     1  0.0000000  1.6038667  3
   1243   2551   2542   2544     1  0.0000000  1.6038667  3
   1244   1243   2551   2542     1  0.0000000  1.6038667  3
   1245   1243   2551   2542     1  0.0000000  1.6038667  3
   1247   1248   1260   1261     1  0.0000000  0.6508444  3
   1247   1248   1260   1262     1  0.0000000  0.6508444  3
   1247   1251   1263   1264     1  0.0000000  0.6508444  3
   1247   1251   1263   1265     1  0.0000000  0.6508444  3
   1247   1254   1257   1258     1  0.0000000  0.6508444  3
   1247   1254   1257   1259     1  0.0000000  0.6508444  3
   1248   1247   1251   1252     1  0.0000000  1.2552000  3
   1248   1247   1251   1253     1  0.0000000  1.2552000  3
   1248   1247   1254   1255     1  0.0000000  1.2552000  3
   1248   1247   1254   1256     1  0.0000000  1.2552000  3
   1248   1260   1272   1273     1  0.0000000  0.6508444  3
   1248   1260   1272   1274     1  0.0000000  0.6508444  3
   1249   1248   1247   1251     1  0.0000000  1.2552000  3
   1249   1248   1247   1254     1  0.0000000  1.2552000  3
   1249   1248   1260   1272     1  0.0000000  0.6508444  3
   1249   1248   1260   1261     1  0.0000000  0.6508444  3
   1249   1248   1260   1262     1  0.0000000  0.6508444  3
   1250   1248   1247   1251     1  0.0000000  1.2552000  3
   1250   1248   1247   1254     1  0.0000000  1.2552000  3
   1250   1248   1260   1272     1  0.0000000  0.6508444  3
   1250   1248   1260   1261     1  0.0000000  0.6508444  3
   1250   1248   1260   1262     1  0.0000000  0.6508444  3
   1251   1247   1254   1255     1  0.0000000  1.2552000  3
   1251   1247   1254   1256     1  0.0000000  1.2552000  3
   1251   1263   1269   1270     1  0.0000000  0.6508444  3
   1251   1263   1269   1271     1  0.0000000  0.6508444  3
   1252   1251   1247   1254     1  0.0000000  1.2552000  3
   1252   1251   1263   1269     1  0.0000000  0.6508444  3
   1252   1251   1263   1264     1  0.0000000  0.6508444  3
   1252   1251   1263   1265     1  0.0000000  0.6508444  3
   1253   1251   1247   1254     1  0.0000000  1.2552000  3
   1253   1251   1263   1269     1  0.0000000  0.6508444  3
   1253   1251   1263   1264     1  0.0000000  0.6508444  3
   1253   1251   1263   1265     1  0.0000000  0.6508444  3
   1254   1257   1266   1267     1  0.0000000  0.6508444  3
   1254   1257   1266   1268     1  0.0000000  0.6508444  3
   1255   1254   1257   1266     1  0.0000000  0.6508444  3
   1255   1254   1257   1258     1  0.0000000  0.6508444  3
   1255   1254   1257   1259     1  0.0000000  0.6508444  3
   1256   1254   1257   1266     1  0.0000000  0.6508444  3
   1256   1254   1257   1258     1  0.0000000  0.6508444  3
   1256   1254   1257   1259     1  0.0000000  0.6508444  3
   1258   1257   1266   1275     1  0.0000000  1.0460000  1
   1258   1257   1266   1275     1  0.0000000  0.0000000  3
   1258   1257   1266   1267     1  0.0000000  0.6508444  3
   1258   1257   1266   1268     1  0.0000000  0.6508444  3
   1259   1257   1266   1275     1  0.0000000  1.0460000  1
   1259   1257   1266   1275     1  0.0000000  0.0000000  3
   1259   1257   1266   1267     1  0.0000000  0.6508444  3
   1259   1257   1266   1268     1  0.0000000  0.6508444  3
   1261   1260   1272   2609     1  0.0000000  1.0460000  1
   1261   1260   1272   2609     1  0.0000000  0.0000000  3
   1261   1260   1272   1273     1  0.0000000  0.6508444  3
   1261   1260   1272   1274     1  0.0000000  0.6508444  3
   1262   1260   1272   2609     1  0.0000000  1.0460000  1
   1262   1260   1272   2609     1  0.0000000  0.0000000  3
   1262   1260   1272   1273     1  0.0000000  0.6508444  3
   1262   1260   1272   1274     1  0.0000000  0.6508444  3
   1264   1263   1269   2580     1  0.0000000  1.0460000  1
   1264   1263   1269   2580     1  0.0000000  0.0000000  3
   1264   1263   1269   1270     1  0.0000000  0.6508444  3
   1264   1263   1269   1271     1  0.0000000  0.6508444  3
   1265   1263   1269   2580     1  0.0000000  1.0460000  1
   1265   1263   1269   2580     1  0.0000000  0.0000000  3
   1265   1263   1269   1270     1  0.0000000  0.6508444  3
   1265   1263   1269   1271     1  0.0000000  0.6508444  3
   1269   2580   2571   2572     1  0.0000000  1.6038667  3
   1269   2580   2571   2573     1  0.0000000  1.6038667  3
   1270   1269   2580   2571     1  0.0000000  1.6038667  3
   1271   1269   2580   2571     1  0.0000000  1.6038667  3
   1272   2609   2600   2601     1  0.0000000  1.6038667  3
   1272   2609   2600   2602     1  0.0000000  1.6038667  3
   1273   1272   2609   2600     1  0.0000000  1.6038667  3
   1274   1272   2609   2600     1  0.0000000  1.6038667  3
   1276   1277   1289   1290     1  0.0000000  0.6508444  3
   1276   1277   1289   1291     1  0.0000000  0.6508444  3
   1276   1280   1292   1293     1  0.0000000  0.6508444  3
   1276   1280   1292   1294     1  0.0000000  0.6508444  3
   1276   1283   1286   1287     1  0.0000000  0.6508444  3
   1276   1283   1286   1288     1  0.0000000  0.6508444  3
   1277   1276   1280   1281     1  0.0000000  1.2552000  3
   1277   1276   1280   1282     1  0.0000000  1.2552000  3
   1277   1276   1283   1284     1  0.0000000  1.2552000  3
   1277   1276   1283   1285     1  0.0000000  1.2552000  3
   1277   1289   1301   1302     1  0.0000000  0.6508444  3
   1277   1289   1301   1303     1  0.0000000  0.6508444  3
   1278   1277   1276   1280     1  0.0000000  1.2552000  3
   1278   1277   1276   1283     1  0.0000000  1.2552000  3
   1278   1277   1289   1301     1  0.0000000  0.6508444  3
   1278   1277   1289   1290     1  0.0000000  0.6508444  3
   1278   1277   1289   1291     1  0.0000000  0.6508444  3
   1279   1277   1276   1280     1  0.0000000  1.2552000  3
   1279   1277   1276   1283     1  0.0000000  1.2552000  3
   1279   1277   1289   1301     1  0.0000000  0.6508444  3
   1279   1277   1289   1290     1  0.0000000  0.6508444  3
   1279   1277   1289   1291     1  0.0000000  0.6508444  3
   1280   1276   1283   1284     1  0.0000000  1.2552000  3
   1280   1276   1283   1285     1  0.0000000  1.2552000  3
   1280   1292   1298   1299     1  0.0000000  0.6508444  3
   1280   1292   1298   1300     1  0.0000000  0.6508444  3
   1281   1280   1276   1283     1  0.0000000  1.2552000  3
   1281   1280   1292   1298     1  0.0000000  0.6508444  3
   1281   1280   1292   1293     1  0.0000000  0.6508444  3
   1281   1280   1292   1294     1  0.0000000  0.6508444  3
   1282   1280   1276   1283     1  0.0000000  1.2552000  3
   1282   1280   1292   1298     1  0.0000000  0.6508444  3
   1282   1280   1292   1293     1  0.0000000  0.6508444  3
   1282   1280   1292   1294     1  0.0000000  0.6508444  3
   1283   1286   1295   1296     1  0.0000000  0.6508444  3
   1283   1286   1295   1297     1  0.0000000  0.6508444  3
   1284   1283   1286   1295     1  0.0000000  0.6508444  3
   1284   1283   1286   1287     1  0.0000000  0.6508444  3
   1284   1283   1286   1288     1  0.0000000  0.6508444  3
   1285   1283   1286   1295     1  0.0000000  0.6508444  3
   1285   1283   1286   1287     1  0.0000000  0.6508444  3
   1285   1283   1286   1288     1  0.0000000  0.6508444  3
   1287   1286   1295   1304     1  0.0000000  1.0460000  1
   1287   1286   1295   1304     1  0.0000000  0.0000000  3
   1287   1286   1295   1296     1  0.0000000  0.6508444  3
   1287   1286   1295   1297     1  0.0000000  0.6508444  3
   1288   1286   1295   1304     1  0.0000000  1.0460000  1
   1288   1286   1295   1304     1  0.0000000  0.0000000  3
   1288   1286   1295   1296     1  0.0000000  0.6508444  3
   1288   1286   1295   1297     1  0.0000000  0.6508444  3
   1290   1289   1301   2667     1  0.0000000  1.0460000  1
   1290   1289   1301   2667     1  0.0000000  0.0000000  3
   1290   1289   1301   1302     1  0.0000000  0.6508444  3
   1290   1289   1301   1303     1  0.0000000  0.6508444  3
   1291   1289   1301   2667     1  0.0000000  1.0460000  1
   1291   1289   1301   2667     1  0.0000000  0.0000000  3
   1291   1289   1301   1302     1  0.0000000  0.6508444  3
   1291   1289   1301   1303     1  0.0000000  0.6508444  3
   1293   1292   1298   2638     1  0.0000000  1.0460000  1
   1293   1292   1298   2638     1  0.0000000  0.0000000  3
   1293   1292   1298   1299     1  0.0000000  0.6508444  3
   1293   1292   1298   1300     1  0.0000000  0.6508444  3
   1294   1292   1298   2638     1  0.0000000  1.0460000  1
   1294   1292   1298   2638     1  0.0000000  0.0000000  3
   1294   1292   1298   1299     1  0.0000000  0.6508444  3
   1294   1292   1298   1300     1  0.0000000  0.6508444  3
   1298   2638   2629   2630     1  0.0000000  1.6038667  3
   1298   2638   2629   2631     1  0.0000000  1.6038667  3
   1299   1298   2638   2629     1  0.0000000  1.6038667  3
   1300   1298   2638   2629     1  0.0000000  1.6038667  3
   1301   2667   2658   2659     1  0.0000000  1.6038667  3
   1301   2667   2658   2660     1  0.0000000  1.6038667  3
   1302   1301   2667   2658     1  0.0000000  1.6038667  3
   1303   1301   2667   2658     1  0.0000000  1.6038667  3
   1305   1306   1318   1319     1  0.0000000  0.6508444  3
   1305   1306   1318   1320     1  0.0000000  0.6508444  3
   1305   1309   1321   1322     1  0.0000000  0.6508444  3
   1305   1309   1321   1323     1  0.0000000  0.6508444  3
   1305   1312   1315   1316     1  0.0000000  0.6508444  3
   1305   1312   1315   1317     1  0.0000000  0.6508444  3
   1306   1305   1309   1310     1  0.0000000  1.2552000  3
   1306   1305   1309   1311     1  0.0000000  1.2552000  3
   1306   1305   1312   1313     1  0.0000000  1.2552000  3
   1306   1305   1312   1314     1  0.0000000  1.2552000  3
   1306   1318   1330   1331     1  0.0000000  0.6508444  3
   1306   1318   1330   1332     1  0.0000000  0.6508444  3
   1307   1306   1305   1309     1  0.0000000  1.2552000  3
   1307   1306   1305   1312     1  0.0000000  1.2552000  3
   1307   1306   1318   1330     1  0.0000000  0.6508444  3
   1307   1306   1318   1319     1  0.0000000  0.6508444  3
   1307   1306   1318   1320     1  0.0000000  0.6508444  3
   1308   1306   1305   1309     1  0.0000000  1.2552000  3
   1308   1306   1305   1312     1  0.0000000  1.2552000  3
   1308   1306   1318   1330     1  0.0000000  0.6508444  3
   1308   1306   1318   1319     1  0.0000000  0.6508444  3
   1308   1306   1318   1320     1  0.0000000  0.6508444  3
   1309   1305   1312   1313     1  0.0000000  1.2552000  3
   1309   1305   1312   1314     1  0.0000000  1.2552000  3
   1309   1321   1327   1328     1  0.0000000  0.6508444  3
   1309   1321   1327   1329     1  0.0000000  0.6508444  3
   1310   1309   1305   1312     1  0.0000000  1.2552000  3
   1310   1309   1321   1327     1  0.0000000  0.6508444  3
   1310   1309   1321   1322     1  0.0000000  0.6508444  3
   1310   1309   1321   1323     1  0.0000000  0.6508444  3
   1311   1309   1305   1312     1  0.0000000  1.2552000  3
   1311   1309   1321   1327     1  0.0000000  0.6508444  3
   1311   1309   1321   1322     1  0.0000000  0.6508444  3
   1311   1309   1321   1323     1  0.0000000  0.6508444  3
   1312   1315   1324   1325     1  0.0000000  0.6508444  3
   1312   1315   1324   1326     1  0.0000000  0.6508444  3
   1313   1312   1315   1324     1  0.0000000  0.6508444  3
   1313   1312   1315   1316     1  0.0000000  0.6508444  3
   1313   1312   1315   1317     1  0.0000000  0.6508444  3
   1314   1312   1315   1324     1  0.0000000  0.6508444  3
   1314   1312   1315   1316     1  0.0000000  0.6508444  3
   1314   1312   1315   1317     1  0.0000000  0.6508444  3
   1316   1315   1324   1333     1  0.0000000  1.0460000  1
   1316   1315   1324   1333     1  0.0000000  0.0000000  3
   1316   1315   1324   1325     1  0.0000000  0.6508444  3
   1316   1315   1324   1326     1  0.0000000  0.6508444  3
   1317   1315   1324   1333     1  0.0000000  1.0460000  1
   1317   1315   1324   1333     1  0.0000000  0.0000000  3
   1317   1315   1324   1325     1  0.0000000  0.6508444  3
   1317   1315   1324   1326     1  0.0000000  0.6508444  3
   1319   1318   1330   2725     1  0.0000000  1.0460000  1
   1319   1318   1330   2725     1  0.0000000  0.0000000  3
   1319   1318   1330   1331     1  0.0000000  0.6508444  3
   1319   1318   1330   1332     1  0.0000000  0.6508444  3
   1320   1318   1330   2725     1  0.0000000  1.0460000  1
   1320   1318   1330   2725     1  0.0000000  0.0000000  3
   1320   1318   1330   1331     1  0.0000000  0.6508444  3
   1320   1318   1330   1332     1  0.0000000  0.6508444  3
   1322   1321   1327   2696     1  0.0000000  1.0460000  1
   1322   1321   1327   2696     1  0.0000000  0.0000000  3
   1322   1321   1327   1328     1  0.0000000  0.6508444  3
   1322   1321   1327   1329     1  0.0000000  0.6508444  3
   1323   1321   1327   2696     1  0.0000000  1.0460000  1
   1323   1321   1327   2696     1  0.0000000  0.0000000  3
   1323   1321   1327   1328     1  0.0000000  0.6508444  3
   1323   1321   1327   1329     1  0.0000000  0.6508444  3
   1327   2696   2687   2688     1  0.0000000  1.6038667  3
   1327   2696   2687   2689     1  0.0000000  1.6038667  3
   1328   1327   2696   2687     1  0.0000000  1.6038667  3
   1329   1327   2696   2687     1  0.0000000  1.6038667  3
   1330   2725   2716   2717     1  0.0000000  1.6038667  3
   1330   2725   2716   2718     1  0.0000000  1.6038667  3
   1331   1330   2725   2716     1  0.0000000  1.6038667  3
   1332   1330   2725   2716     1  0.0000000  1.6038667  3
   1334   1335   1347   1348     1  0.0000000  0.6508444  3
   1334   1335   1347   1349     1  0.0000000  0.6508444  3
   1334   1338   1350   1351     1  0.0000000  0.6508444  3
   1334   1338   1350   1352     1  0.0000000  0.6508444  3
   1334   1341   1344   1345     1  0.0000000  0.6508444  3
   1334   1341   1344   1346     1  0.0000000  0.6508444  3
   1335   1334   1338   1339     1  0.0000000  1.2552000  3
   1335   1334   1338   1340     1  0.0000000  1.2552000  3
   1335   1334   1341   1342     1  0.0000000  1.2552000  3
   1335   1334   1341   1343     1  0.0000000  1.2552000  3
   1335   1347   1359   1360     1  0.0000000  0.6508444  3
   1335   1347   1359   1361     1  0.0000000  0.6508444  3
   1336   1335   1334   1338     1  0.0000000  1.2552000  3
   1336   1335   1334   1341     1  0.0000000  1.2552000  3
   1336   1335   1347   1359     1  0.0000000  0.6508444  3
   1336   1335   1347   1348     1  0.0000000  0.6508444  3
   1336   1335   1347   1349     1  0.0000000  0.6508444  3
   1337   1335   1334   1338     1  0.0000000  1.2552000  3
   1337   1335   1334   1341     1  0.0000000  1.2552000  3
   1337   1335   1347   1359     1  0.0000000  0.6508444  3
   1337   1335   1347   1348     1  0.0000000  0.6508444  3
   1337   1335   1347   1349     1  0.0000000  0.6508444  3
   1338   1334   1341   1342     1  0.0000000  1.2552000  3
   1338   1334   1341   1343     1  0.0000000  1.2552000  3
   1338   1350   1356   1357     1  0.0000000  0.6508444  3
   1338   1350   1356   1358     1  0.0000000  0.6508444  3
   1339   1338   1334   1341     1  0.0000000  1.2552000  3
   1339   1338   1350   1356     1  0.0000000  0.6508444  3
   1339   1338   1350   1351     1  0.0000000  0.6508444  3
   1339   1338   1350   1352     1  0.0000000  0.6508444  3
   1340   1338   1334   1341     1  0.0000000  1.2552000  3
   1340   1338   1350   1356     1  0.0000000  0.6508444  3
   1340   1338   1350   1351     1  0.0000000  0.6508444  3
   1340   1338   1350   1352     1  0.0000000  0.6508444  3
   1341   1344   1353   1354     1  0.0000000  0.6508444  3
   1341   1344   1353   1355     1  0.0000000  0.6508444  3
   1342   1341   1344   1353     1  0.0000000  0.6508444  3
   1342   1341   1344   1345     1  0.0000000  0.6508444  3
   1342   1341   1344   1346     1  0.0000000  0.6508444  3
   1343   1341   1344   1353     1  0.0000000  0.6508444  3
   1343   1341   1344   1345     1  0.0000000  0.6508444  3
   1343   1341   1344   1346     1  0.0000000  0.6508444  3
   1345   1344   1353   1362     1  0.0000000  1.0460000  1
   1345   1344   1353   1362     1  0.0000000  0.0000000  3
   1345   1344   1353   1354     1  0.0000000  0.6508444  3
   1345   1344   1353   1355     1  0.0000000  0.6508444  3
   1346   1344   1353   1362     1  0.0000000  1.0460000  1
   1346   1344   1353   1362     1  0.0000000  0.0000000  3
   1346   1344   1353   1354     1  0.0000000  0.6508444  3
   1346   1344   1353   1355     1  0.0000000  0.6508444  3
   1348   1347   1359   2783     1  0.0000000  1.0460000  1
   1348   1347   1359   2783     1  0.0000000  0.0000000  3
   1348   1347   1359   1360     1  0.0000000  0.6508444  3
   1348   1347   1359   1361     1  0.0000000  0.6508444  3
   1349   1347   1359   2783     1  0.0000000  1.0460000  1
   1349   1347   1359   2783     1  0.0000000  0.0000000  3
   1349   1347   1359   1360     1  0.0000000  0.6508444  3
   1349   1347   1359   1361     1  0.0000000  0.6508444  3
   1351   1350   1356   2754     1  0.0000000  1.0460000  1
   1351   1350   1356   2754     1  0.0000000  0.0000000  3
   1351   1350   1356   1357     1  0.0000000  0.6508444  3
   1351   1350   1356   1358     1  0.0000000  0.6508444  3
   1352   1350   1356   2754     1  0.0000000  1.0460000  1
   1352   1350   1356   2754     1  0.0000000  0.0000000  3
   1352   1350   1356   1357     1  0.0000000  0.6508444  3
   1352   1350   1356   1358     1  0.0000000  0.6508444  3
   1356   2754   2745   2746     1  0.0000000  1.6038667  3
   1356   2754   2745   2747     1  0.0000000  1.6038667  3
   1357   1356   2754   2745     1  0.0000000  1.6038667  3
   1358   1356   2754   2745     1  0.0000000  1.6038667  3
   1359   2783   2774   2775     1  0.0000000  1.6038667  3
   1359   2783   2774   2776     1  0.0000000  1.6038667  3
   1360   1359   2783   2774     1  0.0000000  1.6038667  3
   1361   1359   2783   2774     1  0.0000000  1.6038667  3
   1363   1364   1376   1377     1  0.0000000  0.6508444  3
   1363   1364   1376   1378     1  0.0000000  0.6508444  3
   1363   1367   1379   1380     1  0.0000000  0.6508444  3
   1363   1367   1379   1381     1  0.0000000  0.6508444  3
   1363   1370   1373   1374     1  0.0000000  0.6508444  3
   1363   1370   1373   1375     1  0.0000000  0.6508444  3
   1364   1363   1367   1368     1  0.0000000  1.2552000  3
   1364   1363   1367   1369     1  0.0000000  1.2552000  3
   1364   1363   1370   1371     1  0.0000000  1.2552000  3
   1364   1363   1370   1372     1  0.0000000  1.2552000  3
   1364   1376   1388   1389     1  0.0000000  0.6508444  3
   1364   1376   1388   1390     1  0.0000000  0.6508444  3
   1365   1364   1363   1367     1  0.0000000  1.2552000  3
   1365   1364   1363   1370     1  0.0000000  1.2552000  3
   1365   1364   1376   1388     1  0.0000000  0.6508444  3
   1365   1364   1376   1377     1  0.0000000  0.6508444  3
   1365   1364   1376   1378     1  0.0000000  0.6508444  3
   1366   1364   1363   1367     1  0.0000000  1.2552000  3
   1366   1364   1363   1370     1  0.0000000  1.2552000  3
   1366   1364   1376   1388     1  0.0000000  0.6508444  3
   1366   1364   1376   1377     1  0.0000000  0.6508444  3
   1366   1364   1376   1378     1  0.0000000  0.6508444  3
   1367   1363   1370   1371     1  0.0000000  1.2552000  3
   1367   1363   1370   1372     1  0.0000000  1.2552000  3
   1367   1379   1385   1386     1  0.0000000  0.6508444  3
   1367   1379   1385   1387     1  0.0000000  0.6508444  3
   1368   1367   1363   1370     1  0.0000000  1.2552000  3
   1368   1367   1379   1385     1  0.0000000  0.6508444  3
   1368   1367   1379   1380     1  0.0000000  0.6508444  3
   1368   1367   1379   1381     1  0.0000000  0.6508444  3
   1369   1367   1363   1370     1  0.0000000  1.2552000  3
   1369   1367   1379   1385     1  0.0000000  0.6508444  3
   1369   1367   1379   1380     1  0.0000000  0.6508444  3
   1369   1367   1379   1381     1  0.0000000  0.6508444  3
   1370   1373   1382   1383     1  0.0000000  0.6508444  3
   1370   1373   1382   1384     1  0.0000000  0.6508444  3
   1371   1370   1373   1382     1  0.0000000  0.6508444  3
   1371   1370   1373   1374     1  0.0000000  0.6508444  3
   1371   1370   1373   1375     1  0.0000000  0.6508444  3
   1372   1370   1373   1382     1  0.0000000  0.6508444  3
   1372   1370   1373   1374     1  0.0000000  0.6508444  3
   1372   1370   1373   1375     1  0.0000000  0.6508444  3
   1374   1373   1382   1391     1  0.0000000  1.0460000  1
   1374   1373   1382   1391     1  0.0000000  0.0000000  3
   1374   1373   1382   1383     1  0.0000000  0.6508444  3
   1374   1373   1382   1384     1  0.0000000  0.6508444  3
   1375   1373   1382   1391     1  0.0000000  1.0460000  1
   1375   1373   1382   1391     1  0.0000000  0.0000000  3
   1375   1373   1382   1383     1  0.0000000  0.6508444  3
   1375   1373   1382   1384     1  0.0000000  0.6508444  3
   1377   1376   1388   2841     1  0.0000000  1.0460000  1
   1377   1376   1388   2841     1  0.0000000  0.0000000  3
   1377   1376   1388   1389     1  0.0000000  0.6508444  3
   1377   1376   1388   1390     1  0.0000000  0.6508444  3
   1378   1376   1388   2841     1  0.0000000  1.0460000  1
   1378   1376   1388   2841     1  0.0000000  0.0000000  3
   1378   1376   1388   1389     1  0.0000000  0.6508444  3
   1378   1376   1388   1390     1  0.0000000  0.6508444  3
   1380   1379   1385   2812     1  0.0000000  1.0460000  1
   1380   1379   1385   2812     1  0.0000000  0.0000000  3
   1380   1379   1385   1386     1  0.0000000  0.6508444  3
   1380   1379   1385   1387     1  0.0000000  0.6508444  3
   1381   1379   1385   2812     1  0.0000000  1.0460000  1
   1381   1379   1385   2812     1  0.0000000  0.0000000  3
   1381   1379   1385   1386     1  0.0000000  0.6508444  3
   1381   1379   1385   1387     1  0.0000000  0.6508444  3
   1385   2812   2803   2804     1  0.0000000  1.6038667  3
   1385   2812   2803   2805     1  0.0000000  1.6038667  3
   1386   1385   2812   2803     1  0.0000000  1.6038667  3
   1387   1385   2812   2803     1  0.0000000  1.6038667  3
   1388   2841   2832   2833     1  0.0000000  1.6038667  3
   1388   2841   2832   2834     1  0.0000000  1.6038667  3
   1389   1388   2841   2832     1  0.0000000  1.6038667  3
   1390   1388   2841   2832     1  0.0000000  1.6038667  3
   1392   1393   1405   1406     1  0.0000000  0.6508444  3
   1392   1393   1405   1407     1  0.0000000  0.6508444  3
   1392   1396   1408   1409     1  0.0000000  0.6508444  3
   1392   1396   1408   1410     1  0.0000000  0.6508444  3
   1392   1399   1402   1403     1  0.0000000  0.6508444  3
   1392   1399   1402   1404     1  0.0000000  0.6508444  3
   1393   1392   1396   1397     1  0.0000000  1.2552000  3
   1393   1392   1396   1398     1  0.0000000  1.2552000  3
   1393   1392   1399   1400     1  0.0000000  1.2552000  3
   1393   1392   1399   1401     1  0.0000000  1.2552000  3
   1393   1405   1417   1418     1  0.0000000  0.6508444  3
   1393   1405   1417   1419     1  0.0000000  0.6508444  3
   1394   1393   1392   1396     1  0.0000000  1.2552000  3
   1394   1393   1392   1399     1  0.0000000  1.2552000  3
   1394   1393   1405   1417     1  0.0000000  0.6508444  3
   1394   1393   1405   1406     1  0.0000000  0.6508444  3
   1394   1393   1405   1407     1  0.0000000  0.6508444  3
   1395   1393   1392   1396     1  0.0000000  1.2552000  3
   1395   1393   1392   1399     1  0.0000000  1.2552000  3
   1395   1393   1405   1417     1  0.0000000  0.6508444  3
   1395   1393   1405   1406     1  0.0000000  0.6508444  3
   1395   1393   1405   1407     1  0.0000000  0.6508444  3
   1396   1392   1399   1400     1  0.0000000  1.2552000  3
   1396   1392   1399   1401     1  0.0000000  1.2552000  3
   1396   1408   1414   1415     1  0.0000000  0.6508444  3
   1396   1408   1414   1416     1  0.0000000  0.6508444  3
   1397   1396   1392   1399     1  0.0000000  1.2552000  3
   1397   1396   1408   1414     1  0.0000000  0.6508444  3
   1397   1396   1408   1409     1  0.0000000  0.6508444  3
   1397   1396   1408   1410     1  0.0000000  0.6508444  3
   1398   1396   1392   1399     1  0.0000000  1.2552000  3
   1398   1396   1408   1414     1  0.0000000  0.6508444  3
   1398   1396   1408   1409     1  0.0000000  0.6508444  3
   1398   1396   1408   1410     1  0.0000000  0.6508444  3
   1399   1402   1411   1412     1  0.0000000  0.6508444  3
   1399   1402   1411   1413     1  0.0000000  0.6508444  3
   1400   1399   1402   1411     1  0.0000000  0.6508444  3
   1400   1399   1402   1403     1  0.0000000  0.6508444  3
   1400   1399   1402   1404     1  0.0000000  0.6508444  3
   1401   1399   1402   1411     1  0.0000000  0.6508444  3
   1401   1399   1402   1403     1  0.0000000  0.6508444  3
   1401   1399   1402   1404     1  0.0000000  0.6508444  3
   1403   1402   1411   1420     1  0.0000000  1.0460000  1
   1403   1402   1411   1420     1  0.0000000  0.0000000  3
   1403   1402   1411   1412     1  0.0000000  0.6508444  3
   1403   1402   1411   1413     1  0.0000000  0.6508444  3
   1404   1402   1411   1420     1  0.0000000  1.0460000  1
   1404   1402   1411   1420     1  0.0000000  0.0000000  3
   1404   1402   1411   1412     1  0.0000000  0.6508444  3
   1404   1402   1411   1413     1  0.0000000  0.6508444  3
   1406   1405   1417   2899     1  0.0000000  1.0460000  1
   1406   1405   1417   2899     1  0.0000000  0.0000000  3
   1406   1405   1417   1418     1  0.0000000  0.6508444  3
   1406   1405   1417   1419     1  0.0000000  0.6508444  3
   1407   1405   1417   2899     1  0.0000000  1.0460000  1
   1407   1405   1417   2899     1  0.0000000  0.0000000  3
   1407   1405   1417   1418     1  0.0000000  0.6508444  3
   1407   1405   1417   1419     1  0.0000000  0.6508444  3
   1409   1408   1414   2870     1  0.0000000  1.0460000  1
   1409   1408   1414   2870     1  0.0000000  0.0000000  3
   1409   1408   1414   1415     1  0.0000000  0.6508444  3
   1409   1408   1414   1416     1  0.0000000  0.6508444  3
   1410   1408   1414   2870     1  0.0000000  1.0460000  1
   1410   1408   1414   2870     1  0.0000000  0.0000000  3
   1410   1408   1414   1415     1  0.0000000  0.6508444  3
   1410   1408   1414   1416     1  0.0000000  0.6508444  3
   1414   2870   2861   2862     1  0.0000000  1.6038667  3
   1414   2870   2861   2863     1  0.0000000  1.6038667  3
   1415   1414   2870   2861     1  0.0000000  1.6038667  3
   1416   1414   2870   2861     1  0.0000000  1.6038667  3
   1417   2899   2890   2891     1  0.0000000  1.6038667  3
   1417   2899   2890   2892     1  0.0000000  1.6038667  3
   1418   1417   2899   2890     1  0.0000000  1.6038667  3
   1419   1417   2899   2890     1  0.0000000  1.6038667  3
   1421   1422   1434   1435     1  0.0000000  0.6508444  3
   1421   1422   1434   1436     1  0.0000000  0.6508444  3
   1421   1425   1437   1438     1  0.0000000  0.6508444  3
   1421   1425   1437   1439     1  0.0000000  0.6508444  3
   1421   1428   1431   1432     1  0.0000000  0.6508444  3
   1421   1428   1431   1433     1  0.0000000  0.6508444  3
   1422   1421   1425   1426     1  0.0000000  1.2552000  3
   1422   1421   1425   1427     1  0.0000000  1.2552000  3
   1422   1421   1428   1429     1  0.0000000  1.2552000  3
   1422   1421   1428   1430     1  0.0000000  1.2552000  3
   1422   1434   1446   1447     1  0.0000000  0.6508444  3
   1422   1434   1446   1448     1  0.0000000  0.6508444  3
   1423   1422   1421   1425     1  0.0000000  1.2552000  3
   1423   1422   1421   1428     1  0.0000000  1.2552000  3
   1423   1422   1434   1446     1  0.0000000  0.6508444  3
   1423   1422   1434   1435     1  0.0000000  0.6508444  3
   1423   1422   1434   1436     1  0.0000000  0.6508444  3
   1424   1422   1421   1425     1  0.0000000  1.2552000  3
   1424   1422   1421   1428     1  0.0000000  1.2552000  3
   1424   1422   1434   1446     1  0.0000000  0.6508444  3
   1424   1422   1434   1435     1  0.0000000  0.6508444  3
   1424   1422   1434   1436     1  0.0000000  0.6508444  3
   1425   1421   1428   1429     1  0.0000000  1.2552000  3
   1425   1421   1428   1430     1  0.0000000  1.2552000  3
   1425   1437   1443   1444     1  0.0000000  0.6508444  3
   1425   1437   1443   1445     1  0.0000000  0.6508444  3
   1426   1425   1421   1428     1  0.0000000  1.2552000  3
   1426   1425   1437   1443     1  0.0000000  0.6508444  3
   1426   1425   1437   1438     1  0.0000000  0.6508444  3
   1426   1425   1437   1439     1  0.0000000  0.6508444  3
   1427   1425   1421   1428     1  0.0000000  1.2552000  3
   1427   1425   1437   1443     1  0.0000000  0.6508444  3
   1427   1425   1437   1438     1  0.0000000  0.6508444  3
   1427   1425   1437   1439     1  0.0000000  0.6508444  3
   1428   1431   1440   1441     1  0.0000000  0.6508444  3
   1428   1431   1440   1442     1  0.0000000  0.6508444  3
   1429   1428   1431   1440     1  0.0000000  0.6508444  3
   1429   1428   1431   1432     1  0.0000000  0.6508444  3
   1429   1428   1431   1433     1  0.0000000  0.6508444  3
   1430   1428   1431   1440     1  0.0000000  0.6508444  3
   1430   1428   1431   1432     1  0.0000000  0.6508444  3
   1430   1428   1431   1433     1  0.0000000  0.6508444  3
   1432   1431   1440   1449     1  0.0000000  1.0460000  1
   1432   1431   1440   1449     1  0.0000000  0.0000000  3
   1432   1431   1440   1441     1  0.0000000  0.6508444  3
   1432   1431   1440   1442     1  0.0000000  0.6508444  3
   1433   1431   1440   1449     1  0.0000000  1.0460000  1
   1433   1431   1440   1449     1  0.0000000  0.0000000  3
   1433   1431   1440   1441     1  0.0000000  0.6508444  3
   1433   1431   1440   1442     1  0.0000000  0.6508444  3
   1435   1434   1446   2957     1  0.0000000  1.0460000  1
   1435   1434   1446   2957     1  0.0000000  0.0000000  3
   1435   1434   1446   1447     1  0.0000000  0.6508444  3
   1435   1434   1446   1448     1  0.0000000  0.6508444  3
   1436   1434   1446   2957     1  0.0000000  1.0460000  1
   1436   1434   1446   2957     1  0.0000000  0.0000000  3
   1436   1434   1446   1447     1  0.0000000  0.6508444  3
   1436   1434   1446   1448     1  0.0000000  0.6508444  3
   1438   1437   1443   2928     1  0.0000000  1.0460000  1
   1438   1437   1443   2928     1  0.0000000  0.0000000  3
   1438   1437   1443   1444     1  0.0000000  0.6508444  3
   1438   1437   1443   1445     1  0.0000000  0.6508444  3
   1439   1437   1443   2928     1  0.0000000  1.0460000  1
   1439   1437   1443   2928     1  0.0000000  0.0000000  3
   1439   1437   1443   1444     1  0.0000000  0.6508444  3
   1439   1437   1443   1445     1  0.0000000  0.6508444  3
   1443   2928   2919   2920     1  0.0000000  1.6038667  3
   1443   2928   2919   2921     1  0.0000000  1.6038667  3
   1444   1443   2928   2919     1  0.0000000  1.6038667  3
   1445   1443   2928   2919     1  0.0000000  1.6038667  3
   1446   2957   2948   2949     1  0.0000000  1.6038667  3
   1446   2957   2948   2950     1  0.0000000  1.6038667  3
   1447   1446   2957   2948     1  0.0000000  1.6038667  3
   1448   1446   2957   2948     1  0.0000000  1.6038667  3
   1450   1451   1463   1464     1  0.0000000  0.6508444  3
   1450   1451   1463   1465     1  0.0000000  0.6508444  3
   1450   1454   1466   1467     1  0.0000000  0.6508444  3
   1450   1454   1466   1468     1  0.0000000  0.6508444  3
   1450   1457   1460   1461     1  0.0000000  0.6508444  3
   1450   1457   1460   1462     1  0.0000000  0.6508444  3
   1451   1450   1454   1455     1  0.0000000  1.2552000  3
   1451   1450   1454   1456     1  0.0000000  1.2552000  3
   1451   1450   1457   1458     1  0.0000000  1.2552000  3
   1451   1450   1457   1459     1  0.0000000  1.2552000  3
   1451   1463   1475   1476     1  0.0000000  0.6508444  3
   1451   1463   1475   1477     1  0.0000000  0.6508444  3
   1452   1451   1450   1454     1  0.0000000  1.2552000  3
   1452   1451   1450   1457     1  0.0000000  1.2552000  3
   1452   1451   1463   1475     1  0.0000000  0.6508444  3
   1452   1451   1463   1464     1  0.0000000  0.6508444  3
   1452   1451   1463   1465     1  0.0000000  0.6508444  3
   1453   1451   1450   1454     1  0.0000000  1.2552000  3
   1453   1451   1450   1457     1  0.0000000  1.2552000  3
   1453   1451   1463   1475     1  0.0000000  0.6508444  3
   1453   1451   1463   1464     1  0.0000000  0.6508444  3
   1453   1451   1463   1465     1  0.0000000  0.6508444  3
   1454   1450   1457   1458     1  0.0000000  1.2552000  3
   1454   1450   1457   1459     1  0.0000000  1.2552000  3
   1454   1466   1472   1473     1  0.0000000  0.6508444  3
   1454   1466   1472   1474     1  0.0000000  0.6508444  3
   1455   1454   1450   1457     1  0.0000000  1.2552000  3
   1455   1454   1466   1472     1  0.0000000  0.6508444  3
   1455   1454   1466   1467     1  0.0000000  0.6508444  3
   1455   1454   1466   1468     1  0.0000000  0.6508444  3
   1456   1454   1450   1457     1  0.0000000  1.2552000  3
   1456   1454   1466   1472     1  0.0000000  0.6508444  3
   1456   1454   1466   1467     1  0.0000000  0.6508444  3
   1456   1454   1466   1468     1  0.0000000  0.6508444  3
   1457   1460   1469   1470     1  0.0000000  0.6508444  3
   1457   1460   1469   1471     1  0.0000000  0.6508444  3
   1458   1457   1460   1469     1  0.0000000  0.6508444  3
   1458   1457   1460   1461     1  0.0000000  0.6508444  3
   1458   1457   1460   1462     1  0.0000000  0.6508444  3
   1459   1457   1460   1469     1  0.0000000  0.6508444  3
   1459   1457   1460   1461     1  0.0000000  0.6508444  3
   1459   1457   1460   1462     1  0.0000000  0.6508444  3
   1461   1460   1469   1478     1  0.0000000  1.0460000  1
   1461   1460   1469   1478     1  0.0000000  0.0000000  3
   1461   1460   1469   1470     1  0.0000000  0.6508444  3
   1461   1460   1469   1471     1  0.0000000  0.6508444  3
   1462   1460   1469   1478     1  0.0000000  1.0460000  1
   1462   1460   1469   1478     1  0.0000000  0.0000000  3
   1462   1460   1469   1470     1  0.0000000  0.6508444  3
   1462   1460   1469   1471     1  0.0000000  0.6508444  3
   1464   1463   1475   3015     1  0.0000000  1.0460000  1
   1464   1463   1475   3015     1  0.0000000  0.0000000  3
   1464   1463   1475   1476     1  0.0000000  0.6508444  3
   1464   1463   1475   1477     1  0.0000000  0.6508444  3
   1465   1463   1475   3015     1  0.0000000  1.0460000  1
   1465   1463   1475   3015     1  0.0000000  0.0000000  3
   1465   1463   1475   1476     1  0.0000000  0.6508444  3
   1465   1463   1475   1477     1  0.0000000  0.6508444  3
   1467   1466   1472   2986     1  0.0000000  1.0460000  1
   1467   1466   1472   2986     1  0.0000000  0.0000000  3
   1467   1466   1472   1473     1  0.0000000  0.6508444  3
   1467   1466   1472   1474     1  0.0000000  0.6508444  3
   1468   1466   1472   2986     1  0.0000000  1.0460000  1
   1468   1466   1472   2986     1  0.0000000  0.0000000  3
   1468   1466   1472   1473     1  0.0000000  0.6508444  3
   1468   1466   1472   1474     1  0.0000000  0.6508444  3
   1472   2986   2977   2978     1  0.0000000  1.6038667  3
   1472   2986   2977   2979     1  0.0000000  1.6038667  3
   1473   1472   2986   2977     1  0.0000000  1.6038667  3
   1474   1472   2986   2977     1  0.0000000  1.6038667  3
   1475   3015   3006   3007     1  0.0000000  1.6038667  3
   1475   3015   3006   3008     1  0.0000000  1.6038667  3
   1476   1475   3015   3006     1  0.0000000  1.6038667  3
   1477   1475   3015   3006     1  0.0000000  1.6038667  3
   1479   1480   1492   1493     1  0.0000000  0.6508444  3
   1479   1480   1492   1494     1  0.0000000  0.6508444  3
   1479   1483   1495   1496     1  0.0000000  0.6508444  3
   1479   1483   1495   1497     1  0.0000000  0.6508444  3
   1479   1486   1489   1490     1  0.0000000  0.6508444  3
   1479   1486   1489   1491     1  0.0000000  0.6508444  3
   1480   1479   1483   1484     1  0.0000000  1.2552000  3
   1480   1479   1483   1485     1  0.0000000  1.2552000  3
   1480   1479   1486   1487     1  0.0000000  1.2552000  3
   1480   1479   1486   1488     1  0.0000000  1.2552000  3
   1480   1492   1504   1505     1  0.0000000  0.6508444  3
   1480   1492   1504   1506     1  0.0000000  0.6508444  3
   1481   1480   1479   1483     1  0.0000000  1.2552000  3
   1481   1480   1479   1486     1  0.0000000  1.2552000  3
   1481   1480   1492   1504     1  0.0000000  0.6508444  3
   1481   1480   1492   1493     1  0.0000000  0.6508444  3
   1481   1480   1492   1494     1  0.0000000  0.6508444  3
   1482   1480   1479   1483     1  0.0000000  1.2552000  3
   1482   1480   1479   1486     1  0.0000000  1.2552000  3
   1482   1480   1492   1504     1  0.0000000  0.6508444  3
   1482   1480   1492   1493     1  0.0000000  0.6508444  3
   1482   1480   1492   1494     1  0.0000000  0.6508444  3
   1483   1479   1486   1487     1  0.0000000  1.2552000  3
   1483   1479   1486   1488     1  0.0000000  1.2552000  3
   1483   1495   1501   1502     1  0.0000000  0.6508444  3
   1483   1495   1501   1503     1  0.0000000  0.6508444  3
   1484   1483   1479   1486     1  0.0000000  1.2552000  3
   1484   1483   1495   1501     1  0.0000000  0.6508444  3
   1484   1483   1495   1496     1  0.0000000  0.6508444  3
   1484   1483   1495   1497     1  0.0000000  0.6508444  3
   1485   1483   1479   1486     1  0.0000000  1.2552000  3
   1485   1483   1495   1501     1  0.0000000  0.6508444  3
   1485   1483   1495   1496     1  0.0000000  0.6508444  3
   1485   1483   1495   1497     1  0.0000000  0.6508444  3
   1486   1489   1498   1499     1  0.0000000  0.6508444  3
   1486   1489   1498   1500     1  0.0000000  0.6508444  3
   1487   1486   1489   1498     1  0.0000000  0.6508444  3
   1487   1486   1489   1490     1  0.0000000  0.6508444  3
   1487   1486   1489   1491     1  0.0000000  0.6508444  3
   1488   1486   1489   1498     1  0.0000000  0.6508444  3
   1488   1486   1489   1490     1  0.0000000  0.6508444  3
   1488   1486   1489   1491     1  0.0000000  0.6508444  3
   1490   1489   1498   1507     1  0.0000000  1.0460000  1
   1490   1489   1498   1507     1  0.0000000  0.0000000  3
   1490   1489   1498   1499     1  0.0000000  0.6508444  3
   1490   1489   1498   1500     1  0.0000000  0.6508444  3
   1491   1489   1498   1507     1  0.0000000  1.0460000  1
   1491   1489   1498   1507     1  0.0000000  0.0000000  3
   1491   1489   1498   1499     1  0.0000000  0.6508444  3
   1491   1489   1498   1500     1  0.0000000  0.6508444  3
   1493   1492   1504   3073     1  0.0000000  1.0460000  1
   1493   1492   1504   3073     1  0.0000000  0.0000000  3
   1493   1492   1504   1505     1  0.0000000  0.6508444  3
   1493   1492   1504   1506     1  0.0000000  0.6508444  3
   1494   1492   1504   3073     1  0.0000000  1.0460000  1
   1494   1492   1504   3073     1  0.0000000  0.0000000  3
   1494   1492   1504   1505     1  0.0000000  0.6508444  3
   1494   1492   1504   1506     1  0.0000000  0.6508444  3
   1496   1495   1501   3044     1  0.0000000  1.0460000  1
   1496   1495   1501   3044     1  0.0000000  0.0000000  3
   1496   1495   1501   1502     1  0.0000000  0.6508444  3
   1496   1495   1501   1503     1  0.0000000  0.6508444  3
   1497   1495   1501   3044     1  0.0000000  1.0460000  1
   1497   1495   1501   3044     1  0.0000000  0.0000000  3
   1497   1495   1501   1502     1  0.0000000  0.6508444  3
   1497   1495   1501   1503     1  0.0000000  0.6508444  3
   1501   3044   3035   3036     1  0.0000000  1.6038667  3
   1501   3044   3035   3037     1  0.0000000  1.6038667  3
   1502   1501   3044   3035     1  0.0000000  1.6038667  3
   1503   1501   3044   3035     1  0.0000000  1.6038667  3
   1504   3073   3064   3065     1  0.0000000  1.6038667  3
   1504   3073   3064   3066     1  0.0000000  1.6038667  3
   1505   1504   3073   3064     1  0.0000000  1.6038667  3
   1506   1504   3073   3064     1  0.0000000  1.6038667  3
   1508   1509   1521   1522     1  0.0000000  0.6508444  3
   1508   1509   1521   1523     1  0.0000000  0.6508444  3
   1508   1512   1524   1525     1  0.0000000  0.6508444  3
   1508   1512   1524   1526     1  0.0000000  0.6508444  3
   1508   1515   1518   1519     1  0.0000000  0.6508444  3
   1508   1515   1518   1520     1  0.0000000  0.6508444  3
   1509   1508   1512   1513     1  0.0000000  1.2552000  3
   1509   1508   1512   1514     1  0.0000000  1.2552000  3
   1509   1508   1515   1516     1  0.0000000  1.2552000  3
   1509   1508   1515   1517     1  0.0000000  1.2552000  3
   1509   1521   1533   1534     1  0.0000000  0.6508444  3
   1509   1521   1533   1535     1  0.0000000  0.6508444  3
   1510   1509   1508   1512     1  0.0000000  1.2552000  3
   1510   1509   1508   1515     1  0.0000000  1.2552000  3
   1510   1509   1521   1533     1  0.0000000  0.6508444  3
   1510   1509   1521   1522     1  0.0000000  0.6508444  3
   1510   1509   1521   1523     1  0.0000000  0.6508444  3
   1511   1509   1508   1512     1  0.0000000  1.2552000  3
   1511   1509   1508   1515     1  0.0000000  1.2552000  3
   1511   1509   1521   1533     1  0.0000000  0.6508444  3
   1511   1509   1521   1522     1  0.0000000  0.6508444  3
   1511   1509   1521   1523     1  0.0000000  0.6508444  3
   1512   1508   1515   1516     1  0.0000000  1.2552000  3
   1512   1508   1515   1517     1  0.0000000  1.2552000  3
   1512   1524   1530   1531     1  0.0000000  0.6508444  3
   1512   1524   1530   1532     1  0.0000000  0.6508444  3
   1513   1512   1508   1515     1  0.0000000  1.2552000  3
   1513   1512   1524   1530     1  0.0000000  0.6508444  3
   1513   1512   1524   1525     1  0.0000000  0.6508444  3
   1513   1512   1524   1526     1  0.0000000  0.6508444  3
   1514   1512   1508   1515     1  0.0000000  1.2552000  3
   1514   1512   1524   1530     1  0.0000000  0.6508444  3
   1514   1512   1524   1525     1  0.0000000  0.6508444  3
   1514   1512   1524   1526     1  0.0000000  0.6508444  3
   1515   1518   1527   1528     1  0.0000000  0.6508444  3
   1515   1518   1527   1529     1  0.0000000  0.6508444  3
   1516   1515   1518   1527     1  0.0000000  0.6508444  3
   1516   1515   1518   1519     1  0.0000000  0.6508444  3
   1516   1515   1518   1520     1  0.0000000  0.6508444  3
   1517   1515   1518   1527     1  0.0000000  0.6508444  3
   1517   1515   1518   1519     1  0.0000000  0.6508444  3
   1517   1515   1518   1520     1  0.0000000  0.6508444  3
   1519   1518   1527   1536     1  0.0000000  1.0460000  1
   1519   1518   1527   1536     1  0.0000000  0.0000000  3
   1519   1518   1527   1528     1  0.0000000  0.6508444  3
   1519   1518   1527   1529     1  0.0000000  0.6508444  3
   1520   1518   1527   1536     1  0.0000000  1.0460000  1
   1520   1518   1527   1536     1  0.0000000  0.0000000  3
   1520   1518   1527   1528     1  0.0000000  0.6508444  3
   1520   1518   1527   1529     1  0.0000000  0.6508444  3
   1522   1521   1533   3131     1  0.0000000  1.0460000  1
   1522   1521   1533   3131     1  0.0000000  0.0000000  3
   1522   1521   1533   1534     1  0.0000000  0.6508444  3
   1522   1521   1533   1535     1  0.0000000  0.6508444  3
   1523   1521   1533   3131     1  0.0000000  1.0460000  1
   1523   1521   1533   3131     1  0.0000000  0.0000000  3
   1523   1521   1533   1534     1  0.0000000  0.6508444  3
   1523   1521   1533   1535     1  0.0000000  0.6508444  3
   1525   1524   1530   3102     1  0.0000000  1.0460000  1
   1525   1524   1530   3102     1  0.0000000  0.0000000  3
   1525   1524   1530   1531     1  0.0000000  0.6508444  3
   1525   1524   1530   1532     1  0.0000000  0.6508444  3
   1526   1524   1530   3102     1  0.0000000  1.0460000  1
   1526   1524   1530   3102     1  0.0000000  0.0000000  3
   1526   1524   1530   1531     1  0.0000000  0.6508444  3
   1526   1524   1530   1532     1  0.0000000  0.6508444  3
   1530   3102   3093   3094     1  0.0000000  1.6038667  3
   1530   3102   3093   3095     1  0.0000000  1.6038667  3
   1531   1530   3102   3093     1  0.0000000  1.6038667  3
   1532   1530   3102   3093     1  0.0000000  1.6038667  3
   1533   3131   3122   3123     1  0.0000000  1.6038667  3
   1533   3131   3122   3124     1  0.0000000  1.6038667  3
   1534   1533   3131   3122     1  0.0000000  1.6038667  3
   1535   1533   3131   3122     1  0.0000000  1.6038667  3
   1537   1538   1550   1551     1  0.0000000  0.6508444  3
   1537   1538   1550   1552     1  0.0000000  0.6508444  3
   1537   1541   1553   1554     1  0.0000000  0.6508444  3
   1537   1541   1553   1555     1  0.0000000  0.6508444  3
   1537   1544   1547   1548     1  0.0000000  0.6508444  3
   1537   1544   1547   1549     1  0.0000000  0.6508444  3
   1538   1537   1541   1542     1  0.0000000  1.2552000  3
   1538   1537   1541   1543     1  0.0000000  1.2552000  3
   1538   1537   1544   1545     1  0.0000000  1.2552000  3
   1538   1537   1544   1546     1  0.0000000  1.2552000  3
   1538   1550   1562   1563     1  0.0000000  0.6508444  3
   1538   1550   1562   1564     1  0.0000000  0.6508444  3
   1539   1538   1537   1541     1  0.0000000  1.2552000  3
   1539   1538   1537   1544     1  0.0000000  1.2552000  3
   1539   1538   1550   1562     1  0.0000000  0.6508444  3
   1539   1538   1550   1551     1  0.0000000  0.6508444  3
   1539   1538   1550   1552     1  0.0000000  0.6508444  3
   1540   1538   1537   1541     1  0.0000000  1.2552000  3
   1540   1538   1537   1544     1  0.0000000  1.2552000  3
   1540   1538   1550   1562     1  0.0000000  0.6508444  3
   1540   1538   1550   1551     1  0.0000000  0.6508444  3
   1540   1538   1550   1552     1  0.0000000  0.6508444  3
   1541   1537   1544   1545     1  0.0000000  1.2552000  3
   1541   1537   1544   1546     1  0.0000000  1.2552000  3
   1541   1553   1559   1560     1  0.0000000  0.6508444  3
   1541   1553   1559   1561     1  0.0000000  0.6508444  3
   1542   1541   1537   1544     1  0.0000000  1.2552000  3
   1542   1541   1553   1559     1  0.0000000  0.6508444  3
   1542   1541   1553   1554     1  0.0000000  0.6508444  3
   1542   1541   1553   1555     1  0.0000000  0.6508444  3
   1543   1541   1537   1544     1  0.0000000  1.2552000  3
   1543   1541   1553   1559     1  0.0000000  0.6508444  3
   1543   1541   1553   1554     1  0.0000000  0.6508444  3
   1543   1541   1553   1555     1  0.0000000  0.6508444  3
   1544   1547   1556   1557     1  0.0000000  0.6508444  3
   1544   1547   1556   1558     1  0.0000000  0.6508444  3
   1545   1544   1547   1556     1  0.0000000  0.6508444  3
   1545   1544   1547   1548     1  0.0000000  0.6508444  3
   1545   1544   1547   1549     1  0.0000000  0.6508444  3
   1546   1544   1547   1556     1  0.0000000  0.6508444  3
   1546   1544   1547   1548     1  0.0000000  0.6508444  3
   1546   1544   1547   1549     1  0.0000000  0.6508444  3
   1548   1547   1556   1565     1  0.0000000  1.0460000  1
   1548   1547   1556   1565     1  0.0000000  0.0000000  3
   1548   1547   1556   1557     1  0.0000000  0.6508444  3
   1548   1547   1556   1558     1  0.0000000  0.6508444  3
   1549   1547   1556   1565     1  0.0000000  1.0460000  1
   1549   1547   1556   1565     1  0.0000000  0.0000000  3
   1549   1547   1556   1557     1  0.0000000  0.6508444  3
   1549   1547   1556   1558     1  0.0000000  0.6508444  3
   1551   1550   1562   3189     1  0.0000000  1.0460000  1
   1551   1550   1562   3189     1  0.0000000  0.0000000  3
   1551   1550   1562   1563     1  0.0000000  0.6508444  3
   1551   1550   1562   1564     1  0.0000000  0.6508444  3
   1552   1550   1562   3189     1  0.0000000  1.0460000  1
   1552   1550   1562   3189     1  0.0000000  0.0000000  3
   1552   1550   1562   1563     1  0.0000000  0.6508444  3
   1552   1550   1562   1564     1  0.0000000  0.6508444  3
   1554   1553   1559   3160     1  0.0000000  1.0460000  1
   1554   1553   1559   3160     1  0.0000000  0.0000000  3
   1554   1553   1559   1560     1  0.0000000  0.6508444  3
   1554   1553   1559   1561     1  0.0000000  0.6508444  3
   1555   1553   1559   3160     1  0.0000000  1.0460000  1
   1555   1553   1559   3160     1  0.0000000  0.0000000  3
   1555   1553   1559   1560     1  0.0000000  0.6508444  3
   1555   1553   1559   1561     1  0.0000000  0.6508444  3
   1559   3160   3151   3152     1  0.0000000  1.6038667  3
   1559   3160   3151   3153     1  0.0000000  1.6038667  3
   1560   1559   3160   3151     1  0.0000000  1.6038667  3
   1561   1559   3160   3151     1  0.0000000  1.6038667  3
   1562   3189   3180   3181     1  0.0000000  1.6038667  3
   1562   3189   3180   3182     1  0.0000000  1.6038667  3
   1563   1562   3189   3180     1  0.0000000  1.6038667  3
   1564   1562   3189   3180     1  0.0000000  1.6038667  3
   1566   1567   1579   1580     1  0.0000000  0.6508444  3
   1566   1567   1579   1581     1  0.0000000  0.6508444  3
   1566   1570   1582   1583     1  0.0000000  0.6508444  3
   1566   1570   1582   1584     1  0.0000000  0.6508444  3
   1566   1573   1576   1577     1  0.0000000  0.6508444  3
   1566   1573   1576   1578     1  0.0000000  0.6508444  3
   1567   1566   1570   1571     1  0.0000000  1.2552000  3
   1567   1566   1570   1572     1  0.0000000  1.2552000  3
   1567   1566   1573   1574     1  0.0000000  1.2552000  3
   1567   1566   1573   1575     1  0.0000000  1.2552000  3
   1567   1579   1591   1592     1  0.0000000  0.6508444  3
   1567   1579   1591   1593     1  0.0000000  0.6508444  3
   1568   1567   1566   1570     1  0.0000000  1.2552000  3
   1568   1567   1566   1573     1  0.0000000  1.2552000  3
   1568   1567   1579   1591     1  0.0000000  0.6508444  3
   1568   1567   1579   1580     1  0.0000000  0.6508444  3
   1568   1567   1579   1581     1  0.0000000  0.6508444  3
   1569   1567   1566   1570     1  0.0000000  1.2552000  3
   1569   1567   1566   1573     1  0.0000000  1.2552000  3
   1569   1567   1579   1591     1  0.0000000  0.6508444  3
   1569   1567   1579   1580     1  0.0000000  0.6508444  3
   1569   1567   1579   1581     1  0.0000000  0.6508444  3
   1570   1566   1573   1574     1  0.0000000  1.2552000  3
   1570   1566   1573   1575     1  0.0000000  1.2552000  3
   1570   1582   1588   1589     1  0.0000000  0.6508444  3
   1570   1582   1588   1590     1  0.0000000  0.6508444  3
   1571   1570   1566   1573     1  0.0000000  1.2552000  3
   1571   1570   1582   1588     1  0.0000000  0.6508444  3
   1571   1570   1582   1583     1  0.0000000  0.6508444  3
   1571   1570   1582   1584     1  0.0000000  0.6508444  3
   1572   1570   1566   1573     1  0.0000000  1.2552000  3
   1572   1570   1582   1588     1  0.0000000  0.6508444  3
   1572   1570   1582   1583     1  0.0000000  0.6508444  3
   1572   1570   1582   1584     1  0.0000000  0.6508444  3
   1573   1576   1585   1586     1  0.0000000  0.6508444  3
   1573   1576   1585   1587     1  0.0000000  0.6508444  3
   1574   1573   1576   1585     1  0.0000000  0.6508444  3
   1574   1573   1576   1577     1  0.0000000  0.6508444  3
   1574   1573   1576   1578     1  0.0000000  0.6508444  3
   1575   1573   1576   1585     1  0.0000000  0.6508444  3
   1575   1573   1576   1577     1  0.0000000  0.6508444  3
   1575   1573   1576   1578     1  0.0000000  0.6508444  3
   1577   1576   1585   1594     1  0.0000000  1.0460000  1
   1577   1576   1585   1594     1  0.0000000  0.0000000  3
   1577   1576   1585   1586     1  0.0000000  0.6508444  3
   1577   1576   1585   1587     1  0.0000000  0.6508444  3
   1578   1576   1585   1594     1  0.0000000  1.0460000  1
   1578   1576   1585   1594     1  0.0000000  0.0000000  3
   1578   1576   1585   1586     1  0.0000000  0.6508444  3
   1578   1576   1585   1587     1  0.0000000  0.6508444  3
   1580   1579   1591   3247     1  0.0000000  1.0460000  1
   1580   1579   1591   3247     1  0.0000000  0.0000000  3
   1580   1579   1591   1592     1  0.0000000  0.6508444  3
   1580   1579   1591   1593     1  0.0000000  0.6508444  3
   1581   1579   1591   3247     1  0.0000000  1.0460000  1
   1581   1579   1591   3247     1  0.0000000  0.0000000  3
   1581   1579   1591   1592     1  0.0000000  0.6508444  3
   1581   1579   1591   1593     1  0.0000000  0.6508444  3
   1583   1582   1588   3218     1  0.0000000  1.0460000  1
   1583   1582   1588   3218     1  0.0000000  0.0000000  3
   1583   1582   1588   1589     1  0.0000000  0.6508444  3
   1583   1582   1588   1590     1  0.0000000  0.6508444  3
   1584   1582   1588   3218     1  0.0000000  1.0460000  1
   1584   1582   1588   3218     1  0.0000000  0.0000000  3
   1584   1582   1588   1589     1  0.0000000  0.6508444  3
   1584   1582   1588   1590     1  0.0000000  0.6508444  3
   1588   3218   3209   3210     1  0.0000000  1.6038667  3
   1588   3218   3209   3211     1  0.0000000  1.6038667  3
   1589   1588   3218   3209     1  0.0000000  1.6038667  3
   1590   1588   3218   3209     1  0.0000000  1.6038667  3
   1591   3247   3238   3239     1  0.0000000  1.6038667  3
   1591   3247   3238   3240     1  0.0000000  1.6038667  3
   1592   1591   3247   3238     1  0.0000000  1.6038667  3
   1593   1591   3247   3238     1  0.0000000  1.6038667  3
   1595   1596   1608   1609     1  0.0000000  0.6508444  3
   1595   1596   1608   1610     1  0.0000000  0.6508444  3
   1595   1599   1611   1612     1  0.0000000  0.6508444  3
   1595   1599   1611   1613     1  0.0000000  0.6508444  3
   1595   1602   1605   1606     1  0.0000000  0.6508444  3
   1595   1602   1605   1607     1  0.0000000  0.6508444  3
   1596   1595   1599   1600     1  0.0000000  1.2552000  3
   1596   1595   1599   1601     1  0.0000000  1.2552000  3
   1596   1595   1602   1603     1  0.0000000  1.2552000  3
   1596   1595   1602   1604     1  0.0000000  1.2552000  3
   1596   1608   1620   1621     1  0.0000000  0.6508444  3
   1596   1608   1620   1622     1  0.0000000  0.6508444  3
   1597   1596   1595   1599     1  0.0000000  1.2552000  3
   1597   1596   1595   1602     1  0.0000000  1.2552000  3
   1597   1596   1608   1620     1  0.0000000  0.6508444  3
   1597   1596   1608   1609     1  0.0000000  0.6508444  3
   1597   1596   1608   1610     1  0.0000000  0.6508444  3
   1598   1596   1595   1599     1  0.0000000  1.2552000  3
   1598   1596   1595   1602     1  0.0000000  1.2552000  3
   1598   1596   1608   1620     1  0.0000000  0.6508444  3
   1598   1596   1608   1609     1  0.0000000  0.6508444  3
   1598   1596   1608   1610     1  0.0000000  0.6508444  3
   1599   1595   1602   1603     1  0.0000000  1.2552000  3
   1599   1595   1602   1604     1  0.0000000  1.2552000  3
   1599   1611   1617   1618     1  0.0000000  0.6508444  3
   1599   1611   1617   1619     1  0.0000000  0.6508444  3
   1600   1599   1595   1602     1  0.0000000  1.2552000  3
   1600   1599   1611   1617     1  0.0000000  0.6508444  3
   1600   1599   1611   1612     1  0.0000000  0.6508444  3
   1600   1599   1611   1613     1  0.0000000  0.6508444  3
   1601   1599   1595   1602     1  0.0000000  1.2552000  3
   1601   1599   1611   1617     1  0.0000000  0.6508444  3
   1601   1599   1611   1612     1  0.0000000  0.6508444  3
   1601   1599   1611   1613     1  0.0000000  0.6508444  3
   1602   1605   1614   1615     1  0.0000000  0.6508444  3
   1602   1605   1614   1616     1  0.0000000  0.6508444  3
   1603   1602   1605   1614     1  0.0000000  0.6508444  3
   1603   1602   1605   1606     1  0.0000000  0.6508444  3
   1603   1602   1605   1607     1  0.0000000  0.6508444  3
   1604   1602   1605   1614     1  0.0000000  0.6508444  3
   1604   1602   1605   1606     1  0.0000000  0.6508444  3
   1604   1602   1605   1607     1  0.0000000  0.6508444  3
   1606   1605   1614   1623     1  0.0000000  1.0460000  1
   1606   1605   1614   1623     1  0.0000000  0.0000000  3
   1606   1605   1614   1615     1  0.0000000  0.6508444  3
   1606   1605   1614   1616     1  0.0000000  0.6508444  3
   1607   1605   1614   1623     1  0.0000000  1.0460000  1
   1607   1605   1614   1623     1  0.0000000  0.0000000  3
   1607   1605   1614   1615     1  0.0000000  0.6508444  3
   1607   1605   1614   1616     1  0.0000000  0.6508444  3
   1609   1608   1620   3305     1  0.0000000  1.0460000  1
   1609   1608   1620   3305     1  0.0000000  0.0000000  3
   1609   1608   1620   1621     1  0.0000000  0.6508444  3
   1609   1608   1620   1622     1  0.0000000  0.6508444  3
   1610   1608   1620   3305     1  0.0000000  1.0460000  1
   1610   1608   1620   3305     1  0.0000000  0.0000000  3
   1610   1608   1620   1621     1  0.0000000  0.6508444  3
   1610   1608   1620   1622     1  0.0000000  0.6508444  3
   1612   1611   1617   3276     1  0.0000000  1.0460000  1
   1612   1611   1617   3276     1  0.0000000  0.0000000  3
   1612   1611   1617   1618     1  0.0000000  0.6508444  3
   1612   1611   1617   1619     1  0.0000000  0.6508444  3
   1613   1611   1617   3276     1  0.0000000  1.0460000  1
   1613   1611   1617   3276     1  0.0000000  0.0000000  3
   1613   1611   1617   1618     1  0.0000000  0.6508444  3
   1613   1611   1617   1619     1  0.0000000  0.6508444  3
   1617   3276   3267   3268     1  0.0000000  1.6038667  3
   1617   3276   3267   3269     1  0.0000000  1.6038667  3
   1618   1617   3276   3267     1  0.0000000  1.6038667  3
   1619   1617   3276   3267     1  0.0000000  1.6038667  3
   1620   3305   3296   3297     1  0.0000000  1.6038667  3
   1620   3305   3296   3298     1  0.0000000  1.6038667  3
   1621   1620   3305   3296     1  0.0000000  1.6038667  3
   1622   1620   3305   3296     1  0.0000000  1.6038667  3
   1624   1625   1637   1638     1  0.0000000  0.6508444  3
   1624   1625   1637   1639     1  0.0000000  0.6508444  3
   1624   1628   1640   1641     1  0.0000000  0.6508444  3
   1624   1628   1640   1642     1  0.0000000  0.6508444  3
   1624   1631   1634   1635     1  0.0000000  0.6508444  3
   1624   1631   1634   1636     1  0.0000000  0.6508444  3
   1625   1624   1628   1629     1  0.0000000  1.2552000  3
   1625   1624   1628   1630     1  0.0000000  1.2552000  3
   1625   1624   1631   1632     1  0.0000000  1.2552000  3
   1625   1624   1631   1633     1  0.0000000  1.2552000  3
   1625   1637   1649   1650     1  0.0000000  0.6508444  3
   1625   1637   1649   1651     1  0.0000000  0.6508444  3
   1626   1625   1624   1628     1  0.0000000  1.2552000  3
   1626   1625   1624   1631     1  0.0000000  1.2552000  3
   1626   1625   1637   1649     1  0.0000000  0.6508444  3
   1626   1625   1637   1638     1  0.0000000  0.6508444  3
   1626   1625   1637   1639     1  0.0000000  0.6508444  3
   1627   1625   1624   1628     1  0.0000000  1.2552000  3
   1627   1625   1624   1631     1  0.0000000  1.2552000  3
   1627   1625   1637   1649     1  0.0000000  0.6508444  3
   1627   1625   1637   1638     1  0.0000000  0.6508444  3
   1627   1625   1637   1639     1  0.0000000  0.6508444  3
   1628   1624   1631   1632     1  0.0000000  1.2552000  3
   1628   1624   1631   1633     1  0.0000000  1.2552000  3
   1628   1640   1646   1647     1  0.0000000  0.6508444  3
   1628   1640   1646   1648     1  0.0000000  0.6508444  3
   1629   1628   1624   1631     1  0.0000000  1.2552000  3
   1629   1628   1640   1646     1  0.0000000  0.6508444  3
   1629   1628   1640   1641     1  0.0000000  0.6508444  3
   1629   1628   1640   1642     1  0.0000000  0.6508444  3
   1630   1628   1624   1631     1  0.0000000  1.2552000  3
   1630   1628   1640   1646     1  0.0000000  0.6508444  3
   1630   1628   1640   1641     1  0.0000000  0.6508444  3
   1630   1628   1640   1642     1  0.0000000  0.6508444  3
   1631   1634   1643   1644     1  0.0000000  0.6508444  3
   1631   1634   1643   1645     1  0.0000000  0.6508444  3
   1632   1631   1634   1643     1  0.0000000  0.6508444  3
   1632   1631   1634   1635     1  0.0000000  0.6508444  3
   1632   1631   1634   1636     1  0.0000000  0.6508444  3
   1633   1631   1634   1643     1  0.0000000  0.6508444  3
   1633   1631   1634   1635     1  0.0000000  0.6508444  3
   1633   1631   1634   1636     1  0.0000000  0.6508444  3
   1635   1634   1643   1652     1  0.0000000  1.0460000  1
   1635   1634   1643   1652     1  0.0000000  0.0000000  3
   1635   1634   1643   1644     1  0.0000000  0.6508444  3
   1635   1634   1643   1645     1  0.0000000  0.6508444  3
   1636   1634   1643   1652     1  0.0000000  1.0460000  1
   1636   1634   1643   1652     1  0.0000000  0.0000000  3
   1636   1634   1643   1644     1  0.0000000  0.6508444  3
   1636   1634   1643   1645     1  0.0000000  0.6508444  3
   1638   1637   1649   3363     1  0.0000000  1.0460000  1
   1638   1637   1649   3363     1  0.0000000  0.0000000  3
   1638   1637   1649   1650     1  0.0000000  0.6508444  3
   1638   1637   1649   1651     1  0.0000000  0.6508444  3
   1639   1637   1649   3363     1  0.0000000  1.0460000  1
   1639   1637   1649   3363     1  0.0000000  0.0000000  3
   1639   1637   1649   1650     1  0.0000000  0.6508444  3
   1639   1637   1649   1651     1  0.0000000  0.6508444  3
   1641   1640   1646   3334     1  0.0000000  1.0460000  1
   1641   1640   1646   3334     1  0.0000000  0.0000000  3
   1641   1640   1646   1647     1  0.0000000  0.6508444  3
   1641   1640   1646   1648     1  0.0000000  0.6508444  3
   1642   1640   1646   3334     1  0.0000000  1.0460000  1
   1642   1640   1646   3334     1  0.0000000  0.0000000  3
   1642   1640   1646   1647     1  0.0000000  0.6508444  3
   1642   1640   1646   1648     1  0.0000000  0.6508444  3
   1646   3334   3325   3326     1  0.0000000  1.6038667  3
   1646   3334   3325   3327     1  0.0000000  1.6038667  3
   1647   1646   3334   3325     1  0.0000000  1.6038667  3
   1648   1646   3334   3325     1  0.0000000  1.6038667  3
   1649   3363   3354   3355     1  0.0000000  1.6038667  3
   1649   3363   3354   3356     1  0.0000000  1.6038667  3
   1650   1649   3363   3354     1  0.0000000  1.6038667  3
   1651   1649   3363   3354     1  0.0000000  1.6038667  3
   1653   1654   1666   1667     1  0.0000000  0.6508444  3
   1653   1654   1666   1668     1  0.0000000  0.6508444  3
   1653   1657   1669   1670     1  0.0000000  0.6508444  3
   1653   1657   1669   1671     1  0.0000000  0.6508444  3
   1653   1660   1663   1664     1  0.0000000  0.6508444  3
   1653   1660   1663   1665     1  0.0000000  0.6508444  3
   1654   1653   1657   1658     1  0.0000000  1.2552000  3
   1654   1653   1657   1659     1  0.0000000  1.2552000  3
   1654   1653   1660   1661     1  0.0000000  1.2552000  3
   1654   1653   1660   1662     1  0.0000000  1.2552000  3
   1654   1666   1678   1679     1  0.0000000  0.6508444  3
   1654   1666   1678   1680     1  0.0000000  0.6508444  3
   1655   1654   1653   1657     1  0.0000000  1.2552000  3
   1655   1654   1653   1660     1  0.0000000  1.2552000  3
   1655   1654   1666   1678     1  0.0000000  0.6508444  3
   1655   1654   1666   1667     1  0.0000000  0.6508444  3
   1655   1654   1666   1668     1  0.0000000  0.6508444  3
   1656   1654   1653   1657     1  0.0000000  1.2552000  3
   1656   1654   1653   1660     1  0.0000000  1.2552000  3
   1656   1654   1666   1678     1  0.0000000  0.6508444  3
   1656   1654   1666   1667     1  0.0000000  0.6508444  3
   1656   1654   1666   1668     1  0.0000000  0.6508444  3
   1657   1653   1660   1661     1  0.0000000  1.2552000  3
   1657   1653   1660   1662     1  0.0000000  1.2552000  3
   1657   1669   1675   1676     1  0.0000000  0.6508444  3
   1657   1669   1675   1677     1  0.0000000  0.6508444  3
   1658   1657   1653   1660     1  0.0000000  1.2552000  3
   1658   1657   1669   1675     1  0.0000000  0.6508444  3
   1658   1657   1669   1670     1  0.0000000  0.6508444  3
   1658   1657   1669   1671     1  0.0000000  0.6508444  3
   1659   1657   1653   1660     1  0.0000000  1.2552000  3
   1659   1657   1669   1675     1  0.0000000  0.6508444  3
   1659   1657   1669   1670     1  0.0000000  0.6508444  3
   1659   1657   1669   1671     1  0.0000000  0.6508444  3
   1660   1663   1672   1673     1  0.0000000  0.6508444  3
   1660   1663   1672   1674     1  0.0000000  0.6508444  3
   1661   1660   1663   1672     1  0.0000000  0.6508444  3
   1661   1660   1663   1664     1  0.0000000  0.6508444  3
   1661   1660   1663   1665     1  0.0000000  0.6508444  3
   1662   1660   1663   1672     1  0.0000000  0.6508444  3
   1662   1660   1663   1664     1  0.0000000  0.6508444  3
   1662   1660   1663   1665     1  0.0000000  0.6508444  3
   1664   1663   1672   1681     1  0.0000000  1.0460000  1
   1664   1663   1672   1681     1  0.0000000  0.0000000  3
   1664   1663   1672   1673     1  0.0000000  0.6508444  3
   1664   1663   1672   1674     1  0.0000000  0.6508444  3
   1665   1663   1672   1681     1  0.0000000  1.0460000  1
   1665   1663   1672   1681     1  0.0000000  0.0000000  3
   1665   1663   1672   1673     1  0.0000000  0.6508444  3
   1665   1663   1672   1674     1  0.0000000  0.6508444  3
   1667   1666   1678   3421     1  0.0000000  1.0460000  1
   1667   1666   1678   3421     1  0.0000000  0.0000000  3
   1667   1666   1678   1679     1  0.0000000  0.6508444  3
   1667   1666   1678   1680     1  0.0000000  0.6508444  3
   1668   1666   1678   3421     1  0.0000000  1.0460000  1
   1668   1666   1678   3421     1  0.0000000  0.0000000  3
   1668   1666   1678   1679     1  0.0000000  0.6508444  3
   1668   1666   1678   1680     1  0.0000000  0.6508444  3
   1670   1669   1675   3392     1  0.0000000  1.0460000  1
   1670   1669   1675   3392     1  0.0000000  0.0000000  3
   1670   1669   1675   1676     1  0.0000000  0.6508444  3
   1670   1669   1675   1677     1  0.0000000  0.6508444  3
   1671   1669   1675   3392     1  0.0000000  1.0460000  1
   1671   1669   1675   3392     1  0.0000000  0.0000000  3
   1671   1669   1675   1676     1  0.0000000  0.6508444  3
   1671   1669   1675   1677     1  0.0000000  0.6508444  3
   1675   3392   3383   3384     1  0.0000000  1.6038667  3
   1675   3392   3383   3385     1  0.0000000  1.6038667  3
   1676   1675   3392   3383     1  0.0000000  1.6038667  3
   1677   1675   3392   3383     1  0.0000000  1.6038667  3
   1678   3421   3412   3413     1  0.0000000  1.6038667  3
   1678   3421   3412   3414     1  0.0000000  1.6038667  3
   1679   1678   3421   3412     1  0.0000000  1.6038667  3
   1680   1678   3421   3412     1  0.0000000  1.6038667  3
   1682   1683   1695   1696     1  0.0000000  0.6508444  3
   1682   1683   1695   1697     1  0.0000000  0.6508444  3
   1682   1686   1698   1699     1  0.0000000  0.6508444  3
   1682   1686   1698   1700     1  0.0000000  0.6508444  3
   1682   1689   1692   1693     1  0.0000000  0.6508444  3
   1682   1689   1692   1694     1  0.0000000  0.6508444  3
   1683   1682   1686   1687     1  0.0000000  1.2552000  3
   1683   1682   1686   1688     1  0.0000000  1.2552000  3
   1683   1682   1689   1690     1  0.0000000  1.2552000  3
   1683   1682   1689   1691     1  0.0000000  1.2552000  3
   1683   1695   1707   1708     1  0.0000000  0.6508444  3
   1683   1695   1707   1709     1  0.0000000  0.6508444  3
   1684   1683   1682   1686     1  0.0000000  1.2552000  3
   1684   1683   1682   1689     1  0.0000000  1.2552000  3
   1684   1683   1695   1707     1  0.0000000  0.6508444  3
   1684   1683   1695   1696     1  0.0000000  0.6508444  3
   1684   1683   1695   1697     1  0.0000000  0.6508444  3
   1685   1683   1682   1686     1  0.0000000  1.2552000  3
   1685   1683   1682   1689     1  0.0000000  1.2552000  3
   1685   1683   1695   1707     1  0.0000000  0.6508444  3
   1685   1683   1695   1696     1  0.0000000  0.6508444  3
   1685   1683   1695   1697     1  0.0000000  0.6508444  3
   1686   1682   1689   1690     1  0.0000000  1.2552000  3
   1686   1682   1689   1691     1  0.0000000  1.2552000  3
   1686   1698   1704   1705     1  0.0000000  0.6508444  3
   1686   1698   1704   1706     1  0.0000000  0.6508444  3
   1687   1686   1682   1689     1  0.0000000  1.2552000  3
   1687   1686   1698   1704     1  0.0000000  0.6508444  3
   1687   1686   1698   1699     1  0.0000000  0.6508444  3
   1687   1686   1698   1700     1  0.0000000  0.6508444  3
   1688   1686   1682   1689     1  0.0000000  1.2552000  3
   1688   1686   1698   1704     1  0.0000000  0.6508444  3
   1688   1686   1698   1699     1  0.0000000  0.6508444  3
   1688   1686   1698   1700     1  0.0000000  0.6508444  3
   1689   1692   1701   1702     1  0.0000000  0.6508444  3
   1689   1692   1701   1703     1  0.0000000  0.6508444  3
   1690   1689   1692   1701     1  0.0000000  0.6508444  3
   1690   1689   1692   1693     1  0.0000000  0.6508444  3
   1690   1689   1692   1694     1  0.0000000  0.6508444  3
   1691   1689   1692   1701     1  0.0000000  0.6508444  3
   1691   1689   1692   1693     1  0.0000000  0.6508444  3
   1691   1689   1692   1694     1  0.0000000  0.6508444  3
   1693   1692   1701   1710     1  0.0000000  1.0460000  1
   1693   1692   1701   1710     1  0.0000000  0.0000000  3
   1693   1692   1701   1702     1  0.0000000  0.6508444  3
   1693   1692   1701   1703     1  0.0000000  0.6508444  3
   1694   1692   1701   1710     1  0.0000000  1.0460000  1
   1694   1692   1701   1710     1  0.0000000  0.0000000  3
   1694   1692   1701   1702     1  0.0000000  0.6508444  3
   1694   1692   1701   1703     1  0.0000000  0.6508444  3
   1696   1695   1707   3479     1  0.0000000  1.0460000  1
   1696   1695   1707   3479     1  0.0000000  0.0000000  3
   1696   1695   1707   1708     1  0.0000000  0.6508444  3
   1696   1695   1707   1709     1  0.0000000  0.6508444  3
   1697   1695   1707   3479     1  0.0000000  1.0460000  1
   1697   1695   1707   3479     1  0.0000000  0.0000000  3
   1697   1695   1707   1708     1  0.0000000  0.6508444  3
   1697   1695   1707   1709     1  0.0000000  0.6508444  3
   1699   1698   1704   3450     1  0.0000000  1.0460000  1
   1699   1698   1704   3450     1  0.0000000  0.0000000  3
   1699   1698   1704   1705     1  0.0000000  0.6508444  3
   1699   1698   1704   1706     1  0.0000000  0.6508444  3
   1700   1698   1704   3450     1  0.0000000  1.0460000  1
   1700   1698   1704   3450     1  0.0000000  0.0000000  3
   1700   1698   1704   1705     1  0.0000000  0.6508444  3
   1700   1698   1704   1706     1  0.0000000  0.6508444  3
   1704   3450   3441   3442     1  0.0000000  1.6038667  3
   1704   3450   3441   3443     1  0.0000000  1.6038667  3
   1705   1704   3450   3441     1  0.0000000  1.6038667  3
   1706   1704   3450   3441     1  0.0000000  1.6038667  3
   1707   3479   3470   3471     1  0.0000000  1.6038667  3
   1707   3479   3470   3472     1  0.0000000  1.6038667  3
   1708   1707   3479   3470     1  0.0000000  1.6038667  3
   1709   1707   3479   3470     1  0.0000000  1.6038667  3
   1711   1712   1724   1725     1  0.0000000  0.6508444  3
   1711   1712   1724   1726     1  0.0000000  0.6508444  3
   1711   1715   1727   1728     1  0.0000000  0.6508444  3
   1711   1715   1727   1729     1  0.0000000  0.6508444  3
   1711   1718   1721   1722     1  0.0000000  0.6508444  3
   1711   1718   1721   1723     1  0.0000000  0.6508444  3
   1712   1711   1715   1716     1  0.0000000  1.2552000  3
   1712   1711   1715   1717     1  0.0000000  1.2552000  3
   1712   1711   1718   1719     1  0.0000000  1.2552000  3
   1712   1711   1718   1720     1  0.0000000  1.2552000  3
   1712   1724   1736   1737     1  0.0000000  0.6508444  3
   1712   1724   1736   1738     1  0.0000000  0.6508444  3
   1713   1712   1711   1715     1  0.0000000  1.2552000  3
   1713   1712   1711   1718     1  0.0000000  1.2552000  3
   1713   1712   1724   1736     1  0.0000000  0.6508444  3
   1713   1712   1724   1725     1  0.0000000  0.6508444  3
   1713   1712   1724   1726     1  0.0000000  0.6508444  3
   1714   1712   1711   1715     1  0.0000000  1.2552000  3
   1714   1712   1711   1718     1  0.0000000  1.2552000  3
   1714   1712   1724   1736     1  0.0000000  0.6508444  3
   1714   1712   1724   1725     1  0.0000000  0.6508444  3
   1714   1712   1724   1726     1  0.0000000  0.6508444  3
   1715   1711   1718   1719     1  0.0000000  1.2552000  3
   1715   1711   1718   1720     1  0.0000000  1.2552000  3
   1715   1727   1733   1734     1  0.0000000  0.6508444  3
   1715   1727   1733   1735     1  0.0000000  0.6508444  3
   1716   1715   1711   1718     1  0.0000000  1.2552000  3
   1716   1715   1727   1733     1  0.0000000  0.6508444  3
   1716   1715   1727   1728     1  0.0000000  0.6508444  3
   1716   1715   1727   1729     1  0.0000000  0.6508444  3
   1717   1715   1711   1718     1  0.0000000  1.2552000  3
   1717   1715   1727   1733     1  0.0000000  0.6508444  3
   1717   1715   1727   1728     1  0.0000000  0.6508444  3
   1717   1715   1727   1729     1  0.0000000  0.6508444  3
   1718   1721   1730   1731     1  0.0000000  0.6508444  3
   1718   1721   1730   1732     1  0.0000000  0.6508444  3
   1719   1718   1721   1730     1  0.0000000  0.6508444  3
   1719   1718   1721   1722     1  0.0000000  0.6508444  3
   1719   1718   1721   1723     1  0.0000000  0.6508444  3
   1720   1718   1721   1730     1  0.0000000  0.6508444  3
   1720   1718   1721   1722     1  0.0000000  0.6508444  3
   1720   1718   1721   1723     1  0.0000000  0.6508444  3
   1722   1721   1730   1739     1  0.0000000  1.0460000  1
   1722   1721   1730   1739     1  0.0000000  0.0000000  3
   1722   1721   1730   1731     1  0.0000000  0.6508444  3
   1722   1721   1730   1732     1  0.0000000  0.6508444  3
   1723   1721   1730   1739     1  0.0000000  1.0460000  1
   1723   1721   1730   1739     1  0.0000000  0.0000000  3
   1723   1721   1730   1731     1  0.0000000  0.6508444  3
   1723   1721   1730   1732     1  0.0000000  0.6508444  3
   1725   1724   1736   3537     1  0.0000000  1.0460000  1
   1725   1724   1736   3537     1  0.0000000  0.0000000  3
   1725   1724   1736   1737     1  0.0000000  0.6508444  3
   1725   1724   1736   1738     1  0.0000000  0.6508444  3
   1726   1724   1736   3537     1  0.0000000  1.0460000  1
   1726   1724   1736   3537     1  0.0000000  0.0000000  3
   1726   1724   1736   1737     1  0.0000000  0.6508444  3
   1726   1724   1736   1738     1  0.0000000  0.6508444  3
   1728   1727   1733   3508     1  0.0000000  1.0460000  1
   1728   1727   1733   3508     1  0.0000000  0.0000000  3
   1728   1727   1733   1734     1  0.0000000  0.6508444  3
   1728   1727   1733   1735     1  0.0000000  0.6508444  3
   1729   1727   1733   3508     1  0.0000000  1.0460000  1
   1729   1727   1733   3508     1  0.0000000  0.0000000  3
   1729   1727   1733   1734     1  0.0000000  0.6508444  3
   1729   1727   1733   1735     1  0.0000000  0.6508444  3
   1733   3508   3499   3500     1  0.0000000  1.6038667  3
   1733   3508   3499   3501     1  0.0000000  1.6038667  3
   1734   1733   3508   3499     1  0.0000000  1.6038667  3
   1735   1733   3508   3499     1  0.0000000  1.6038667  3
   1736   3537   3528   3529     1  0.0000000  1.6038667  3
   1736   3537   3528   3530     1  0.0000000  1.6038667  3
   1737   1736   3537   3528     1  0.0000000  1.6038667  3
   1738   1736   3537   3528     1  0.0000000  1.6038667  3
   1740   1741   1753   1754     1  0.0000000  0.6508444  3
   1740   1741   1753   1755     1  0.0000000  0.6508444  3
   1740   1744   1756   1757     1  0.0000000  0.6508444  3
   1740   1744   1756   1758     1  0.0000000  0.6508444  3
   1740   1747   1750   1751     1  0.0000000  0.6508444  3
   1740   1747   1750   1752     1  0.0000000  0.6508444  3
   1741   1740   1744   1745     1  0.0000000  1.2552000  3
   1741   1740   1744   1746     1  0.0000000  1.2552000  3
   1741   1740   1747   1748     1  0.0000000  1.2552000  3
   1741   1740   1747   1749     1  0.0000000  1.2552000  3
   1741   1753   1765   1766     1  0.0000000  0.6508444  3
   1741   1753   1765   1767     1  0.0000000  0.6508444  3
   1742   1741   1740   1744     1  0.0000000  1.2552000  3
   1742   1741   1740   1747     1  0.0000000  1.2552000  3
   1742   1741   1753   1765     1  0.0000000  0.6508444  3
   1742   1741   1753   1754     1  0.0000000  0.6508444  3
   1742   1741   1753   1755     1  0.0000000  0.6508444  3
   1743   1741   1740   1744     1  0.0000000  1.2552000  3
   1743   1741   1740   1747     1  0.0000000  1.2552000  3
   1743   1741   1753   1765     1  0.0000000  0.6508444  3
   1743   1741   1753   1754     1  0.0000000  0.6508444  3
   1743   1741   1753   1755     1  0.0000000  0.6508444  3
   1744   1740   1747   1748     1  0.0000000  1.2552000  3
   1744   1740   1747   1749     1  0.0000000  1.2552000  3
   1744   1756   1762   1763     1  0.0000000  0.6508444  3
   1744   1756   1762   1764     1  0.0000000  0.6508444  3
   1745   1744   1740   1747     1  0.0000000  1.2552000  3
   1745   1744   1756   1762     1  0.0000000  0.6508444  3
   1745   1744   1756   1757     1  0.0000000  0.6508444  3
   1745   1744   1756   1758     1  0.0000000  0.6508444  3
   1746   1744   1740   1747     1  0.0000000  1.2552000  3
   1746   1744   1756   1762     1  0.0000000  0.6508444  3
   1746   1744   1756   1757     1  0.0000000  0.6508444  3
   1746   1744   1756   1758     1  0.0000000  0.6508444  3
   1747   1750   1759   1760     1  0.0000000  0.6508444  3
   1747   1750   1759   1761     1  0.0000000  0.6508444  3
   1748   1747   1750   1759     1  0.0000000  0.6508444  3
   1748   1747   1750   1751     1  0.0000000  0.6508444  3
   1748   1747   1750   1752     1  0.0000000  0.6508444  3
   1749   1747   1750   1759     1  0.0000000  0.6508444  3
   1749   1747   1750   1751     1  0.0000000  0.6508444  3
   1749   1747   1750   1752     1  0.0000000  0.6508444  3
   1751   1750   1759   1768     1  0.0000000  1.0460000  1
   1751   1750   1759   1768     1  0.0000000  0.0000000  3
   1751   1750   1759   1760     1  0.0000000  0.6508444  3
   1751   1750   1759   1761     1  0.0000000  0.6508444  3
   1752   1750   1759   1768     1  0.0000000  1.0460000  1
   1752   1750   1759   1768     1  0.0000000  0.0000000  3
   1752   1750   1759   1760     1  0.0000000  0.6508444  3
   1752   1750   1759   1761     1  0.0000000  0.6508444  3
   1754   1753   1765   3595     1  0.0000000  1.0460000  1
   1754   1753   1765   3595     1  0.0000000  0.0000000  3
   1754   1753   1765   1766     1  0.0000000  0.6508444  3
   1754   1753   1765   1767     1  0.0000000  0.6508444  3
   1755   1753   1765   3595     1  0.0000000  1.0460000  1
   1755   1753   1765   3595     1  0.0000000  0.0000000  3
   1755   1753   1765   1766     1  0.0000000  0.6508444  3
   1755   1753   1765   1767     1  0.0000000  0.6508444  3
   1757   1756   1762   3566     1  0.0000000  1.0460000  1
   1757   1756   1762   3566     1  0.0000000  0.0000000  3
   1757   1756   1762   1763     1  0.0000000  0.6508444  3
   1757   1756   1762   1764     1  0.0000000  0.6508444  3
   1758   1756   1762   3566     1  0.0000000  1.0460000  1
   1758   1756   1762   3566     1  0.0000000  0.0000000  3
   1758   1756   1762   1763     1  0.0000000  0.6508444  3
   1758   1756   1762   1764     1  0.0000000  0.6508444  3
   1762   3566   3557   3558     1  0.0000000  1.6038667  3
   1762   3566   3557   3559     1  0.0000000  1.6038667  3
   1763   1762   3566   3557     1  0.0000000  1.6038667  3
   1764   1762   3566   3557     1  0.0000000  1.6038667  3
   1765   3595   3586   3587     1  0.0000000  1.6038667  3
   1765   3595   3586   3588     1  0.0000000  1.6038667  3
   1766   1765   3595   3586     1  0.0000000  1.6038667  3
   1767   1765   3595   3586     1  0.0000000  1.6038667  3
   1769   1770   1782   1783     1  0.0000000  0.6508444  3
   1769   1770   1782   1784     1  0.0000000  0.6508444  3
   1769   1773   1785   1786     1  0.0000000  0.6508444  3
   1769   1773   1785   1787     1  0.0000000  0.6508444  3
   1769   1776   1779   1780     1  0.0000000  0.6508444  3
   1769   1776   1779   1781     1  0.0000000  0.6508444  3
   1770   1769   1773   1774     1  0.0000000  1.2552000  3
   1770   1769   1773   1775     1  0.0000000  1.2552000  3
   1770   1769   1776   1777     1  0.0000000  1.2552000  3
   1770   1769   1776   1778     1  0.0000000  1.2552000  3
   1770   1782   1794   1795     1  0.0000000  0.6508444  3
   1770   1782   1794   1796     1  0.0000000  0.6508444  3
   1771   1770   1769   1773     1  0.0000000  1.2552000  3
   1771   1770   1769   1776     1  0.0000000  1.2552000  3
   1771   1770   1782   1794     1  0.0000000  0.6508444  3
   1771   1770   1782   1783     1  0.0000000  0.6508444  3
   1771   1770   1782   1784     1  0.0000000  0.6508444  3
   1772   1770   1769   1773     1  0.0000000  1.2552000  3
   1772   1770   1769   1776     1  0.0000000  1.2552000  3
   1772   1770   1782   1794     1  0.0000000  0.6508444  3
   1772   1770   1782   1783     1  0.0000000  0.6508444  3
   1772   1770   1782   1784     1  0.0000000  0.6508444  3
   1773   1769   1776   1777     1  0.0000000  1.2552000  3
   1773   1769   1776   1778     1  0.0000000  1.2552000  3
   1773   1785   1791   1792     1  0.0000000  0.6508444  3
   1773   1785   1791   1793     1  0.0000000  0.6508444  3
   1774   1773   1769   1776     1  0.0000000  1.2552000  3
   1774   1773   1785   1791     1  0.0000000  0.6508444  3
   1774   1773   1785   1786     1  0.0000000  0.6508444  3
   1774   1773   1785   1787     1  0.0000000  0.6508444  3
   1775   1773   1769   1776     1  0.0000000  1.2552000  3
   1775   1773   1785   1791     1  0.0000000  0.6508444  3
   1775   1773   1785   1786     1  0.0000000  0.6508444  3
   1775   1773   1785   1787     1  0.0000000  0.6508444  3
   1776   1779   1788   1789     1  0.0000000  0.6508444  3
   1776   1779   1788   1790     1  0.0000000  0.6508444  3
   1777   1776   1779   1788     1  0.0000000  0.6508444  3
   1777   1776   1779   1780     1  0.0000000  0.6508444  3
   1777   1776   1779   1781     1  0.0000000  0.6508444  3
   1778   1776   1779   1788     1  0.0000000  0.6508444  3
   1778   1776   1779   1780     1  0.0000000  0.6508444  3
   1778   1776   1779   1781     1  0.0000000  0.6508444  3
   1780   1779   1788   1797     1  0.0000000  1.0460000  1
   1780   1779   1788   1797     1  0.0000000  0.0000000  3
   1780   1779   1788   1789     1  0.0000000  0.6508444  3
   1780   1779   1788   1790     1  0.0000000  0.6508444  3
   1781   1779   1788   1797     1  0.0000000  1.0460000  1
   1781   1779   1788   1797     1  0.0000000  0.0000000  3
   1781   1779   1788   1789     1  0.0000000  0.6508444  3
   1781   1779   1788   1790     1  0.0000000  0.6508444  3
   1783   1782   1794   3653     1  0.0000000  1.0460000  1
   1783   1782   1794   3653     1  0.0000000  0.0000000  3
   1783   1782   1794   1795     1  0.0000000  0.6508444  3
   1783   1782   1794   1796     1  0.0000000  0.6508444  3
   1784   1782   1794   3653     1  0.0000000  1.0460000  1
   1784   1782   1794   3653     1  0.0000000  0.0000000  3
   1784   1782   1794   1795     1  0.0000000  0.6508444  3
   1784   1782   1794   1796     1  0.0000000  0.6508444  3
   1786   1785   1791   3624     1  0.0000000  1.0460000  1
   1786   1785   1791   3624     1  0.0000000  0.0000000  3
   1786   1785   1791   1792     1  0.0000000  0.6508444  3
   1786   1785   1791   1793     1  0.0000000  0.6508444  3
   1787   1785   1791   3624     1  0.0000000  1.0460000  1
   1787   1785   1791   3624     1  0.0000000  0.0000000  3
   1787   1785   1791   1792     1  0.0000000  0.6508444  3
   1787   1785   1791   1793     1  0.0000000  0.6508444  3
   1791   3624   3615   3616     1  0.0000000  1.6038667  3
   1791   3624   3615   3617     1  0.0000000  1.6038667  3
   1792   1791   3624   3615     1  0.0000000  1.6038667  3
   1793   1791   3624   3615     1  0.0000000  1.6038667  3
   1794   3653   3644   3645     1  0.0000000  1.6038667  3
   1794   3653   3644   3646     1  0.0000000  1.6038667  3
   1795   1794   3653   3644     1  0.0000000  1.6038667  3
   1796   1794   3653   3644     1  0.0000000  1.6038667  3
   1798   1799   1811   1812     1  0.0000000  0.6508444  3
   1798   1799   1811   1813     1  0.0000000  0.6508444  3
   1798   1802   1814   1815     1  0.0000000  0.6508444  3
   1798   1802   1814   1816     1  0.0000000  0.6508444  3
   1798   1805   1808   1809     1  0.0000000  0.6508444  3
   1798   1805   1808   1810     1  0.0000000  0.6508444  3
   1799   1798   1802   1803     1  0.0000000  1.2552000  3
   1799   1798   1802   1804     1  0.0000000  1.2552000  3
   1799   1798   1805   1806     1  0.0000000  1.2552000  3
   1799   1798   1805   1807     1  0.0000000  1.2552000  3
   1799   1811   1823   1824     1  0.0000000  0.6508444  3
   1799   1811   1823   1825     1  0.0000000  0.6508444  3
   1800   1799   1798   1802     1  0.0000000  1.2552000  3
   1800   1799   1798   1805     1  0.0000000  1.2552000  3
   1800   1799   1811   1823     1  0.0000000  0.6508444  3
   1800   1799   1811   1812     1  0.0000000  0.6508444  3
   1800   1799   1811   1813     1  0.0000000  0.6508444  3
   1801   1799   1798   1802     1  0.0000000  1.2552000  3
   1801   1799   1798   1805     1  0.0000000  1.2552000  3
   1801   1799   1811   1823     1  0.0000000  0.6508444  3
   1801   1799   1811   1812     1  0.0000000  0.6508444  3
   1801   1799   1811   1813     1  0.0000000  0.6508444  3
   1802   1798   1805   1806     1  0.0000000  1.2552000  3
   1802   1798   1805   1807     1  0.0000000  1.2552000  3
   1802   1814   1820   1821     1  0.0000000  0.6508444  3
   1802   1814   1820   1822     1  0.0000000  0.6508444  3
   1803   1802   1798   1805     1  0.0000000  1.2552000  3
   1803   1802   1814   1820     1  0.0000000  0.6508444  3
   1803   1802   1814   1815     1  0.0000000  0.6508444  3
   1803   1802   1814   1816     1  0.0000000  0.6508444  3
   1804   1802   1798   1805     1  0.0000000  1.2552000  3
   1804   1802   1814   1820     1  0.0000000  0.6508444  3
   1804   1802   1814   1815     1  0.0000000  0.6508444  3
   1804   1802   1814   1816     1  0.0000000  0.6508444  3
   1805   1808   1817   1818     1  0.0000000  0.6508444  3
   1805   1808   1817   1819     1  0.0000000  0.6508444  3
   1806   1805   1808   1817     1  0.0000000  0.6508444  3
   1806   1805   1808   1809     1  0.0000000  0.6508444  3
   1806   1805   1808   1810     1  0.0000000  0.6508444  3
   1807   1805   1808   1817     1  0.0000000  0.6508444  3
   1807   1805   1808   1809     1  0.0000000  0.6508444  3
   1807   1805   1808   1810     1  0.0000000  0.6508444  3
   1809   1808   1817   1826     1  0.0000000  1.0460000  1
   1809   1808   1817   1826     1  0.0000000  0.0000000  3
   1809   1808   1817   1818     1  0.0000000  0.6508444  3
   1809   1808   1817   1819     1  0.0000000  0.6508444  3
   1810   1808   1817   1826     1  0.0000000  1.0460000  1
   1810   1808   1817   1826     1  0.0000000  0.0000000  3
   1810   1808   1817   1818     1  0.0000000  0.6508444  3
   1810   1808   1817   1819     1  0.0000000  0.6508444  3
   1812   1811   1823   3711     1  0.0000000  1.0460000  1
   1812   1811   1823   3711     1  0.0000000  0.0000000  3
   1812   1811   1823   1824     1  0.0000000  0.6508444  3
   1812   1811   1823   1825     1  0.0000000  0.6508444  3
   1813   1811   1823   3711     1  0.0000000  1.0460000  1
   1813   1811   1823   3711     1  0.0000000  0.0000000  3
   1813   1811   1823   1824     1  0.0000000  0.6508444  3
   1813   1811   1823   1825     1  0.0000000  0.6508444  3
   1815   1814   1820   3682     1  0.0000000  1.0460000  1
   1815   1814   1820   3682     1  0.0000000  0.0000000  3
   1815   1814   1820   1821     1  0.0000000  0.6508444  3
   1815   1814   1820   1822     1  0.0000000  0.6508444  3
   1816   1814   1820   3682     1  0.0000000  1.0460000  1
   1816   1814   1820   3682     1  0.0000000  0.0000000  3
   1816   1814   1820   1821     1  0.0000000  0.6508444  3
   1816   1814   1820   1822     1  0.0000000  0.6508444  3
   1820   3682   3673   3674     1  0.0000000  1.6038667  3
   1820   3682   3673   3675     1  0.0000000  1.6038667  3
   1821   1820   3682   3673     1  0.0000000  1.6038667  3
   1822   1820   3682   3673     1  0.0000000  1.6038667  3
   1823   3711   3702   3703     1  0.0000000  1.6038667  3
   1823   3711   3702   3704     1  0.0000000  1.6038667  3
   1824   1823   3711   3702     1  0.0000000  1.6038667  3
   1825   1823   3711   3702     1  0.0000000  1.6038667  3
   1827   1828   1840   1841     1  0.0000000  0.6508444  3
   1827   1828   1840   1842     1  0.0000000  0.6508444  3
   1827   1831   1843   1844     1  0.0000000  0.6508444  3
   1827   1831   1843   1845     1  0.0000000  0.6508444  3
   1827   1834   1837   1838     1  0.0000000  0.6508444  3
   1827   1834   1837   1839     1  0.0000000  0.6508444  3
   1828   1827   1831   1832     1  0.0000000  1.2552000  3
   1828   1827   1831   1833     1  0.0000000  1.2552000  3
   1828   1827   1834   1835     1  0.0000000  1.2552000  3
   1828   1827   1834   1836     1  0.0000000  1.2552000  3
   1828   1840   1852   1853     1  0.0000000  0.6508444  3
   1828   1840   1852   1854     1  0.0000000  0.6508444  3
   1829   1828   1827   1831     1  0.0000000  1.2552000  3
   1829   1828   1827   1834     1  0.0000000  1.2552000  3
   1829   1828   1840   1852     1  0.0000000  0.6508444  3
   1829   1828   1840   1841     1  0.0000000  0.6508444  3
   1829   1828   1840   1842     1  0.0000000  0.6508444  3
   1830   1828   1827   1831     1  0.0000000  1.2552000  3
   1830   1828   1827   1834     1  0.0000000  1.2552000  3
   1830   1828   1840   1852     1  0.0000000  0.6508444  3
   1830   1828   1840   1841     1  0.0000000  0.6508444  3
   1830   1828   1840   1842     1  0.0000000  0.6508444  3
   1831   1827   1834   1835     1  0.0000000  1.2552000  3
   1831   1827   1834   1836     1  0.0000000  1.2552000  3
   1831   1843   1849   1850     1  0.0000000  0.6508444  3
   1831   1843   1849   1851     1  0.0000000  0.6508444  3
   1832   1831   1827   1834     1  0.0000000  1.2552000  3
   1832   1831   1843   1849     1  0.0000000  0.6508444  3
   1832   1831   1843   1844     1  0.0000000  0.6508444  3
   1832   1831   1843   1845     1  0.0000000  0.6508444  3
   1833   1831   1827   1834     1  0.0000000  1.2552000  3
   1833   1831   1843   1849     1  0.0000000  0.6508444  3
   1833   1831   1843   1844     1  0.0000000  0.6508444  3
   1833   1831   1843   1845     1  0.0000000  0.6508444  3
   1834   1837   1846   1847     1  0.0000000  0.6508444  3
   1834   1837   1846   1848     1  0.0000000  0.6508444  3
   1835   1834   1837   1846     1  0.0000000  0.6508444  3
   1835   1834   1837   1838     1  0.0000000  0.6508444  3
   1835   1834   1837   1839     1  0.0000000  0.6508444  3
   1836   1834   1837   1846     1  0.0000000  0.6508444  3
   1836   1834   1837   1838     1  0.0000000  0.6508444  3
   1836   1834   1837   1839     1  0.0000000  0.6508444  3
   1838   1837   1846   1855     1  0.0000000  1.0460000  1
   1838   1837   1846   1855     1  0.0000000  0.0000000  3
   1838   1837   1846   1847     1  0.0000000  0.6508444  3
   1838   1837   1846   1848     1  0.0000000  0.6508444  3
   1839   1837   1846   1855     1  0.0000000  1.0460000  1
   1839   1837   1846   1855     1  0.0000000  0.0000000  3
   1839   1837   1846   1847     1  0.0000000  0.6508444  3
   1839   1837   1846   1848     1  0.0000000  0.6508444  3
   1841   1840   1852   3769     1  0.0000000  1.0460000  1
   1841   1840   1852   3769     1  0.0000000  0.0000000  3
   1841   1840   1852   1853     1  0.0000000  0.6508444  3
   1841   1840   1852   1854     1  0.0000000  0.6508444  3
   1842   1840   1852   3769     1  0.0000000  1.0460000  1
   1842   1840   1852   3769     1  0.0000000  0.0000000  3
   1842   1840   1852   1853     1  0.0000000  0.6508444  3
   1842   1840   1852   1854     1  0.0000000  0.6508444  3
   1844   1843   1849   3740     1  0.0000000  1.0460000  1
   1844   1843   1849   3740     1  0.0000000  0.0000000  3
   1844   1843   1849   1850     1  0.0000000  0.6508444  3
   1844   1843   1849   1851     1  0.0000000  0.6508444  3
   1845   1843   1849   3740     1  0.0000000  1.0460000  1
   1845   1843   1849   3740     1  0.0000000  0.0000000  3
   1845   1843   1849   1850     1  0.0000000  0.6508444  3
   1845   1843   1849   1851     1  0.0000000  0.6508444  3
   1849   3740   3731   3732     1  0.0000000  1.6038667  3
   1849   3740   3731   3733     1  0.0000000  1.6038667  3
   1850   1849   3740   3731     1  0.0000000  1.6038667  3
   1851   1849   3740   3731     1  0.0000000  1.6038667  3
   1852   3769   3760   3761     1  0.0000000  1.6038667  3
   1852   3769   3760   3762     1  0.0000000  1.6038667  3
   1853   1852   3769   3760     1  0.0000000  1.6038667  3
   1854   1852   3769   3760     1  0.0000000  1.6038667  3
   1856   1857   1869   1870     1  0.0000000  0.6508444  3
   1856   1857   1869   1871     1  0.0000000  0.6508444  3
   1856   1860   1872   1873     1  0.0000000  0.6508444  3
   1856   1860   1872   1874     1  0.0000000  0.6508444  3
   1856   1863   1866   1867     1  0.0000000  0.6508444  3
   1856   1863   1866   1868     1  0.0000000  0.6508444  3
   1857   1856   1860   1861     1  0.0000000  1.2552000  3
   1857   1856   1860   1862     1  0.0000000  1.2552000  3
   1857   1856   1863   1864     1  0.0000000  1.2552000  3
   1857   1856   1863   1865     1  0.0000000  1.2552000  3
   1857   1869   1881   1882     1  0.0000000  0.6508444  3
   1857   1869   1881   1883     1  0.0000000  0.6508444  3
   1858   1857   1856   1860     1  0.0000000  1.2552000  3
   1858   1857   1856   1863     1  0.0000000  1.2552000  3
   1858   1857   1869   1881     1  0.0000000  0.6508444  3
   1858   1857   1869   1870     1  0.0000000  0.6508444  3
   1858   1857   1869   1871     1  0.0000000  0.6508444  3
   1859   1857   1856   1860     1  0.0000000  1.2552000  3
   1859   1857   1856   1863     1  0.0000000  1.2552000  3
   1859   1857   1869   1881     1  0.0000000  0.6508444  3
   1859   1857   1869   1870     1  0.0000000  0.6508444  3
   1859   1857   1869   1871     1  0.0000000  0.6508444  3
   1860   1856   1863   1864     1  0.0000000  1.2552000  3
   1860   1856   1863   1865     1  0.0000000  1.2552000  3
   1860   1872   1878   1879     1  0.0000000  0.6508444  3
   1860   1872   1878   1880     1  0.0000000  0.6508444  3
   1861   1860   1856   1863     1  0.0000000  1.2552000  3
   1861   1860   1872   1878     1  0.0000000  0.6508444  3
   1861   1860   1872   1873     1  0.0000000  0.6508444  3
   1861   1860   1872   1874     1  0.0000000  0.6508444  3
   1862   1860   1856   1863     1  0.0000000  1.2552000  3
   1862   1860   1872   1878     1  0.0000000  0.6508444  3
   1862   1860   1872   1873     1  0.0000000  0.6508444  3
   1862   1860   1872   1874     1  0.0000000  0.6508444  3
   1863   1866   1875   1876     1  0.0000000  0.6508444  3
   1863   1866   1875   1877     1  0.0000000  0.6508444  3
   1864   1863   1866   1875     1  0.0000000  0.6508444  3
   1864   1863   1866   1867     1  0.0000000  0.6508444  3
   1864   1863   1866   1868     1  0.0000000  0.6508444  3
   1865   1863   1866   1875     1  0.0000000  0.6508444  3
   1865   1863   1866   1867     1  0.0000000  0.6508444  3
   1865   1863   1866   1868     1  0.0000000  0.6508444  3
   1867   1866   1875   1884     1  0.0000000  1.0460000  1
   1867   1866   1875   1884     1  0.0000000  0.0000000  3
   1867   1866   1875   1876     1  0.0000000  0.6508444  3
   1867   1866   1875   1877     1  0.0000000  0.6508444  3
   1868   1866   1875   1884     1  0.0000000  1.0460000  1
   1868   1866   1875   1884     1  0.0000000  0.0000000  3
   1868   1866   1875   1876     1  0.0000000  0.6508444  3
   1868   1866   1875   1877     1  0.0000000  0.6508444  3
   1870   1869   1881   3827     1  0.0000000  1.0460000  1
   1870   1869   1881   3827     1  0.0000000  0.0000000  3
   1870   1869   1881   1882     1  0.0000000  0.6508444  3
   1870   1869   1881   1883     1  0.0000000  0.6508444  3
   1871   1869   1881   3827     1  0.0000000  1.0460000  1
   1871   1869   1881   3827     1  0.0000000  0.0000000  3
   1871   1869   1881   1882     1  0.0000000  0.6508444  3
   1871   1869   1881   1883     1  0.0000000  0.6508444  3
   1873   1872   1878   3798     1  0.0000000  1.0460000  1
   1873   1872   1878   3798     1  0.0000000  0.0000000  3
   1873   1872   1878   1879     1  0.0000000  0.6508444  3
   1873   1872   1878   1880     1  0.0000000  0.6508444  3
   1874   1872   1878   3798     1  0.0000000  1.0460000  1
   1874   1872   1878   3798     1  0.0000000  0.0000000  3
   1874   1872   1878   1879     1  0.0000000  0.6508444  3
   1874   1872   1878   1880     1  0.0000000  0.6508444  3
   1878   3798   3789   3790     1  0.0000000  1.6038667  3
   1878   3798   3789   3791     1  0.0000000  1.6038667  3
   1879   1878   3798   3789     1  0.0000000  1.6038667  3
   1880   1878   3798   3789     1  0.0000000  1.6038667  3
   1881   3827   3818   3819     1  0.0000000  1.6038667  3
   1881   3827   3818   3820     1  0.0000000  1.6038667  3
   1882   1881   3827   3818     1  0.0000000  1.6038667  3
   1883   1881   3827   3818     1  0.0000000  1.6038667  3
   1885   1886   1898   1899     1  0.0000000  0.6508444  3
   1885   1886   1898   1900     1  0.0000000  0.6508444  3
   1885   1889   1901   1902     1  0.0000000  0.6508444  3
   1885   1889   1901   1903     1  0.0000000  0.6508444  3
   1885   1892   1895   1896     1  0.0000000  0.6508444  3
   1885   1892   1895   1897     1  0.0000000  0.6508444  3
   1886   1885   1889   1890     1  0.0000000  1.2552000  3
   1886   1885   1889   1891     1  0.0000000  1.2552000  3
   1886   1885   1892   1893     1  0.0000000  1.2552000  3
   1886   1885   1892   1894     1  0.0000000  1.2552000  3
   1886   1898   1910   1911     1  0.0000000  0.6508444  3
   1886   1898   1910   1912     1  0.0000000  0.6508444  3
   1887   1886   1885   1889     1  0.0000000  1.2552000  3
   1887   1886   1885   1892     1  0.0000000  1.2552000  3
   1887   1886   1898   1910     1  0.0000000  0.6508444  3
   1887   1886   1898   1899     1  0.0000000  0.6508444  3
   1887   1886   1898   1900     1  0.0000000  0.6508444  3
   1888   1886   1885   1889     1  0.0000000  1.2552000  3
   1888   1886   1885   1892     1  0.0000000  1.2552000  3
   1888   1886   1898   1910     1  0.0000000  0.6508444  3
   1888   1886   1898   1899     1  0.0000000  0.6508444  3
   1888   1886   1898   1900     1  0.0000000  0.6508444  3
   1889   1885   1892   1893     1  0.0000000  1.2552000  3
   1889   1885   1892   1894     1  0.0000000  1.2552000  3
   1889   1901   1907   1908     1  0.0000000  0.6508444  3
   1889   1901   1907   1909     1  0.0000000  0.6508444  3
   1890   1889   1885   1892     1  0.0000000  1.2552000  3
   1890   1889   1901   1907     1  0.0000000  0.6508444  3
   1890   1889   1901   1902     1  0.0000000  0.6508444  3
   1890   1889   1901   1903     1  0.0000000  0.6508444  3
   1891   1889   1885   1892     1  0.0000000  1.2552000  3
   1891   1889   1901   1907     1  0.0000000  0.6508444  3
   1891   1889   1901   1902     1  0.0000000  0.6508444  3
   1891   1889   1901   1903     1  0.0000000  0.6508444  3
   1892   1895   1904   1905     1  0.0000000  0.6508444  3
   1892   1895   1904   1906     1  0.0000000  0.6508444  3
   1893   1892   1895   1904     1  0.0000000  0.6508444  3
   1893   1892   1895   1896     1  0.0000000  0.6508444  3
   1893   1892   1895   1897     1  0.0000000  0.6508444  3
   1894   1892   1895   1904     1  0.0000000  0.6508444  3
   1894   1892   1895   1896     1  0.0000000  0.6508444  3
   1894   1892   1895   1897     1  0.0000000  0.6508444  3
   1896   1895   1904   1913     1  0.0000000  1.0460000  1
   1896   1895   1904   1913     1  0.0000000  0.0000000  3
   1896   1895   1904   1905     1  0.0000000  0.6508444  3
   1896   1895   1904   1906     1  0.0000000  0.6508444  3
   1897   1895   1904   1913     1  0.0000000  1.0460000  1
   1897   1895   1904   1913     1  0.0000000  0.0000000  3
   1897   1895   1904   1905     1  0.0000000  0.6508444  3
   1897   1895   1904   1906     1  0.0000000  0.6508444  3
   1899   1898   1910   3885     1  0.0000000  1.0460000  1
   1899   1898   1910   3885     1  0.0000000  0.0000000  3
   1899   1898   1910   1911     1  0.0000000  0.6508444  3
   1899   1898   1910   1912     1  0.0000000  0.6508444  3
   1900   1898   1910   3885     1  0.0000000  1.0460000  1
   1900   1898   1910   3885     1  0.0000000  0.0000000  3
   1900   1898   1910   1911     1  0.0000000  0.6508444  3
   1900   1898   1910   1912     1  0.0000000  0.6508444  3
   1902   1901   1907   3856     1  0.0000000  1.0460000  1
   1902   1901   1907   3856     1  0.0000000  0.0000000  3
   1902   1901   1907   1908     1  0.0000000  0.6508444  3
   1902   1901   1907   1909     1  0.0000000  0.6508444  3
   1903   1901   1907   3856     1  0.0000000  1.0460000  1
   1903   1901   1907   3856     1  0.0000000  0.0000000  3
   1903   1901   1907   1908     1  0.0000000  0.6508444  3
   1903   1901   1907   1909     1  0.0000000  0.6508444  3
   1907   3856   3847   3848     1  0.0000000  1.6038667  3
   1907   3856   3847   3849     1  0.0000000  1.6038667  3
   1908   1907   3856   3847     1  0.0000000  1.6038667  3
   1909   1907   3856   3847     1  0.0000000  1.6038667  3
   1910   3885   3876   3877     1  0.0000000  1.6038667  3
   1910   3885   3876   3878     1  0.0000000  1.6038667  3
   1911   1910   3885   3876     1  0.0000000  1.6038667  3
   1912   1910   3885   3876     1  0.0000000  1.6038667  3
   1914   1915   1927   1928     1  0.0000000  0.6508444  3
   1914   1915   1927   1929     1  0.0000000  0.6508444  3
   1914   1918   1930   1931     1  0.0000000  0.6508444  3
   1914   1918   1930   1932     1  0.0000000  0.6508444  3
   1914   1921   1924   1925     1  0.0000000  0.6508444  3
   1914   1921   1924   1926     1  0.0000000  0.6508444  3
   1915   1914   1918   1919     1  0.0000000  1.2552000  3
   1915   1914   1918   1920     1  0.0000000  1.2552000  3
   1915   1914   1921   1922     1  0.0000000  1.2552000  3
   1915   1914   1921   1923     1  0.0000000  1.2552000  3
   1915   1927   1939   1940     1  0.0000000  0.6508444  3
   1915   1927   1939   1941     1  0.0000000  0.6508444  3
   1916   1915   1914   1918     1  0.0000000  1.2552000  3
   1916   1915   1914   1921     1  0.0000000  1.2552000  3
   1916   1915   1927   1939     1  0.0000000  0.6508444  3
   1916   1915   1927   1928     1  0.0000000  0.6508444  3
   1916   1915   1927   1929     1  0.0000000  0.6508444  3
   1917   1915   1914   1918     1  0.0000000  1.2552000  3
   1917   1915   1914   1921     1  0.0000000  1.2552000  3
   1917   1915   1927   1939     1  0.0000000  0.6508444  3
   1917   1915   1927   1928     1  0.0000000  0.6508444  3
   1917   1915   1927   1929     1  0.0000000  0.6508444  3
   1918   1914   1921   1922     1  0.0000000  1.2552000  3
   1918   1914   1921   1923     1  0.0000000  1.2552000  3
   1918   1930   1936   1937     1  0.0000000  0.6508444  3
   1918   1930   1936   1938     1  0.0000000  0.6508444  3
   1919   1918   1914   1921     1  0.0000000  1.2552000  3
   1919   1918   1930   1936     1  0.0000000  0.6508444  3
   1919   1918   1930   1931     1  0.0000000  0.6508444  3
   1919   1918   1930   1932     1  0.0000000  0.6508444  3
   1920   1918   1914   1921     1  0.0000000  1.2552000  3
   1920   1918   1930   1936     1  0.0000000  0.6508444  3
   1920   1918   1930   1931     1  0.0000000  0.6508444  3
   1920   1918   1930   1932     1  0.0000000  0.6508444  3
   1921   1924   1933   1934     1  0.0000000  0.6508444  3
   1921   1924   1933   1935     1  0.0000000  0.6508444  3
   1922   1921   1924   1933     1  0.0000000  0.6508444  3
   1922   1921   1924   1925     1  0.0000000  0.6508444  3
   1922   1921   1924   1926     1  0.0000000  0.6508444  3
   1923   1921   1924   1933     1  0.0000000  0.6508444  3
   1923   1921   1924   1925     1  0.0000000  0.6508444  3
   1923   1921   1924   1926     1  0.0000000  0.6508444  3
   1925   1924   1933   1942     1  0.0000000  1.0460000  1
   1925   1924   1933   1942     1  0.0000000  0.0000000  3
   1925   1924   1933   1934     1  0.0000000  0.6508444  3
   1925   1924   1933   1935     1  0.0000000  0.6508444  3
   1926   1924   1933   1942     1  0.0000000  1.0460000  1
   1926   1924   1933   1942     1  0.0000000  0.0000000  3
   1926   1924   1933   1934     1  0.0000000  0.6508444  3
   1926   1924   1933   1935     1  0.0000000  0.6508444  3
   1928   1927   1939   3943     1  0.0000000  1.0460000  1
   1928   1927   1939   3943     1  0.0000000  0.0000000  3
   1928   1927   1939   1940     1  0.0000000  0.6508444  3
   1928   1927   1939   1941     1  0.0000000  0.6508444  3
   1929   1927   1939   3943     1  0.0000000  1.0460000  1
   1929   1927   1939   3943     1  0.0000000  0.0000000  3
   1929   1927   1939   1940     1  0.0000000  0.6508444  3
   1929   1927   1939   1941     1  0.0000000  0.6508444  3
   1931   1930   1936   3914     1  0.0000000  1.0460000  1
   1931   1930   1936   3914     1  0.0000000  0.0000000  3
   1931   1930   1936   1937     1  0.0000000  0.6508444  3
   1931   1930   1936   1938     1  0.0000000  0.6508444  3
   1932   1930   1936   3914     1  0.0000000  1.0460000  1
   1932   1930   1936   3914     1  0.0000000  0.0000000  3
   1932   1930   1936   1937     1  0.0000000  0.6508444  3
   1932   1930   1936   1938     1  0.0000000  0.6508444  3
   1936   3914   3905   3906     1  0.0000000  1.6038667  3
   1936   3914   3905   3907     1  0.0000000  1.6038667  3
   1937   1936   3914   3905     1  0.0000000  1.6038667  3
   1938   1936   3914   3905     1  0.0000000  1.6038667  3
   1939   3943   3934   3935     1  0.0000000  1.6038667  3
   1939   3943   3934   3936     1  0.0000000  1.6038667  3
   1940   1939   3943   3934     1  0.0000000  1.6038667  3
   1941   1939   3943   3934     1  0.0000000  1.6038667  3
   1943   1944   1956   1957     1  0.0000000  0.6508444  3
   1943   1944   1956   1958     1  0.0000000  0.6508444  3
   1943   1947   1959   1960     1  0.0000000  0.6508444  3
   1943   1947   1959   1961     1  0.0000000  0.6508444  3
   1943   1950   1953   1954     1  0.0000000  0.6508444  3
   1943   1950   1953   1955     1  0.0000000  0.6508444  3
   1944   1943   1947   1948     1  0.0000000  1.2552000  3
   1944   1943   1947   1949     1  0.0000000  1.2552000  3
   1944   1943   1950   1951     1  0.0000000  1.2552000  3
   1944   1943   1950   1952     1  0.0000000  1.2552000  3
   1944   1956   1968   1969     1  0.0000000  0.6508444  3
   1944   1956   1968   1970     1  0.0000000  0.6508444  3
   1945   1944   1943   1947     1  0.0000000  1.2552000  3
   1945   1944   1943   1950     1  0.0000000  1.2552000  3
   1945   1944   1956   1968     1  0.0000000  0.6508444  3
   1945   1944   1956   1957     1  0.0000000  0.6508444  3
   1945   1944   1956   1958     1  0.0000000  0.6508444  3
   1946   1944   1943   1947     1  0.0000000  1.2552000  3
   1946   1944   1943   1950     1  0.0000000  1.2552000  3
   1946   1944   1956   1968     1  0.0000000  0.6508444  3
   1946   1944   1956   1957     1  0.0000000  0.6508444  3
   1946   1944   1956   1958     1  0.0000000  0.6508444  3
   1947   1943   1950   1951     1  0.0000000  1.2552000  3
   1947   1943   1950   1952     1  0.0000000  1.2552000  3
   1947   1959   1965   1966     1  0.0000000  0.6508444  3
   1947   1959   1965   1967     1  0.0000000  0.6508444  3
   1948   1947   1943   1950     1  0.0000000  1.2552000  3
   1948   1947   1959   1965     1  0.0000000  0.6508444  3
   1948   1947   1959   1960     1  0.0000000  0.6508444  3
   1948   1947   1959   1961     1  0.0000000  0.6508444  3
   1949   1947   1943   1950     1  0.0000000  1.2552000  3
   1949   1947   1959   1965     1  0.0000000  0.6508444  3
   1949   1947   1959   1960     1  0.0000000  0.6508444  3
   1949   1947   1959   1961     1  0.0000000  0.6508444  3
   1950   1953   1962   1963     1  0.0000000  0.6508444  3
   1950   1953   1962   1964     1  0.0000000  0.6508444  3
   1951   1950   1953   1962     1  0.0000000  0.6508444  3
   1951   1950   1953   1954     1  0.0000000  0.6508444  3
   1951   1950   1953   1955     1  0.0000000  0.6508444  3
   1952   1950   1953   1962     1  0.0000000  0.6508444  3
   1952   1950   1953   1954     1  0.0000000  0.6508444  3
   1952   1950   1953   1955     1  0.0000000  0.6508444  3
   1954   1953   1962   1971     1  0.0000000  1.0460000  1
   1954   1953   1962   1971     1  0.0000000  0.0000000  3
   1954   1953   1962   1963     1  0.0000000  0.6508444  3
   1954   1953   1962   1964     1  0.0000000  0.6508444  3
   1955   1953   1962   1971     1  0.0000000  1.0460000  1
   1955   1953   1962   1971     1  0.0000000  0.0000000  3
   1955   1953   1962   1963     1  0.0000000  0.6508444  3
   1955   1953   1962   1964     1  0.0000000  0.6508444  3
   1957   1956   1968   4001     1  0.0000000  1.0460000  1
   1957   1956   1968   4001     1  0.0000000  0.0000000  3
   1957   1956   1968   1969     1  0.0000000  0.6508444  3
   1957   1956   1968   1970     1  0.0000000  0.6508444  3
   1958   1956   1968   4001     1  0.0000000  1.0460000  1
   1958   1956   1968   4001     1  0.0000000  0.0000000  3
   1958   1956   1968   1969     1  0.0000000  0.6508444  3
   1958   1956   1968   1970     1  0.0000000  0.6508444  3
   1960   1959   1965   3972     1  0.0000000  1.0460000  1
   1960   1959   1965   3972     1  0.0000000  0.0000000  3
   1960   1959   1965   1966     1  0.0000000  0.6508444  3
   1960   1959   1965   1967     1  0.0000000  0.6508444  3
   1961   1959   1965   3972     1  0.0000000  1.0460000  1
   1961   1959   1965   3972     1  0.0000000  0.0000000  3
   1961   1959   1965   1966     1  0.0000000  0.6508444  3
   1961   1959   1965   1967     1  0.0000000  0.6508444  3
   1965   3972   3963   3964     1  0.0000000  1.6038667  3
   1965   3972   3963   3965     1  0.0000000  1.6038667  3
   1966   1965   3972   3963     1  0.0000000  1.6038667  3
   1967   1965   3972   3963     1  0.0000000  1.6038667  3
   1968   4001   3992   3993     1  0.0000000  1.6038667  3
   1968   4001   3992   3994     1  0.0000000  1.6038667  3
   1969   1968   4001   3992     1  0.0000000  1.6038667  3
   1970   1968   4001   3992     1  0.0000000  1.6038667  3
   1972   1973   1985   1986     1  0.0000000  0.6508444  3
   1972   1973   1985   1987     1  0.0000000  0.6508444  3
   1972   1976   1988   1989     1  0.0000000  0.6508444  3
   1972   1976   1988   1990     1  0.0000000  0.6508444  3
   1972   1979   1982   1983     1  0.0000000  0.6508444  3
   1972   1979   1982   1984     1  0.0000000  0.6508444  3
   1973   1972   1976   1977     1  0.0000000  1.2552000  3
   1973   1972   1976   1978     1  0.0000000  1.2552000  3
   1973   1972   1979   1980     1  0.0000000  1.2552000  3
   1973   1972   1979   1981     1  0.0000000  1.2552000  3
   1973   1985   1997   1998     1  0.0000000  0.6508444  3
   1973   1985   1997   1999     1  0.0000000  0.6508444  3
   1974   1973   1972   1976     1  0.0000000  1.2552000  3
   1974   1973   1972   1979     1  0.0000000  1.2552000  3
   1974   1973   1985   1997     1  0.0000000  0.6508444  3
   1974   1973   1985   1986     1  0.0000000  0.6508444  3
   1974   1973   1985   1987     1  0.0000000  0.6508444  3
   1975   1973   1972   1976     1  0.0000000  1.2552000  3
   1975   1973   1972   1979     1  0.0000000  1.2552000  3
   1975   1973   1985   1997     1  0.0000000  0.6508444  3
   1975   1973   1985   1986     1  0.0000000  0.6508444  3
   1975   1973   1985   1987     1  0.0000000  0.6508444  3
   1976   1972   1979   1980     1  0.0000000  1.2552000  3
   1976   1972   1979   1981     1  0.0000000  1.2552000  3
   1976   1988   1994   1995     1  0.0000000  0.6508444  3
   1976   1988   1994   1996     1  0.0000000  0.6508444  3
   1977   1976   1972   1979     1  0.0000000  1.2552000  3
   1977   1976   1988   1994     1  0.0000000  0.6508444  3
   1977   1976   1988   1989     1  0.0000000  0.6508444  3
   1977   1976   1988   1990     1  0.0000000  0.6508444  3
   1978   1976   1972   1979     1  0.0000000  1.2552000  3
   1978   1976   1988   1994     1  0.0000000  0.6508444  3
   1978   1976   1988   1989     1  0.0000000  0.6508444  3
   1978   1976   1988   1990     1  0.0000000  0.6508444  3
   1979   1982   1991   1992     1  0.0000000  0.6508444  3
   1979   1982   1991   1993     1  0.0000000  0.6508444  3
   1980   1979   1982   1991     1  0.0000000  0.6508444  3
   1980   1979   1982   1983     1  0.0000000  0.6508444  3
   1980   1979   1982   1984     1  0.0000000  0.6508444  3
   1981   1979   1982   1991     1  0.0000000  0.6508444  3
   1981   1979   1982   1983     1  0.0000000  0.6508444  3
   1981   1979   1982   1984     1  0.0000000  0.6508444  3
   1983   1982   1991   2000     1  0.0000000  1.0460000  1
   1983   1982   1991   2000     1  0.0000000  0.0000000  3
   1983   1982   1991   1992     1  0.0000000  0.6508444  3
   1983   1982   1991   1993     1  0.0000000  0.6508444  3
   1984   1982   1991   2000     1  0.0000000  1.0460000  1
   1984   1982   1991   2000     1  0.0000000  0.0000000  3
   1984   1982   1991   1992     1  0.0000000  0.6508444  3
   1984   1982   1991   1993     1  0.0000000  0.6508444  3
   1986   1985   1997   4059     1  0.0000000  1.0460000  1
   1986   1985   1997   4059     1  0.0000000  0.0000000  3
   1986   1985   1997   1998     1  0.0000000  0.6508444  3
   1986   1985   1997   1999     1  0.0000000  0.6508444  3
   1987   1985   1997   4059     1  0.0000000  1.0460000  1
   1987   1985   1997   4059     1  0.0000000  0.0000000  3
   1987   1985   1997   1998     1  0.0000000  0.6508444  3
   1987   1985   1997   1999     1  0.0000000  0.6508444  3
   1989   1988   1994   4030     1  0.0000000  1.0460000  1
   1989   1988   1994   4030     1  0.0000000  0.0000000  3
   1989   1988   1994   1995     1  0.0000000  0.6508444  3
   1989   1988   1994   1996     1  0.0000000  0.6508444  3
   1990   1988   1994   4030     1  0.0000000  1.0460000  1
   1990   1988   1994   4030     1  0.0000000  0.0000000  3
   1990   1988   1994   1995     1  0.0000000  0.6508444  3
   1990   1988   1994   1996     1  0.0000000  0.6508444  3
   1994   4030   4021   4022     1  0.0000000  1.6038667  3
   1994   4030   4021   4023     1  0.0000000  1.6038667  3
   1995   1994   4030   4021     1  0.0000000  1.6038667  3
   1996   1994   4030   4021     1  0.0000000  1.6038667  3
   1997   4059   4050   4051     1  0.0000000  1.6038667  3
   1997   4059   4050   4052     1  0.0000000  1.6038667  3
   1998   1997   4059   4050     1  0.0000000  1.6038667  3
   1999   1997   4059   4050     1  0.0000000  1.6038667  3
   2001   2002   2014   2015     1  0.0000000  0.6508444  3
   2001   2002   2014   2016     1  0.0000000  0.6508444  3
   2001   2005   2017   2018     1  0.0000000  0.6508444  3
   2001   2005   2017   2019     1  0.0000000  0.6508444  3
   2001   2008   2011   2012     1  0.0000000  0.6508444  3
   2001   2008   2011   2013     1  0.0000000  0.6508444  3
   2002   2001   2005   2006     1  0.0000000  1.2552000  3
   2002   2001   2005   2007     1  0.0000000  1.2552000  3
   2002   2001   2008   2009     1  0.0000000  1.2552000  3
   2002   2001   2008   2010     1  0.0000000  1.2552000  3
   2002   2014   2026   2027     1  0.0000000  0.6508444  3
   2002   2014   2026   2028     1  0.0000000  0.6508444  3
   2003   2002   2001   2005     1  0.0000000  1.2552000  3
   2003   2002   2001   2008     1  0.0000000  1.2552000  3
   2003   2002   2014   2026     1  0.0000000  0.6508444  3
   2003   2002   2014   2015     1  0.0000000  0.6508444  3
   2003   2002   2014   2016     1  0.0000000  0.6508444  3
   2004   2002   2001   2005     1  0.0000000  1.2552000  3
   2004   2002   2001   2008     1  0.0000000  1.2552000  3
   2004   2002   2014   2026     1  0.0000000  0.6508444  3
   2004   2002   2014   2015     1  0.0000000  0.6508444  3
   2004   2002   2014   2016     1  0.0000000  0.6508444  3
   2005   2001   2008   2009     1  0.0000000  1.2552000  3
   2005   2001   2008   2010     1  0.0000000  1.2552000  3
   2005   2017   2023   2024     1  0.0000000  0.6508444  3
   2005   2017   2023   2025     1  0.0000000  0.6508444  3
   2006   2005   2001   2008     1  0.0000000  1.2552000  3
   2006   2005   2017   2023     1  0.0000000  0.6508444  3
   2006   2005   2017   2018     1  0.0000000  0.6508444  3
   2006   2005   2017   2019     1  0.0000000  0.6508444  3
   2007   2005   2001   2008     1  0.0000000  1.2552000  3
   2007   2005   2017   2023     1  0.0000000  0.6508444  3
   2007   2005   2017   2018     1  0.0000000  0.6508444  3
   2007   2005   2017   2019     1  0.0000000  0.6508444  3
   2008   2011   2020   2021     1  0.0000000  0.6508444  3
   2008   2011   2020   2022     1  0.0000000  0.6508444  3
   2009   2008   2011   2020     1  0.0000000  0.6508444  3
   2009   2008   2011   2012     1  0.0000000  0.6508444  3
   2009   2008   2011   2013     1  0.0000000  0.6508444  3
   2010   2008   2011   2020     1  0.0000000  0.6508444  3
   2010   2008   2011   2012     1  0.0000000  0.6508444  3
   2010   2008   2011   2013     1  0.0000000  0.6508444  3
   2012   2011   2020   2029     1  0.0000000  1.0460000  1
   2012   2011   2020   2029     1  0.0000000  0.0000000  3
   2012   2011   2020   2021     1  0.0000000  0.6508444  3
   2012   2011   2020   2022     1  0.0000000  0.6508444  3
   2013   2011   2020   2029     1  0.0000000  1.0460000  1
   2013   2011   2020   2029     1  0.0000000  0.0000000  3
   2013   2011   2020   2021     1  0.0000000  0.6508444  3
   2013   2011   2020   2022     1  0.0000000  0.6508444  3
   2015   2014   2026   4117     1  0.0000000  1.0460000  1
   2015   2014   2026   4117     1  0.0000000  0.0000000  3
   2015   2014   2026   2027     1  0.0000000  0.6508444  3
   2015   2014   2026   2028     1  0.0000000  0.6508444  3
   2016   2014   2026   4117     1  0.0000000  1.0460000  1
   2016   2014   2026   4117     1  0.0000000  0.0000000  3
   2016   2014   2026   2027     1  0.0000000  0.6508444  3
   2016   2014   2026   2028     1  0.0000000  0.6508444  3
   2018   2017   2023   4088     1  0.0000000  1.0460000  1
   2018   2017   2023   4088     1  0.0000000  0.0000000  3
   2018   2017   2023   2024     1  0.0000000  0.6508444  3
   2018   2017   2023   2025     1  0.0000000  0.6508444  3
   2019   2017   2023   4088     1  0.0000000  1.0460000  1
   2019   2017   2023   4088     1  0.0000000  0.0000000  3
   2019   2017   2023   2024     1  0.0000000  0.6508444  3
   2019   2017   2023   2025     1  0.0000000  0.6508444  3
   2023   4088   4079   4080     1  0.0000000  1.6038667  3
   2023   4088   4079   4081     1  0.0000000  1.6038667  3
   2024   2023   4088   4079     1  0.0000000  1.6038667  3
   2025   2023   4088   4079     1  0.0000000  1.6038667  3
   2026   4117   4108   4109     1  0.0000000  1.6038667  3
   2026   4117   4108   4110     1  0.0000000  1.6038667  3
   2027   2026   4117   4108     1  0.0000000  1.6038667  3
   2028   2026   4117   4108     1  0.0000000  1.6038667  3
   2030   2031   2043   2044     1  0.0000000  0.6508444  3
   2030   2031   2043   2045     1  0.0000000  0.6508444  3
   2030   2034   2046   2047     1  0.0000000  0.6508444  3
   2030   2034   2046   2048     1  0.0000000  0.6508444  3
   2030   2037   2040   2041     1  0.0000000  0.6508444  3
   2030   2037   2040   2042     1  0.0000000  0.6508444  3
   2031   2030   2034   2035     1  0.0000000  1.2552000  3
   2031   2030   2034   2036     1  0.0000000  1.2552000  3
   2031   2030   2037   2038     1  0.0000000  1.2552000  3
   2031   2030   2037   2039     1  0.0000000  1.2552000  3
   2031   2043   2055   2056     1  0.0000000  0.6508444  3
   2031   2043   2055   2057     1  0.0000000  0.6508444  3
   2032   2031   2030   2034     1  0.0000000  1.2552000  3
   2032   2031   2030   2037     1  0.0000000  1.2552000  3
   2032   2031   2043   2055     1  0.0000000  0.6508444  3
   2032   2031   2043   2044     1  0.0000000  0.6508444  3
   2032   2031   2043   2045     1  0.0000000  0.6508444  3
   2033   2031   2030   2034     1  0.0000000  1.2552000  3
   2033   2031   2030   2037     1  0.0000000  1.2552000  3
   2033   2031   2043   2055     1  0.0000000  0.6508444  3
   2033   2031   2043   2044     1  0.0000000  0.6508444  3
   2033   2031   2043   2045     1  0.0000000  0.6508444  3
   2034   2030   2037   2038     1  0.0000000  1.2552000  3
   2034   2030   2037   2039     1  0.0000000  1.2552000  3
   2034   2046   2052   2053     1  0.0000000  0.6508444  3
   2034   2046   2052   2054     1  0.0000000  0.6508444  3
   2035   2034   2030   2037     1  0.0000000  1.2552000  3
   2035   2034   2046   2052     1  0.0000000  0.6508444  3
   2035   2034   2046   2047     1  0.0000000  0.6508444  3
   2035   2034   2046   2048     1  0.0000000  0.6508444  3
   2036   2034   2030   2037     1  0.0000000  1.2552000  3
   2036   2034   2046   2052     1  0.0000000  0.6508444  3
   2036   2034   2046   2047     1  0.0000000  0.6508444  3
   2036   2034   2046   2048     1  0.0000000  0.6508444  3
   2037   2040   2049   2050     1  0.0000000  0.6508444  3
   2037   2040   2049   2051     1  0.0000000  0.6508444  3
   2038   2037   2040   2049     1  0.0000000  0.6508444  3
   2038   2037   2040   2041     1  0.0000000  0.6508444  3
   2038   2037   2040   2042     1  0.0000000  0.6508444  3
   2039   2037   2040   2049     1  0.0000000  0.6508444  3
   2039   2037   2040   2041     1  0.0000000  0.6508444  3
   2039   2037   2040   2042     1  0.0000000  0.6508444  3
   2041   2040   2049   2058     1  0.0000000  1.0460000  1
   2041   2040   2049   2058     1  0.0000000  0.0000000  3
   2041   2040   2049   2050     1  0.0000000  0.6508444  3
   2041   2040   2049   2051     1  0.0000000  0.6508444  3
   2042   2040   2049   2058     1  0.0000000  1.0460000  1
   2042   2040   2049   2058     1  0.0000000  0.0000000  3
   2042   2040   2049   2050     1  0.0000000  0.6508444  3
   2042   2040   2049   2051     1  0.0000000  0.6508444  3
   2044   2043   2055   4175     1  0.0000000  1.0460000  1
   2044   2043   2055   4175     1  0.0000000  0.0000000  3
   2044   2043   2055   2056     1  0.0000000  0.6508444  3
   2044   2043   2055   2057     1  0.0000000  0.6508444  3
   2045   2043   2055   4175     1  0.0000000  1.0460000  1
   2045   2043   2055   4175     1  0.0000000  0.0000000  3
   2045   2043   2055   2056     1  0.0000000  0.6508444  3
   2045   2043   2055   2057     1  0.0000000  0.6508444  3
   2047   2046   2052   4146     1  0.0000000  1.0460000  1
   2047   2046   2052   4146     1  0.0000000  0.0000000  3
   2047   2046   2052   2053     1  0.0000000  0.6508444  3
   2047   2046   2052   2054     1  0.0000000  0.6508444  3
   2048   2046   2052   4146     1  0.0000000  1.0460000  1
   2048   2046   2052   4146     1  0.0000000  0.0000000  3
   2048   2046   2052   2053     1  0.0000000  0.6508444  3
   2048   2046   2052   2054     1  0.0000000  0.6508444  3
   2052   4146   4137   4138     1  0.0000000  1.6038667  3
   2052   4146   4137   4139     1  0.0000000  1.6038667  3
   2053   2052   4146   4137     1  0.0000000  1.6038667  3
   2054   2052   4146   4137     1  0.0000000  1.6038667  3
   2055   4175   4166   4167     1  0.0000000  1.6038667  3
   2055   4175   4166   4168     1  0.0000000  1.6038667  3
   2056   2055   4175   4166     1  0.0000000  1.6038667  3
   2057   2055   4175   4166     1  0.0000000  1.6038667  3
   2059   2060   2072   2073     1  0.0000000  0.6508444  3
   2059   2060   2072   2074     1  0.0000000  0.6508444  3
   2059   2063   2075   2076     1  0.0000000  0.6508444  3
   2059   2063   2075   2077     1  0.0000000  0.6508444  3
   2059   2066   2069   2070     1  0.0000000  0.6508444  3
   2059   2066   2069   2071     1  0.0000000  0.6508444  3
   2060   2059   2063   2064     1  0.0000000  1.2552000  3
   2060   2059   2063   2065     1  0.0000000  1.2552000  3
   2060   2059   2066   2067     1  0.0000000  1.2552000  3
   2060   2059   2066   2068     1  0.0000000  1.2552000  3
   2060   2072   2084   2085     1  0.0000000  0.6508444  3
   2060   2072   2084   2086     1  0.0000000  0.6508444  3
   2061   2060   2059   2063     1  0.0000000  1.2552000  3
   2061   2060   2059   2066     1  0.0000000  1.2552000  3
   2061   2060   2072   2084     1  0.0000000  0.6508444  3
   2061   2060   2072   2073     1  0.0000000  0.6508444  3
   2061   2060   2072   2074     1  0.0000000  0.6508444  3
   2062   2060   2059   2063     1  0.0000000  1.2552000  3
   2062   2060   2059   2066     1  0.0000000  1.2552000  3
   2062   2060   2072   2084     1  0.0000000  0.6508444  3
   2062   2060   2072   2073     1  0.0000000  0.6508444  3
   2062   2060   2072   2074     1  0.0000000  0.6508444  3
   2063   2059   2066   2067     1  0.0000000  1.2552000  3
   2063   2059   2066   2068     1  0.0000000  1.2552000  3
   2063   2075   2081   2082     1  0.0000000  0.6508444  3
   2063   2075   2081   2083     1  0.0000000  0.6508444  3
   2064   2063   2059   2066     1  0.0000000  1.2552000  3
   2064   2063   2075   2081     1  0.0000000  0.6508444  3
   2064   2063   2075   2076     1  0.0000000  0.6508444  3
   2064   2063   2075   2077     1  0.0000000  0.6508444  3
   2065   2063   2059   2066     1  0.0000000  1.2552000  3
   2065   2063   2075   2081     1  0.0000000  0.6508444  3
   2065   2063   2075   2076     1  0.0000000  0.6508444  3
   2065   2063   2075   2077     1  0.0000000  0.6508444  3
   2066   2069   2078   2079     1  0.0000000  0.6508444  3
   2066   2069   2078   2080     1  0.0000000  0.6508444  3
   2067   2066   2069   2078     1  0.0000000  0.6508444  3
   2067   2066   2069   2070     1  0.0000000  0.6508444  3
   2067   2066   2069   2071     1  0.0000000  0.6508444  3
   2068   2066   2069   2078     1  0.0000000  0.6508444  3
   2068   2066   2069   2070     1  0.0000000  0.6508444  3
   2068   2066   2069   2071     1  0.0000000  0.6508444  3
   2070   2069   2078   2087     1  0.0000000  1.0460000  1
   2070   2069   2078   2087     1  0.0000000  0.0000000  3
   2070   2069   2078   2079     1  0.0000000  0.6508444  3
   2070   2069   2078   2080     1  0.0000000  0.6508444  3
   2071   2069   2078   2087     1  0.0000000  1.0460000  1
   2071   2069   2078   2087     1  0.0000000  0.0000000  3
   2071   2069   2078   2079     1  0.0000000  0.6508444  3
   2071   2069   2078   2080     1  0.0000000  0.6508444  3
   2073   2072   2084   4233     1  0.0000000  1.0460000  1
   2073   2072   2084   4233     1  0.0000000  0.0000000  3
   2073   2072   2084   2085     1  0.0000000  0.6508444  3
   2073   2072   2084   2086     1  0.0000000  0.6508444  3
   2074   2072   2084   4233     1  0.0000000  1.0460000  1
   2074   2072   2084   4233     1  0.0000000  0.0000000  3
   2074   2072   2084   2085     1  0.0000000  0.6508444  3
   2074   2072   2084   2086     1  0.0000000  0.6508444  3
   2076   2075   2081   4204     1  0.0000000  1.0460000  1
   2076   2075   2081   4204     1  0.0000000  0.0000000  3
   2076   2075   2081   2082     1  0.0000000  0.6508444  3
   2076   2075   2081   2083     1  0.0000000  0.6508444  3
   2077   2075   2081   4204     1  0.0000000  1.0460000  1
   2077   2075   2081   4204     1  0.0000000  0.0000000  3
   2077   2075   2081   2082     1  0.0000000  0.6508444  3
   2077   2075   2081   2083     1  0.0000000  0.6508444  3
   2081   4204   4195   4196     1  0.0000000  1.6038667  3
   2081   4204   4195   4197     1  0.0000000  1.6038667  3
   2082   2081   4204   4195     1  0.0000000  1.6038667  3
   2083   2081   4204   4195     1  0.0000000  1.6038667  3
   2084   4233   4224   4225     1  0.0000000  1.6038667  3
   2084   4233   4224   4226     1  0.0000000  1.6038667  3
   2085   2084   4233   4224     1  0.0000000  1.6038667  3
   2086   2084   4233   4224     1  0.0000000  1.6038667  3
   2088   2089   2101   2102     1  0.0000000  0.6508444  3
   2088   2089   2101   2103     1  0.0000000  0.6508444  3
   2088   2092   2104   2105     1  0.0000000  0.6508444  3
   2088   2092   2104   2106     1  0.0000000  0.6508444  3
   2088   2095   2098   2099     1  0.0000000  0.6508444  3
   2088   2095   2098   2100     1  0.0000000  0.6508444  3
   2089   2088   2092   2093     1  0.0000000  1.2552000  3
   2089   2088   2092   2094     1  0.0000000  1.2552000  3
   2089   2088   2095   2096     1  0.0000000  1.2552000  3
   2089   2088   2095   2097     1  0.0000000  1.2552000  3
   2089   2101   2113   2114     1  0.0000000  0.6508444  3
   2089   2101   2113   2115     1  0.0000000  0.6508444  3
   2090   2089   2088   2092     1  0.0000000  1.2552000  3
   2090   2089   2088   2095     1  0.0000000  1.2552000  3
   2090   2089   2101   2113     1  0.0000000  0.6508444  3
   2090   2089   2101   2102     1  0.0000000  0.6508444  3
   2090   2089   2101   2103     1  0.0000000  0.6508444  3
   2091   2089   2088   2092     1  0.0000000  1.2552000  3
   2091   2089   2088   2095     1  0.0000000  1.2552000  3
   2091   2089   2101   2113     1  0.0000000  0.6508444  3
   2091   2089   2101   2102     1  0.0000000  0.6508444  3
   2091   2089   2101   2103     1  0.0000000  0.6508444  3
   2092   2088   2095   2096     1  0.0000000  1.2552000  3
   2092   2088   2095   2097     1  0.0000000  1.2552000  3
   2092   2104   2110   2111     1  0.0000000  0.6508444  3
   2092   2104   2110   2112     1  0.0000000  0.6508444  3
   2093   2092   2088   2095     1  0.0000000  1.2552000  3
   2093   2092   2104   2110     1  0.0000000  0.6508444  3
   2093   2092   2104   2105     1  0.0000000  0.6508444  3
   2093   2092   2104   2106     1  0.0000000  0.6508444  3
   2094   2092   2088   2095     1  0.0000000  1.2552000  3
   2094   2092   2104   2110     1  0.0000000  0.6508444  3
   2094   2092   2104   2105     1  0.0000000  0.6508444  3
   2094   2092   2104   2106     1  0.0000000  0.6508444  3
   2095   2098   2107   2108     1  0.0000000  0.6508444  3
   2095   2098   2107   2109     1  0.0000000  0.6508444  3
   2096   2095   2098   2107     1  0.0000000  0.6508444  3
   2096   2095   2098   2099     1  0.0000000  0.6508444  3
   2096   2095   2098   2100     1  0.0000000  0.6508444  3
   2097   2095   2098   2107     1  0.0000000  0.6508444  3
   2097   2095   2098   2099     1  0.0000000  0.6508444  3
   2097   2095   2098   2100     1  0.0000000  0.6508444  3
   2099   2098   2107   2116     1  0.0000000  1.0460000  1
   2099   2098   2107   2116     1  0.0000000  0.0000000  3
   2099   2098   2107   2108     1  0.0000000  0.6508444  3
   2099   2098   2107   2109     1  0.0000000  0.6508444  3
   2100   2098   2107   2116     1  0.0000000  1.0460000  1
   2100   2098   2107   2116     1  0.0000000  0.0000000  3
   2100   2098   2107   2108     1  0.0000000  0.6508444  3
   2100   2098   2107   2109     1  0.0000000  0.6508444  3
   2102   2101   2113   4291     1  0.0000000  1.0460000  1
   2102   2101   2113   4291     1  0.0000000  0.0000000  3
   2102   2101   2113   2114     1  0.0000000  0.6508444  3
   2102   2101   2113   2115     1  0.0000000  0.6508444  3
   2103   2101   2113   4291     1  0.0000000  1.0460000  1
   2103   2101   2113   4291     1  0.0000000  0.0000000  3
   2103   2101   2113   2114     1  0.0000000  0.6508444  3
   2103   2101   2113   2115     1  0.0000000  0.6508444  3
   2105   2104   2110   4262     1  0.0000000  1.0460000  1
   2105   2104   2110   4262     1  0.0000000  0.0000000  3
   2105   2104   2110   2111     1  0.0000000  0.6508444  3
   2105   2104   2110   2112     1  0.0000000  0.6508444  3
   2106   2104   2110   4262     1  0.0000000  1.0460000  1
   2106   2104   2110   4262     1  0.0000000  0.0000000  3
   2106   2104   2110   2111     1  0.0000000  0.6508444  3
   2106   2104   2110   2112     1  0.0000000  0.6508444  3
   2110   4262   4253   4254     1  0.0000000  1.6038667  3
   2110   4262   4253   4255     1  0.0000000  1.6038667  3
   2111   2110   4262   4253     1  0.0000000  1.6038667  3
   2112   2110   4262   4253     1  0.0000000  1.6038667  3
   2113   4291   4282   4283     1  0.0000000  1.6038667  3
   2113   4291   4282   4284     1  0.0000000  1.6038667  3
   2114   2113   4291   4282     1  0.0000000  1.6038667  3
   2115   2113   4291   4282     1  0.0000000  1.6038667  3
   2117   2118   2130   2131     1  0.0000000  0.6508444  3
   2117   2118   2130   2132     1  0.0000000  0.6508444  3
   2117   2121   2133   2134     1  0.0000000  0.6508444  3
   2117   2121   2133   2135     1  0.0000000  0.6508444  3
   2117   2124   2127   2128     1  0.0000000  0.6508444  3
   2117   2124   2127   2129     1  0.0000000  0.6508444  3
   2118   2117   2121   2122     1  0.0000000  1.2552000  3
   2118   2117   2121   2123     1  0.0000000  1.2552000  3
   2118   2117   2124   2125     1  0.0000000  1.2552000  3
   2118   2117   2124   2126     1  0.0000000  1.2552000  3
   2118   2130   2142   2143     1  0.0000000  0.6508444  3
   2118   2130   2142   2144     1  0.0000000  0.6508444  3
   2119   2118   2117   2121     1  0.0000000  1.2552000  3
   2119   2118   2117   2124     1  0.0000000  1.2552000  3
   2119   2118   2130   2142     1  0.0000000  0.6508444  3
   2119   2118   2130   2131     1  0.0000000  0.6508444  3
   2119   2118   2130   2132     1  0.0000000  0.6508444  3
   2120   2118   2117   2121     1  0.0000000  1.2552000  3
   2120   2118   2117   2124     1  0.0000000  1.2552000  3
   2120   2118   2130   2142     1  0.0000000  0.6508444  3
   2120   2118   2130   2131     1  0.0000000  0.6508444  3
   2120   2118   2130   2132     1  0.0000000  0.6508444  3
   2121   2117   2124   2125     1  0.0000000  1.2552000  3
   2121   2117   2124   2126     1  0.0000000  1.2552000  3
   2121   2133   2139   2140     1  0.0000000  0.6508444  3
   2121   2133   2139   2141     1  0.0000000  0.6508444  3
   2122   2121   2117   2124     1  0.0000000  1.2552000  3
   2122   2121   2133   2139     1  0.0000000  0.6508444  3
   2122   2121   2133   2134     1  0.0000000  0.6508444  3
   2122   2121   2133   2135     1  0.0000000  0.6508444  3
   2123   2121   2117   2124     1  0.0000000  1.2552000  3
   2123   2121   2133   2139     1  0.0000000  0.6508444  3
   2123   2121   2133   2134     1  0.0000000  0.6508444  3
   2123   2121   2133   2135     1  0.0000000  0.6508444  3
   2124   2127   2136   2137     1  0.0000000  0.6508444  3
   2124   2127   2136   2138     1  0.0000000  0.6508444  3
   2125   2124   2127   2136     1  0.0000000  0.6508444  3
   2125   2124   2127   2128     1  0.0000000  0.6508444  3
   2125   2124   2127   2129     1  0.0000000  0.6508444  3
   2126   2124   2127   2136     1  0.0000000  0.6508444  3
   2126   2124   2127   2128     1  0.0000000  0.6508444  3
   2126   2124   2127   2129     1  0.0000000  0.6508444  3
   2128   2127   2136   2145     1  0.0000000  1.0460000  1
   2128   2127   2136   2145     1  0.0000000  0.0000000  3
   2128   2127   2136   2137     1  0.0000000  0.6508444  3
   2128   2127   2136   2138     1  0.0000000  0.6508444  3
   2129   2127   2136   2145     1  0.0000000  1.0460000  1
   2129   2127   2136   2145     1  0.0000000  0.0000000  3
   2129   2127   2136   2137     1  0.0000000  0.6508444  3
   2129   2127   2136   2138     1  0.0000000  0.6508444  3
   2131   2130   2142   4349     1  0.0000000  1.0460000  1
   2131   2130   2142   4349     1  0.0000000  0.0000000  3
   2131   2130   2142   2143     1  0.0000000  0.6508444  3
   2131   2130   2142   2144     1  0.0000000  0.6508444  3
   2132   2130   2142   4349     1  0.0000000  1.0460000  1
   2132   2130   2142   4349     1  0.0000000  0.0000000  3
   2132   2130   2142   2143     1  0.0000000  0.6508444  3
   2132   2130   2142   2144     1  0.0000000  0.6508444  3
   2134   2133   2139   4320     1  0.0000000  1.0460000  1
   2134   2133   2139   4320     1  0.0000000  0.0000000  3
   2134   2133   2139   2140     1  0.0000000  0.6508444  3
   2134   2133   2139   2141     1  0.0000000  0.6508444  3
   2135   2133   2139   4320     1  0.0000000  1.0460000  1
   2135   2133   2139   4320     1  0.0000000  0.0000000  3
   2135   2133   2139   2140     1  0.0000000  0.6508444  3
   2135   2133   2139   2141     1  0.0000000  0.6508444  3
   2139   4320   4311   4312     1  0.0000000  1.6038667  3
   2139   4320   4311   4313     1  0.0000000  1.6038667  3
   2140   2139   4320   4311     1  0.0000000  1.6038667  3
   2141   2139   4320   4311     1  0.0000000  1.6038667  3
   2142   4349   4340   4341     1  0.0000000  1.6038667  3
   2142   4349   4340   4342     1  0.0000000  1.6038667  3
   2143   2142   4349   4340     1  0.0000000  1.6038667  3
   2144   2142   4349   4340     1  0.0000000  1.6038667  3
   2146   2147   2159   2160     1  0.0000000  0.6508444  3
   2146   2147   2159   2161     1  0.0000000  0.6508444  3
   2146   2150   2162   2163     1  0.0000000  0.6508444  3
   2146   2150   2162   2164     1  0.0000000  0.6508444  3
   2146   2153   2156   2157     1  0.0000000  0.6508444  3
   2146   2153   2156   2158     1  0.0000000  0.6508444  3
   2147   2146   2150   2151     1  0.0000000  1.2552000  3
   2147   2146   2150   2152     1  0.0000000  1.2552000  3
   2147   2146   2153   2154     1  0.0000000  1.2552000  3
   2147   2146   2153   2155     1  0.0000000  1.2552000  3
   2147   2159   2171   2172     1  0.0000000  0.6508444  3
   2147   2159   2171   2173     1  0.0000000  0.6508444  3
   2148   2147   2146   2150     1  0.0000000  1.2552000  3
   2148   2147   2146   2153     1  0.0000000  1.2552000  3
   2148   2147   2159   2171     1  0.0000000  0.6508444  3
   2148   2147   2159   2160     1  0.0000000  0.6508444  3
   2148   2147   2159   2161     1  0.0000000  0.6508444  3
   2149   2147   2146   2150     1  0.0000000  1.2552000  3
   2149   2147   2146   2153     1  0.0000000  1.2552000  3
   2149   2147   2159   2171     1  0.0000000  0.6508444  3
   2149   2147   2159   2160     1  0.0000000  0.6508444  3
   2149   2147   2159   2161     1  0.0000000  0.6508444  3
   2150   2146   2153   2154     1  0.0000000  1.2552000  3
   2150   2146   2153   2155     1  0.0000000  1.2552000  3
   2150   2162   2168   2169     1  0.0000000  0.6508444  3
   2150   2162   2168   2170     1  0.0000000  0.6508444  3
   2151   2150   2146   2153     1  0.0000000  1.2552000  3
   2151   2150   2162   2168     1  0.0000000  0.6508444  3
   2151   2150   2162   2163     1  0.0000000  0.6508444  3
   2151   2150   2162   2164     1  0.0000000  0.6508444  3
   2152   2150   2146   2153     1  0.0000000  1.2552000  3
   2152   2150   2162   2168     1  0.0000000  0.6508444  3
   2152   2150   2162   2163     1  0.0000000  0.6508444  3
   2152   2150   2162   2164     1  0.0000000  0.6508444  3
   2153   2156   2165   2166     1  0.0000000  0.6508444  3
   2153   2156   2165   2167     1  0.0000000  0.6508444  3
   2154   2153   2156   2165     1  0.0000000  0.6508444  3
   2154   2153   2156   2157     1  0.0000000  0.6508444  3
   2154   2153   2156   2158     1  0.0000000  0.6508444  3
   2155   2153   2156   2165     1  0.0000000  0.6508444  3
   2155   2153   2156   2157     1  0.0000000  0.6508444  3
   2155   2153   2156   2158     1  0.0000000  0.6508444  3
   2157   2156   2165   2174     1  0.0000000  1.0460000  1
   2157   2156   2165   2174     1  0.0000000  0.0000000  3
   2157   2156   2165   2166     1  0.0000000  0.6508444  3
   2157   2156   2165   2167     1  0.0000000  0.6508444  3
   2158   2156   2165   2174     1  0.0000000  1.0460000  1
   2158   2156   2165   2174     1  0.0000000  0.0000000  3
   2158   2156   2165   2166     1  0.0000000  0.6508444  3
   2158   2156   2165   2167     1  0.0000000  0.6508444  3
   2160   2159   2171   4407     1  0.0000000  1.0460000  1
   2160   2159   2171   4407     1  0.0000000  0.0000000  3
   2160   2159   2171   2172     1  0.0000000  0.6508444  3
   2160   2159   2171   2173     1  0.0000000  0.6508444  3
   2161   2159   2171   4407     1  0.0000000  1.0460000  1
   2161   2159   2171   4407     1  0.0000000  0.0000000  3
   2161   2159   2171   2172     1  0.0000000  0.6508444  3
   2161   2159   2171   2173     1  0.0000000  0.6508444  3
   2163   2162   2168   4378     1  0.0000000  1.0460000  1
   2163   2162   2168   4378     1  0.0000000  0.0000000  3
   2163   2162   2168   2169     1  0.0000000  0.6508444  3
   2163   2162   2168   2170     1  0.0000000  0.6508444  3
   2164   2162   2168   4378     1  0.0000000  1.0460000  1
   2164   2162   2168   4378     1  0.0000000  0.0000000  3
   2164   2162   2168   2169     1  0.0000000  0.6508444  3
   2164   2162   2168   2170     1  0.0000000  0.6508444  3
   2168   4378   4369   4370     1  0.0000000  1.6038667  3
   2168   4378   4369   4371     1  0.0000000  1.6038667  3
   2169   2168   4378   4369     1  0.0000000  1.6038667  3
   2170   2168   4378   4369     1  0.0000000  1.6038667  3
   2171   4407   4398   4399     1  0.0000000  1.6038667  3
   2171   4407   4398   4400     1  0.0000000  1.6038667  3
   2172   2171   4407   4398     1  0.0000000  1.6038667  3
   2173   2171   4407   4398     1  0.0000000  1.6038667  3
   2175   2176   2188   2189     1  0.0000000  0.6508444  3
   2175   2176   2188   2190     1  0.0000000  0.6508444  3
   2175   2179   2191   2192     1  0.0000000  0.6508444  3
   2175   2179   2191   2193     1  0.0000000  0.6508444  3
   2175   2182   2185   2186     1  0.0000000  0.6508444  3
   2175   2182   2185   2187     1  0.0000000  0.6508444  3
   2176   2175   2179   2180     1  0.0000000  1.2552000  3
   2176   2175   2179   2181     1  0.0000000  1.2552000  3
   2176   2175   2182   2183     1  0.0000000  1.2552000  3
   2176   2175   2182   2184     1  0.0000000  1.2552000  3
   2176   2188   2200   2201     1  0.0000000  0.6508444  3
   2176   2188   2200   2202     1  0.0000000  0.6508444  3
   2177   2176   2175   2179     1  0.0000000  1.2552000  3
   2177   2176   2175   2182     1  0.0000000  1.2552000  3
   2177   2176   2188   2200     1  0.0000000  0.6508444  3
   2177   2176   2188   2189     1  0.0000000  0.6508444  3
   2177   2176   2188   2190     1  0.0000000  0.6508444  3
   2178   2176   2175   2179     1  0.0000000  1.2552000  3
   2178   2176   2175   2182     1  0.0000000  1.2552000  3
   2178   2176   2188   2200     1  0.0000000  0.6508444  3
   2178   2176   2188   2189     1  0.0000000  0.6508444  3
   2178   2176   2188   2190     1  0.0000000  0.6508444  3
   2179   2175   2182   2183     1  0.0000000  1.2552000  3
   2179   2175   2182   2184     1  0.0000000  1.2552000  3
   2179   2191   2197   2198     1  0.0000000  0.6508444  3
   2179   2191   2197   2199     1  0.0000000  0.6508444  3
   2180   2179   2175   2182     1  0.0000000  1.2552000  3
   2180   2179   2191   2197     1  0.0000000  0.6508444  3
   2180   2179   2191   2192     1  0.0000000  0.6508444  3
   2180   2179   2191   2193     1  0.0000000  0.6508444  3
   2181   2179   2175   2182     1  0.0000000  1.2552000  3
   2181   2179   2191   2197     1  0.0000000  0.6508444  3
   2181   2179   2191   2192     1  0.0000000  0.6508444  3
   2181   2179   2191   2193     1  0.0000000  0.6508444  3
   2182   2185   2194   2195     1  0.0000000  0.6508444  3
   2182   2185   2194   2196     1  0.0000000  0.6508444  3
   2183   2182   2185   2194     1  0.0000000  0.6508444  3
   2183   2182   2185   2186     1  0.0000000  0.6508444  3
   2183   2182   2185   2187     1  0.0000000  0.6508444  3
   2184   2182   2185   2194     1  0.0000000  0.6508444  3
   2184   2182   2185   2186     1  0.0000000  0.6508444  3
   2184   2182   2185   2187     1  0.0000000  0.6508444  3
   2186   2185   2194   2203     1  0.0000000  1.0460000  1
   2186   2185   2194   2203     1  0.0000000  0.0000000  3
   2186   2185   2194   2195     1  0.0000000  0.6508444  3
   2186   2185   2194   2196     1  0.0000000  0.6508444  3
   2187   2185   2194   2203     1  0.0000000  1.0460000  1
   2187   2185   2194   2203     1  0.0000000  0.0000000  3
   2187   2185   2194   2195     1  0.0000000  0.6508444  3
   2187   2185   2194   2196     1  0.0000000  0.6508444  3
   2189   2188   2200   4465     1  0.0000000  1.0460000  1
   2189   2188   2200   4465     1  0.0000000  0.0000000  3
   2189   2188   2200   2201     1  0.0000000  0.6508444  3
   2189   2188   2200   2202     1  0.0000000  0.6508444  3
   2190   2188   2200   4465     1  0.0000000  1.0460000  1
   2190   2188   2200   4465     1  0.0000000  0.0000000  3
   2190   2188   2200   2201     1  0.0000000  0.6508444  3
   2190   2188   2200   2202     1  0.0000000  0.6508444  3
   2192   2191   2197   4436     1  0.0000000  1.0460000  1
   2192   2191   2197   4436     1  0.0000000  0.0000000  3
   2192   2191   2197   2198     1  0.0000000  0.6508444  3
   2192   2191   2197   2199     1  0.0000000  0.6508444  3
   2193   2191   2197   4436     1  0.0000000  1.0460000  1
   2193   2191   2197   4436     1  0.0000000  0.0000000  3
   2193   2191   2197   2198     1  0.0000000  0.6508444  3
   2193   2191   2197   2199     1  0.0000000  0.6508444  3
   2197   4436   4427   4428     1  0.0000000  1.6038667  3
   2197   4436   4427   4429     1  0.0000000  1.6038667  3
   2198   2197   4436   4427     1  0.0000000  1.6038667  3
   2199   2197   4436   4427     1  0.0000000  1.6038667  3
   2200   4465   4456   4457     1  0.0000000  1.6038667  3
   2200   4465   4456   4458     1  0.0000000  1.6038667  3
   2201   2200   4465   4456     1  0.0000000  1.6038667  3
   2202   2200   4465   4456     1  0.0000000  1.6038667  3
   2204   2205   2217   2218     1  0.0000000  0.6508444  3
   2204   2205   2217   2219     1  0.0000000  0.6508444  3
   2204   2208   2220   2221     1  0.0000000  0.6508444  3
   2204   2208   2220   2222     1  0.0000000  0.6508444  3
   2204   2211   2214   2215     1  0.0000000  0.6508444  3
   2204   2211   2214   2216     1  0.0000000  0.6508444  3
   2205   2204   2208   2209     1  0.0000000  1.2552000  3
   2205   2204   2208   2210     1  0.0000000  1.2552000  3
   2205   2204   2211   2212     1  0.0000000  1.2552000  3
   2205   2204   2211   2213     1  0.0000000  1.2552000  3
   2205   2217   2229   2230     1  0.0000000  0.6508444  3
   2205   2217   2229   2231     1  0.0000000  0.6508444  3
   2206   2205   2204   2208     1  0.0000000  1.2552000  3
   2206   2205   2204   2211     1  0.0000000  1.2552000  3
   2206   2205   2217   2229     1  0.0000000  0.6508444  3
   2206   2205   2217   2218     1  0.0000000  0.6508444  3
   2206   2205   2217   2219     1  0.0000000  0.6508444  3
   2207   2205   2204   2208     1  0.0000000  1.2552000  3
   2207   2205   2204   2211     1  0.0000000  1.2552000  3
   2207   2205   2217   2229     1  0.0000000  0.6508444  3
   2207   2205   2217   2218     1  0.0000000  0.6508444  3
   2207   2205   2217   2219     1  0.0000000  0.6508444  3
   2208   2204   2211   2212     1  0.0000000  1.2552000  3
   2208   2204   2211   2213     1  0.0000000  1.2552000  3
   2208   2220   2226   2227     1  0.0000000  0.6508444  3
   2208   2220   2226   2228     1  0.0000000  0.6508444  3
   2209   2208   2204   2211     1  0.0000000  1.2552000  3
   2209   2208   2220   2226     1  0.0000000  0.6508444  3
   2209   2208   2220   2221     1  0.0000000  0.6508444  3
   2209   2208   2220   2222     1  0.0000000  0.6508444  3
   2210   2208   2204   2211     1  0.0000000  1.2552000  3
   2210   2208   2220   2226     1  0.0000000  0.6508444  3
   2210   2208   2220   2221     1  0.0000000  0.6508444  3
   2210   2208   2220   2222     1  0.0000000  0.6508444  3
   2211   2214   2223   2224     1  0.0000000  0.6508444  3
   2211   2214   2223   2225     1  0.0000000  0.6508444  3
   2212   2211   2214   2223     1  0.0000000  0.6508444  3
   2212   2211   2214   2215     1  0.0000000  0.6508444  3
   2212   2211   2214   2216     1  0.0000000  0.6508444  3
   2213   2211   2214   2223     1  0.0000000  0.6508444  3
   2213   2211   2214   2215     1  0.0000000  0.6508444  3
   2213   2211   2214   2216     1  0.0000000  0.6508444  3
   2215   2214   2223   2232     1  0.0000000  1.0460000  1
   2215   2214   2223   2232     1  0.0000000  0.0000000  3
   2215   2214   2223   2224     1  0.0000000  0.6508444  3
   2215   2214   2223   2225     1  0.0000000  0.6508444  3
   2216   2214   2223   2232     1  0.0000000  1.0460000  1
   2216   2214   2223   2232     1  0.0000000  0.0000000  3
   2216   2214   2223   2224     1  0.0000000  0.6508444  3
   2216   2214   2223   2225     1  0.0000000  0.6508444  3
   2218   2217   2229   4523     1  0.0000000  1.0460000  1
   2218   2217   2229   4523     1  0.0000000  0.0000000  3
   2218   2217   2229   2230     1  0.0000000  0.6508444  3
   2218   2217   2229   2231     1  0.0000000  0.6508444  3
   2219   2217   2229   4523     1  0.0000000  1.0460000  1
   2219   2217   2229   4523     1  0.0000000  0.0000000  3
   2219   2217   2229   2230     1  0.0000000  0.6508444  3
   2219   2217   2229   2231     1  0.0000000  0.6508444  3
   2221   2220   2226   4494     1  0.0000000  1.0460000  1
   2221   2220   2226   4494     1  0.0000000  0.0000000  3
   2221   2220   2226   2227     1  0.0000000  0.6508444  3
   2221   2220   2226   2228     1  0.0000000  0.6508444  3
   2222   2220   2226   4494     1  0.0000000  1.0460000  1
   2222   2220   2226   4494     1  0.0000000  0.0000000  3
   2222   2220   2226   2227     1  0.0000000  0.6508444  3
   2222   2220   2226   2228     1  0.0000000  0.6508444  3
   2226   4494   4485   4486     1  0.0000000  1.6038667  3
   2226   4494   4485   4487     1  0.0000000  1.6038667  3
   2227   2226   4494   4485     1  0.0000000  1.6038667  3
   2228   2226   4494   4485     1  0.0000000  1.6038667  3
   2229   4523   4514   4515     1  0.0000000  1.6038667  3
   2229   4523   4514   4516     1  0.0000000  1.6038667  3
   2230   2229   4523   4514     1  0.0000000  1.6038667  3
   2231   2229   4523   4514     1  0.0000000  1.6038667  3
   2233   2234   2246   2247     1  0.0000000  0.6508444  3
   2233   2234   2246   2248     1  0.0000000  0.6508444  3
   2233   2237   2249   2250     1  0.0000000  0.6508444  3
   2233   2237   2249   2251     1  0.0000000  0.6508444  3
   2233   2240   2243   2244     1  0.0000000  0.6508444  3
   2233   2240   2243   2245     1  0.0000000  0.6508444  3
   2234   2233   2237   2238     1  0.0000000  1.2552000  3
   2234   2233   2237   2239     1  0.0000000  1.2552000  3
   2234   2233   2240   2241     1  0.0000000  1.2552000  3
   2234   2233   2240   2242     1  0.0000000  1.2552000  3
   2234   2246   2258   2259     1  0.0000000  0.6508444  3
   2234   2246   2258   2260     1  0.0000000  0.6508444  3
   2235   2234   2233   2237     1  0.0000000  1.2552000  3
   2235   2234   2233   2240     1  0.0000000  1.2552000  3
   2235   2234   2246   2258     1  0.0000000  0.6508444  3
   2235   2234   2246   2247     1  0.0000000  0.6508444  3
   2235   2234   2246   2248     1  0.0000000  0.6508444  3
   2236   2234   2233   2237     1  0.0000000  1.2552000  3
   2236   2234   2233   2240     1  0.0000000  1.2552000  3
   2236   2234   2246   2258     1  0.0000000  0.6508444  3
   2236   2234   2246   2247     1  0.0000000  0.6508444  3
   2236   2234   2246   2248     1  0.0000000  0.6508444  3
   2237   2233   2240   2241     1  0.0000000  1.2552000  3
   2237   2233   2240   2242     1  0.0000000  1.2552000  3
   2237   2249   2255   2256     1  0.0000000  0.6508444  3
   2237   2249   2255   2257     1  0.0000000  0.6508444  3
   2238   2237   2233   2240     1  0.0000000  1.2552000  3
   2238   2237   2249   2255     1  0.0000000  0.6508444  3
   2238   2237   2249   2250     1  0.0000000  0.6508444  3
   2238   2237   2249   2251     1  0.0000000  0.6508444  3
   2239   2237   2233   2240     1  0.0000000  1.2552000  3
   2239   2237   2249   2255     1  0.0000000  0.6508444  3
   2239   2237   2249   2250     1  0.0000000  0.6508444  3
   2239   2237   2249   2251     1  0.0000000  0.6508444  3
   2240   2243   2252   2253     1  0.0000000  0.6508444  3
   2240   2243   2252   2254     1  0.0000000  0.6508444  3
   2241   2240   2243   2252     1  0.0000000  0.6508444  3
   2241   2240   2243   2244     1  0.0000000  0.6508444  3
   2241   2240   2243   2245     1  0.0000000  0.6508444  3
   2242   2240   2243   2252     1  0.0000000  0.6508444  3
   2242   2240   2243   2244     1  0.0000000  0.6508444  3
   2242   2240   2243   2245     1  0.0000000  0.6508444  3
   2244   2243   2252   2261     1  0.0000000  1.0460000  1
   2244   2243   2252   2261     1  0.0000000  0.0000000  3
   2244   2243   2252   2253     1  0.0000000  0.6508444  3
   2244   2243   2252   2254     1  0.0000000  0.6508444  3
   2245   2243   2252   2261     1  0.0000000  1.0460000  1
   2245   2243   2252   2261     1  0.0000000  0.0000000  3
   2245   2243   2252   2253     1  0.0000000  0.6508444  3
   2245   2243   2252   2254     1  0.0000000  0.6508444  3
   2247   2246   2258   4581     1  0.0000000  1.0460000  1
   2247   2246   2258   4581     1  0.0000000  0.0000000  3
   2247   2246   2258   2259     1  0.0000000  0.6508444  3
   2247   2246   2258   2260     1  0.0000000  0.6508444  3
   2248   2246   2258   4581     1  0.0000000  1.0460000  1
   2248   2246   2258   4581     1  0.0000000  0.0000000  3
   2248   2246   2258   2259     1  0.0000000  0.6508444  3
   2248   2246   2258   2260     1  0.0000000  0.6508444  3
   2250   2249   2255   4552     1  0.0000000  1.0460000  1
   2250   2249   2255   4552     1  0.0000000  0.0000000  3
   2250   2249   2255   2256     1  0.0000000  0.6508444  3
   2250   2249   2255   2257     1  0.0000000  0.6508444  3
   2251   2249   2255   4552     1  0.0000000  1.0460000  1
   2251   2249   2255   4552     1  0.0000000  0.0000000  3
   2251   2249   2255   2256     1  0.0000000  0.6508444  3
   2251   2249   2255   2257     1  0.0000000  0.6508444  3
   2255   4552   4543   4544     1  0.0000000  1.6038667  3
   2255   4552   4543   4545     1  0.0000000  1.6038667  3
   2256   2255   4552   4543     1  0.0000000  1.6038667  3
   2257   2255   4552   4543     1  0.0000000  1.6038667  3
   2258   4581   4572   4573     1  0.0000000  1.6038667  3
   2258   4581   4572   4574     1  0.0000000  1.6038667  3
   2259   2258   4581   4572     1  0.0000000  1.6038667  3
   2260   2258   4581   4572     1  0.0000000  1.6038667  3
   2262   2263   2275   2276     1  0.0000000  0.6508444  3
   2262   2263   2275   2277     1  0.0000000  0.6508444  3
   2262   2266   2278   2279     1  0.0000000  0.6508444  3
   2262   2266   2278   2280     1  0.0000000  0.6508444  3
   2262   2269   2272   2273     1  0.0000000  0.6508444  3
   2262   2269   2272   2274     1  0.0000000  0.6508444  3
   2263   2262   2266   2267     1  0.0000000  1.2552000  3
   2263   2262   2266   2268     1  0.0000000  1.2552000  3
   2263   2262   2269   2270     1  0.0000000  1.2552000  3
   2263   2262   2269   2271     1  0.0000000  1.2552000  3
   2263   2275   2287   2288     1  0.0000000  0.6508444  3
   2263   2275   2287   2289     1  0.0000000  0.6508444  3
   2264   2263   2262   2266     1  0.0000000  1.2552000  3
   2264   2263   2262   2269     1  0.0000000  1.2552000  3
   2264   2263   2275   2287     1  0.0000000  0.6508444  3
   2264   2263   2275   2276     1  0.0000000  0.6508444  3
   2264   2263   2275   2277     1  0.0000000  0.6508444  3
   2265   2263   2262   2266     1  0.0000000  1.2552000  3
   2265   2263   2262   2269     1  0.0000000  1.2552000  3
   2265   2263   2275   2287     1  0.0000000  0.6508444  3
   2265   2263   2275   2276     1  0.0000000  0.6508444  3
   2265   2263   2275   2277     1  0.0000000  0.6508444  3
   2266   2262   2269   2270     1  0.0000000  1.2552000  3
   2266   2262   2269   2271     1  0.0000000  1.2552000  3
   2266   2278   2284   2285     1  0.0000000  0.6508444  3
   2266   2278   2284   2286     1  0.0000000  0.6508444  3
   2267   2266   2262   2269     1  0.0000000  1.2552000  3
   2267   2266   2278   2284     1  0.0000000  0.6508444  3
   2267   2266   2278   2279     1  0.0000000  0.6508444  3
   2267   2266   2278   2280     1  0.0000000  0.6508444  3
   2268   2266   2262   2269     1  0.0000000  1.2552000  3
   2268   2266   2278   2284     1  0.0000000  0.6508444  3
   2268   2266   2278   2279     1  0.0000000  0.6508444  3
   2268   2266   2278   2280     1  0.0000000  0.6508444  3
   2269   2272   2281   2282     1  0.0000000  0.6508444  3
   2269   2272   2281   2283     1  0.0000000  0.6508444  3
   2270   2269   2272   2281     1  0.0000000  0.6508444  3
   2270   2269   2272   2273     1  0.0000000  0.6508444  3
   2270   2269   2272   2274     1  0.0000000  0.6508444  3
   2271   2269   2272   2281     1  0.0000000  0.6508444  3
   2271   2269   2272   2273     1  0.0000000  0.6508444  3
   2271   2269   2272   2274     1  0.0000000  0.6508444  3
   2273   2272   2281   2290     1  0.0000000  1.0460000  1
   2273   2272   2281   2290     1  0.0000000  0.0000000  3
   2273   2272   2281   2282     1  0.0000000  0.6508444  3
   2273   2272   2281   2283     1  0.0000000  0.6508444  3
   2274   2272   2281   2290     1  0.0000000  1.0460000  1
   2274   2272   2281   2290     1  0.0000000  0.0000000  3
   2274   2272   2281   2282     1  0.0000000  0.6508444  3
   2274   2272   2281   2283     1  0.0000000  0.6508444  3
   2276   2275   2287   4639     1  0.0000000  1.0460000  1
   2276   2275   2287   4639     1  0.0000000  0.0000000  3
   2276   2275   2287   2288     1  0.0000000  0.6508444  3
   2276   2275   2287   2289     1  0.0000000  0.6508444  3
   2277   2275   2287   4639     1  0.0000000  1.0460000  1
   2277   2275   2287   4639     1  0.0000000  0.0000000  3
   2277   2275   2287   2288     1  0.0000000  0.6508444  3
   2277   2275   2287   2289     1  0.0000000  0.6508444  3
   2279   2278   2284   4610     1  0.0000000  1.0460000  1
   2279   2278   2284   4610     1  0.0000000  0.0000000  3
   2279   2278   2284   2285     1  0.0000000  0.6508444  3
   2279   2278   2284   2286     1  0.0000000  0.6508444  3
   2280   2278   2284   4610     1  0.0000000  1.0460000  1
   2280   2278   2284   4610     1  0.0000000  0.0000000  3
   2280   2278   2284   2285     1  0.0000000  0.6508444  3
   2280   2278   2284   2286     1  0.0000000  0.6508444  3
   2284   4610   4601   4602     1  0.0000000  1.6038667  3
   2284   4610   4601   4603     1  0.0000000  1.6038667  3
   2285   2284   4610   4601     1  0.0000000  1.6038667  3
   2286   2284   4610   4601     1  0.0000000  1.6038667  3
   2287   4639   4630   4631     1  0.0000000  1.6038667  3
   2287   4639   4630   4632     1  0.0000000  1.6038667  3
   2288   2287   4639   4630     1  0.0000000  1.6038667  3
   2289   2287   4639   4630     1  0.0000000  1.6038667  3
   2291   2292   2304   2305     1  0.0000000  0.6508444  3
   2291   2292   2304   2306     1  0.0000000  0.6508444  3
   2291   2295   2307   2308     1  0.0000000  0.6508444  3
   2291   2295   2307   2309     1  0.0000000  0.6508444  3
   2291   2298   2301   2302     1  0.0000000  0.6508444  3
   2291   2298   2301   2303     1  0.0000000  0.6508444  3
   2292   2291   2295   2296     1  0.0000000  1.2552000  3
   2292   2291   2295   2297     1  0.0000000  1.2552000  3
   2292   2291   2298   2299     1  0.0000000  1.2552000  3
   2292   2291   2298   2300     1  0.0000000  1.2552000  3
   2292   2304   2316   2317     1  0.0000000  0.6508444  3
   2292   2304   2316   2318     1  0.0000000  0.6508444  3
   2293   2292   2291   2295     1  0.0000000  1.2552000  3
   2293   2292   2291   2298     1  0.0000000  1.2552000  3
   2293   2292   2304   2316     1  0.0000000  0.6508444  3
   2293   2292   2304   2305     1  0.0000000  0.6508444  3
   2293   2292   2304   2306     1  0.0000000  0.6508444  3
   2294   2292   2291   2295     1  0.0000000  1.2552000  3
   2294   2292   2291   2298     1  0.0000000  1.2552000  3
   2294   2292   2304   2316     1  0.0000000  0.6508444  3
   2294   2292   2304   2305     1  0.0000000  0.6508444  3
   2294   2292   2304   2306     1  0.0000000  0.6508444  3
   2295   2291   2298   2299     1  0.0000000  1.2552000  3
   2295   2291   2298   2300     1  0.0000000  1.2552000  3
   2295   2307   2313   2314     1  0.0000000  0.6508444  3
   2295   2307   2313   2315     1  0.0000000  0.6508444  3
   2296   2295   2291   2298     1  0.0000000  1.2552000  3
   2296   2295   2307   2313     1  0.0000000  0.6508444  3
   2296   2295   2307   2308     1  0.0000000  0.6508444  3
   2296   2295   2307   2309     1  0.0000000  0.6508444  3
   2297   2295   2291   2298     1  0.0000000  1.2552000  3
   2297   2295   2307   2313     1  0.0000000  0.6508444  3
   2297   2295   2307   2308     1  0.0000000  0.6508444  3
   2297   2295   2307   2309     1  0.0000000  0.6508444  3
   2298   2301   2310   2311     1  0.0000000  0.6508444  3
   2298   2301   2310   2312     1  0.0000000  0.6508444  3
   2299   2298   2301   2310     1  0.0000000  0.6508444  3
   2299   2298   2301   2302     1  0.0000000  0.6508444  3
   2299   2298   2301   2303     1  0.0000000  0.6508444  3
   2300   2298   2301   2310     1  0.0000000  0.6508444  3
   2300   2298   2301   2302     1  0.0000000  0.6508444  3
   2300   2298   2301   2303     1  0.0000000  0.6508444  3
   2302   2301   2310   2319     1  0.0000000  1.0460000  1
   2302   2301   2310   2319     1  0.0000000  0.0000000  3
   2302   2301   2310   2311     1  0.0000000  0.6508444  3
   2302   2301   2310   2312     1  0.0000000  0.6508444  3
   2303   2301   2310   2319     1  0.0000000  1.0460000  1
   2303   2301   2310   2319     1  0.0000000  0.0000000  3
   2303   2301   2310   2311     1  0.0000000  0.6508444  3
   2303   2301   2310   2312     1  0.0000000  0.6508444  3
   2305   2304   2316   4697     1  0.0000000  1.0460000  1
   2305   2304   2316   4697     1  0.0000000  0.0000000  3
   2305   2304   2316   2317     1  0.0000000  0.6508444  3
   2305   2304   2316   2318     1  0.0000000  0.6508444  3
   2306   2304   2316   4697     1  0.0000000  1.0460000  1
   2306   2304   2316   4697     1  0.0000000  0.0000000  3
   2306   2304   2316   2317     1  0.0000000  0.6508444  3
   2306   2304   2316   2318     1  0.0000000  0.6508444  3
   2308   2307   2313   4668     1  0.0000000  1.0460000  1
   2308   2307   2313   4668     1  0.0000000  0.0000000  3
   2308   2307   2313   2314     1  0.0000000  0.6508444  3
   2308   2307   2313   2315     1  0.0000000  0.6508444  3
   2309   2307   2313   4668     1  0.0000000  1.0460000  1
   2309   2307   2313   4668     1  0.0000000  0.0000000  3
   2309   2307   2313   2314     1  0.0000000  0.6508444  3
   2309   2307   2313   2315     1  0.0000000  0.6508444  3
   2313   4668   4659   4660     1  0.0000000  1.6038667  3
   2313   4668   4659   4661     1  0.0000000  1.6038667  3
   2314   2313   4668   4659     1  0.0000000  1.6038667  3
   2315   2313   4668   4659     1  0.0000000  1.6038667  3
   2316   4697   4688   4689     1  0.0000000  1.6038667  3
   2316   4697   4688   4690     1  0.0000000  1.6038667  3
   2317   2316   4697   4688     1  0.0000000  1.6038667  3
   2318   2316   4697   4688     1  0.0000000  1.6038667  3
   2320   2321   2333   2334     1  0.0000000  0.6508444  3
   2320   2321   2333   2335     1  0.0000000  0.6508444  3
   2320   2324   2336   2337     1  0.0000000  0.6508444  3
   2320   2324   2336   2338     1  0.0000000  0.6508444  3
   2320   2327   2330   2331     1  0.0000000  0.6508444  3
   2320   2327   2330   2332     1  0.0000000  0.6508444  3
   2321   2320   2324   2325     1  0.0000000  1.2552000  3
   2321   2320   2324   2326     1  0.0000000  1.2552000  3
   2321   2320   2327   2328     1  0.0000000  1.2552000  3
   2321   2320   2327   2329     1  0.0000000  1.2552000  3
   2321   2333   2345   2346     1  0.0000000  0.6508444  3
   2321   2333   2345   2347     1  0.0000000  0.6508444  3
   2322   2321   2320   2324     1  0.0000000  1.2552000  3
   2322   2321   2320   2327     1  0.0000000  1.2552000  3
   2322   2321   2333   2345     1  0.0000000  0.6508444  3
   2322   2321   2333   2334     1  0.0000000  0.6508444  3
   2322   2321   2333   2335     1  0.0000000  0.6508444  3
   2323   2321   2320   2324     1  0.0000000  1.2552000  3
   2323   2321   2320   2327     1  0.0000000  1.2552000  3
   2323   2321   2333   2345     1  0.0000000  0.6508444  3
   2323   2321   2333   2334     1  0.0000000  0.6508444  3
   2323   2321   2333   2335     1  0.0000000  0.6508444  3
   2324   2320   2327   2328     1  0.0000000  1.2552000  3
   2324   2320   2327   2329     1  0.0000000  1.2552000  3
   2324   2336   2342   2343     1  0.0000000  0.6508444  3
   2324   2336   2342   2344     1  0.0000000  0.6508444  3
   2325   2324   2320   2327     1  0.0000000  1.2552000  3
   2325   2324   2336   2342     1  0.0000000  0.6508444  3
   2325   2324   2336   2337     1  0.0000000  0.6508444  3
   2325   2324   2336   2338     1  0.0000000  0.6508444  3
   2326   2324   2320   2327     1  0.0000000  1.2552000  3
   2326   2324   2336   2342     1  0.0000000  0.6508444  3
   2326   2324   2336   2337     1  0.0000000  0.6508444  3
   2326   2324   2336   2338     1  0.0000000  0.6508444  3
   2327   2330   2339   2340     1  0.0000000  0.6508444  3
   2327   2330   2339   2341     1  0.0000000  0.6508444  3
   2328   2327   2330   2339     1  0.0000000  0.6508444  3
   2328   2327   2330   2331     1  0.0000000  0.6508444  3
   2328   2327   2330   2332     1  0.0000000  0.6508444  3
   2329   2327   2330   2339     1  0.0000000  0.6508444  3
   2329   2327   2330   2331     1  0.0000000  0.6508444  3
   2329   2327   2330   2332     1  0.0000000  0.6508444  3
   2331   2330   2339   2348     1  0.0000000  1.0460000  1
   2331   2330   2339   2348     1  0.0000000  0.0000000  3
   2331   2330   2339   2340     1  0.0000000  0.6508444  3
   2331   2330   2339   2341     1  0.0000000  0.6508444  3
   2332   2330   2339   2348     1  0.0000000  1.0460000  1
   2332   2330   2339   2348     1  0.0000000  0.0000000  3
   2332   2330   2339   2340     1  0.0000000  0.6508444  3
   2332   2330   2339   2341     1  0.0000000  0.6508444  3
   2334   2333   2345   4755     1  0.0000000  1.0460000  1
   2334   2333   2345   4755     1  0.0000000  0.0000000  3
   2334   2333   2345   2346     1  0.0000000  0.6508444  3
   2334   2333   2345   2347     1  0.0000000  0.6508444  3
   2335   2333   2345   4755     1  0.0000000  1.0460000  1
   2335   2333   2345   4755     1  0.0000000  0.0000000  3
   2335   2333   2345   2346     1  0.0000000  0.6508444  3
   2335   2333   2345   2347     1  0.0000000  0.6508444  3
   2337   2336   2342   4726     1  0.0000000  1.0460000  1
   2337   2336   2342   4726     1  0.0000000  0.0000000  3
   2337   2336   2342   2343     1  0.0000000  0.6508444  3
   2337   2336   2342   2344     1  0.0000000  0.6508444  3
   2338   2336   2342   4726     1  0.0000000  1.0460000  1
   2338   2336   2342   4726     1  0.0000000  0.0000000  3
   2338   2336   2342   2343     1  0.0000000  0.6508444  3
   2338   2336   2342   2344     1  0.0000000  0.6508444  3
   2342   4726   4717   4718     1  0.0000000  1.6038667  3
   2342   4726   4717   4719     1  0.0000000  1.6038667  3
   2343   2342   4726   4717     1  0.0000000  1.6038667  3
   2344   2342   4726   4717     1  0.0000000  1.6038667  3
   2345   4755   4746   4747     1  0.0000000  1.6038667  3
   2345   4755   4746   4748     1  0.0000000  1.6038667  3
   2346   2345   4755   4746     1  0.0000000  1.6038667  3
   2347   2345   4755   4746     1  0.0000000  1.6038667  3
   2349   2350   2362   2363     1  0.0000000  0.6508444  3
   2349   2350   2362   2364     1  0.0000000  0.6508444  3
   2349   2353   2365   2366     1  0.0000000  0.6508444  3
   2349   2353   2365   2367     1  0.0000000  0.6508444  3
   2349   2356   2359   2360     1  0.0000000  0.6508444  3
   2349   2356   2359   2361     1  0.0000000  0.6508444  3
   2350   2349   2353   2354     1  0.0000000  1.2552000  3
   2350   2349   2353   2355     1  0.0000000  1.2552000  3
   2350   2349   2356   2357     1  0.0000000  1.2552000  3
   2350   2349   2356   2358     1  0.0000000  1.2552000  3
   2350   2362   2374   2375     1  0.0000000  0.6508444  3
   2350   2362   2374   2376     1  0.0000000  0.6508444  3
   2351   2350   2349   2353     1  0.0000000  1.2552000  3
   2351   2350   2349   2356     1  0.0000000  1.2552000  3
   2351   2350   2362   2374     1  0.0000000  0.6508444  3
   2351   2350   2362   2363     1  0.0000000  0.6508444  3
   2351   2350   2362   2364     1  0.0000000  0.6508444  3
   2352   2350   2349   2353     1  0.0000000  1.2552000  3
   2352   2350   2349   2356     1  0.0000000  1.2552000  3
   2352   2350   2362   2374     1  0.0000000  0.6508444  3
   2352   2350   2362   2363     1  0.0000000  0.6508444  3
   2352   2350   2362   2364     1  0.0000000  0.6508444  3
   2353   2349   2356   2357     1  0.0000000  1.2552000  3
   2353   2349   2356   2358     1  0.0000000  1.2552000  3
   2353   2365   2371   2372     1  0.0000000  0.6508444  3
   2353   2365   2371   2373     1  0.0000000  0.6508444  3
   2354   2353   2349   2356     1  0.0000000  1.2552000  3
   2354   2353   2365   2371     1  0.0000000  0.6508444  3
   2354   2353   2365   2366     1  0.0000000  0.6508444  3
   2354   2353   2365   2367     1  0.0000000  0.6508444  3
   2355   2353   2349   2356     1  0.0000000  1.2552000  3
   2355   2353   2365   2371     1  0.0000000  0.6508444  3
   2355   2353   2365   2366     1  0.0000000  0.6508444  3
   2355   2353   2365   2367     1  0.0000000  0.6508444  3
   2356   2359   2368   2369     1  0.0000000  0.6508444  3
   2356   2359   2368   2370     1  0.0000000  0.6508444  3
   2357   2356   2359   2368     1  0.0000000  0.6508444  3
   2357   2356   2359   2360     1  0.0000000  0.6508444  3
   2357   2356   2359   2361     1  0.0000000  0.6508444  3
   2358   2356   2359   2368     1  0.0000000  0.6508444  3
   2358   2356   2359   2360     1  0.0000000  0.6508444  3
   2358   2356   2359   2361     1  0.0000000  0.6508444  3
   2360   2359   2368   2377     1  0.0000000  1.0460000  1
   2360   2359   2368   2377     1  0.0000000  0.0000000  3
   2360   2359   2368   2369     1  0.0000000  0.6508444  3
   2360   2359   2368   2370     1  0.0000000  0.6508444  3
   2361   2359   2368   2377     1  0.0000000  1.0460000  1
   2361   2359   2368   2377     1  0.0000000  0.0000000  3
   2361   2359   2368   2369     1  0.0000000  0.6508444  3
   2361   2359   2368   2370     1  0.0000000  0.6508444  3
   2363   2362   2374   4813     1  0.0000000  1.0460000  1
   2363   2362   2374   4813     1  0.0000000  0.0000000  3
   2363   2362   2374   2375     1  0.0000000  0.6508444  3
   2363   2362   2374   2376     1  0.0000000  0.6508444  3
   2364   2362   2374   4813     1  0.0000000  1.0460000  1
   2364   2362   2374   4813     1  0.0000000  0.0000000  3
   2364   2362   2374   2375     1  0.0000000  0.6508444  3
   2364   2362   2374   2376     1  0.0000000  0.6508444  3
   2366   2365   2371   4784     1  0.0000000  1.0460000  1
   2366   2365   2371   4784     1  0.0000000  0.0000000  3
   2366   2365   2371   2372     1  0.0000000  0.6508444  3
   2366   2365   2371   2373     1  0.0000000  0.6508444  3
   2367   2365   2371   4784     1  0.0000000  1.0460000  1
   2367   2365   2371   4784     1  0.0000000  0.0000000  3
   2367   2365   2371   2372     1  0.0000000  0.6508444  3
   2367   2365   2371   2373     1  0.0000000  0.6508444  3
   2371   4784   4775   4776     1  0.0000000  1.6038667  3
   2371   4784   4775   4777     1  0.0000000  1.6038667  3
   2372   2371   4784   4775     1  0.0000000  1.6038667  3
   2373   2371   4784   4775     1  0.0000000  1.6038667  3
   2374   4813   4804   4805     1  0.0000000  1.6038667  3
   2374   4813   4804   4806     1  0.0000000  1.6038667  3
   2375   2374   4813   4804     1  0.0000000  1.6038667  3
   2376   2374   4813   4804     1  0.0000000  1.6038667  3
   2378   2379   2391   2392     1  0.0000000  0.6508444  3
   2378   2379   2391   2393     1  0.0000000  0.6508444  3
   2378   2382   2394   2395     1  0.0000000  0.6508444  3
   2378   2382   2394   2396     1  0.0000000  0.6508444  3
   2378   2385   2388   2389     1  0.0000000  0.6508444  3
   2378   2385   2388   2390     1  0.0000000  0.6508444  3
   2379   2378   2382   2383     1  0.0000000  1.2552000  3
   2379   2378   2382   2384     1  0.0000000  1.2552000  3
   2379   2378   2385   2386     1  0.0000000  1.2552000  3
   2379   2378   2385   2387     1  0.0000000  1.2552000  3
   2379   2391   2403   2404     1  0.0000000  0.6508444  3
   2379   2391   2403   2405     1  0.0000000  0.6508444  3
   2380   2379   2378   2382     1  0.0000000  1.2552000  3
   2380   2379   2378   2385     1  0.0000000  1.2552000  3
   2380   2379   2391   2403     1  0.0000000  0.6508444  3
   2380   2379   2391   2392     1  0.0000000  0.6508444  3
   2380   2379   2391   2393     1  0.0000000  0.6508444  3
   2381   2379   2378   2382     1  0.0000000  1.2552000  3
   2381   2379   2378   2385     1  0.0000000  1.2552000  3
   2381   2379   2391   2403     1  0.0000000  0.6508444  3
   2381   2379   2391   2392     1  0.0000000  0.6508444  3
   2381   2379   2391   2393     1  0.0000000  0.6508444  3
   2382   2378   2385   2386     1  0.0000000  1.2552000  3
   2382   2378   2385   2387     1  0.0000000  1.2552000  3
   2382   2394   2400   2401     1  0.0000000  0.6508444  3
   2382   2394   2400   2402     1  0.0000000  0.6508444  3
   2383   2382   2378   2385     1  0.0000000  1.2552000  3
   2383   2382   2394   2400     1  0.0000000  0.6508444  3
   2383   2382   2394   2395     1  0.0000000  0.6508444  3
   2383   2382   2394   2396     1  0.0000000  0.6508444  3
   2384   2382   2378   2385     1  0.0000000  1.2552000  3
   2384   2382   2394   2400     1  0.0000000  0.6508444  3
   2384   2382   2394   2395     1  0.0000000  0.6508444  3
   2384   2382   2394   2396     1  0.0000000  0.6508444  3
   2385   2388   2397   2398     1  0.0000000  0.6508444  3
   2385   2388   2397   2399     1  0.0000000  0.6508444  3
   2386   2385   2388   2397     1  0.0000000  0.6508444  3
   2386   2385   2388   2389     1  0.0000000  0.6508444  3
   2386   2385   2388   2390     1  0.0000000  0.6508444  3
   2387   2385   2388   2397     1  0.0000000  0.6508444  3
   2387   2385   2388   2389     1  0.0000000  0.6508444  3
   2387   2385   2388   2390     1  0.0000000  0.6508444  3
   2389   2388   2397   2406     1  0.0000000  1.0460000  1
   2389   2388   2397   2406     1  0.0000000  0.0000000  3
   2389   2388   2397   2398     1  0.0000000  0.6508444  3
   2389   2388   2397   2399     1  0.0000000  0.6508444  3
   2390   2388   2397   2406     1  0.0000000  1.0460000  1
   2390   2388   2397   2406     1  0.0000000  0.0000000  3
   2390   2388   2397   2398     1  0.0000000  0.6508444  3
   2390   2388   2397   2399     1  0.0000000  0.6508444  3
   2392   2391   2403   4871     1  0.0000000  1.0460000  1
   2392   2391   2403   4871     1  0.0000000  0.0000000  3
   2392   2391   2403   2404     1  0.0000000  0.6508444  3
   2392   2391   2403   2405     1  0.0000000  0.6508444  3
   2393   2391   2403   4871     1  0.0000000  1.0460000  1
   2393   2391   2403   4871     1  0.0000000  0.0000000  3
   2393   2391   2403   2404     1  0.0000000  0.6508444  3
   2393   2391   2403   2405     1  0.0000000  0.6508444  3
   2395   2394   2400   4842     1  0.0000000  1.0460000  1
   2395   2394   2400   4842     1  0.0000000  0.0000000  3
   2395   2394   2400   2401     1  0.0000000  0.6508444  3
   2395   2394   2400   2402     1  0.0000000  0.6508444  3
   2396   2394   2400   4842     1  0.0000000  1.0460000  1
   2396   2394   2400   4842     1  0.0000000  0.0000000  3
   2396   2394   2400   2401     1  0.0000000  0.6508444  3
   2396   2394   2400   2402     1  0.0000000  0.6508444  3
   2400   4842   4833   4834     1  0.0000000  1.6038667  3
   2400   4842   4833   4835     1  0.0000000  1.6038667  3
   2401   2400   4842   4833     1  0.0000000  1.6038667  3
   2402   2400   4842   4833     1  0.0000000  1.6038667  3
   2403   4871   4862   4863     1  0.0000000  1.6038667  3
   2403   4871   4862   4864     1  0.0000000  1.6038667  3
   2404   2403   4871   4862     1  0.0000000  1.6038667  3
   2405   2403   4871   4862     1  0.0000000  1.6038667  3
   2407   2408   2420   2421     1  0.0000000  0.6508444  3
   2407   2408   2420   2422     1  0.0000000  0.6508444  3
   2407   2411   2423   2424     1  0.0000000  0.6508444  3
   2407   2411   2423   2425     1  0.0000000  0.6508444  3
   2407   2414   2417   2418     1  0.0000000  0.6508444  3
   2407   2414   2417   2419     1  0.0000000  0.6508444  3
   2408   2407   2411   2412     1  0.0000000  1.2552000  3
   2408   2407   2411   2413     1  0.0000000  1.2552000  3
   2408   2407   2414   2415     1  0.0000000  1.2552000  3
   2408   2407   2414   2416     1  0.0000000  1.2552000  3
   2408   2420   2432   2433     1  0.0000000  0.6508444  3
   2408   2420   2432   2434     1  0.0000000  0.6508444  3
   2409   2408   2407   2411     1  0.0000000  1.2552000  3
   2409   2408   2407   2414     1  0.0000000  1.2552000  3
   2409   2408   2420   2432     1  0.0000000  0.6508444  3
   2409   2408   2420   2421     1  0.0000000  0.6508444  3
   2409   2408   2420   2422     1  0.0000000  0.6508444  3
   2410   2408   2407   2411     1  0.0000000  1.2552000  3
   2410   2408   2407   2414     1  0.0000000  1.2552000  3
   2410   2408   2420   2432     1  0.0000000  0.6508444  3
   2410   2408   2420   2421     1  0.0000000  0.6508444  3
   2410   2408   2420   2422     1  0.0000000  0.6508444  3
   2411   2407   2414   2415     1  0.0000000  1.2552000  3
   2411   2407   2414   2416     1  0.0000000  1.2552000  3
   2411   2423   2429   2430     1  0.0000000  0.6508444  3
   2411   2423   2429   2431     1  0.0000000  0.6508444  3
   2412   2411   2407   2414     1  0.0000000  1.2552000  3
   2412   2411   2423   2429     1  0.0000000  0.6508444  3
   2412   2411   2423   2424     1  0.0000000  0.6508444  3
   2412   2411   2423   2425     1  0.0000000  0.6508444  3
   2413   2411   2407   2414     1  0.0000000  1.2552000  3
   2413   2411   2423   2429     1  0.0000000  0.6508444  3
   2413   2411   2423   2424     1  0.0000000  0.6508444  3
   2413   2411   2423   2425     1  0.0000000  0.6508444  3
   2414   2417   2426   2427     1  0.0000000  0.6508444  3
   2414   2417   2426   2428     1  0.0000000  0.6508444  3
   2415   2414   2417   2426     1  0.0000000  0.6508444  3
   2415   2414   2417   2418     1  0.0000000  0.6508444  3
   2415   2414   2417   2419     1  0.0000000  0.6508444  3
   2416   2414   2417   2426     1  0.0000000  0.6508444  3
   2416   2414   2417   2418     1  0.0000000  0.6508444  3
   2416   2414   2417   2419     1  0.0000000  0.6508444  3
   2418   2417   2426   2435     1  0.0000000  1.0460000  1
   2418   2417   2426   2435     1  0.0000000  0.0000000  3
   2418   2417   2426   2427     1  0.0000000  0.6508444  3
   2418   2417   2426   2428     1  0.0000000  0.6508444  3
   2419   2417   2426   2435     1  0.0000000  1.0460000  1
   2419   2417   2426   2435     1  0.0000000  0.0000000  3
   2419   2417   2426   2427     1  0.0000000  0.6508444  3
   2419   2417   2426   2428     1  0.0000000  0.6508444  3
   2421   2420   2432   4929     1  0.0000000  1.0460000  1
   2421   2420   2432   4929     1  0.0000000  0.0000000  3
   2421   2420   2432   2433     1  0.0000000  0.6508444  3
   2421   2420   2432   2434     1  0.0000000  0.6508444  3
   2422   2420   2432   4929     1  0.0000000  1.0460000  1
   2422   2420   2432   4929     1  0.0000000  0.0000000  3
   2422   2420   2432   2433     1  0.0000000  0.6508444  3
   2422   2420   2432   2434     1  0.0000000  0.6508444  3
   2424   2423   2429   4900     1  0.0000000  1.0460000  1
   2424   2423   2429   4900     1  0.0000000  0.0000000  3
   2424   2423   2429   2430     1  0.0000000  0.6508444  3
   2424   2423   2429   2431     1  0.0000000  0.6508444  3
   2425   2423   2429   4900     1  0.0000000  1.0460000  1
   2425   2423   2429   4900     1  0.0000000  0.0000000  3
   2425   2423   2429   2430     1  0.0000000  0.6508444  3
   2425   2423   2429   2431     1  0.0000000  0.6508444  3
   2429   4900   4891   4892     1  0.0000000  1.6038667  3
   2429   4900   4891   4893     1  0.0000000  1.6038667  3
   2430   2429   4900   4891     1  0.0000000  1.6038667  3
   2431   2429   4900   4891     1  0.0000000  1.6038667  3
   2432   4929   4920   4921     1  0.0000000  1.6038667  3
   2432   4929   4920   4922     1  0.0000000  1.6038667  3
   2433   2432   4929   4920     1  0.0000000  1.6038667  3
   2434   2432   4929   4920     1  0.0000000  1.6038667  3
   2436   2437   2449   2450     1  0.0000000  0.6508444  3
   2436   2437   2449   2451     1  0.0000000  0.6508444  3
   2436   2440   2452   2453     1  0.0000000  0.6508444  3
   2436   2440   2452   2454     1  0.0000000  0.6508444  3
   2436   2443   2446   2447     1  0.0000000  0.6508444  3
   2436   2443   2446   2448     1  0.0000000  0.6508444  3
   2437   2436   2440   2441     1  0.0000000  1.2552000  3
   2437   2436   2440   2442     1  0.0000000  1.2552000  3
   2437   2436   2443   2444     1  0.0000000  1.2552000  3
   2437   2436   2443   2445     1  0.0000000  1.2552000  3
   2437   2449   2461   2462     1  0.0000000  0.6508444  3
   2437   2449   2461   2463     1  0.0000000  0.6508444  3
   2438   2437   2436   2440     1  0.0000000  1.2552000  3
   2438   2437   2436   2443     1  0.0000000  1.2552000  3
   2438   2437   2449   2461     1  0.0000000  0.6508444  3
   2438   2437   2449   2450     1  0.0000000  0.6508444  3
   2438   2437   2449   2451     1  0.0000000  0.6508444  3
   2439   2437   2436   2440     1  0.0000000  1.2552000  3
   2439   2437   2436   2443     1  0.0000000  1.2552000  3
   2439   2437   2449   2461     1  0.0000000  0.6508444  3
   2439   2437   2449   2450     1  0.0000000  0.6508444  3
   2439   2437   2449   2451     1  0.0000000  0.6508444  3
   2440   2436   2443   2444     1  0.0000000  1.2552000  3
   2440   2436   2443   2445     1  0.0000000  1.2552000  3
   2440   2452   2458   2459     1  0.0000000  0.6508444  3
   2440   2452   2458   2460     1  0.0000000  0.6508444  3
   2441   2440   2436   2443     1  0.0000000  1.2552000  3
   2441   2440   2452   2458     1  0.0000000  0.6508444  3
   2441   2440   2452   2453     1  0.0000000  0.6508444  3
   2441   2440   2452   2454     1  0.0000000  0.6508444  3
   2442   2440   2436   2443     1  0.0000000  1.2552000  3
   2442   2440   2452   2458     1  0.0000000  0.6508444  3
   2442   2440   2452   2453     1  0.0000000  0.6508444  3
   2442   2440   2452   2454     1  0.0000000  0.6508444  3
   2443   2446   2455   2456     1  0.0000000  0.6508444  3
   2443   2446   2455   2457     1  0.0000000  0.6508444  3
   2444   2443   2446   2455     1  0.0000000  0.6508444  3
   2444   2443   2446   2447     1  0.0000000  0.6508444  3
   2444   2443   2446   2448     1  0.0000000  0.6508444  3
   2445   2443   2446   2455     1  0.0000000  0.6508444  3
   2445   2443   2446   2447     1  0.0000000  0.6508444  3
   2445   2443   2446   2448     1  0.0000000  0.6508444  3
   2447   2446   2455   2464     1  0.0000000  1.0460000  1
   2447   2446   2455   2464     1  0.0000000  0.0000000  3
   2447   2446   2455   2456     1  0.0000000  0.6508444  3
   2447   2446   2455   2457     1  0.0000000  0.6508444  3
   2448   2446   2455   2464     1  0.0000000  1.0460000  1
   2448   2446   2455   2464     1  0.0000000  0.0000000  3
   2448   2446   2455   2456     1  0.0000000  0.6508444  3
   2448   2446   2455   2457     1  0.0000000  0.6508444  3
   2450   2449   2461   4987     1  0.0000000  1.0460000  1
   2450   2449   2461   4987     1  0.0000000  0.0000000  3
   2450   2449   2461   2462     1  0.0000000  0.6508444  3
   2450   2449   2461   2463     1  0.0000000  0.6508444  3
   2451   2449   2461   4987     1  0.0000000  1.0460000  1
   2451   2449   2461   4987     1  0.0000000  0.0000000  3
   2451   2449   2461   2462     1  0.0000000  0.6508444  3
   2451   2449   2461   2463     1  0.0000000  0.6508444  3
   2453   2452   2458   4958     1  0.0000000  1.0460000  1
   2453   2452   2458   4958     1  0.0000000  0.0000000  3
   2453   2452   2458   2459     1  0.0000000  0.6508444  3
   2453   2452   2458   2460     1  0.0000000  0.6508444  3
   2454   2452   2458   4958     1  0.0000000  1.0460000  1
   2454   2452   2458   4958     1  0.0000000  0.0000000  3
   2454   2452   2458   2459     1  0.0000000  0.6508444  3
   2454   2452   2458   2460     1  0.0000000  0.6508444  3
   2458   4958   4949   4950     1  0.0000000  1.6038667  3
   2458   4958   4949   4951     1  0.0000000  1.6038667  3
   2459   2458   4958   4949     1  0.0000000  1.6038667  3
   2460   2458   4958   4949     1  0.0000000  1.6038667  3
   2461   4987   4978   4979     1  0.0000000  1.6038667  3
   2461   4987   4978   4980     1  0.0000000  1.6038667  3
   2462   2461   4987   4978     1  0.0000000  1.6038667  3
   2463   2461   4987   4978     1  0.0000000  1.6038667  3
   2465   2466   2478   2479     1  0.0000000  0.6508444  3
   2465   2466   2478   2480     1  0.0000000  0.6508444  3
   2465   2469   2481   2482     1  0.0000000  0.6508444  3
   2465   2469   2481   2483     1  0.0000000  0.6508444  3
   2465   2472   2475   2476     1  0.0000000  0.6508444  3
   2465   2472   2475   2477     1  0.0000000  0.6508444  3
   2466   2465   2469   2470     1  0.0000000  1.2552000  3
   2466   2465   2469   2471     1  0.0000000  1.2552000  3
   2466   2465   2472   2473     1  0.0000000  1.2552000  3
   2466   2465   2472   2474     1  0.0000000  1.2552000  3
   2466   2478   2490   2491     1  0.0000000  0.6508444  3
   2466   2478   2490   2492     1  0.0000000  0.6508444  3
   2467   2466   2465   2469     1  0.0000000  1.2552000  3
   2467   2466   2465   2472     1  0.0000000  1.2552000  3
   2467   2466   2478   2490     1  0.0000000  0.6508444  3
   2467   2466   2478   2479     1  0.0000000  0.6508444  3
   2467   2466   2478   2480     1  0.0000000  0.6508444  3
   2468   2466   2465   2469     1  0.0000000  1.2552000  3
   2468   2466   2465   2472     1  0.0000000  1.2552000  3
   2468   2466   2478   2490     1  0.0000000  0.6508444  3
   2468   2466   2478   2479     1  0.0000000  0.6508444  3
   2468   2466   2478   2480     1  0.0000000  0.6508444  3
   2469   2465   2472   2473     1  0.0000000  1.2552000  3
   2469   2465   2472   2474     1  0.0000000  1.2552000  3
   2469   2481   2487   2488     1  0.0000000  0.6508444  3
   2469   2481   2487   2489     1  0.0000000  0.6508444  3
   2470   2469   2465   2472     1  0.0000000  1.2552000  3
   2470   2469   2481   2487     1  0.0000000  0.6508444  3
   2470   2469   2481   2482     1  0.0000000  0.6508444  3
   2470   2469   2481   2483     1  0.0000000  0.6508444  3
   2471   2469   2465   2472     1  0.0000000  1.2552000  3
   2471   2469   2481   2487     1  0.0000000  0.6508444  3
   2471   2469   2481   2482     1  0.0000000  0.6508444  3
   2471   2469   2481   2483     1  0.0000000  0.6508444  3
   2472   2475   2484   2485     1  0.0000000  0.6508444  3
   2472   2475   2484   2486     1  0.0000000  0.6508444  3
   2473   2472   2475   2484     1  0.0000000  0.6508444  3
   2473   2472   2475   2476     1  0.0000000  0.6508444  3
   2473   2472   2475   2477     1  0.0000000  0.6508444  3
   2474   2472   2475   2484     1  0.0000000  0.6508444  3
   2474   2472   2475   2476     1  0.0000000  0.6508444  3
   2474   2472   2475   2477     1  0.0000000  0.6508444  3
   2476   2475   2484   2493     1  0.0000000  1.0460000  1
   2476   2475   2484   2493     1  0.0000000  0.0000000  3
   2476   2475   2484   2485     1  0.0000000  0.6508444  3
   2476   2475   2484   2486     1  0.0000000  0.6508444  3
   2477   2475   2484   2493     1  0.0000000  1.0460000  1
   2477   2475   2484   2493     1  0.0000000  0.0000000  3
   2477   2475   2484   2485     1  0.0000000  0.6508444  3
   2477   2475   2484   2486     1  0.0000000  0.6508444  3
   2479   2478   2490   5045     1  0.0000000  1.0460000  1
   2479   2478   2490   5045     1  0.0000000  0.0000000  3
   2479   2478   2490   2491     1  0.0000000  0.6508444  3
   2479   2478   2490   2492     1  0.0000000  0.6508444  3
   2480   2478   2490   5045     1  0.0000000  1.0460000  1
   2480   2478   2490   5045     1  0.0000000  0.0000000  3
   2480   2478   2490   2491     1  0.0000000  0.6508444  3
   2480   2478   2490   2492     1  0.0000000  0.6508444  3
   2482   2481   2487   5016     1  0.0000000  1.0460000  1
   2482   2481   2487   5016     1  0.0000000  0.0000000  3
   2482   2481   2487   2488     1  0.0000000  0.6508444  3
   2482   2481   2487   2489     1  0.0000000  0.6508444  3
   2483   2481   2487   5016     1  0.0000000  1.0460000  1
   2483   2481   2487   5016     1  0.0000000  0.0000000  3
   2483   2481   2487   2488     1  0.0000000  0.6508444  3
   2483   2481   2487   2489     1  0.0000000  0.6508444  3
   2487   5016   5007   5008     1  0.0000000  1.6038667  3
   2487   5016   5007   5009     1  0.0000000  1.6038667  3
   2488   2487   5016   5007     1  0.0000000  1.6038667  3
   2489   2487   5016   5007     1  0.0000000  1.6038667  3
   2490   5045   5036   5037     1  0.0000000  1.6038667  3
   2490   5045   5036   5038     1  0.0000000  1.6038667  3
   2491   2490   5045   5036     1  0.0000000  1.6038667  3
   2492   2490   5045   5036     1  0.0000000  1.6038667  3
   2494   2495   2507   2508     1  0.0000000  0.6508444  3
   2494   2495   2507   2509     1  0.0000000  0.6508444  3
   2494   2498   2510   2511     1  0.0000000  0.6508444  3
   2494   2498   2510   2512     1  0.0000000  0.6508444  3
   2494   2501   2504   2505     1  0.0000000  0.6508444  3
   2494   2501   2504   2506     1  0.0000000  0.6508444  3
   2495   2494   2498   2499     1  0.0000000  1.2552000  3
   2495   2494   2498   2500     1  0.0000000  1.2552000  3
   2495   2494   2501   2502     1  0.0000000  1.2552000  3
   2495   2494   2501   2503     1  0.0000000  1.2552000  3
   2495   2507   2519   2520     1  0.0000000  0.6508444  3
   2495   2507   2519   2521     1  0.0000000  0.6508444  3
   2496   2495   2494   2498     1  0.0000000  1.2552000  3
   2496   2495   2494   2501     1  0.0000000  1.2552000  3
   2496   2495   2507   2519     1  0.0000000  0.6508444  3
   2496   2495   2507   2508     1  0.0000000  0.6508444  3
   2496   2495   2507   2509     1  0.0000000  0.6508444  3
   2497   2495   2494   2498     1  0.0000000  1.2552000  3
   2497   2495   2494   2501     1  0.0000000  1.2552000  3
   2497   2495   2507   2519     1  0.0000000  0.6508444  3
   2497   2495   2507   2508     1  0.0000000  0.6508444  3
   2497   2495   2507   2509     1  0.0000000  0.6508444  3
   2498   2494   2501   2502     1  0.0000000  1.2552000  3
   2498   2494   2501   2503     1  0.0000000  1.2552000  3
   2498   2510   2516   2517     1  0.0000000  0.6508444  3
   2498   2510   2516   2518     1  0.0000000  0.6508444  3
   2499   2498   2494   2501     1  0.0000000  1.2552000  3
   2499   2498   2510   2516     1  0.0000000  0.6508444  3
   2499   2498   2510   2511     1  0.0000000  0.6508444  3
   2499   2498   2510   2512     1  0.0000000  0.6508444  3
   2500   2498   2494   2501     1  0.0000000  1.2552000  3
   2500   2498   2510   2516     1  0.0000000  0.6508444  3
   2500   2498   2510   2511     1  0.0000000  0.6508444  3
   2500   2498   2510   2512     1  0.0000000  0.6508444  3
   2501   2504   2513   2514     1  0.0000000  0.6508444  3
   2501   2504   2513   2515     1  0.0000000  0.6508444  3
   2502   2501   2504   2513     1  0.0000000  0.6508444  3
   2502   2501   2504   2505     1  0.0000000  0.6508444  3
   2502   2501   2504   2506     1  0.0000000  0.6508444  3
   2503   2501   2504   2513     1  0.0000000  0.6508444  3
   2503   2501   2504   2505     1  0.0000000  0.6508444  3
   2503   2501   2504   2506     1  0.0000000  0.6508444  3
   2505   2504   2513   2522     1  0.0000000  1.0460000  1
   2505   2504   2513   2522     1  0.0000000  0.0000000  3
   2505   2504   2513   2514     1  0.0000000  0.6508444  3
   2505   2504   2513   2515     1  0.0000000  0.6508444  3
   2506   2504   2513   2522     1  0.0000000  1.0460000  1
   2506   2504   2513   2522     1  0.0000000  0.0000000  3
   2506   2504   2513   2514     1  0.0000000  0.6508444  3
   2506   2504   2513   2515     1  0.0000000  0.6508444  3
   2508   2507   2519   5103     1  0.0000000  1.0460000  1
   2508   2507   2519   5103     1  0.0000000  0.0000000  3
   2508   2507   2519   2520     1  0.0000000  0.6508444  3
   2508   2507   2519   2521     1  0.0000000  0.6508444  3
   2509   2507   2519   5103     1  0.0000000  1.0460000  1
   2509   2507   2519   5103     1  0.0000000  0.0000000  3
   2509   2507   2519   2520     1  0.0000000  0.6508444  3
   2509   2507   2519   2521     1  0.0000000  0.6508444  3
   2511   2510   2516   5074     1  0.0000000  1.0460000  1
   2511   2510   2516   5074     1  0.0000000  0.0000000  3
   2511   2510   2516   2517     1  0.0000000  0.6508444  3
   2511   2510   2516   2518     1  0.0000000  0.6508444  3
   2512   2510   2516   5074     1  0.0000000  1.0460000  1
   2512   2510   2516   5074     1  0.0000000  0.0000000  3
   2512   2510   2516   2517     1  0.0000000  0.6508444  3
   2512   2510   2516   2518     1  0.0000000  0.6508444  3
   2516   5074   5065   5066     1  0.0000000  1.6038667  3
   2516   5074   5065   5067     1  0.0000000  1.6038667  3
   2517   2516   5074   5065     1  0.0000000  1.6038667  3
   2518   2516   5074   5065     1  0.0000000  1.6038667  3
   2519   5103   5094   5095     1  0.0000000  1.6038667  3
   2519   5103   5094   5096     1  0.0000000  1.6038667  3
   2520   2519   5103   5094     1  0.0000000  1.6038667  3
   2521   2519   5103   5094     1  0.0000000  1.6038667  3
   2523   2524   2536   2537     1  0.0000000  0.6508444  3
   2523   2524   2536   2538     1  0.0000000  0.6508444  3
   2523   2527   2539   2540     1  0.0000000  0.6508444  3
   2523   2527   2539   2541     1  0.0000000  0.6508444  3
   2523   2530   2533   2534     1  0.0000000  0.6508444  3
   2523   2530   2533   2535     1  0.0000000  0.6508444  3
   2524   2523   2527   2528     1  0.0000000  1.2552000  3
   2524   2523   2527   2529     1  0.0000000  1.2552000  3
   2524   2523   2530   2531     1  0.0000000  1.2552000  3
   2524   2523   2530   2532     1  0.0000000  1.2552000  3
   2524   2536   2548   2549     1  0.0000000  0.6508444  3
   2524   2536   2548   2550     1  0.0000000  0.6508444  3
   2525   2524   2523   2527     1  0.0000000  1.2552000  3
   2525   2524   2523   2530     1  0.0000000  1.2552000  3
   2525   2524   2536   2548     1  0.0000000  0.6508444  3
   2525   2524   2536   2537     1  0.0000000  0.6508444  3
   2525   2524   2536   2538     1  0.0000000  0.6508444  3
   2526   2524   2523   2527     1  0.0000000  1.2552000  3
   2526   2524   2523   2530     1  0.0000000  1.2552000  3
   2526   2524   2536   2548     1  0.0000000  0.6508444  3
   2526   2524   2536   2537     1  0.0000000  0.6508444  3
   2526   2524   2536   2538     1  0.0000000  0.6508444  3
   2527   2523   2530   2531     1  0.0000000  1.2552000  3
   2527   2523   2530   2532     1  0.0000000  1.2552000  3
   2527   2539   2545   2546     1  0.0000000  0.6508444  3
   2527   2539   2545   2547     1  0.0000000  0.6508444  3
   2528   2527   2523   2530     1  0.0000000  1.2552000  3
   2528   2527   2539   2545     1  0.0000000  0.6508444  3
   2528   2527   2539   2540     1  0.0000000  0.6508444  3
   2528   2527   2539   2541     1  0.0000000  0.6508444  3
   2529   2527   2523   2530     1  0.0000000  1.2552000  3
   2529   2527   2539   2545     1  0.0000000  0.6508444  3
   2529   2527   2539   2540     1  0.0000000  0.6508444  3
   2529   2527   2539   2541     1  0.0000000  0.6508444  3
   2530   2533   2542   2543     1  0.0000000  0.6508444  3
   2530   2533   2542   2544     1  0.0000000  0.6508444  3
   2531   2530   2533   2542     1  0.0000000  0.6508444  3
   2531   2530   2533   2534     1  0.0000000  0.6508444  3
   2531   2530   2533   2535     1  0.0000000  0.6508444  3
   2532   2530   2533   2542     1  0.0000000  0.6508444  3
   2532   2530   2533   2534     1  0.0000000  0.6508444  3
   2532   2530   2533   2535     1  0.0000000  0.6508444  3
   2534   2533   2542   2551     1  0.0000000  1.0460000  1
   2534   2533   2542   2551     1  0.0000000  0.0000000  3
   2534   2533   2542   2543     1  0.0000000  0.6508444  3
   2534   2533   2542   2544     1  0.0000000  0.6508444  3
   2535   2533   2542   2551     1  0.0000000  1.0460000  1
   2535   2533   2542   2551     1  0.0000000  0.0000000  3
   2535   2533   2542   2543     1  0.0000000  0.6508444  3
   2535   2533   2542   2544     1  0.0000000  0.6508444  3
   2537   2536   2548   5161     1  0.0000000  1.0460000  1
   2537   2536   2548   5161     1  0.0000000  0.0000000  3
   2537   2536   2548   2549     1  0.0000000  0.6508444  3
   2537   2536   2548   2550     1  0.0000000  0.6508444  3
   2538   2536   2548   5161     1  0.0000000  1.0460000  1
   2538   2536   2548   5161     1  0.0000000  0.0000000  3
   2538   2536   2548   2549     1  0.0000000  0.6508444  3
   2538   2536   2548   2550     1  0.0000000  0.6508444  3
   2540   2539   2545   5132     1  0.0000000  1.0460000  1
   2540   2539   2545   5132     1  0.0000000  0.0000000  3
   2540   2539   2545   2546     1  0.0000000  0.6508444  3
   2540   2539   2545   2547     1  0.0000000  0.6508444  3
   2541   2539   2545   5132     1  0.0000000  1.0460000  1
   2541   2539   2545   5132     1  0.0000000  0.0000000  3
   2541   2539   2545   2546     1  0.0000000  0.6508444  3
   2541   2539   2545   2547     1  0.0000000  0.6508444  3
   2545   5132   5123   5124     1  0.0000000  1.6038667  3
   2545   5132   5123   5125     1  0.0000000  1.6038667  3
   2546   2545   5132   5123     1  0.0000000  1.6038667  3
   2547   2545   5132   5123     1  0.0000000  1.6038667  3
   2548   5161   5152   5153     1  0.0000000  1.6038667  3
   2548   5161   5152   5154     1  0.0000000  1.6038667  3
   2549   2548   5161   5152     1  0.0000000  1.6038667  3
   2550   2548   5161   5152     1  0.0000000  1.6038667  3
   2552   2553   2565   2566     1  0.0000000  0.6508444  3
   2552   2553   2565   2567     1  0.0000000  0.6508444  3
   2552   2556   2568   2569     1  0.0000000  0.6508444  3
   2552   2556   2568   2570     1  0.0000000  0.6508444  3
   2552   2559   2562   2563     1  0.0000000  0.6508444  3
   2552   2559   2562   2564     1  0.0000000  0.6508444  3
   2553   2552   2556   2557     1  0.0000000  1.2552000  3
   2553   2552   2556   2558     1  0.0000000  1.2552000  3
   2553   2552   2559   2560     1  0.0000000  1.2552000  3
   2553   2552   2559   2561     1  0.0000000  1.2552000  3
   2553   2565   2577   2578     1  0.0000000  0.6508444  3
   2553   2565   2577   2579     1  0.0000000  0.6508444  3
   2554   2553   2552   2556     1  0.0000000  1.2552000  3
   2554   2553   2552   2559     1  0.0000000  1.2552000  3
   2554   2553   2565   2577     1  0.0000000  0.6508444  3
   2554   2553   2565   2566     1  0.0000000  0.6508444  3
   2554   2553   2565   2567     1  0.0000000  0.6508444  3
   2555   2553   2552   2556     1  0.0000000  1.2552000  3
   2555   2553   2552   2559     1  0.0000000  1.2552000  3
   2555   2553   2565   2577     1  0.0000000  0.6508444  3
   2555   2553   2565   2566     1  0.0000000  0.6508444  3
   2555   2553   2565   2567     1  0.0000000  0.6508444  3
   2556   2552   2559   2560     1  0.0000000  1.2552000  3
   2556   2552   2559   2561     1  0.0000000  1.2552000  3
   2556   2568   2574   2575     1  0.0000000  0.6508444  3
   2556   2568   2574   2576     1  0.0000000  0.6508444  3
   2557   2556   2552   2559     1  0.0000000  1.2552000  3
   2557   2556   2568   2574     1  0.0000000  0.6508444  3
   2557   2556   2568   2569     1  0.0000000  0.6508444  3
   2557   2556   2568   2570     1  0.0000000  0.6508444  3
   2558   2556   2552   2559     1  0.0000000  1.2552000  3
   2558   2556   2568   2574     1  0.0000000  0.6508444  3
   2558   2556   2568   2569     1  0.0000000  0.6508444  3
   2558   2556   2568   2570     1  0.0000000  0.6508444  3
   2559   2562   2571   2572     1  0.0000000  0.6508444  3
   2559   2562   2571   2573     1  0.0000000  0.6508444  3
   2560   2559   2562   2571     1  0.0000000  0.6508444  3
   2560   2559   2562   2563     1  0.0000000  0.6508444  3
   2560   2559   2562   2564     1  0.0000000  0.6508444  3
   2561   2559   2562   2571     1  0.0000000  0.6508444  3
   2561   2559   2562   2563     1  0.0000000  0.6508444  3
   2561   2559   2562   2564     1  0.0000000  0.6508444  3
   2563   2562   2571   2580     1  0.0000000  1.0460000  1
   2563   2562   2571   2580     1  0.0000000  0.0000000  3
   2563   2562   2571   2572     1  0.0000000  0.6508444  3
   2563   2562   2571   2573     1  0.0000000  0.6508444  3
   2564   2562   2571   2580     1  0.0000000  1.0460000  1
   2564   2562   2571   2580     1  0.0000000  0.0000000  3
   2564   2562   2571   2572     1  0.0000000  0.6508444  3
   2564   2562   2571   2573     1  0.0000000  0.6508444  3
   2566   2565   2577   5219     1  0.0000000  1.0460000  1
   2566   2565   2577   5219     1  0.0000000  0.0000000  3
   2566   2565   2577   2578     1  0.0000000  0.6508444  3
   2566   2565   2577   2579     1  0.0000000  0.6508444  3
   2567   2565   2577   5219     1  0.0000000  1.0460000  1
   2567   2565   2577   5219     1  0.0000000  0.0000000  3
   2567   2565   2577   2578     1  0.0000000  0.6508444  3
   2567   2565   2577   2579     1  0.0000000  0.6508444  3
   2569   2568   2574   5190     1  0.0000000  1.0460000  1
   2569   2568   2574   5190     1  0.0000000  0.0000000  3
   2569   2568   2574   2575     1  0.0000000  0.6508444  3
   2569   2568   2574   2576     1  0.0000000  0.6508444  3
   2570   2568   2574   5190     1  0.0000000  1.0460000  1
   2570   2568   2574   5190     1  0.0000000  0.0000000  3
   2570   2568   2574   2575     1  0.0000000  0.6508444  3
   2570   2568   2574   2576     1  0.0000000  0.6508444  3
   2574   5190   5181   5182     1  0.0000000  1.6038667  3
   2574   5190   5181   5183     1  0.0000000  1.6038667  3
   2575   2574   5190   5181     1  0.0000000  1.6038667  3
   2576   2574   5190   5181     1  0.0000000  1.6038667  3
   2577   5219   5210   5211     1  0.0000000  1.6038667  3
   2577   5219   5210   5212     1  0.0000000  1.6038667  3
   2578   2577   5219   5210     1  0.0000000  1.6038667  3
   2579   2577   5219   5210     1  0.0000000  1.6038667  3
   2581   2582   2594   2595     1  0.0000000  0.6508444  3
   2581   2582   2594   2596     1  0.0000000  0.6508444  3
   2581   2585   2597   2598     1  0.0000000  0.6508444  3
   2581   2585   2597   2599     1  0.0000000  0.6508444  3
   2581   2588   2591   2592     1  0.0000000  0.6508444  3
   2581   2588   2591   2593     1  0.0000000  0.6508444  3
   2582   2581   2585   2586     1  0.0000000  1.2552000  3
   2582   2581   2585   2587     1  0.0000000  1.2552000  3
   2582   2581   2588   2589     1  0.0000000  1.2552000  3
   2582   2581   2588   2590     1  0.0000000  1.2552000  3
   2582   2594   2606   2607     1  0.0000000  0.6508444  3
   2582   2594   2606   2608     1  0.0000000  0.6508444  3
   2583   2582   2581   2585     1  0.0000000  1.2552000  3
   2583   2582   2581   2588     1  0.0000000  1.2552000  3
   2583   2582   2594   2606     1  0.0000000  0.6508444  3
   2583   2582   2594   2595     1  0.0000000  0.6508444  3
   2583   2582   2594   2596     1  0.0000000  0.6508444  3
   2584   2582   2581   2585     1  0.0000000  1.2552000  3
   2584   2582   2581   2588     1  0.0000000  1.2552000  3
   2584   2582   2594   2606     1  0.0000000  0.6508444  3
   2584   2582   2594   2595     1  0.0000000  0.6508444  3
   2584   2582   2594   2596     1  0.0000000  0.6508444  3
   2585   2581   2588   2589     1  0.0000000  1.2552000  3
   2585   2581   2588   2590     1  0.0000000  1.2552000  3
   2585   2597   2603   2604     1  0.0000000  0.6508444  3
   2585   2597   2603   2605     1  0.0000000  0.6508444  3
   2586   2585   2581   2588     1  0.0000000  1.2552000  3
   2586   2585   2597   2603     1  0.0000000  0.6508444  3
   2586   2585   2597   2598     1  0.0000000  0.6508444  3
   2586   2585   2597   2599     1  0.0000000  0.6508444  3
   2587   2585   2581   2588     1  0.0000000  1.2552000  3
   2587   2585   2597   2603     1  0.0000000  0.6508444  3
   2587   2585   2597   2598     1  0.0000000  0.6508444  3
   2587   2585   2597   2599     1  0.0000000  0.6508444  3
   2588   2591   2600   2601     1  0.0000000  0.6508444  3
   2588   2591   2600   2602     1  0.0000000  0.6508444  3
   2589   2588   2591   2600     1  0.0000000  0.6508444  3
   2589   2588   2591   2592     1  0.0000000  0.6508444  3
   2589   2588   2591   2593     1  0.0000000  0.6508444  3
   2590   2588   2591   2600     1  0.0000000  0.6508444  3
   2590   2588   2591   2592     1  0.0000000  0.6508444  3
   2590   2588   2591   2593     1  0.0000000  0.6508444  3
   2592   2591   2600   2609     1  0.0000000  1.0460000  1
   2592   2591   2600   2609     1  0.0000000  0.0000000  3
   2592   2591   2600   2601     1  0.0000000  0.6508444  3
   2592   2591   2600   2602     1  0.0000000  0.6508444  3
   2593   2591   2600   2609     1  0.0000000  1.0460000  1
   2593   2591   2600   2609     1  0.0000000  0.0000000  3
   2593   2591   2600   2601     1  0.0000000  0.6508444  3
   2593   2591   2600   2602     1  0.0000000  0.6508444  3
   2595   2594   2606   5277     1  0.0000000  1.0460000  1
   2595   2594   2606   5277     1  0.0000000  0.0000000  3
   2595   2594   2606   2607     1  0.0000000  0.6508444  3
   2595   2594   2606   2608     1  0.0000000  0.6508444  3
   2596   2594   2606   5277     1  0.0000000  1.0460000  1
   2596   2594   2606   5277     1  0.0000000  0.0000000  3
   2596   2594   2606   2607     1  0.0000000  0.6508444  3
   2596   2594   2606   2608     1  0.0000000  0.6508444  3
   2598   2597   2603   5248     1  0.0000000  1.0460000  1
   2598   2597   2603   5248     1  0.0000000  0.0000000  3
   2598   2597   2603   2604     1  0.0000000  0.6508444  3
   2598   2597   2603   2605     1  0.0000000  0.6508444  3
   2599   2597   2603   5248     1  0.0000000  1.0460000  1
   2599   2597   2603   5248     1  0.0000000  0.0000000  3
   2599   2597   2603   2604     1  0.0000000  0.6508444  3
   2599   2597   2603   2605     1  0.0000000  0.6508444  3
   2603   5248   5239   5240     1  0.0000000  1.6038667  3
   2603   5248   5239   5241     1  0.0000000  1.6038667  3
   2604   2603   5248   5239     1  0.0000000  1.6038667  3
   2605   2603   5248   5239     1  0.0000000  1.6038667  3
   2606   5277   5268   5269     1  0.0000000  1.6038667  3
   2606   5277   5268   5270     1  0.0000000  1.6038667  3
   2607   2606   5277   5268     1  0.0000000  1.6038667  3
   2608   2606   5277   5268     1  0.0000000  1.6038667  3
   2610   2611   2623   2624     1  0.0000000  0.6508444  3
   2610   2611   2623   2625     1  0.0000000  0.6508444  3
   2610   2614   2626   2627     1  0.0000000  0.6508444  3
   2610   2614   2626   2628     1  0.0000000  0.6508444  3
   2610   2617   2620   2621     1  0.0000000  0.6508444  3
   2610   2617   2620   2622     1  0.0000000  0.6508444  3
   2611   2610   2614   2615     1  0.0000000  1.2552000  3
   2611   2610   2614   2616     1  0.0000000  1.2552000  3
   2611   2610   2617   2618     1  0.0000000  1.2552000  3
   2611   2610   2617   2619     1  0.0000000  1.2552000  3
   2611   2623   2635   2636     1  0.0000000  0.6508444  3
   2611   2623   2635   2637     1  0.0000000  0.6508444  3
   2612   2611   2610   2614     1  0.0000000  1.2552000  3
   2612   2611   2610   2617     1  0.0000000  1.2552000  3
   2612   2611   2623   2635     1  0.0000000  0.6508444  3
   2612   2611   2623   2624     1  0.0000000  0.6508444  3
   2612   2611   2623   2625     1  0.0000000  0.6508444  3
   2613   2611   2610   2614     1  0.0000000  1.2552000  3
   2613   2611   2610   2617     1  0.0000000  1.2552000  3
   2613   2611   2623   2635     1  0.0000000  0.6508444  3
   2613   2611   2623   2624     1  0.0000000  0.6508444  3
   2613   2611   2623   2625     1  0.0000000  0.6508444  3
   2614   2610   2617   2618     1  0.0000000  1.2552000  3
   2614   2610   2617   2619     1  0.0000000  1.2552000  3
   2614   2626   2632   2633     1  0.0000000  0.6508444  3
   2614   2626   2632   2634     1  0.0000000  0.6508444  3
   2615   2614   2610   2617     1  0.0000000  1.2552000  3
   2615   2614   2626   2632     1  0.0000000  0.6508444  3
   2615   2614   2626   2627     1  0.0000000  0.6508444  3
   2615   2614   2626   2628     1  0.0000000  0.6508444  3
   2616   2614   2610   2617     1  0.0000000  1.2552000  3
   2616   2614   2626   2632     1  0.0000000  0.6508444  3
   2616   2614   2626   2627     1  0.0000000  0.6508444  3
   2616   2614   2626   2628     1  0.0000000  0.6508444  3
   2617   2620   2629   2630     1  0.0000000  0.6508444  3
   2617   2620   2629   2631     1  0.0000000  0.6508444  3
   2618   2617   2620   2629     1  0.0000000  0.6508444  3
   2618   2617   2620   2621     1  0.0000000  0.6508444  3
   2618   2617   2620   2622     1  0.0000000  0.6508444  3
   2619   2617   2620   2629     1  0.0000000  0.6508444  3
   2619   2617   2620   2621     1  0.0000000  0.6508444  3
   2619   2617   2620   2622     1  0.0000000  0.6508444  3
   2621   2620   2629   2638     1  0.0000000  1.0460000  1
   2621   2620   2629   2638     1  0.0000000  0.0000000  3
   2621   2620   2629   2630     1  0.0000000  0.6508444  3
   2621   2620   2629   2631     1  0.0000000  0.6508444  3
   2622   2620   2629   2638     1  0.0000000  1.0460000  1
   2622   2620   2629   2638     1  0.0000000  0.0000000  3
   2622   2620   2629   2630     1  0.0000000  0.6508444  3
   2622   2620   2629   2631     1  0.0000000  0.6508444  3
   2624   2623   2635   5335     1  0.0000000  1.0460000  1
   2624   2623   2635   5335     1  0.0000000  0.0000000  3
   2624   2623   2635   2636     1  0.0000000  0.6508444  3
   2624   2623   2635   2637     1  0.0000000  0.6508444  3
   2625   2623   2635   5335     1  0.0000000  1.0460000  1
   2625   2623   2635   5335     1  0.0000000  0.0000000  3
   2625   2623   2635   2636     1  0.0000000  0.6508444  3
   2625   2623   2635   2637     1  0.0000000  0.6508444  3
   2627   2626   2632   5306     1  0.0000000  1.0460000  1
   2627   2626   2632   5306     1  0.0000000  0.0000000  3
   2627   2626   2632   2633     1  0.0000000  0.6508444  3
   2627   2626   2632   2634     1  0.0000000  0.6508444  3
   2628   2626   2632   5306     1  0.0000000  1.0460000  1
   2628   2626   2632   5306     1  0.0000000  0.0000000  3
   2628   2626   2632   2633     1  0.0000000  0.6508444  3
   2628   2626   2632   2634     1  0.0000000  0.6508444  3
   2632   5306   5297   5298     1  0.0000000  1.6038667  3
   2632   5306   5297   5299     1  0.0000000  1.6038667  3
   2633   2632   5306   5297     1  0.0000000  1.6038667  3
   2634   2632   5306   5297     1  0.0000000  1.6038667  3
   2635   5335   5326   5327     1  0.0000000  1.6038667  3
   2635   5335   5326   5328     1  0.0000000  1.6038667  3
   2636   2635   5335   5326     1  0.0000000  1.6038667  3
   2637   2635   5335   5326     1  0.0000000  1.6038667  3
   2639   2640   2652   2653     1  0.0000000  0.6508444  3
   2639   2640   2652   2654     1  0.0000000  0.6508444  3
   2639   2643   2655   2656     1  0.0000000  0.6508444  3
   2639   2643   2655   2657     1  0.0000000  0.6508444  3
   2639   2646   2649   2650     1  0.0000000  0.6508444  3
   2639   2646   2649   2651     1  0.0000000  0.6508444  3
   2640   2639   2643   2644     1  0.0000000  1.2552000  3
   2640   2639   2643   2645     1  0.0000000  1.2552000  3
   2640   2639   2646   2647     1  0.0000000  1.2552000  3
   2640   2639   2646   2648     1  0.0000000  1.2552000  3
   2640   2652   2664   2665     1  0.0000000  0.6508444  3
   2640   2652   2664   2666     1  0.0000000  0.6508444  3
   2641   2640   2639   2643     1  0.0000000  1.2552000  3
   2641   2640   2639   2646     1  0.0000000  1.2552000  3
   2641   2640   2652   2664     1  0.0000000  0.6508444  3
   2641   2640   2652   2653     1  0.0000000  0.6508444  3
   2641   2640   2652   2654     1  0.0000000  0.6508444  3
   2642   2640   2639   2643     1  0.0000000  1.2552000  3
   2642   2640   2639   2646     1  0.0000000  1.2552000  3
   2642   2640   2652   2664     1  0.0000000  0.6508444  3
   2642   2640   2652   2653     1  0.0000000  0.6508444  3
   2642   2640   2652   2654     1  0.0000000  0.6508444  3
   2643   2639   2646   2647     1  0.0000000  1.2552000  3
   2643   2639   2646   2648     1  0.0000000  1.2552000  3
   2643   2655   2661   2662     1  0.0000000  0.6508444  3
   2643   2655   2661   2663     1  0.0000000  0.6508444  3
   2644   2643   2639   2646     1  0.0000000  1.2552000  3
   2644   2643   2655   2661     1  0.0000000  0.6508444  3
   2644   2643   2655   2656     1  0.0000000  0.6508444  3
   2644   2643   2655   2657     1  0.0000000  0.6508444  3
   2645   2643   2639   2646     1  0.0000000  1.2552000  3
   2645   2643   2655   2661     1  0.0000000  0.6508444  3
   2645   2643   2655   2656     1  0.0000000  0.6508444  3
   2645   2643   2655   2657     1  0.0000000  0.6508444  3
   2646   2649   2658   2659     1  0.0000000  0.6508444  3
   2646   2649   2658   2660     1  0.0000000  0.6508444  3
   2647   2646   2649   2658     1  0.0000000  0.6508444  3
   2647   2646   2649   2650     1  0.0000000  0.6508444  3
   2647   2646   2649   2651     1  0.0000000  0.6508444  3
   2648   2646   2649   2658     1  0.0000000  0.6508444  3
   2648   2646   2649   2650     1  0.0000000  0.6508444  3
   2648   2646   2649   2651     1  0.0000000  0.6508444  3
   2650   2649   2658   2667     1  0.0000000  1.0460000  1
   2650   2649   2658   2667     1  0.0000000  0.0000000  3
   2650   2649   2658   2659     1  0.0000000  0.6508444  3
   2650   2649   2658   2660     1  0.0000000  0.6508444  3
   2651   2649   2658   2667     1  0.0000000  1.0460000  1
   2651   2649   2658   2667     1  0.0000000  0.0000000  3
   2651   2649   2658   2659     1  0.0000000  0.6508444  3
   2651   2649   2658   2660     1  0.0000000  0.6508444  3
   2653   2652   2664   5393     1  0.0000000  1.0460000  1
   2653   2652   2664   5393     1  0.0000000  0.0000000  3
   2653   2652   2664   2665     1  0.0000000  0.6508444  3
   2653   2652   2664   2666     1  0.0000000  0.6508444  3
   2654   2652   2664   5393     1  0.0000000  1.0460000  1
   2654   2652   2664   5393     1  0.0000000  0.0000000  3
   2654   2652   2664   2665     1  0.0000000  0.6508444  3
   2654   2652   2664   2666     1  0.0000000  0.6508444  3
   2656   2655   2661   5364     1  0.0000000  1.0460000  1
   2656   2655   2661   5364     1  0.0000000  0.0000000  3
   2656   2655   2661   2662     1  0.0000000  0.6508444  3
   2656   2655   2661   2663     1  0.0000000  0.6508444  3
   2657   2655   2661   5364     1  0.0000000  1.0460000  1
   2657   2655   2661   5364     1  0.0000000  0.0000000  3
   2657   2655   2661   2662     1  0.0000000  0.6508444  3
   2657   2655   2661   2663     1  0.0000000  0.6508444  3
   2661   5364   5355   5356     1  0.0000000  1.6038667  3
   2661   5364   5355   5357     1  0.0000000  1.6038667  3
   2662   2661   5364   5355     1  0.0000000  1.6038667  3
   2663   2661   5364   5355     1  0.0000000  1.6038667  3
   2664   5393   5384   5385     1  0.0000000  1.6038667  3
   2664   5393   5384   5386     1  0.0000000  1.6038667  3
   2665   2664   5393   5384     1  0.0000000  1.6038667  3
   2666   2664   5393   5384     1  0.0000000  1.6038667  3
   2668   2669   2681   2682     1  0.0000000  0.6508444  3
   2668   2669   2681   2683     1  0.0000000  0.6508444  3
   2668   2672   2684   2685     1  0.0000000  0.6508444  3
   2668   2672   2684   2686     1  0.0000000  0.6508444  3
   2668   2675   2678   2679     1  0.0000000  0.6508444  3
   2668   2675   2678   2680     1  0.0000000  0.6508444  3
   2669   2668   2672   2673     1  0.0000000  1.2552000  3
   2669   2668   2672   2674     1  0.0000000  1.2552000  3
   2669   2668   2675   2676     1  0.0000000  1.2552000  3
   2669   2668   2675   2677     1  0.0000000  1.2552000  3
   2669   2681   2693   2694     1  0.0000000  0.6508444  3
   2669   2681   2693   2695     1  0.0000000  0.6508444  3
   2670   2669   2668   2672     1  0.0000000  1.2552000  3
   2670   2669   2668   2675     1  0.0000000  1.2552000  3
   2670   2669   2681   2693     1  0.0000000  0.6508444  3
   2670   2669   2681   2682     1  0.0000000  0.6508444  3
   2670   2669   2681   2683     1  0.0000000  0.6508444  3
   2671   2669   2668   2672     1  0.0000000  1.2552000  3
   2671   2669   2668   2675     1  0.0000000  1.2552000  3
   2671   2669   2681   2693     1  0.0000000  0.6508444  3
   2671   2669   2681   2682     1  0.0000000  0.6508444  3
   2671   2669   2681   2683     1  0.0000000  0.6508444  3
   2672   2668   2675   2676     1  0.0000000  1.2552000  3
   2672   2668   2675   2677     1  0.0000000  1.2552000  3
   2672   2684   2690   2691     1  0.0000000  0.6508444  3
   2672   2684   2690   2692     1  0.0000000  0.6508444  3
   2673   2672   2668   2675     1  0.0000000  1.2552000  3
   2673   2672   2684   2690     1  0.0000000  0.6508444  3
   2673   2672   2684   2685     1  0.0000000  0.6508444  3
   2673   2672   2684   2686     1  0.0000000  0.6508444  3
   2674   2672   2668   2675     1  0.0000000  1.2552000  3
   2674   2672   2684   2690     1  0.0000000  0.6508444  3
   2674   2672   2684   2685     1  0.0000000  0.6508444  3
   2674   2672   2684   2686     1  0.0000000  0.6508444  3
   2675   2678   2687   2688     1  0.0000000  0.6508444  3
   2675   2678   2687   2689     1  0.0000000  0.6508444  3
   2676   2675   2678   2687     1  0.0000000  0.6508444  3
   2676   2675   2678   2679     1  0.0000000  0.6508444  3
   2676   2675   2678   2680     1  0.0000000  0.6508444  3
   2677   2675   2678   2687     1  0.0000000  0.6508444  3
   2677   2675   2678   2679     1  0.0000000  0.6508444  3
   2677   2675   2678   2680     1  0.0000000  0.6508444  3
   2679   2678   2687   2696     1  0.0000000  1.0460000  1
   2679   2678   2687   2696     1  0.0000000  0.0000000  3
   2679   2678   2687   2688     1  0.0000000  0.6508444  3
   2679   2678   2687   2689     1  0.0000000  0.6508444  3
   2680   2678   2687   2696     1  0.0000000  1.0460000  1
   2680   2678   2687   2696     1  0.0000000  0.0000000  3
   2680   2678   2687   2688     1  0.0000000  0.6508444  3
   2680   2678   2687   2689     1  0.0000000  0.6508444  3
   2682   2681   2693   5451     1  0.0000000  1.0460000  1
   2682   2681   2693   5451     1  0.0000000  0.0000000  3
   2682   2681   2693   2694     1  0.0000000  0.6508444  3
   2682   2681   2693   2695     1  0.0000000  0.6508444  3
   2683   2681   2693   5451     1  0.0000000  1.0460000  1
   2683   2681   2693   5451     1  0.0000000  0.0000000  3
   2683   2681   2693   2694     1  0.0000000  0.6508444  3
   2683   2681   2693   2695     1  0.0000000  0.6508444  3
   2685   2684   2690   5422     1  0.0000000  1.0460000  1
   2685   2684   2690   5422     1  0.0000000  0.0000000  3
   2685   2684   2690   2691     1  0.0000000  0.6508444  3
   2685   2684   2690   2692     1  0.0000000  0.6508444  3
   2686   2684   2690   5422     1  0.0000000  1.0460000  1
   2686   2684   2690   5422     1  0.0000000  0.0000000  3
   2686   2684   2690   2691     1  0.0000000  0.6508444  3
   2686   2684   2690   2692     1  0.0000000  0.6508444  3
   2690   5422   5413   5414     1  0.0000000  1.6038667  3
   2690   5422   5413   5415     1  0.0000000  1.6038667  3
   2691   2690   5422   5413     1  0.0000000  1.6038667  3
   2692   2690   5422   5413     1  0.0000000  1.6038667  3
   2693   5451   5442   5443     1  0.0000000  1.6038667  3
   2693   5451   5442   5444     1  0.0000000  1.6038667  3
   2694   2693   5451   5442     1  0.0000000  1.6038667  3
   2695   2693   5451   5442     1  0.0000000  1.6038667  3
   2697   2698   2710   2711     1  0.0000000  0.6508444  3
   2697   2698   2710   2712     1  0.0000000  0.6508444  3
   2697   2701   2713   2714     1  0.0000000  0.6508444  3
   2697   2701   2713   2715     1  0.0000000  0.6508444  3
   2697   2704   2707   2708     1  0.0000000  0.6508444  3
   2697   2704   2707   2709     1  0.0000000  0.6508444  3
   2698   2697   2701   2702     1  0.0000000  1.2552000  3
   2698   2697   2701   2703     1  0.0000000  1.2552000  3
   2698   2697   2704   2705     1  0.0000000  1.2552000  3
   2698   2697   2704   2706     1  0.0000000  1.2552000  3
   2698   2710   2722   2723     1  0.0000000  0.6508444  3
   2698   2710   2722   2724     1  0.0000000  0.6508444  3
   2699   2698   2697   2701     1  0.0000000  1.2552000  3
   2699   2698   2697   2704     1  0.0000000  1.2552000  3
   2699   2698   2710   2722     1  0.0000000  0.6508444  3
   2699   2698   2710   2711     1  0.0000000  0.6508444  3
   2699   2698   2710   2712     1  0.0000000  0.6508444  3
   2700   2698   2697   2701     1  0.0000000  1.2552000  3
   2700   2698   2697   2704     1  0.0000000  1.2552000  3
   2700   2698   2710   2722     1  0.0000000  0.6508444  3
   2700   2698   2710   2711     1  0.0000000  0.6508444  3
   2700   2698   2710   2712     1  0.0000000  0.6508444  3
   2701   2697   2704   2705     1  0.0000000  1.2552000  3
   2701   2697   2704   2706     1  0.0000000  1.2552000  3
   2701   2713   2719   2720     1  0.0000000  0.6508444  3
   2701   2713   2719   2721     1  0.0000000  0.6508444  3
   2702   2701   2697   2704     1  0.0000000  1.2552000  3
   2702   2701   2713   2719     1  0.0000000  0.6508444  3
   2702   2701   2713   2714     1  0.0000000  0.6508444  3
   2702   2701   2713   2715     1  0.0000000  0.6508444  3
   2703   2701   2697   2704     1  0.0000000  1.2552000  3
   2703   2701   2713   2719     1  0.0000000  0.6508444  3
   2703   2701   2713   2714     1  0.0000000  0.6508444  3
   2703   2701   2713   2715     1  0.0000000  0.6508444  3
   2704   2707   2716   2717     1  0.0000000  0.6508444  3
   2704   2707   2716   2718     1  0.0000000  0.6508444  3
   2705   2704   2707   2716     1  0.0000000  0.6508444  3
   2705   2704   2707   2708     1  0.0000000  0.6508444  3
   2705   2704   2707   2709     1  0.0000000  0.6508444  3
   2706   2704   2707   2716     1  0.0000000  0.6508444  3
   2706   2704   2707   2708     1  0.0000000  0.6508444  3
   2706   2704   2707   2709     1  0.0000000  0.6508444  3
   2708   2707   2716   2725     1  0.0000000  1.0460000  1
   2708   2707   2716   2725     1  0.0000000  0.0000000  3
   2708   2707   2716   2717     1  0.0000000  0.6508444  3
   2708   2707   2716   2718     1  0.0000000  0.6508444  3
   2709   2707   2716   2725     1  0.0000000  1.0460000  1
   2709   2707   2716   2725     1  0.0000000  0.0000000  3
   2709   2707   2716   2717     1  0.0000000  0.6508444  3
   2709   2707   2716   2718     1  0.0000000  0.6508444  3
   2711   2710   2722   5509     1  0.0000000  1.0460000  1
   2711   2710   2722   5509     1  0.0000000  0.0000000  3
   2711   2710   2722   2723     1  0.0000000  0.6508444  3
   2711   2710   2722   2724     1  0.0000000  0.6508444  3
   2712   2710   2722   5509     1  0.0000000  1.0460000  1
   2712   2710   2722   5509     1  0.0000000  0.0000000  3
   2712   2710   2722   2723     1  0.0000000  0.6508444  3
   2712   2710   2722   2724     1  0.0000000  0.6508444  3
   2714   2713   2719   5480     1  0.0000000  1.0460000  1
   2714   2713   2719   5480     1  0.0000000  0.0000000  3
   2714   2713   2719   2720     1  0.0000000  0.6508444  3
   2714   2713   2719   2721     1  0.0000000  0.6508444  3
   2715   2713   2719   5480     1  0.0000000  1.0460000  1
   2715   2713   2719   5480     1  0.0000000  0.0000000  3
   2715   2713   2719   2720     1  0.0000000  0.6508444  3
   2715   2713   2719   2721     1  0.0000000  0.6508444  3
   2719   5480   5471   5472     1  0.0000000  1.6038667  3
   2719   5480   5471   5473     1  0.0000000  1.6038667  3
   2720   2719   5480   5471     1  0.0000000  1.6038667  3
   2721   2719   5480   5471     1  0.0000000  1.6038667  3
   2722   5509   5500   5501     1  0.0000000  1.6038667  3
   2722   5509   5500   5502     1  0.0000000  1.6038667  3
   2723   2722   5509   5500     1  0.0000000  1.6038667  3
   2724   2722   5509   5500     1  0.0000000  1.6038667  3
   2726   2727   2739   2740     1  0.0000000  0.6508444  3
   2726   2727   2739   2741     1  0.0000000  0.6508444  3
   2726   2730   2742   2743     1  0.0000000  0.6508444  3
   2726   2730   2742   2744     1  0.0000000  0.6508444  3
   2726   2733   2736   2737     1  0.0000000  0.6508444  3
   2726   2733   2736   2738     1  0.0000000  0.6508444  3
   2727   2726   2730   2731     1  0.0000000  1.2552000  3
   2727   2726   2730   2732     1  0.0000000  1.2552000  3
   2727   2726   2733   2734     1  0.0000000  1.2552000  3
   2727   2726   2733   2735     1  0.0000000  1.2552000  3
   2727   2739   2751   2752     1  0.0000000  0.6508444  3
   2727   2739   2751   2753     1  0.0000000  0.6508444  3
   2728   2727   2726   2730     1  0.0000000  1.2552000  3
   2728   2727   2726   2733     1  0.0000000  1.2552000  3
   2728   2727   2739   2751     1  0.0000000  0.6508444  3
   2728   2727   2739   2740     1  0.0000000  0.6508444  3
   2728   2727   2739   2741     1  0.0000000  0.6508444  3
   2729   2727   2726   2730     1  0.0000000  1.2552000  3
   2729   2727   2726   2733     1  0.0000000  1.2552000  3
   2729   2727   2739   2751     1  0.0000000  0.6508444  3
   2729   2727   2739   2740     1  0.0000000  0.6508444  3
   2729   2727   2739   2741     1  0.0000000  0.6508444  3
   2730   2726   2733   2734     1  0.0000000  1.2552000  3
   2730   2726   2733   2735     1  0.0000000  1.2552000  3
   2730   2742   2748   2749     1  0.0000000  0.6508444  3
   2730   2742   2748   2750     1  0.0000000  0.6508444  3
   2731   2730   2726   2733     1  0.0000000  1.2552000  3
   2731   2730   2742   2748     1  0.0000000  0.6508444  3
   2731   2730   2742   2743     1  0.0000000  0.6508444  3
   2731   2730   2742   2744     1  0.0000000  0.6508444  3
   2732   2730   2726   2733     1  0.0000000  1.2552000  3
   2732   2730   2742   2748     1  0.0000000  0.6508444  3
   2732   2730   2742   2743     1  0.0000000  0.6508444  3
   2732   2730   2742   2744     1  0.0000000  0.6508444  3
   2733   2736   2745   2746     1  0.0000000  0.6508444  3
   2733   2736   2745   2747     1  0.0000000  0.6508444  3
   2734   2733   2736   2745     1  0.0000000  0.6508444  3
   2734   2733   2736   2737     1  0.0000000  0.6508444  3
   2734   2733   2736   2738     1  0.0000000  0.6508444  3
   2735   2733   2736   2745     1  0.0000000  0.6508444  3
   2735   2733   2736   2737     1  0.0000000  0.6508444  3
   2735   2733   2736   2738     1  0.0000000  0.6508444  3
   2737   2736   2745   2754     1  0.0000000  1.0460000  1
   2737   2736   2745   2754     1  0.0000000  0.0000000  3
   2737   2736   2745   2746     1  0.0000000  0.6508444  3
   2737   2736   2745   2747     1  0.0000000  0.6508444  3
   2738   2736   2745   2754     1  0.0000000  1.0460000  1
   2738   2736   2745   2754     1  0.0000000  0.0000000  3
   2738   2736   2745   2746     1  0.0000000  0.6508444  3
   2738   2736   2745   2747     1  0.0000000  0.6508444  3
   2740   2739   2751   5567     1  0.0000000  1.0460000  1
   2740   2739   2751   5567     1  0.0000000  0.0000000  3
   2740   2739   2751   2752     1  0.0000000  0.6508444  3
   2740   2739   2751   2753     1  0.0000000  0.6508444  3
   2741   2739   2751   5567     1  0.0000000  1.0460000  1
   2741   2739   2751   5567     1  0.0000000  0.0000000  3
   2741   2739   2751   2752     1  0.0000000  0.6508444  3
   2741   2739   2751   2753     1  0.0000000  0.6508444  3
   2743   2742   2748   5538     1  0.0000000  1.0460000  1
   2743   2742   2748   5538     1  0.0000000  0.0000000  3
   2743   2742   2748   2749     1  0.0000000  0.6508444  3
   2743   2742   2748   2750     1  0.0000000  0.6508444  3
   2744   2742   2748   5538     1  0.0000000  1.0460000  1
   2744   2742   2748   5538     1  0.0000000  0.0000000  3
   2744   2742   2748   2749     1  0.0000000  0.6508444  3
   2744   2742   2748   2750     1  0.0000000  0.6508444  3
   2748   5538   5529   5530     1  0.0000000  1.6038667  3
   2748   5538   5529   5531     1  0.0000000  1.6038667  3
   2749   2748   5538   5529     1  0.0000000  1.6038667  3
   2750   2748   5538   5529     1  0.0000000  1.6038667  3
   2751   5567   5558   5559     1  0.0000000  1.6038667  3
   2751   5567   5558   5560     1  0.0000000  1.6038667  3
   2752   2751   5567   5558     1  0.0000000  1.6038667  3
   2753   2751   5567   5558     1  0.0000000  1.6038667  3
   2755   2756   2768   2769     1  0.0000000  0.6508444  3
   2755   2756   2768   2770     1  0.0000000  0.6508444  3
   2755   2759   2771   2772     1  0.0000000  0.6508444  3
   2755   2759   2771   2773     1  0.0000000  0.6508444  3
   2755   2762   2765   2766     1  0.0000000  0.6508444  3
   2755   2762   2765   2767     1  0.0000000  0.6508444  3
   2756   2755   2759   2760     1  0.0000000  1.2552000  3
   2756   2755   2759   2761     1  0.0000000  1.2552000  3
   2756   2755   2762   2763     1  0.0000000  1.2552000  3
   2756   2755   2762   2764     1  0.0000000  1.2552000  3
   2756   2768   2780   2781     1  0.0000000  0.6508444  3
   2756   2768   2780   2782     1  0.0000000  0.6508444  3
   2757   2756   2755   2759     1  0.0000000  1.2552000  3
   2757   2756   2755   2762     1  0.0000000  1.2552000  3
   2757   2756   2768   2780     1  0.0000000  0.6508444  3
   2757   2756   2768   2769     1  0.0000000  0.6508444  3
   2757   2756   2768   2770     1  0.0000000  0.6508444  3
   2758   2756   2755   2759     1  0.0000000  1.2552000  3
   2758   2756   2755   2762     1  0.0000000  1.2552000  3
   2758   2756   2768   2780     1  0.0000000  0.6508444  3
   2758   2756   2768   2769     1  0.0000000  0.6508444  3
   2758   2756   2768   2770     1  0.0000000  0.6508444  3
   2759   2755   2762   2763     1  0.0000000  1.2552000  3
   2759   2755   2762   2764     1  0.0000000  1.2552000  3
   2759   2771   2777   2778     1  0.0000000  0.6508444  3
   2759   2771   2777   2779     1  0.0000000  0.6508444  3
   2760   2759   2755   2762     1  0.0000000  1.2552000  3
   2760   2759   2771   2777     1  0.0000000  0.6508444  3
   2760   2759   2771   2772     1  0.0000000  0.6508444  3
   2760   2759   2771   2773     1  0.0000000  0.6508444  3
   2761   2759   2755   2762     1  0.0000000  1.2552000  3
   2761   2759   2771   2777     1  0.0000000  0.6508444  3
   2761   2759   2771   2772     1  0.0000000  0.6508444  3
   2761   2759   2771   2773     1  0.0000000  0.6508444  3
   2762   2765   2774   2775     1  0.0000000  0.6508444  3
   2762   2765   2774   2776     1  0.0000000  0.6508444  3
   2763   2762   2765   2774     1  0.0000000  0.6508444  3
   2763   2762   2765   2766     1  0.0000000  0.6508444  3
   2763   2762   2765   2767     1  0.0000000  0.6508444  3
   2764   2762   2765   2774     1  0.0000000  0.6508444  3
   2764   2762   2765   2766     1  0.0000000  0.6508444  3
   2764   2762   2765   2767     1  0.0000000  0.6508444  3
   2766   2765   2774   2783     1  0.0000000  1.0460000  1
   2766   2765   2774   2783     1  0.0000000  0.0000000  3
   2766   2765   2774   2775     1  0.0000000  0.6508444  3
   2766   2765   2774   2776     1  0.0000000  0.6508444  3
   2767   2765   2774   2783     1  0.0000000  1.0460000  1
   2767   2765   2774   2783     1  0.0000000  0.0000000  3
   2767   2765   2774   2775     1  0.0000000  0.6508444  3
   2767   2765   2774   2776     1  0.0000000  0.6508444  3
   2769   2768   2780   5625     1  0.0000000  1.0460000  1
   2769   2768   2780   5625     1  0.0000000  0.0000000  3
   2769   2768   2780   2781     1  0.0000000  0.6508444  3
   2769   2768   2780   2782     1  0.0000000  0.6508444  3
   2770   2768   2780   5625     1  0.0000000  1.0460000  1
   2770   2768   2780   5625     1  0.0000000  0.0000000  3
   2770   2768   2780   2781     1  0.0000000  0.6508444  3
   2770   2768   2780   2782     1  0.0000000  0.6508444  3
   2772   2771   2777   5596     1  0.0000000  1.0460000  1
   2772   2771   2777   5596     1  0.0000000  0.0000000  3
   2772   2771   2777   2778     1  0.0000000  0.6508444  3
   2772   2771   2777   2779     1  0.0000000  0.6508444  3
   2773   2771   2777   5596     1  0.0000000  1.0460000  1
   2773   2771   2777   5596     1  0.0000000  0.0000000  3
   2773   2771   2777   2778     1  0.0000000  0.6508444  3
   2773   2771   2777   2779     1  0.0000000  0.6508444  3
   2777   5596   5587   5588     1  0.0000000  1.6038667  3
   2777   5596   5587   5589     1  0.0000000  1.6038667  3
   2778   2777   5596   5587     1  0.0000000  1.6038667  3
   2779   2777   5596   5587     1  0.0000000  1.6038667  3
   2780   5625   5616   5617     1  0.0000000  1.6038667  3
   2780   5625   5616   5618     1  0.0000000  1.6038667  3
   2781   2780   5625   5616     1  0.0000000  1.6038667  3
   2782   2780   5625   5616     1  0.0000000  1.6038667  3
   2784   2785   2797   2798     1  0.0000000  0.6508444  3
   2784   2785   2797   2799     1  0.0000000  0.6508444  3
   2784   2788   2800   2801     1  0.0000000  0.6508444  3
   2784   2788   2800   2802     1  0.0000000  0.6508444  3
   2784   2791   2794   2795     1  0.0000000  0.6508444  3
   2784   2791   2794   2796     1  0.0000000  0.6508444  3
   2785   2784   2788   2789     1  0.0000000  1.2552000  3
   2785   2784   2788   2790     1  0.0000000  1.2552000  3
   2785   2784   2791   2792     1  0.0000000  1.2552000  3
   2785   2784   2791   2793     1  0.0000000  1.2552000  3
   2785   2797   2809   2810     1  0.0000000  0.6508444  3
   2785   2797   2809   2811     1  0.0000000  0.6508444  3
   2786   2785   2784   2788     1  0.0000000  1.2552000  3
   2786   2785   2784   2791     1  0.0000000  1.2552000  3
   2786   2785   2797   2809     1  0.0000000  0.6508444  3
   2786   2785   2797   2798     1  0.0000000  0.6508444  3
   2786   2785   2797   2799     1  0.0000000  0.6508444  3
   2787   2785   2784   2788     1  0.0000000  1.2552000  3
   2787   2785   2784   2791     1  0.0000000  1.2552000  3
   2787   2785   2797   2809     1  0.0000000  0.6508444  3
   2787   2785   2797   2798     1  0.0000000  0.6508444  3
   2787   2785   2797   2799     1  0.0000000  0.6508444  3
   2788   2784   2791   2792     1  0.0000000  1.2552000  3
   2788   2784   2791   2793     1  0.0000000  1.2552000  3
   2788   2800   2806   2807     1  0.0000000  0.6508444  3
   2788   2800   2806   2808     1  0.0000000  0.6508444  3
   2789   2788   2784   2791     1  0.0000000  1.2552000  3
   2789   2788   2800   2806     1  0.0000000  0.6508444  3
   2789   2788   2800   2801     1  0.0000000  0.6508444  3
   2789   2788   2800   2802     1  0.0000000  0.6508444  3
   2790   2788   2784   2791     1  0.0000000  1.2552000  3
   2790   2788   2800   2806     1  0.0000000  0.6508444  3
   2790   2788   2800   2801     1  0.0000000  0.6508444  3
   2790   2788   2800   2802     1  0.0000000  0.6508444  3
   2791   2794   2803   2804     1  0.0000000  0.6508444  3
   2791   2794   2803   2805     1  0.0000000  0.6508444  3
   2792   2791   2794   2803     1  0.0000000  0.6508444  3
   2792   2791   2794   2795     1  0.0000000  0.6508444  3
   2792   2791   2794   2796     1  0.0000000  0.6508444  3
   2793   2791   2794   2803     1  0.0000000  0.6508444  3
   2793   2791   2794   2795     1  0.0000000  0.6508444  3
   2793   2791   2794   2796     1  0.0000000  0.6508444  3
   2795   2794   2803   2812     1  0.0000000  1.0460000  1
   2795   2794   2803   2812     1  0.0000000  0.0000000  3
   2795   2794   2803   2804     1  0.0000000  0.6508444  3
   2795   2794   2803   2805     1  0.0000000  0.6508444  3
   2796   2794   2803   2812     1  0.0000000  1.0460000  1
   2796   2794   2803   2812     1  0.0000000  0.0000000  3
   2796   2794   2803   2804     1  0.0000000  0.6508444  3
   2796   2794   2803   2805     1  0.0000000  0.6508444  3
   2798   2797   2809   5683     1  0.0000000  1.0460000  1
   2798   2797   2809   5683     1  0.0000000  0.0000000  3
   2798   2797   2809   2810     1  0.0000000  0.6508444  3
   2798   2797   2809   2811     1  0.0000000  0.6508444  3
   2799   2797   2809   5683     1  0.0000000  1.0460000  1
   2799   2797   2809   5683     1  0.0000000  0.0000000  3
   2799   2797   2809   2810     1  0.0000000  0.6508444  3
   2799   2797   2809   2811     1  0.0000000  0.6508444  3
   2801   2800   2806   5654     1  0.0000000  1.0460000  1
   2801   2800   2806   5654     1  0.0000000  0.0000000  3
   2801   2800   2806   2807     1  0.0000000  0.6508444  3
   2801   2800   2806   2808     1  0.0000000  0.6508444  3
   2802   2800   2806   5654     1  0.0000000  1.0460000  1
   2802   2800   2806   5654     1  0.0000000  0.0000000  3
   2802   2800   2806   2807     1  0.0000000  0.6508444  3
   2802   2800   2806   2808     1  0.0000000  0.6508444  3
   2806   5654   5645   5646     1  0.0000000  1.6038667  3
   2806   5654   5645   5647     1  0.0000000  1.6038667  3
   2807   2806   5654   5645     1  0.0000000  1.6038667  3
   2808   2806   5654   5645     1  0.0000000  1.6038667  3
   2809   5683   5674   5675     1  0.0000000  1.6038667  3
   2809   5683   5674   5676     1  0.0000000  1.6038667  3
   2810   2809   5683   5674     1  0.0000000  1.6038667  3
   2811   2809   5683   5674     1  0.0000000  1.6038667  3
   2813   2814   2826   2827     1  0.0000000  0.6508444  3
   2813   2814   2826   2828     1  0.0000000  0.6508444  3
   2813   2817   2829   2830     1  0.0000000  0.6508444  3
   2813   2817   2829   2831     1  0.0000000  0.6508444  3
   2813   2820   2823   2824     1  0.0000000  0.6508444  3
   2813   2820   2823   2825     1  0.0000000  0.6508444  3
   2814   2813   2817   2818     1  0.0000000  1.2552000  3
   2814   2813   2817   2819     1  0.0000000  1.2552000  3
   2814   2813   2820   2821     1  0.0000000  1.2552000  3
   2814   2813   2820   2822     1  0.0000000  1.2552000  3
   2814   2826   2838   2839     1  0.0000000  0.6508444  3
   2814   2826   2838   2840     1  0.0000000  0.6508444  3
   2815   2814   2813   2817     1  0.0000000  1.2552000  3
   2815   2814   2813   2820     1  0.0000000  1.2552000  3
   2815   2814   2826   2838     1  0.0000000  0.6508444  3
   2815   2814   2826   2827     1  0.0000000  0.6508444  3
   2815   2814   2826   2828     1  0.0000000  0.6508444  3
   2816   2814   2813   2817     1  0.0000000  1.2552000  3
   2816   2814   2813   2820     1  0.0000000  1.2552000  3
   2816   2814   2826   2838     1  0.0000000  0.6508444  3
   2816   2814   2826   2827     1  0.0000000  0.6508444  3
   2816   2814   2826   2828     1  0.0000000  0.6508444  3
   2817   2813   2820   2821     1  0.0000000  1.2552000  3
   2817   2813   2820   2822     1  0.0000000  1.2552000  3
   2817   2829   2835   2836     1  0.0000000  0.6508444  3
   2817   2829   2835   2837     1  0.0000000  0.6508444  3
   2818   2817   2813   2820     1  0.0000000  1.2552000  3
   2818   2817   2829   2835     1  0.0000000  0.6508444  3
   2818   2817   2829   2830     1  0.0000000  0.6508444  3
   2818   2817   2829   2831     1  0.0000000  0.6508444  3
   2819   2817   2813   2820     1  0.0000000  1.2552000  3
   2819   2817   2829   2835     1  0.0000000  0.6508444  3
   2819   2817   2829   2830     1  0.0000000  0.6508444  3
   2819   2817   2829   2831     1  0.0000000  0.6508444  3
   2820   2823   2832   2833     1  0.0000000  0.6508444  3
   2820   2823   2832   2834     1  0.0000000  0.6508444  3
   2821   2820   2823   2832     1  0.0000000  0.6508444  3
   2821   2820   2823   2824     1  0.0000000  0.6508444  3
   2821   2820   2823   2825     1  0.0000000  0.6508444  3
   2822   2820   2823   2832     1  0.0000000  0.6508444  3
   2822   2820   2823   2824     1  0.0000000  0.6508444  3
   2822   2820   2823   2825     1  0.0000000  0.6508444  3
   2824   2823   2832   2841     1  0.0000000  1.0460000  1
   2824   2823   2832   2841     1  0.0000000  0.0000000  3
   2824   2823   2832   2833     1  0.0000000  0.6508444  3
   2824   2823   2832   2834     1  0.0000000  0.6508444  3
   2825   2823   2832   2841     1  0.0000000  1.0460000  1
   2825   2823   2832   2841     1  0.0000000  0.0000000  3
   2825   2823   2832   2833     1  0.0000000  0.6508444  3
   2825   2823   2832   2834     1  0.0000000  0.6508444  3
   2827   2826   2838   5741     1  0.0000000  1.0460000  1
   2827   2826   2838   5741     1  0.0000000  0.0000000  3
   2827   2826   2838   2839     1  0.0000000  0.6508444  3
   2827   2826   2838   2840     1  0.0000000  0.6508444  3
   2828   2826   2838   5741     1  0.0000000  1.0460000  1
   2828   2826   2838   5741     1  0.0000000  0.0000000  3
   2828   2826   2838   2839     1  0.0000000  0.6508444  3
   2828   2826   2838   2840     1  0.0000000  0.6508444  3
   2830   2829   2835   5712     1  0.0000000  1.0460000  1
   2830   2829   2835   5712     1  0.0000000  0.0000000  3
   2830   2829   2835   2836     1  0.0000000  0.6508444  3
   2830   2829   2835   2837     1  0.0000000  0.6508444  3
   2831   2829   2835   5712     1  0.0000000  1.0460000  1
   2831   2829   2835   5712     1  0.0000000  0.0000000  3
   2831   2829   2835   2836     1  0.0000000  0.6508444  3
   2831   2829   2835   2837     1  0.0000000  0.6508444  3
   2835   5712   5703   5704     1  0.0000000  1.6038667  3
   2835   5712   5703   5705     1  0.0000000  1.6038667  3
   2836   2835   5712   5703     1  0.0000000  1.6038667  3
   2837   2835   5712   5703     1  0.0000000  1.6038667  3
   2838   5741   5732   5733     1  0.0000000  1.6038667  3
   2838   5741   5732   5734     1  0.0000000  1.6038667  3
   2839   2838   5741   5732     1  0.0000000  1.6038667  3
   2840   2838   5741   5732     1  0.0000000  1.6038667  3
   2842   2843   2855   2856     1  0.0000000  0.6508444  3
   2842   2843   2855   2857     1  0.0000000  0.6508444  3
   2842   2846   2858   2859     1  0.0000000  0.6508444  3
   2842   2846   2858   2860     1  0.0000000  0.6508444  3
   2842   2849   2852   2853     1  0.0000000  0.6508444  3
   2842   2849   2852   2854     1  0.0000000  0.6508444  3
   2843   2842   2846   2847     1  0.0000000  1.2552000  3
   2843   2842   2846   2848     1  0.0000000  1.2552000  3
   2843   2842   2849   2850     1  0.0000000  1.2552000  3
   2843   2842   2849   2851     1  0.0000000  1.2552000  3
   2843   2855   2867   2868     1  0.0000000  0.6508444  3
   2843   2855   2867   2869     1  0.0000000  0.6508444  3
   2844   2843   2842   2846     1  0.0000000  1.2552000  3
   2844   2843   2842   2849     1  0.0000000  1.2552000  3
   2844   2843   2855   2867     1  0.0000000  0.6508444  3
   2844   2843   2855   2856     1  0.0000000  0.6508444  3
   2844   2843   2855   2857     1  0.0000000  0.6508444  3
   2845   2843   2842   2846     1  0.0000000  1.2552000  3
   2845   2843   2842   2849     1  0.0000000  1.2552000  3
   2845   2843   2855   2867     1  0.0000000  0.6508444  3
   2845   2843   2855   2856     1  0.0000000  0.6508444  3
   2845   2843   2855   2857     1  0.0000000  0.6508444  3
   2846   2842   2849   2850     1  0.0000000  1.2552000  3
   2846   2842   2849   2851     1  0.0000000  1.2552000  3
   2846   2858   2864   2865     1  0.0000000  0.6508444  3
   2846   2858   2864   2866     1  0.0000000  0.6508444  3
   2847   2846   2842   2849     1  0.0000000  1.2552000  3
   2847   2846   2858   2864     1  0.0000000  0.6508444  3
   2847   2846   2858   2859     1  0.0000000  0.6508444  3
   2847   2846   2858   2860     1  0.0000000  0.6508444  3
   2848   2846   2842   2849     1  0.0000000  1.2552000  3
   2848   2846   2858   2864     1  0.0000000  0.6508444  3
   2848   2846   2858   2859     1  0.0000000  0.6508444  3
   2848   2846   2858   2860     1  0.0000000  0.6508444  3
   2849   2852   2861   2862     1  0.0000000  0.6508444  3
   2849   2852   2861   2863     1  0.0000000  0.6508444  3
   2850   2849   2852   2861     1  0.0000000  0.6508444  3
   2850   2849   2852   2853     1  0.0000000  0.6508444  3
   2850   2849   2852   2854     1  0.0000000  0.6508444  3
   2851   2849   2852   2861     1  0.0000000  0.6508444  3
   2851   2849   2852   2853     1  0.0000000  0.6508444  3
   2851   2849   2852   2854     1  0.0000000  0.6508444  3
   2853   2852   2861   2870     1  0.0000000  1.0460000  1
   2853   2852   2861   2870     1  0.0000000  0.0000000  3
   2853   2852   2861   2862     1  0.0000000  0.6508444  3
   2853   2852   2861   2863     1  0.0000000  0.6508444  3
   2854   2852   2861   2870     1  0.0000000  1.0460000  1
   2854   2852   2861   2870     1  0.0000000  0.0000000  3
   2854   2852   2861   2862     1  0.0000000  0.6508444  3
   2854   2852   2861   2863     1  0.0000000  0.6508444  3
   2856   2855   2867   5799     1  0.0000000  1.0460000  1
   2856   2855   2867   5799     1  0.0000000  0.0000000  3
   2856   2855   2867   2868     1  0.0000000  0.6508444  3
   2856   2855   2867   2869     1  0.0000000  0.6508444  3
   2857   2855   2867   5799     1  0.0000000  1.0460000  1
   2857   2855   2867   5799     1  0.0000000  0.0000000  3
   2857   2855   2867   2868     1  0.0000000  0.6508444  3
   2857   2855   2867   2869     1  0.0000000  0.6508444  3
   2859   2858   2864   5770     1  0.0000000  1.0460000  1
   2859   2858   2864   5770     1  0.0000000  0.0000000  3
   2859   2858   2864   2865     1  0.0000000  0.6508444  3
   2859   2858   2864   2866     1  0.0000000  0.6508444  3
   2860   2858   2864   5770     1  0.0000000  1.0460000  1
   2860   2858   2864   5770     1  0.0000000  0.0000000  3
   2860   2858   2864   2865     1  0.0000000  0.6508444  3
   2860   2858   2864   2866     1  0.0000000  0.6508444  3
   2864   5770   5761   5762     1  0.0000000  1.6038667  3
   2864   5770   5761   5763     1  0.0000000  1.6038667  3
   2865   2864   5770   5761     1  0.0000000  1.6038667  3
   2866   2864   5770   5761     1  0.0000000  1.6038667  3
   2867   5799   5790   5791     1  0.0000000  1.6038667  3
   2867   5799   5790   5792     1  0.0000000  1.6038667  3
   2868   2867   5799   5790     1  0.0000000  1.6038667  3
   2869   2867   5799   5790     1  0.0000000  1.6038667  3
   2871   2872   2884   2885     1  0.0000000  0.6508444  3
   2871   2872   2884   2886     1  0.0000000  0.6508444  3
   2871   2875   2887   2888     1  0.0000000  0.6508444  3
   2871   2875   2887   2889     1  0.0000000  0.6508444  3
   2871   2878   2881   2882     1  0.0000000  0.6508444  3
   2871   2878   2881   2883     1  0.0000000  0.6508444  3
   2872   2871   2875   2876     1  0.0000000  1.2552000  3
   2872   2871   2875   2877     1  0.0000000  1.2552000  3
   2872   2871   2878   2879     1  0.0000000  1.2552000  3
   2872   2871   2878   2880     1  0.0000000  1.2552000  3
   2872   2884   2896   2897     1  0.0000000  0.6508444  3
   2872   2884   2896   2898     1  0.0000000  0.6508444  3
   2873   2872   2871   2875     1  0.0000000  1.2552000  3
   2873   2872   2871   2878     1  0.0000000  1.2552000  3
   2873   2872   2884   2896     1  0.0000000  0.6508444  3
   2873   2872   2884   2885     1  0.0000000  0.6508444  3
   2873   2872   2884   2886     1  0.0000000  0.6508444  3
   2874   2872   2871   2875     1  0.0000000  1.2552000  3
   2874   2872   2871   2878     1  0.0000000  1.2552000  3
   2874   2872   2884   2896     1  0.0000000  0.6508444  3
   2874   2872   2884   2885     1  0.0000000  0.6508444  3
   2874   2872   2884   2886     1  0.0000000  0.6508444  3
   2875   2871   2878   2879     1  0.0000000  1.2552000  3
   2875   2871   2878   2880     1  0.0000000  1.2552000  3
   2875   2887   2893   2894     1  0.0000000  0.6508444  3
   2875   2887   2893   2895     1  0.0000000  0.6508444  3
   2876   2875   2871   2878     1  0.0000000  1.2552000  3
   2876   2875   2887   2893     1  0.0000000  0.6508444  3
   2876   2875   2887   2888     1  0.0000000  0.6508444  3
   2876   2875   2887   2889     1  0.0000000  0.6508444  3
   2877   2875   2871   2878     1  0.0000000  1.2552000  3
   2877   2875   2887   2893     1  0.0000000  0.6508444  3
   2877   2875   2887   2888     1  0.0000000  0.6508444  3
   2877   2875   2887   2889     1  0.0000000  0.6508444  3
   2878   2881   2890   2891     1  0.0000000  0.6508444  3
   2878   2881   2890   2892     1  0.0000000  0.6508444  3
   2879   2878   2881   2890     1  0.0000000  0.6508444  3
   2879   2878   2881   2882     1  0.0000000  0.6508444  3
   2879   2878   2881   2883     1  0.0000000  0.6508444  3
   2880   2878   2881   2890     1  0.0000000  0.6508444  3
   2880   2878   2881   2882     1  0.0000000  0.6508444  3
   2880   2878   2881   2883     1  0.0000000  0.6508444  3
   2882   2881   2890   2899     1  0.0000000  1.0460000  1
   2882   2881   2890   2899     1  0.0000000  0.0000000  3
   2882   2881   2890   2891     1  0.0000000  0.6508444  3
   2882   2881   2890   2892     1  0.0000000  0.6508444  3
   2883   2881   2890   2899     1  0.0000000  1.0460000  1
   2883   2881   2890   2899     1  0.0000000  0.0000000  3
   2883   2881   2890   2891     1  0.0000000  0.6508444  3
   2883   2881   2890   2892     1  0.0000000  0.6508444  3
   2885   2884   2896   5857     1  0.0000000  1.0460000  1
   2885   2884   2896   5857     1  0.0000000  0.0000000  3
   2885   2884   2896   2897     1  0.0000000  0.6508444  3
   2885   2884   2896   2898     1  0.0000000  0.6508444  3
   2886   2884   2896   5857     1  0.0000000  1.0460000  1
   2886   2884   2896   5857     1  0.0000000  0.0000000  3
   2886   2884   2896   2897     1  0.0000000  0.6508444  3
   2886   2884   2896   2898     1  0.0000000  0.6508444  3
   2888   2887   2893   5828     1  0.0000000  1.0460000  1
   2888   2887   2893   5828     1  0.0000000  0.0000000  3
   2888   2887   2893   2894     1  0.0000000  0.6508444  3
   2888   2887   2893   2895     1  0.0000000  0.6508444  3
   2889   2887   2893   5828     1  0.0000000  1.0460000  1
   2889   2887   2893   5828     1  0.0000000  0.0000000  3
   2889   2887   2893   2894     1  0.0000000  0.6508444  3
   2889   2887   2893   2895     1  0.0000000  0.6508444  3
   2893   5828   5819   5820     1  0.0000000  1.6038667  3
   2893   5828   5819   5821     1  0.0000000  1.6038667  3
   2894   2893   5828   5819     1  0.0000000  1.6038667  3
   2895   2893   5828   5819     1  0.0000000  1.6038667  3
   2896   5857   5848   5849     1  0.0000000  1.6038667  3
   2896   5857   5848   5850     1  0.0000000  1.6038667  3
   2897   2896   5857   5848     1  0.0000000  1.6038667  3
   2898   2896   5857   5848     1  0.0000000  1.6038667  3
   2900   2901   2913   2914     1  0.0000000  0.6508444  3
   2900   2901   2913   2915     1  0.0000000  0.6508444  3
   2900   2904   2916   2917     1  0.0000000  0.6508444  3
   2900   2904   2916   2918     1  0.0000000  0.6508444  3
   2900   2907   2910   2911     1  0.0000000  0.6508444  3
   2900   2907   2910   2912     1  0.0000000  0.6508444  3
   2901   2900   2904   2905     1  0.0000000  1.2552000  3
   2901   2900   2904   2906     1  0.0000000  1.2552000  3
   2901   2900   2907   2908     1  0.0000000  1.2552000  3
   2901   2900   2907   2909     1  0.0000000  1.2552000  3
   2901   2913   2925   2926     1  0.0000000  0.6508444  3
   2901   2913   2925   2927     1  0.0000000  0.6508444  3
   2902   2901   2900   2904     1  0.0000000  1.2552000  3
   2902   2901   2900   2907     1  0.0000000  1.2552000  3
   2902   2901   2913   2925     1  0.0000000  0.6508444  3
   2902   2901   2913   2914     1  0.0000000  0.6508444  3
   2902   2901   2913   2915     1  0.0000000  0.6508444  3
   2903   2901   2900   2904     1  0.0000000  1.2552000  3
   2903   2901   2900   2907     1  0.0000000  1.2552000  3
   2903   2901   2913   2925     1  0.0000000  0.6508444  3
   2903   2901   2913   2914     1  0.0000000  0.6508444  3
   2903   2901   2913   2915     1  0.0000000  0.6508444  3
   2904   2900   2907   2908     1  0.0000000  1.2552000  3
   2904   2900   2907   2909     1  0.0000000  1.2552000  3
   2904   2916   2922   2923     1  0.0000000  0.6508444  3
   2904   2916   2922   2924     1  0.0000000  0.6508444  3
   2905   2904   2900   2907     1  0.0000000  1.2552000  3
   2905   2904   2916   2922     1  0.0000000  0.6508444  3
   2905   2904   2916   2917     1  0.0000000  0.6508444  3
   2905   2904   2916   2918     1  0.0000000  0.6508444  3
   2906   2904   2900   2907     1  0.0000000  1.2552000  3
   2906   2904   2916   2922     1  0.0000000  0.6508444  3
   2906   2904   2916   2917     1  0.0000000  0.6508444  3
   2906   2904   2916   2918     1  0.0000000  0.6508444  3
   2907   2910   2919   2920     1  0.0000000  0.6508444  3
   2907   2910   2919   2921     1  0.0000000  0.6508444  3
   2908   2907   2910   2919     1  0.0000000  0.6508444  3
   2908   2907   2910   2911     1  0.0000000  0.6508444  3
   2908   2907   2910   2912     1  0.0000000  0.6508444  3
   2909   2907   2910   2919     1  0.0000000  0.6508444  3
   2909   2907   2910   2911     1  0.0000000  0.6508444  3
   2909   2907   2910   2912     1  0.0000000  0.6508444  3
   2911   2910   2919   2928     1  0.0000000  1.0460000  1
   2911   2910   2919   2928     1  0.0000000  0.0000000  3
   2911   2910   2919   2920     1  0.0000000  0.6508444  3
   2911   2910   2919   2921     1  0.0000000  0.6508444  3
   2912   2910   2919   2928     1  0.0000000  1.0460000  1
   2912   2910   2919   2928     1  0.0000000  0.0000000  3
   2912   2910   2919   2920     1  0.0000000  0.6508444  3
   2912   2910   2919   2921     1  0.0000000  0.6508444  3
   2914   2913   2925   5915     1  0.0000000  1.0460000  1
   2914   2913   2925   5915     1  0.0000000  0.0000000  3
   2914   2913   2925   2926     1  0.0000000  0.6508444  3
   2914   2913   2925   2927     1  0.0000000  0.6508444  3
   2915   2913   2925   5915     1  0.0000000  1.0460000  1
   2915   2913   2925   5915     1  0.0000000  0.0000000  3
   2915   2913   2925   2926     1  0.0000000  0.6508444  3
   2915   2913   2925   2927     1  0.0000000  0.6508444  3
   2917   2916   2922   5886     1  0.0000000  1.0460000  1
   2917   2916   2922   5886     1  0.0000000  0.0000000  3
   2917   2916   2922   2923     1  0.0000000  0.6508444  3
   2917   2916   2922   2924     1  0.0000000  0.6508444  3
   2918   2916   2922   5886     1  0.0000000  1.0460000  1
   2918   2916   2922   5886     1  0.0000000  0.0000000  3
   2918   2916   2922   2923     1  0.0000000  0.6508444  3
   2918   2916   2922   2924     1  0.0000000  0.6508444  3
   2922   5886   5877   5878     1  0.0000000  1.6038667  3
   2922   5886   5877   5879     1  0.0000000  1.6038667  3
   2923   2922   5886   5877     1  0.0000000  1.6038667  3
   2924   2922   5886   5877     1  0.0000000  1.6038667  3
   2925   5915   5906   5907     1  0.0000000  1.6038667  3
   2925   5915   5906   5908     1  0.0000000  1.6038667  3
   2926   2925   5915   5906     1  0.0000000  1.6038667  3
   2927   2925   5915   5906     1  0.0000000  1.6038667  3
   2929   2930   2942   2943     1  0.0000000  0.6508444  3
   2929   2930   2942   2944     1  0.0000000  0.6508444  3
   2929   2933   2945   2946     1  0.0000000  0.6508444  3
   2929   2933   2945   2947     1  0.0000000  0.6508444  3
   2929   2936   2939   2940     1  0.0000000  0.6508444  3
   2929   2936   2939   2941     1  0.0000000  0.6508444  3
   2930   2929   2933   2934     1  0.0000000  1.2552000  3
   2930   2929   2933   2935     1  0.0000000  1.2552000  3
   2930   2929   2936   2937     1  0.0000000  1.2552000  3
   2930   2929   2936   2938     1  0.0000000  1.2552000  3
   2930   2942   2954   2955     1  0.0000000  0.6508444  3
   2930   2942   2954   2956     1  0.0000000  0.6508444  3
   2931   2930   2929   2933     1  0.0000000  1.2552000  3
   2931   2930   2929   2936     1  0.0000000  1.2552000  3
   2931   2930   2942   2954     1  0.0000000  0.6508444  3
   2931   2930   2942   2943     1  0.0000000  0.6508444  3
   2931   2930   2942   2944     1  0.0000000  0.6508444  3
   2932   2930   2929   2933     1  0.0000000  1.2552000  3
   2932   2930   2929   2936     1  0.0000000  1.2552000  3
   2932   2930   2942   2954     1  0.0000000  0.6508444  3
   2932   2930   2942   2943     1  0.0000000  0.6508444  3
   2932   2930   2942   2944     1  0.0000000  0.6508444  3
   2933   2929   2936   2937     1  0.0000000  1.2552000  3
   2933   2929   2936   2938     1  0.0000000  1.2552000  3
   2933   2945   2951   2952     1  0.0000000  0.6508444  3
   2933   2945   2951   2953     1  0.0000000  0.6508444  3
   2934   2933   2929   2936     1  0.0000000  1.2552000  3
   2934   2933   2945   2951     1  0.0000000  0.6508444  3
   2934   2933   2945   2946     1  0.0000000  0.6508444  3
   2934   2933   2945   2947     1  0.0000000  0.6508444  3
   2935   2933   2929   2936     1  0.0000000  1.2552000  3
   2935   2933   2945   2951     1  0.0000000  0.6508444  3
   2935   2933   2945   2946     1  0.0000000  0.6508444  3
   2935   2933   2945   2947     1  0.0000000  0.6508444  3
   2936   2939   2948   2949     1  0.0000000  0.6508444  3
   2936   2939   2948   2950     1  0.0000000  0.6508444  3
   2937   2936   2939   2948     1  0.0000000  0.6508444  3
   2937   2936   2939   2940     1  0.0000000  0.6508444  3
   2937   2936   2939   2941     1  0.0000000  0.6508444  3
   2938   2936   2939   2948     1  0.0000000  0.6508444  3
   2938   2936   2939   2940     1  0.0000000  0.6508444  3
   2938   2936   2939   2941     1  0.0000000  0.6508444  3
   2940   2939   2948   2957     1  0.0000000  1.0460000  1
   2940   2939   2948   2957     1  0.0000000  0.0000000  3
   2940   2939   2948   2949     1  0.0000000  0.6508444  3
   2940   2939   2948   2950     1  0.0000000  0.6508444  3
   2941   2939   2948   2957     1  0.0000000  1.0460000  1
   2941   2939   2948   2957     1  0.0000000  0.0000000  3
   2941   2939   2948   2949     1  0.0000000  0.6508444  3
   2941   2939   2948   2950     1  0.0000000  0.6508444  3
   2943   2942   2954   5973     1  0.0000000  1.0460000  1
   2943   2942   2954   5973     1  0.0000000  0.0000000  3
   2943   2942   2954   2955     1  0.0000000  0.6508444  3
   2943   2942   2954   2956     1  0.0000000  0.6508444  3
   2944   2942   2954   5973     1  0.0000000  1.0460000  1
   2944   2942   2954   5973     1  0.0000000  0.0000000  3
   2944   2942   2954   2955     1  0.0000000  0.6508444  3
   2944   2942   2954   2956     1  0.0000000  0.6508444  3
   2946   2945   2951   5944     1  0.0000000  1.0460000  1
   2946   2945   2951   5944     1  0.0000000  0.0000000  3
   2946   2945   2951   2952     1  0.0000000  0.6508444  3
   2946   2945   2951   2953     1  0.0000000  0.6508444  3
   2947   2945   2951   5944     1  0.0000000  1.0460000  1
   2947   2945   2951   5944     1  0.0000000  0.0000000  3
   2947   2945   2951   2952     1  0.0000000  0.6508444  3
   2947   2945   2951   2953     1  0.0000000  0.6508444  3
   2951   5944   5935   5936     1  0.0000000  1.6038667  3
   2951   5944   5935   5937     1  0.0000000  1.6038667  3
   2952   2951   5944   5935     1  0.0000000  1.6038667  3
   2953   2951   5944   5935     1  0.0000000  1.6038667  3
   2954   5973   5964   5965     1  0.0000000  1.6038667  3
   2954   5973   5964   5966     1  0.0000000  1.6038667  3
   2955   2954   5973   5964     1  0.0000000  1.6038667  3
   2956   2954   5973   5964     1  0.0000000  1.6038667  3
   2958   2959   2971   2972     1  0.0000000  0.6508444  3
   2958   2959   2971   2973     1  0.0000000  0.6508444  3
   2958   2962   2974   2975     1  0.0000000  0.6508444  3
   2958   2962   2974   2976     1  0.0000000  0.6508444  3
   2958   2965   2968   2969     1  0.0000000  0.6508444  3
   2958   2965   2968   2970     1  0.0000000  0.6508444  3
   2959   2958   2962   2963     1  0.0000000  1.2552000  3
   2959   2958   2962   2964     1  0.0000000  1.2552000  3
   2959   2958   2965   2966     1  0.0000000  1.2552000  3
   2959   2958   2965   2967     1  0.0000000  1.2552000  3
   2959   2971   2983   2984     1  0.0000000  0.6508444  3
   2959   2971   2983   2985     1  0.0000000  0.6508444  3
   2960   2959   2958   2962     1  0.0000000  1.2552000  3
   2960   2959   2958   2965     1  0.0000000  1.2552000  3
   2960   2959   2971   2983     1  0.0000000  0.6508444  3
   2960   2959   2971   2972     1  0.0000000  0.6508444  3
   2960   2959   2971   2973     1  0.0000000  0.6508444  3
   2961   2959   2958   2962     1  0.0000000  1.2552000  3
   2961   2959   2958   2965     1  0.0000000  1.2552000  3
   2961   2959   2971   2983     1  0.0000000  0.6508444  3
   2961   2959   2971   2972     1  0.0000000  0.6508444  3
   2961   2959   2971   2973     1  0.0000000  0.6508444  3
   2962   2958   2965   2966     1  0.0000000  1.2552000  3
   2962   2958   2965   2967     1  0.0000000  1.2552000  3
   2962   2974   2980   2981     1  0.0000000  0.6508444  3
   2962   2974   2980   2982     1  0.0000000  0.6508444  3
   2963   2962   2958   2965     1  0.0000000  1.2552000  3
   2963   2962   2974   2980     1  0.0000000  0.6508444  3
   2963   2962   2974   2975     1  0.0000000  0.6508444  3
   2963   2962   2974   2976     1  0.0000000  0.6508444  3
   2964   2962   2958   2965     1  0.0000000  1.2552000  3
   2964   2962   2974   2980     1  0.0000000  0.6508444  3
   2964   2962   2974   2975     1  0.0000000  0.6508444  3
   2964   2962   2974   2976     1  0.0000000  0.6508444  3
   2965   2968   2977   2978     1  0.0000000  0.6508444  3
   2965   2968   2977   2979     1  0.0000000  0.6508444  3
   2966   2965   2968   2977     1  0.0000000  0.6508444  3
   2966   2965   2968   2969     1  0.0000000  0.6508444  3
   2966   2965   2968   2970     1  0.0000000  0.6508444  3
   2967   2965   2968   2977     1  0.0000000  0.6508444  3
   2967   2965   2968   2969     1  0.0000000  0.6508444  3
   2967   2965   2968   2970     1  0.0000000  0.6508444  3
   2969   2968   2977   2986     1  0.0000000  1.0460000  1
   2969   2968   2977   2986     1  0.0000000  0.0000000  3
   2969   2968   2977   2978     1  0.0000000  0.6508444  3
   2969   2968   2977   2979     1  0.0000000  0.6508444  3
   2970   2968   2977   2986     1  0.0000000  1.0460000  1
   2970   2968   2977   2986     1  0.0000000  0.0000000  3
   2970   2968   2977   2978     1  0.0000000  0.6508444  3
   2970   2968   2977   2979     1  0.0000000  0.6508444  3
   2972   2971   2983   6031     1  0.0000000  1.0460000  1
   2972   2971   2983   6031     1  0.0000000  0.0000000  3
   2972   2971   2983   2984     1  0.0000000  0.6508444  3
   2972   2971   2983   2985     1  0.0000000  0.6508444  3
   2973   2971   2983   6031     1  0.0000000  1.0460000  1
   2973   2971   2983   6031     1  0.0000000  0.0000000  3
   2973   2971   2983   2984     1  0.0000000  0.6508444  3
   2973   2971   2983   2985     1  0.0000000  0.6508444  3
   2975   2974   2980   6002     1  0.0000000  1.0460000  1
   2975   2974   2980   6002     1  0.0000000  0.0000000  3
   2975   2974   2980   2981     1  0.0000000  0.6508444  3
   2975   2974   2980   2982     1  0.0000000  0.6508444  3
   2976   2974   2980   6002     1  0.0000000  1.0460000  1
   2976   2974   2980   6002     1  0.0000000  0.0000000  3
   2976   2974   2980   2981     1  0.0000000  0.6508444  3
   2976   2974   2980   2982     1  0.0000000  0.6508444  3
   2980   6002   5993   5994     1  0.0000000  1.6038667  3
   2980   6002   5993   5995     1  0.0000000  1.6038667  3
   2981   2980   6002   5993     1  0.0000000  1.6038667  3
   2982   2980   6002   5993     1  0.0000000  1.6038667  3
   2983   6031   6022   6023     1  0.0000000  1.6038667  3
   2983   6031   6022   6024     1  0.0000000  1.6038667  3
   2984   2983   6031   6022     1  0.0000000  1.6038667  3
   2985   2983   6031   6022     1  0.0000000  1.6038667  3
   2987   2988   3000   3001     1  0.0000000  0.6508444  3
   2987   2988   3000   3002     1  0.0000000  0.6508444  3
   2987   2991   3003   3004     1  0.0000000  0.6508444  3
   2987   2991   3003   3005     1  0.0000000  0.6508444  3
   2987   2994   2997   2998     1  0.0000000  0.6508444  3
   2987   2994   2997   2999     1  0.0000000  0.6508444  3
   2988   2987   2991   2992     1  0.0000000  1.2552000  3
   2988   2987   2991   2993     1  0.0000000  1.2552000  3
   2988   2987   2994   2995     1  0.0000000  1.2552000  3
   2988   2987   2994   2996     1  0.0000000  1.2552000  3
   2988   3000   3012   3013     1  0.0000000  0.6508444  3
   2988   3000   3012   3014     1  0.0000000  0.6508444  3
   2989   2988   2987   2991     1  0.0000000  1.2552000  3
   2989   2988   2987   2994     1  0.0000000  1.2552000  3
   2989   2988   3000   3012     1  0.0000000  0.6508444  3
   2989   2988   3000   3001     1  0.0000000  0.6508444  3
   2989   2988   3000   3002     1  0.0000000  0.6508444  3
   2990   2988   2987   2991     1  0.0000000  1.2552000  3
   2990   2988   2987   2994     1  0.0000000  1.2552000  3
   2990   2988   3000   3012     1  0.0000000  0.6508444  3
   2990   2988   3000   3001     1  0.0000000  0.6508444  3
   2990   2988   3000   3002     1  0.0000000  0.6508444  3
   2991   2987   2994   2995     1  0.0000000  1.2552000  3
   2991   2987   2994   2996     1  0.0000000  1.2552000  3
   2991   3003   3009   3010     1  0.0000000  0.6508444  3
   2991   3003   3009   3011     1  0.0000000  0.6508444  3
   2992   2991   2987   2994     1  0.0000000  1.2552000  3
   2992   2991   3003   3009     1  0.0000000  0.6508444  3
   2992   2991   3003   3004     1  0.0000000  0.6508444  3
   2992   2991   3003   3005     1  0.0000000  0.6508444  3
   2993   2991   2987   2994     1  0.0000000  1.2552000  3
   2993   2991   3003   3009     1  0.0000000  0.6508444  3
   2993   2991   3003   3004     1  0.0000000  0.6508444  3
   2993   2991   3003   3005     1  0.0000000  0.6508444  3
   2994   2997   3006   3007     1  0.0000000  0.6508444  3
   2994   2997   3006   3008     1  0.0000000  0.6508444  3
   2995   2994   2997   3006     1  0.0000000  0.6508444  3
   2995   2994   2997   2998     1  0.0000000  0.6508444  3
   2995   2994   2997   2999     1  0.0000000  0.6508444  3
   2996   2994   2997   3006     1  0.0000000  0.6508444  3
   2996   2994   2997   2998     1  0.0000000  0.6508444  3
   2996   2994   2997   2999     1  0.0000000  0.6508444  3
   2998   2997   3006   3015     1  0.0000000  1.0460000  1
   2998   2997   3006   3015     1  0.0000000  0.0000000  3
   2998   2997   3006   3007     1  0.0000000  0.6508444  3
   2998   2997   3006   3008     1  0.0000000  0.6508444  3
   2999   2997   3006   3015     1  0.0000000  1.0460000  1
   2999   2997   3006   3015     1  0.0000000  0.0000000  3
   2999   2997   3006   3007     1  0.0000000  0.6508444  3
   2999   2997   3006   3008     1  0.0000000  0.6508444  3
   3001   3000   3012   6089     1  0.0000000  1.0460000  1
   3001   3000   3012   6089     1  0.0000000  0.0000000  3
   3001   3000   3012   3013     1  0.0000000  0.6508444  3
   3001   3000   3012   3014     1  0.0000000  0.6508444  3
   3002   3000   3012   6089     1  0.0000000  1.0460000  1
   3002   3000   3012   6089     1  0.0000000  0.0000000  3
   3002   3000   3012   3013     1  0.0000000  0.6508444  3
   3002   3000   3012   3014     1  0.0000000  0.6508444  3
   3004   3003   3009   6060     1  0.0000000  1.0460000  1
   3004   3003   3009   6060     1  0.0000000  0.0000000  3
   3004   3003   3009   3010     1  0.0000000  0.6508444  3
   3004   3003   3009   3011     1  0.0000000  0.6508444  3
   3005   3003   3009   6060     1  0.0000000  1.0460000  1
   3005   3003   3009   6060     1  0.0000000  0.0000000  3
   3005   3003   3009   3010     1  0.0000000  0.6508444  3
   3005   3003   3009   3011     1  0.0000000  0.6508444  3
   3009   6060   6051   6052     1  0.0000000  1.6038667  3
   3009   6060   6051   6053     1  0.0000000  1.6038667  3
   3010   3009   6060   6051     1  0.0000000  1.6038667  3
   3011   3009   6060   6051     1  0.0000000  1.6038667  3
   3012   6089   6080   6081     1  0.0000000  1.6038667  3
   3012   6089   6080   6082     1  0.0000000  1.6038667  3
   3013   3012   6089   6080     1  0.0000000  1.6038667  3
   3014   3012   6089   6080     1  0.0000000  1.6038667  3
   3016   3017   3029   3030     1  0.0000000  0.6508444  3
   3016   3017   3029   3031     1  0.0000000  0.6508444  3
   3016   3020   3032   3033     1  0.0000000  0.6508444  3
   3016   3020   3032   3034     1  0.0000000  0.6508444  3
   3016   3023   3026   3027     1  0.0000000  0.6508444  3
   3016   3023   3026   3028     1  0.0000000  0.6508444  3
   3017   3016   3020   3021     1  0.0000000  1.2552000  3
   3017   3016   3020   3022     1  0.0000000  1.2552000  3
   3017   3016   3023   3024     1  0.0000000  1.2552000  3
   3017   3016   3023   3025     1  0.0000000  1.2552000  3
   3017   3029   3041   3042     1  0.0000000  0.6508444  3
   3017   3029   3041   3043     1  0.0000000  0.6508444  3
   3018   3017   3016   3020     1  0.0000000  1.2552000  3
   3018   3017   3016   3023     1  0.0000000  1.2552000  3
   3018   3017   3029   3041     1  0.0000000  0.6508444  3
   3018   3017   3029   3030     1  0.0000000  0.6508444  3
   3018   3017   3029   3031     1  0.0000000  0.6508444  3
   3019   3017   3016   3020     1  0.0000000  1.2552000  3
   3019   3017   3016   3023     1  0.0000000  1.2552000  3
   3019   3017   3029   3041     1  0.0000000  0.6508444  3
   3019   3017   3029   3030     1  0.0000000  0.6508444  3
   3019   3017   3029   3031     1  0.0000000  0.6508444  3
   3020   3016   3023   3024     1  0.0000000  1.2552000  3
   3020   3016   3023   3025     1  0.0000000  1.2552000  3
   3020   3032   3038   3039     1  0.0000000  0.6508444  3
   3020   3032   3038   3040     1  0.0000000  0.6508444  3
   3021   3020   3016   3023     1  0.0000000  1.2552000  3
   3021   3020   3032   3038     1  0.0000000  0.6508444  3
   3021   3020   3032   3033     1  0.0000000  0.6508444  3
   3021   3020   3032   3034     1  0.0000000  0.6508444  3
   3022   3020   3016   3023     1  0.0000000  1.2552000  3
   3022   3020   3032   3038     1  0.0000000  0.6508444  3
   3022   3020   3032   3033     1  0.0000000  0.6508444  3
   3022   3020   3032   3034     1  0.0000000  0.6508444  3
   3023   3026   3035   3036     1  0.0000000  0.6508444  3
   3023   3026   3035   3037     1  0.0000000  0.6508444  3
   3024   3023   3026   3035     1  0.0000000  0.6508444  3
   3024   3023   3026   3027     1  0.0000000  0.6508444  3
   3024   3023   3026   3028     1  0.0000000  0.6508444  3
   3025   3023   3026   3035     1  0.0000000  0.6508444  3
   3025   3023   3026   3027     1  0.0000000  0.6508444  3
   3025   3023   3026   3028     1  0.0000000  0.6508444  3
   3027   3026   3035   3044     1  0.0000000  1.0460000  1
   3027   3026   3035   3044     1  0.0000000  0.0000000  3
   3027   3026   3035   3036     1  0.0000000  0.6508444  3
   3027   3026   3035   3037     1  0.0000000  0.6508444  3
   3028   3026   3035   3044     1  0.0000000  1.0460000  1
   3028   3026   3035   3044     1  0.0000000  0.0000000  3
   3028   3026   3035   3036     1  0.0000000  0.6508444  3
   3028   3026   3035   3037     1  0.0000000  0.6508444  3
   3030   3029   3041   6147     1  0.0000000  1.0460000  1
   3030   3029   3041   6147     1  0.0000000  0.0000000  3
   3030   3029   3041   3042     1  0.0000000  0.6508444  3
   3030   3029   3041   3043     1  0.0000000  0.6508444  3
   3031   3029   3041   6147     1  0.0000000  1.0460000  1
   3031   3029   3041   6147     1  0.0000000  0.0000000  3
   3031   3029   3041   3042     1  0.0000000  0.6508444  3
   3031   3029   3041   3043     1  0.0000000  0.6508444  3
   3033   3032   3038   6118     1  0.0000000  1.0460000  1
   3033   3032   3038   6118     1  0.0000000  0.0000000  3
   3033   3032   3038   3039     1  0.0000000  0.6508444  3
   3033   3032   3038   3040     1  0.0000000  0.6508444  3
   3034   3032   3038   6118     1  0.0000000  1.0460000  1
   3034   3032   3038   6118     1  0.0000000  0.0000000  3
   3034   3032   3038   3039     1  0.0000000  0.6508444  3
   3034   3032   3038   3040     1  0.0000000  0.6508444  3
   3038   6118   6109   6110     1  0.0000000  1.6038667  3
   3038   6118   6109   6111     1  0.0000000  1.6038667  3
   3039   3038   6118   6109     1  0.0000000  1.6038667  3
   3040   3038   6118   6109     1  0.0000000  1.6038667  3
   3041   6147   6138   6139     1  0.0000000  1.6038667  3
   3041   6147   6138   6140     1  0.0000000  1.6038667  3
   3042   3041   6147   6138     1  0.0000000  1.6038667  3
   3043   3041   6147   6138     1  0.0000000  1.6038667  3
   3045   3046   3058   3059     1  0.0000000  0.6508444  3
   3045   3046   3058   3060     1  0.0000000  0.6508444  3
   3045   3049   3061   3062     1  0.0000000  0.6508444  3
   3045   3049   3061   3063     1  0.0000000  0.6508444  3
   3045   3052   3055   3056     1  0.0000000  0.6508444  3
   3045   3052   3055   3057     1  0.0000000  0.6508444  3
   3046   3045   3049   3050     1  0.0000000  1.2552000  3
   3046   3045   3049   3051     1  0.0000000  1.2552000  3
   3046   3045   3052   3053     1  0.0000000  1.2552000  3
   3046   3045   3052   3054     1  0.0000000  1.2552000  3
   3046   3058   3070   3071     1  0.0000000  0.6508444  3
   3046   3058   3070   3072     1  0.0000000  0.6508444  3
   3047   3046   3045   3049     1  0.0000000  1.2552000  3
   3047   3046   3045   3052     1  0.0000000  1.2552000  3
   3047   3046   3058   3070     1  0.0000000  0.6508444  3
   3047   3046   3058   3059     1  0.0000000  0.6508444  3
   3047   3046   3058   3060     1  0.0000000  0.6508444  3
   3048   3046   3045   3049     1  0.0000000  1.2552000  3
   3048   3046   3045   3052     1  0.0000000  1.2552000  3
   3048   3046   3058   3070     1  0.0000000  0.6508444  3
   3048   3046   3058   3059     1  0.0000000  0.6508444  3
   3048   3046   3058   3060     1  0.0000000  0.6508444  3
   3049   3045   3052   3053     1  0.0000000  1.2552000  3
   3049   3045   3052   3054     1  0.0000000  1.2552000  3
   3049   3061   3067   3068     1  0.0000000  0.6508444  3
   3049   3061   3067   3069     1  0.0000000  0.6508444  3
   3050   3049   3045   3052     1  0.0000000  1.2552000  3
   3050   3049   3061   3067     1  0.0000000  0.6508444  3
   3050   3049   3061   3062     1  0.0000000  0.6508444  3
   3050   3049   3061   3063     1  0.0000000  0.6508444  3
   3051   3049   3045   3052     1  0.0000000  1.2552000  3
   3051   3049   3061   3067     1  0.0000000  0.6508444  3
   3051   3049   3061   3062     1  0.0000000  0.6508444  3
   3051   3049   3061   3063     1  0.0000000  0.6508444  3
   3052   3055   3064   3065     1  0.0000000  0.6508444  3
   3052   3055   3064   3066     1  0.0000000  0.6508444  3
   3053   3052   3055   3064     1  0.0000000  0.6508444  3
   3053   3052   3055   3056     1  0.0000000  0.6508444  3
   3053   3052   3055   3057     1  0.0000000  0.6508444  3
   3054   3052   3055   3064     1  0.0000000  0.6508444  3
   3054   3052   3055   3056     1  0.0000000  0.6508444  3
   3054   3052   3055   3057     1  0.0000000  0.6508444  3
   3056   3055   3064   3073     1  0.0000000  1.0460000  1
   3056   3055   3064   3073     1  0.0000000  0.0000000  3
   3056   3055   3064   3065     1  0.0000000  0.6508444  3
   3056   3055   3064   3066     1  0.0000000  0.6508444  3
   3057   3055   3064   3073     1  0.0000000  1.0460000  1
   3057   3055   3064   3073     1  0.0000000  0.0000000  3
   3057   3055   3064   3065     1  0.0000000  0.6508444  3
   3057   3055   3064   3066     1  0.0000000  0.6508444  3
   3059   3058   3070   6205     1  0.0000000  1.0460000  1
   3059   3058   3070   6205     1  0.0000000  0.0000000  3
   3059   3058   3070   3071     1  0.0000000  0.6508444  3
   3059   3058   3070   3072     1  0.0000000  0.6508444  3
   3060   3058   3070   6205     1  0.0000000  1.0460000  1
   3060   3058   3070   6205     1  0.0000000  0.0000000  3
   3060   3058   3070   3071     1  0.0000000  0.6508444  3
   3060   3058   3070   3072     1  0.0000000  0.6508444  3
   3062   3061   3067   6176     1  0.0000000  1.0460000  1
   3062   3061   3067   6176     1  0.0000000  0.0000000  3
   3062   3061   3067   3068     1  0.0000000  0.6508444  3
   3062   3061   3067   3069     1  0.0000000  0.6508444  3
   3063   3061   3067   6176     1  0.0000000  1.0460000  1
   3063   3061   3067   6176     1  0.0000000  0.0000000  3
   3063   3061   3067   3068     1  0.0000000  0.6508444  3
   3063   3061   3067   3069     1  0.0000000  0.6508444  3
   3067   6176   6167   6168     1  0.0000000  1.6038667  3
   3067   6176   6167   6169     1  0.0000000  1.6038667  3
   3068   3067   6176   6167     1  0.0000000  1.6038667  3
   3069   3067   6176   6167     1  0.0000000  1.6038667  3
   3070   6205   6196   6197     1  0.0000000  1.6038667  3
   3070   6205   6196   6198     1  0.0000000  1.6038667  3
   3071   3070   6205   6196     1  0.0000000  1.6038667  3
   3072   3070   6205   6196     1  0.0000000  1.6038667  3
   3074   3075   3087   3088     1  0.0000000  0.6508444  3
   3074   3075   3087   3089     1  0.0000000  0.6508444  3
   3074   3078   3090   3091     1  0.0000000  0.6508444  3
   3074   3078   3090   3092     1  0.0000000  0.6508444  3
   3074   3081   3084   3085     1  0.0000000  0.6508444  3
   3074   3081   3084   3086     1  0.0000000  0.6508444  3
   3075   3074   3078   3079     1  0.0000000  1.2552000  3
   3075   3074   3078   3080     1  0.0000000  1.2552000  3
   3075   3074   3081   3082     1  0.0000000  1.2552000  3
   3075   3074   3081   3083     1  0.0000000  1.2552000  3
   3075   3087   3099   3100     1  0.0000000  0.6508444  3
   3075   3087   3099   3101     1  0.0000000  0.6508444  3
   3076   3075   3074   3078     1  0.0000000  1.2552000  3
   3076   3075   3074   3081     1  0.0000000  1.2552000  3
   3076   3075   3087   3099     1  0.0000000  0.6508444  3
   3076   3075   3087   3088     1  0.0000000  0.6508444  3
   3076   3075   3087   3089     1  0.0000000  0.6508444  3
   3077   3075   3074   3078     1  0.0000000  1.2552000  3
   3077   3075   3074   3081     1  0.0000000  1.2552000  3
   3077   3075   3087   3099     1  0.0000000  0.6508444  3
   3077   3075   3087   3088     1  0.0000000  0.6508444  3
   3077   3075   3087   3089     1  0.0000000  0.6508444  3
   3078   3074   3081   3082     1  0.0000000  1.2552000  3
   3078   3074   3081   3083     1  0.0000000  1.2552000  3
   3078   3090   3096   3097     1  0.0000000  0.6508444  3
   3078   3090   3096   3098     1  0.0000000  0.6508444  3
   3079   3078   3074   3081     1  0.0000000  1.2552000  3
   3079   3078   3090   3096     1  0.0000000  0.6508444  3
   3079   3078   3090   3091     1  0.0000000  0.6508444  3
   3079   3078   3090   3092     1  0.0000000  0.6508444  3
   3080   3078   3074   3081     1  0.0000000  1.2552000  3
   3080   3078   3090   3096     1  0.0000000  0.6508444  3
   3080   3078   3090   3091     1  0.0000000  0.6508444  3
   3080   3078   3090   3092     1  0.0000000  0.6508444  3
   3081   3084   3093   3094     1  0.0000000  0.6508444  3
   3081   3084   3093   3095     1  0.0000000  0.6508444  3
   3082   3081   3084   3093     1  0.0000000  0.6508444  3
   3082   3081   3084   3085     1  0.0000000  0.6508444  3
   3082   3081   3084   3086     1  0.0000000  0.6508444  3
   3083   3081   3084   3093     1  0.0000000  0.6508444  3
   3083   3081   3084   3085     1  0.0000000  0.6508444  3
   3083   3081   3084   3086     1  0.0000000  0.6508444  3
   3085   3084   3093   3102     1  0.0000000  1.0460000  1
   3085   3084   3093   3102     1  0.0000000  0.0000000  3
   3085   3084   3093   3094     1  0.0000000  0.6508444  3
   3085   3084   3093   3095     1  0.0000000  0.6508444  3
   3086   3084   3093   3102     1  0.0000000  1.0460000  1
   3086   3084   3093   3102     1  0.0000000  0.0000000  3
   3086   3084   3093   3094     1  0.0000000  0.6508444  3
   3086   3084   3093   3095     1  0.0000000  0.6508444  3
   3088   3087   3099   6263     1  0.0000000  1.0460000  1
   3088   3087   3099   6263     1  0.0000000  0.0000000  3
   3088   3087   3099   3100     1  0.0000000  0.6508444  3
   3088   3087   3099   3101     1  0.0000000  0.6508444  3
   3089   3087   3099   6263     1  0.0000000  1.0460000  1
   3089   3087   3099   6263     1  0.0000000  0.0000000  3
   3089   3087   3099   3100     1  0.0000000  0.6508444  3
   3089   3087   3099   3101     1  0.0000000  0.6508444  3
   3091   3090   3096   6234     1  0.0000000  1.0460000  1
   3091   3090   3096   6234     1  0.0000000  0.0000000  3
   3091   3090   3096   3097     1  0.0000000  0.6508444  3
   3091   3090   3096   3098     1  0.0000000  0.6508444  3
   3092   3090   3096   6234     1  0.0000000  1.0460000  1
   3092   3090   3096   6234     1  0.0000000  0.0000000  3
   3092   3090   3096   3097     1  0.0000000  0.6508444  3
   3092   3090   3096   3098     1  0.0000000  0.6508444  3
   3096   6234   6225   6226     1  0.0000000  1.6038667  3
   3096   6234   6225   6227     1  0.0000000  1.6038667  3
   3097   3096   6234   6225     1  0.0000000  1.6038667  3
   3098   3096   6234   6225     1  0.0000000  1.6038667  3
   3099   6263   6254   6255     1  0.0000000  1.6038667  3
   3099   6263   6254   6256     1  0.0000000  1.6038667  3
   3100   3099   6263   6254     1  0.0000000  1.6038667  3
   3101   3099   6263   6254     1  0.0000000  1.6038667  3
   3103   3104   3116   3117     1  0.0000000  0.6508444  3
   3103   3104   3116   3118     1  0.0000000  0.6508444  3
   3103   3107   3119   3120     1  0.0000000  0.6508444  3
   3103   3107   3119   3121     1  0.0000000  0.6508444  3
   3103   3110   3113   3114     1  0.0000000  0.6508444  3
   3103   3110   3113   3115     1  0.0000000  0.6508444  3
   3104   3103   3107   3108     1  0.0000000  1.2552000  3
   3104   3103   3107   3109     1  0.0000000  1.2552000  3
   3104   3103   3110   3111     1  0.0000000  1.2552000  3
   3104   3103   3110   3112     1  0.0000000  1.2552000  3
   3104   3116   3128   3129     1  0.0000000  0.6508444  3
   3104   3116   3128   3130     1  0.0000000  0.6508444  3
   3105   3104   3103   3107     1  0.0000000  1.2552000  3
   3105   3104   3103   3110     1  0.0000000  1.2552000  3
   3105   3104   3116   3128     1  0.0000000  0.6508444  3
   3105   3104   3116   3117     1  0.0000000  0.6508444  3
   3105   3104   3116   3118     1  0.0000000  0.6508444  3
   3106   3104   3103   3107     1  0.0000000  1.2552000  3
   3106   3104   3103   3110     1  0.0000000  1.2552000  3
   3106   3104   3116   3128     1  0.0000000  0.6508444  3
   3106   3104   3116   3117     1  0.0000000  0.6508444  3
   3106   3104   3116   3118     1  0.0000000  0.6508444  3
   3107   3103   3110   3111     1  0.0000000  1.2552000  3
   3107   3103   3110   3112     1  0.0000000  1.2552000  3
   3107   3119   3125   3126     1  0.0000000  0.6508444  3
   3107   3119   3125   3127     1  0.0000000  0.6508444  3
   3108   3107   3103   3110     1  0.0000000  1.2552000  3
   3108   3107   3119   3125     1  0.0000000  0.6508444  3
   3108   3107   3119   3120     1  0.0000000  0.6508444  3
   3108   3107   3119   3121     1  0.0000000  0.6508444  3
   3109   3107   3103   3110     1  0.0000000  1.2552000  3
   3109   3107   3119   3125     1  0.0000000  0.6508444  3
   3109   3107   3119   3120     1  0.0000000  0.6508444  3
   3109   3107   3119   3121     1  0.0000000  0.6508444  3
   3110   3113   3122   3123     1  0.0000000  0.6508444  3
   3110   3113   3122   3124     1  0.0000000  0.6508444  3
   3111   3110   3113   3122     1  0.0000000  0.6508444  3
   3111   3110   3113   3114     1  0.0000000  0.6508444  3
   3111   3110   3113   3115     1  0.0000000  0.6508444  3
   3112   3110   3113   3122     1  0.0000000  0.6508444  3
   3112   3110   3113   3114     1  0.0000000  0.6508444  3
   3112   3110   3113   3115     1  0.0000000  0.6508444  3
   3114   3113   3122   3131     1  0.0000000  1.0460000  1
   3114   3113   3122   3131     1  0.0000000  0.0000000  3
   3114   3113   3122   3123     1  0.0000000  0.6508444  3
   3114   3113   3122   3124     1  0.0000000  0.6508444  3
   3115   3113   3122   3131     1  0.0000000  1.0460000  1
   3115   3113   3122   3131     1  0.0000000  0.0000000  3
   3115   3113   3122   3123     1  0.0000000  0.6508444  3
   3115   3113   3122   3124     1  0.0000000  0.6508444  3
   3117   3116   3128   6321     1  0.0000000  1.0460000  1
   3117   3116   3128   6321     1  0.0000000  0.0000000  3
   3117   3116   3128   3129     1  0.0000000  0.6508444  3
   3117   3116   3128   3130     1  0.0000000  0.6508444  3
   3118   3116   3128   6321     1  0.0000000  1.0460000  1
   3118   3116   3128   6321     1  0.0000000  0.0000000  3
   3118   3116   3128   3129     1  0.0000000  0.6508444  3
   3118   3116   3128   3130     1  0.0000000  0.6508444  3
   3120   3119   3125   6292     1  0.0000000  1.0460000  1
   3120   3119   3125   6292     1  0.0000000  0.0000000  3
   3120   3119   3125   3126     1  0.0000000  0.6508444  3
   3120   3119   3125   3127     1  0.0000000  0.6508444  3
   3121   3119   3125   6292     1  0.0000000  1.0460000  1
   3121   3119   3125   6292     1  0.0000000  0.0000000  3
   3121   3119   3125   3126     1  0.0000000  0.6508444  3
   3121   3119   3125   3127     1  0.0000000  0.6508444  3
   3125   6292   6283   6284     1  0.0000000  1.6038667  3
   3125   6292   6283   6285     1  0.0000000  1.6038667  3
   3126   3125   6292   6283     1  0.0000000  1.6038667  3
   3127   3125   6292   6283     1  0.0000000  1.6038667  3
   3128   6321   6312   6313     1  0.0000000  1.6038667  3
   3128   6321   6312   6314     1  0.0000000  1.6038667  3
   3129   3128   6321   6312     1  0.0000000  1.6038667  3
   3130   3128   6321   6312     1  0.0000000  1.6038667  3
   3132   3133   3145   3146     1  0.0000000  0.6508444  3
   3132   3133   3145   3147     1  0.0000000  0.6508444  3
   3132   3136   3148   3149     1  0.0000000  0.6508444  3
   3132   3136   3148   3150     1  0.0000000  0.6508444  3
   3132   3139   3142   3143     1  0.0000000  0.6508444  3
   3132   3139   3142   3144     1  0.0000000  0.6508444  3
   3133   3132   3136   3137     1  0.0000000  1.2552000  3
   3133   3132   3136   3138     1  0.0000000  1.2552000  3
   3133   3132   3139   3140     1  0.0000000  1.2552000  3
   3133   3132   3139   3141     1  0.0000000  1.2552000  3
   3133   3145   3157   3158     1  0.0000000  0.6508444  3
   3133   3145   3157   3159     1  0.0000000  0.6508444  3
   3134   3133   3132   3136     1  0.0000000  1.2552000  3
   3134   3133   3132   3139     1  0.0000000  1.2552000  3
   3134   3133   3145   3157     1  0.0000000  0.6508444  3
   3134   3133   3145   3146     1  0.0000000  0.6508444  3
   3134   3133   3145   3147     1  0.0000000  0.6508444  3
   3135   3133   3132   3136     1  0.0000000  1.2552000  3
   3135   3133   3132   3139     1  0.0000000  1.2552000  3
   3135   3133   3145   3157     1  0.0000000  0.6508444  3
   3135   3133   3145   3146     1  0.0000000  0.6508444  3
   3135   3133   3145   3147     1  0.0000000  0.6508444  3
   3136   3132   3139   3140     1  0.0000000  1.2552000  3
   3136   3132   3139   3141     1  0.0000000  1.2552000  3
   3136   3148   3154   3155     1  0.0000000  0.6508444  3
   3136   3148   3154   3156     1  0.0000000  0.6508444  3
   3137   3136   3132   3139     1  0.0000000  1.2552000  3
   3137   3136   3148   3154     1  0.0000000  0.6508444  3
   3137   3136   3148   3149     1  0.0000000  0.6508444  3
   3137   3136   3148   3150     1  0.0000000  0.6508444  3
   3138   3136   3132   3139     1  0.0000000  1.2552000  3
   3138   3136   3148   3154     1  0.0000000  0.6508444  3
   3138   3136   3148   3149     1  0.0000000  0.6508444  3
   3138   3136   3148   3150     1  0.0000000  0.6508444  3
   3139   3142   3151   3152     1  0.0000000  0.6508444  3
   3139   3142   3151   3153     1  0.0000000  0.6508444  3
   3140   3139   3142   3151     1  0.0000000  0.6508444  3
   3140   3139   3142   3143     1  0.0000000  0.6508444  3
   3140   3139   3142   3144     1  0.0000000  0.6508444  3
   3141   3139   3142   3151     1  0.0000000  0.6508444  3
   3141   3139   3142   3143     1  0.0000000  0.6508444  3
   3141   3139   3142   3144     1  0.0000000  0.6508444  3
   3143   3142   3151   3160     1  0.0000000  1.0460000  1
   3143   3142   3151   3160     1  0.0000000  0.0000000  3
   3143   3142   3151   3152     1  0.0000000  0.6508444  3
   3143   3142   3151   3153     1  0.0000000  0.6508444  3
   3144   3142   3151   3160     1  0.0000000  1.0460000  1
   3144   3142   3151   3160     1  0.0000000  0.0000000  3
   3144   3142   3151   3152     1  0.0000000  0.6508444  3
   3144   3142   3151   3153     1  0.0000000  0.6508444  3
   3146   3145   3157   6379     1  0.0000000  1.0460000  1
   3146   3145   3157   6379     1  0.0000000  0.0000000  3
   3146   3145   3157   3158     1  0.0000000  0.6508444  3
   3146   3145   3157   3159     1  0.0000000  0.6508444  3
   3147   3145   3157   6379     1  0.0000000  1.0460000  1
   3147   3145   3157   6379     1  0.0000000  0.0000000  3
   3147   3145   3157   3158     1  0.0000000  0.6508444  3
   3147   3145   3157   3159     1  0.0000000  0.6508444  3
   3149   3148   3154   6350     1  0.0000000  1.0460000  1
   3149   3148   3154   6350     1  0.0000000  0.0000000  3
   3149   3148   3154   3155     1  0.0000000  0.6508444  3
   3149   3148   3154   3156     1  0.0000000  0.6508444  3
   3150   3148   3154   6350     1  0.0000000  1.0460000  1
   3150   3148   3154   6350     1  0.0000000  0.0000000  3
   3150   3148   3154   3155     1  0.0000000  0.6508444  3
   3150   3148   3154   3156     1  0.0000000  0.6508444  3
   3154   6350   6341   6342     1  0.0000000  1.6038667  3
   3154   6350   6341   6343     1  0.0000000  1.6038667  3
   3155   3154   6350   6341     1  0.0000000  1.6038667  3
   3156   3154   6350   6341     1  0.0000000  1.6038667  3
   3157   6379   6370   6371     1  0.0000000  1.6038667  3
   3157   6379   6370   6372     1  0.0000000  1.6038667  3
   3158   3157   6379   6370     1  0.0000000  1.6038667  3
   3159   3157   6379   6370     1  0.0000000  1.6038667  3
   3161   3162   3174   3175     1  0.0000000  0.6508444  3
   3161   3162   3174   3176     1  0.0000000  0.6508444  3
   3161   3165   3177   3178     1  0.0000000  0.6508444  3
   3161   3165   3177   3179     1  0.0000000  0.6508444  3
   3161   3168   3171   3172     1  0.0000000  0.6508444  3
   3161   3168   3171   3173     1  0.0000000  0.6508444  3
   3162   3161   3165   3166     1  0.0000000  1.2552000  3
   3162   3161   3165   3167     1  0.0000000  1.2552000  3
   3162   3161   3168   3169     1  0.0000000  1.2552000  3
   3162   3161   3168   3170     1  0.0000000  1.2552000  3
   3162   3174   3186   3187     1  0.0000000  0.6508444  3
   3162   3174   3186   3188     1  0.0000000  0.6508444  3
   3163   3162   3161   3165     1  0.0000000  1.2552000  3
   3163   3162   3161   3168     1  0.0000000  1.2552000  3
   3163   3162   3174   3186     1  0.0000000  0.6508444  3
   3163   3162   3174   3175     1  0.0000000  0.6508444  3
   3163   3162   3174   3176     1  0.0000000  0.6508444  3
   3164   3162   3161   3165     1  0.0000000  1.2552000  3
   3164   3162   3161   3168     1  0.0000000  1.2552000  3
   3164   3162   3174   3186     1  0.0000000  0.6508444  3
   3164   3162   3174   3175     1  0.0000000  0.6508444  3
   3164   3162   3174   3176     1  0.0000000  0.6508444  3
   3165   3161   3168   3169     1  0.0000000  1.2552000  3
   3165   3161   3168   3170     1  0.0000000  1.2552000  3
   3165   3177   3183   3184     1  0.0000000  0.6508444  3
   3165   3177   3183   3185     1  0.0000000  0.6508444  3
   3166   3165   3161   3168     1  0.0000000  1.2552000  3
   3166   3165   3177   3183     1  0.0000000  0.6508444  3
   3166   3165   3177   3178     1  0.0000000  0.6508444  3
   3166   3165   3177   3179     1  0.0000000  0.6508444  3
   3167   3165   3161   3168     1  0.0000000  1.2552000  3
   3167   3165   3177   3183     1  0.0000000  0.6508444  3
   3167   3165   3177   3178     1  0.0000000  0.6508444  3
   3167   3165   3177   3179     1  0.0000000  0.6508444  3
   3168   3171   3180   3181     1  0.0000000  0.6508444  3
   3168   3171   3180   3182     1  0.0000000  0.6508444  3
   3169   3168   3171   3180     1  0.0000000  0.6508444  3
   3169   3168   3171   3172     1  0.0000000  0.6508444  3
   3169   3168   3171   3173     1  0.0000000  0.6508444  3
   3170   3168   3171   3180     1  0.0000000  0.6508444  3
   3170   3168   3171   3172     1  0.0000000  0.6508444  3
   3170   3168   3171   3173     1  0.0000000  0.6508444  3
   3172   3171   3180   3189     1  0.0000000  1.0460000  1
   3172   3171   3180   3189     1  0.0000000  0.0000000  3
   3172   3171   3180   3181     1  0.0000000  0.6508444  3
   3172   3171   3180   3182     1  0.0000000  0.6508444  3
   3173   3171   3180   3189     1  0.0000000  1.0460000  1
   3173   3171   3180   3189     1  0.0000000  0.0000000  3
   3173   3171   3180   3181     1  0.0000000  0.6508444  3
   3173   3171   3180   3182     1  0.0000000  0.6508444  3
   3175   3174   3186   6437     1  0.0000000  1.0460000  1
   3175   3174   3186   6437     1  0.0000000  0.0000000  3
   3175   3174   3186   3187     1  0.0000000  0.6508444  3
   3175   3174   3186   3188     1  0.0000000  0.6508444  3
   3176   3174   3186   6437     1  0.0000000  1.0460000  1
   3176   3174   3186   6437     1  0.0000000  0.0000000  3
   3176   3174   3186   3187     1  0.0000000  0.6508444  3
   3176   3174   3186   3188     1  0.0000000  0.6508444  3
   3178   3177   3183   6408     1  0.0000000  1.0460000  1
   3178   3177   3183   6408     1  0.0000000  0.0000000  3
   3178   3177   3183   3184     1  0.0000000  0.6508444  3
   3178   3177   3183   3185     1  0.0000000  0.6508444  3
   3179   3177   3183   6408     1  0.0000000  1.0460000  1
   3179   3177   3183   6408     1  0.0000000  0.0000000  3
   3179   3177   3183   3184     1  0.0000000  0.6508444  3
   3179   3177   3183   3185     1  0.0000000  0.6508444  3
   3183   6408   6399   6400     1  0.0000000  1.6038667  3
   3183   6408   6399   6401     1  0.0000000  1.6038667  3
   3184   3183   6408   6399     1  0.0000000  1.6038667  3
   3185   3183   6408   6399     1  0.0000000  1.6038667  3
   3186   6437   6428   6429     1  0.0000000  1.6038667  3
   3186   6437   6428   6430     1  0.0000000  1.6038667  3
   3187   3186   6437   6428     1  0.0000000  1.6038667  3
   3188   3186   6437   6428     1  0.0000000  1.6038667  3
   3190   3191   3203   3204     1  0.0000000  0.6508444  3
   3190   3191   3203   3205     1  0.0000000  0.6508444  3
   3190   3194   3206   3207     1  0.0000000  0.6508444  3
   3190   3194   3206   3208     1  0.0000000  0.6508444  3
   3190   3197   3200   3201     1  0.0000000  0.6508444  3
   3190   3197   3200   3202     1  0.0000000  0.6508444  3
   3191   3190   3194   3195     1  0.0000000  1.2552000  3
   3191   3190   3194   3196     1  0.0000000  1.2552000  3
   3191   3190   3197   3198     1  0.0000000  1.2552000  3
   3191   3190   3197   3199     1  0.0000000  1.2552000  3
   3191   3203   3215   3216     1  0.0000000  0.6508444  3
   3191   3203   3215   3217     1  0.0000000  0.6508444  3
   3192   3191   3190   3194     1  0.0000000  1.2552000  3
   3192   3191   3190   3197     1  0.0000000  1.2552000  3
   3192   3191   3203   3215     1  0.0000000  0.6508444  3
   3192   3191   3203   3204     1  0.0000000  0.6508444  3
   3192   3191   3203   3205     1  0.0000000  0.6508444  3
   3193   3191   3190   3194     1  0.0000000  1.2552000  3
   3193   3191   3190   3197     1  0.0000000  1.2552000  3
   3193   3191   3203   3215     1  0.0000000  0.6508444  3
   3193   3191   3203   3204     1  0.0000000  0.6508444  3
   3193   3191   3203   3205     1  0.0000000  0.6508444  3
   3194   3190   3197   3198     1  0.0000000  1.2552000  3
   3194   3190   3197   3199     1  0.0000000  1.2552000  3
   3194   3206   3212   3213     1  0.0000000  0.6508444  3
   3194   3206   3212   3214     1  0.0000000  0.6508444  3
   3195   3194   3190   3197     1  0.0000000  1.2552000  3
   3195   3194   3206   3212     1  0.0000000  0.6508444  3
   3195   3194   3206   3207     1  0.0000000  0.6508444  3
   3195   3194   3206   3208     1  0.0000000  0.6508444  3
   3196   3194   3190   3197     1  0.0000000  1.2552000  3
   3196   3194   3206   3212     1  0.0000000  0.6508444  3
   3196   3194   3206   3207     1  0.0000000  0.6508444  3
   3196   3194   3206   3208     1  0.0000000  0.6508444  3
   3197   3200   3209   3210     1  0.0000000  0.6508444  3
   3197   3200   3209   3211     1  0.0000000  0.6508444  3
   3198   3197   3200   3209     1  0.0000000  0.6508444  3
   3198   3197   3200   3201     1  0.0000000  0.6508444  3
   3198   3197   3200   3202     1  0.0000000  0.6508444  3
   3199   3197   3200   3209     1  0.0000000  0.6508444  3
   3199   3197   3200   3201     1  0.0000000  0.6508444  3
   3199   3197   3200   3202     1  0.0000000  0.6508444  3
   3201   3200   3209   3218     1  0.0000000  1.0460000  1
   3201   3200   3209   3218     1  0.0000000  0.0000000  3
   3201   3200   3209   3210     1  0.0000000  0.6508444  3
   3201   3200   3209   3211     1  0.0000000  0.6508444  3
   3202   3200   3209   3218     1  0.0000000  1.0460000  1
   3202   3200   3209   3218     1  0.0000000  0.0000000  3
   3202   3200   3209   3210     1  0.0000000  0.6508444  3
   3202   3200   3209   3211     1  0.0000000  0.6508444  3
   3204   3203   3215   6495     1  0.0000000  1.0460000  1
   3204   3203   3215   6495     1  0.0000000  0.0000000  3
   3204   3203   3215   3216     1  0.0000000  0.6508444  3
   3204   3203   3215   3217     1  0.0000000  0.6508444  3
   3205   3203   3215   6495     1  0.0000000  1.0460000  1
   3205   3203   3215   6495     1  0.0000000  0.0000000  3
   3205   3203   3215   3216     1  0.0000000  0.6508444  3
   3205   3203   3215   3217     1  0.0000000  0.6508444  3
   3207   3206   3212   6466     1  0.0000000  1.0460000  1
   3207   3206   3212   6466     1  0.0000000  0.0000000  3
   3207   3206   3212   3213     1  0.0000000  0.6508444  3
   3207   3206   3212   3214     1  0.0000000  0.6508444  3
   3208   3206   3212   6466     1  0.0000000  1.0460000  1
   3208   3206   3212   6466     1  0.0000000  0.0000000  3
   3208   3206   3212   3213     1  0.0000000  0.6508444  3
   3208   3206   3212   3214     1  0.0000000  0.6508444  3
   3212   6466   6457   6458     1  0.0000000  1.6038667  3
   3212   6466   6457   6459     1  0.0000000  1.6038667  3
   3213   3212   6466   6457     1  0.0000000  1.6038667  3
   3214   3212   6466   6457     1  0.0000000  1.6038667  3
   3215   6495   6486   6487     1  0.0000000  1.6038667  3
   3215   6495   6486   6488     1  0.0000000  1.6038667  3
   3216   3215   6495   6486     1  0.0000000  1.6038667  3
   3217   3215   6495   6486     1  0.0000000  1.6038667  3
   3219   3220   3232   3233     1  0.0000000  0.6508444  3
   3219   3220   3232   3234     1  0.0000000  0.6508444  3
   3219   3223   3235   3236     1  0.0000000  0.6508444  3
   3219   3223   3235   3237     1  0.0000000  0.6508444  3
   3219   3226   3229   3230     1  0.0000000  0.6508444  3
   3219   3226   3229   3231     1  0.0000000  0.6508444  3
   3220   3219   3223   3224     1  0.0000000  1.2552000  3
   3220   3219   3223   3225     1  0.0000000  1.2552000  3
   3220   3219   3226   3227     1  0.0000000  1.2552000  3
   3220   3219   3226   3228     1  0.0000000  1.2552000  3
   3220   3232   3244   3245     1  0.0000000  0.6508444  3
   3220   3232   3244   3246     1  0.0000000  0.6508444  3
   3221   3220   3219   3223     1  0.0000000  1.2552000  3
   3221   3220   3219   3226     1  0.0000000  1.2552000  3
   3221   3220   3232   3244     1  0.0000000  0.6508444  3
   3221   3220   3232   3233     1  0.0000000  0.6508444  3
   3221   3220   3232   3234     1  0.0000000  0.6508444  3
   3222   3220   3219   3223     1  0.0000000  1.2552000  3
   3222   3220   3219   3226     1  0.0000000  1.2552000  3
   3222   3220   3232   3244     1  0.0000000  0.6508444  3
   3222   3220   3232   3233     1  0.0000000  0.6508444  3
   3222   3220   3232   3234     1  0.0000000  0.6508444  3
   3223   3219   3226   3227     1  0.0000000  1.2552000  3
   3223   3219   3226   3228     1  0.0000000  1.2552000  3
   3223   3235   3241   3242     1  0.0000000  0.6508444  3
   3223   3235   3241   3243     1  0.0000000  0.6508444  3
   3224   3223   3219   3226     1  0.0000000  1.2552000  3
   3224   3223   3235   3241     1  0.0000000  0.6508444  3
   3224   3223   3235   3236     1  0.0000000  0.6508444  3
   3224   3223   3235   3237     1  0.0000000  0.6508444  3
   3225   3223   3219   3226     1  0.0000000  1.2552000  3
   3225   3223   3235   3241     1  0.0000000  0.6508444  3
   3225   3223   3235   3236     1  0.0000000  0.6508444  3
   3225   3223   3235   3237     1  0.0000000  0.6508444  3
   3226   3229   3238   3239     1  0.0000000  0.6508444  3
   3226   3229   3238   3240     1  0.0000000  0.6508444  3
   3227   3226   3229   3238     1  0.0000000  0.6508444  3
   3227   3226   3229   3230     1  0.0000000  0.6508444  3
   3227   3226   3229   3231     1  0.0000000  0.6508444  3
   3228   3226   3229   3238     1  0.0000000  0.6508444  3
   3228   3226   3229   3230     1  0.0000000  0.6508444  3
   3228   3226   3229   3231     1  0.0000000  0.6508444  3
   3230   3229   3238   3247     1  0.0000000  1.0460000  1
   3230   3229   3238   3247     1  0.0000000  0.0000000  3
   3230   3229   3238   3239     1  0.0000000  0.6508444  3
   3230   3229   3238   3240     1  0.0000000  0.6508444  3
   3231   3229   3238   3247     1  0.0000000  1.0460000  1
   3231   3229   3238   3247     1  0.0000000  0.0000000  3
   3231   3229   3238   3239     1  0.0000000  0.6508444  3
   3231   3229   3238   3240     1  0.0000000  0.6508444  3
   3233   3232   3244   6553     1  0.0000000  1.0460000  1
   3233   3232   3244   6553     1  0.0000000  0.0000000  3
   3233   3232   3244   3245     1  0.0000000  0.6508444  3
   3233   3232   3244   3246     1  0.0000000  0.6508444  3
   3234   3232   3244   6553     1  0.0000000  1.0460000  1
   3234   3232   3244   6553     1  0.0000000  0.0000000  3
   3234   3232   3244   3245     1  0.0000000  0.6508444  3
   3234   3232   3244   3246     1  0.0000000  0.6508444  3
   3236   3235   3241   6524     1  0.0000000  1.0460000  1
   3236   3235   3241   6524     1  0.0000000  0.0000000  3
   3236   3235   3241   3242     1  0.0000000  0.6508444  3
   3236   3235   3241   3243     1  0.0000000  0.6508444  3
   3237   3235   3241   6524     1  0.0000000  1.0460000  1
   3237   3235   3241   6524     1  0.0000000  0.0000000  3
   3237   3235   3241   3242     1  0.0000000  0.6508444  3
   3237   3235   3241   3243     1  0.0000000  0.6508444  3
   3241   6524   6515   6516     1  0.0000000  1.6038667  3
   3241   6524   6515   6517     1  0.0000000  1.6038667  3
   3242   3241   6524   6515     1  0.0000000  1.6038667  3
   3243   3241   6524   6515     1  0.0000000  1.6038667  3
   3244   6553   6544   6545     1  0.0000000  1.6038667  3
   3244   6553   6544   6546     1  0.0000000  1.6038667  3
   3245   3244   6553   6544     1  0.0000000  1.6038667  3
   3246   3244   6553   6544     1  0.0000000  1.6038667  3
   3248   3249   3261   3262     1  0.0000000  0.6508444  3
   3248   3249   3261   3263     1  0.0000000  0.6508444  3
   3248   3252   3264   3265     1  0.0000000  0.6508444  3
   3248   3252   3264   3266     1  0.0000000  0.6508444  3
   3248   3255   3258   3259     1  0.0000000  0.6508444  3
   3248   3255   3258   3260     1  0.0000000  0.6508444  3
   3249   3248   3252   3253     1  0.0000000  1.2552000  3
   3249   3248   3252   3254     1  0.0000000  1.2552000  3
   3249   3248   3255   3256     1  0.0000000  1.2552000  3
   3249   3248   3255   3257     1  0.0000000  1.2552000  3
   3249   3261   3273   3274     1  0.0000000  0.6508444  3
   3249   3261   3273   3275     1  0.0000000  0.6508444  3
   3250   3249   3248   3252     1  0.0000000  1.2552000  3
   3250   3249   3248   3255     1  0.0000000  1.2552000  3
   3250   3249   3261   3273     1  0.0000000  0.6508444  3
   3250   3249   3261   3262     1  0.0000000  0.6508444  3
   3250   3249   3261   3263     1  0.0000000  0.6508444  3
   3251   3249   3248   3252     1  0.0000000  1.2552000  3
   3251   3249   3248   3255     1  0.0000000  1.2552000  3
   3251   3249   3261   3273     1  0.0000000  0.6508444  3
   3251   3249   3261   3262     1  0.0000000  0.6508444  3
   3251   3249   3261   3263     1  0.0000000  0.6508444  3
   3252   3248   3255   3256     1  0.0000000  1.2552000  3
   3252   3248   3255   3257     1  0.0000000  1.2552000  3
   3252   3264   3270   3271     1  0.0000000  0.6508444  3
   3252   3264   3270   3272     1  0.0000000  0.6508444  3
   3253   3252   3248   3255     1  0.0000000  1.2552000  3
   3253   3252   3264   3270     1  0.0000000  0.6508444  3
   3253   3252   3264   3265     1  0.0000000  0.6508444  3
   3253   3252   3264   3266     1  0.0000000  0.6508444  3
   3254   3252   3248   3255     1  0.0000000  1.2552000  3
   3254   3252   3264   3270     1  0.0000000  0.6508444  3
   3254   3252   3264   3265     1  0.0000000  0.6508444  3
   3254   3252   3264   3266     1  0.0000000  0.6508444  3
   3255   3258   3267   3268     1  0.0000000  0.6508444  3
   3255   3258   3267   3269     1  0.0000000  0.6508444  3
   3256   3255   3258   3267     1  0.0000000  0.6508444  3
   3256   3255   3258   3259     1  0.0000000  0.6508444  3
   3256   3255   3258   3260     1  0.0000000  0.6508444  3
   3257   3255   3258   3267     1  0.0000000  0.6508444  3
   3257   3255   3258   3259     1  0.0000000  0.6508444  3
   3257   3255   3258   3260     1  0.0000000  0.6508444  3
   3259   3258   3267   3276     1  0.0000000  1.0460000  1
   3259   3258   3267   3276     1  0.0000000  0.0000000  3
   3259   3258   3267   3268     1  0.0000000  0.6508444  3
   3259   3258   3267   3269     1  0.0000000  0.6508444  3
   3260   3258   3267   3276     1  0.0000000  1.0460000  1
   3260   3258   3267   3276     1  0.0000000  0.0000000  3
   3260   3258   3267   3268     1  0.0000000  0.6508444  3
   3260   3258   3267   3269     1  0.0000000  0.6508444  3
   3262   3261   3273   6611     1  0.0000000  1.0460000  1
   3262   3261   3273   6611     1  0.0000000  0.0000000  3
   3262   3261   3273   3274     1  0.0000000  0.6508444  3
   3262   3261   3273   3275     1  0.0000000  0.6508444  3
   3263   3261   3273   6611     1  0.0000000  1.0460000  1
   3263   3261   3273   6611     1  0.0000000  0.0000000  3
   3263   3261   3273   3274     1  0.0000000  0.6508444  3
   3263   3261   3273   3275     1  0.0000000  0.6508444  3
   3265   3264   3270   6582     1  0.0000000  1.0460000  1
   3265   3264   3270   6582     1  0.0000000  0.0000000  3
   3265   3264   3270   3271     1  0.0000000  0.6508444  3
   3265   3264   3270   3272     1  0.0000000  0.6508444  3
   3266   3264   3270   6582     1  0.0000000  1.0460000  1
   3266   3264   3270   6582     1  0.0000000  0.0000000  3
   3266   3264   3270   3271     1  0.0000000  0.6508444  3
   3266   3264   3270   3272     1  0.0000000  0.6508444  3
   3270   6582   6573   6574     1  0.0000000  1.6038667  3
   3270   6582   6573   6575     1  0.0000000  1.6038667  3
   3271   3270   6582   6573     1  0.0000000  1.6038667  3
   3272   3270   6582   6573     1  0.0000000  1.6038667  3
   3273   6611   6602   6603     1  0.0000000  1.6038667  3
   3273   6611   6602   6604     1  0.0000000  1.6038667  3
   3274   3273   6611   6602     1  0.0000000  1.6038667  3
   3275   3273   6611   6602     1  0.0000000  1.6038667  3
   3277   3278   3290   3291     1  0.0000000  0.6508444  3
   3277   3278   3290   3292     1  0.0000000  0.6508444  3
   3277   3281   3293   3294     1  0.0000000  0.6508444  3
   3277   3281   3293   3295     1  0.0000000  0.6508444  3
   3277   3284   3287   3288     1  0.0000000  0.6508444  3
   3277   3284   3287   3289     1  0.0000000  0.6508444  3
   3278   3277   3281   3282     1  0.0000000  1.2552000  3
   3278   3277   3281   3283     1  0.0000000  1.2552000  3
   3278   3277   3284   3285     1  0.0000000  1.2552000  3
   3278   3277   3284   3286     1  0.0000000  1.2552000  3
   3278   3290   3302   3303     1  0.0000000  0.6508444  3
   3278   3290   3302   3304     1  0.0000000  0.6508444  3
   3279   3278   3277   3281     1  0.0000000  1.2552000  3
   3279   3278   3277   3284     1  0.0000000  1.2552000  3
   3279   3278   3290   3302     1  0.0000000  0.6508444  3
   3279   3278   3290   3291     1  0.0000000  0.6508444  3
   3279   3278   3290   3292     1  0.0000000  0.6508444  3
   3280   3278   3277   3281     1  0.0000000  1.2552000  3
   3280   3278   3277   3284     1  0.0000000  1.2552000  3
   3280   3278   3290   3302     1  0.0000000  0.6508444  3
   3280   3278   3290   3291     1  0.0000000  0.6508444  3
   3280   3278   3290   3292     1  0.0000000  0.6508444  3
   3281   3277   3284   3285     1  0.0000000  1.2552000  3
   3281   3277   3284   3286     1  0.0000000  1.2552000  3
   3281   3293   3299   3300     1  0.0000000  0.6508444  3
   3281   3293   3299   3301     1  0.0000000  0.6508444  3
   3282   3281   3277   3284     1  0.0000000  1.2552000  3
   3282   3281   3293   3299     1  0.0000000  0.6508444  3
   3282   3281   3293   3294     1  0.0000000  0.6508444  3
   3282   3281   3293   3295     1  0.0000000  0.6508444  3
   3283   3281   3277   3284     1  0.0000000  1.2552000  3
   3283   3281   3293   3299     1  0.0000000  0.6508444  3
   3283   3281   3293   3294     1  0.0000000  0.6508444  3
   3283   3281   3293   3295     1  0.0000000  0.6508444  3
   3284   3287   3296   3297     1  0.0000000  0.6508444  3
   3284   3287   3296   3298     1  0.0000000  0.6508444  3
   3285   3284   3287   3296     1  0.0000000  0.6508444  3
   3285   3284   3287   3288     1  0.0000000  0.6508444  3
   3285   3284   3287   3289     1  0.0000000  0.6508444  3
   3286   3284   3287   3296     1  0.0000000  0.6508444  3
   3286   3284   3287   3288     1  0.0000000  0.6508444  3
   3286   3284   3287   3289     1  0.0000000  0.6508444  3
   3288   3287   3296   3305     1  0.0000000  1.0460000  1
   3288   3287   3296   3305     1  0.0000000  0.0000000  3
   3288   3287   3296   3297     1  0.0000000  0.6508444  3
   3288   3287   3296   3298     1  0.0000000  0.6508444  3
   3289   3287   3296   3305     1  0.0000000  1.0460000  1
   3289   3287   3296   3305     1  0.0000000  0.0000000  3
   3289   3287   3296   3297     1  0.0000000  0.6508444  3
   3289   3287   3296   3298     1  0.0000000  0.6508444  3
   3291   3290   3302   6669     1  0.0000000  1.0460000  1
   3291   3290   3302   6669     1  0.0000000  0.0000000  3
   3291   3290   3302   3303     1  0.0000000  0.6508444  3
   3291   3290   3302   3304     1  0.0000000  0.6508444  3
   3292   3290   3302   6669     1  0.0000000  1.0460000  1
   3292   3290   3302   6669     1  0.0000000  0.0000000  3
   3292   3290   3302   3303     1  0.0000000  0.6508444  3
   3292   3290   3302   3304     1  0.0000000  0.6508444  3
   3294   3293   3299   6640     1  0.0000000  1.0460000  1
   3294   3293   3299   6640     1  0.0000000  0.0000000  3
   3294   3293   3299   3300     1  0.0000000  0.6508444  3
   3294   3293   3299   3301     1  0.0000000  0.6508444  3
   3295   3293   3299   6640     1  0.0000000  1.0460000  1
   3295   3293   3299   6640     1  0.0000000  0.0000000  3
   3295   3293   3299   3300     1  0.0000000  0.6508444  3
   3295   3293   3299   3301     1  0.0000000  0.6508444  3
   3299   6640   6631   6632     1  0.0000000  1.6038667  3
   3299   6640   6631   6633     1  0.0000000  1.6038667  3
   3300   3299   6640   6631     1  0.0000000  1.6038667  3
   3301   3299   6640   6631     1  0.0000000  1.6038667  3
   3302   6669   6660   6661     1  0.0000000  1.6038667  3
   3302   6669   6660   6662     1  0.0000000  1.6038667  3
   3303   3302   6669   6660     1  0.0000000  1.6038667  3
   3304   3302   6669   6660     1  0.0000000  1.6038667  3
   3306   3307   3319   3320     1  0.0000000  0.6508444  3
   3306   3307   3319   3321     1  0.0000000  0.6508444  3
   3306   3310   3322   3323     1  0.0000000  0.6508444  3
   3306   3310   3322   3324     1  0.0000000  0.6508444  3
   3306   3313   3316   3317     1  0.0000000  0.6508444  3
   3306   3313   3316   3318     1  0.0000000  0.6508444  3
   3307   3306   3310   3311     1  0.0000000  1.2552000  3
   3307   3306   3310   3312     1  0.0000000  1.2552000  3
   3307   3306   3313   3314     1  0.0000000  1.2552000  3
   3307   3306   3313   3315     1  0.0000000  1.2552000  3
   3307   3319   3331   3332     1  0.0000000  0.6508444  3
   3307   3319   3331   3333     1  0.0000000  0.6508444  3
   3308   3307   3306   3310     1  0.0000000  1.2552000  3
   3308   3307   3306   3313     1  0.0000000  1.2552000  3
   3308   3307   3319   3331     1  0.0000000  0.6508444  3
   3308   3307   3319   3320     1  0.0000000  0.6508444  3
   3308   3307   3319   3321     1  0.0000000  0.6508444  3
   3309   3307   3306   3310     1  0.0000000  1.2552000  3
   3309   3307   3306   3313     1  0.0000000  1.2552000  3
   3309   3307   3319   3331     1  0.0000000  0.6508444  3
   3309   3307   3319   3320     1  0.0000000  0.6508444  3
   3309   3307   3319   3321     1  0.0000000  0.6508444  3
   3310   3306   3313   3314     1  0.0000000  1.2552000  3
   3310   3306   3313   3315     1  0.0000000  1.2552000  3
   3310   3322   3328   3329     1  0.0000000  0.6508444  3
   3310   3322   3328   3330     1  0.0000000  0.6508444  3
   3311   3310   3306   3313     1  0.0000000  1.2552000  3
   3311   3310   3322   3328     1  0.0000000  0.6508444  3
   3311   3310   3322   3323     1  0.0000000  0.6508444  3
   3311   3310   3322   3324     1  0.0000000  0.6508444  3
   3312   3310   3306   3313     1  0.0000000  1.2552000  3
   3312   3310   3322   3328     1  0.0000000  0.6508444  3
   3312   3310   3322   3323     1  0.0000000  0.6508444  3
   3312   3310   3322   3324     1  0.0000000  0.6508444  3
   3313   3316   3325   3326     1  0.0000000  0.6508444  3
   3313   3316   3325   3327     1  0.0000000  0.6508444  3
   3314   3313   3316   3325     1  0.0000000  0.6508444  3
   3314   3313   3316   3317     1  0.0000000  0.6508444  3
   3314   3313   3316   3318     1  0.0000000  0.6508444  3
   3315   3313   3316   3325     1  0.0000000  0.6508444  3
   3315   3313   3316   3317     1  0.0000000  0.6508444  3
   3315   3313   3316   3318     1  0.0000000  0.6508444  3
   3317   3316   3325   3334     1  0.0000000  1.0460000  1
   3317   3316   3325   3334     1  0.0000000  0.0000000  3
   3317   3316   3325   3326     1  0.0000000  0.6508444  3
   3317   3316   3325   3327     1  0.0000000  0.6508444  3
   3318   3316   3325   3334     1  0.0000000  1.0460000  1
   3318   3316   3325   3334     1  0.0000000  0.0000000  3
   3318   3316   3325   3326     1  0.0000000  0.6508444  3
   3318   3316   3325   3327     1  0.0000000  0.6508444  3
   3320   3319   3331   6727     1  0.0000000  1.0460000  1
   3320   3319   3331   6727     1  0.0000000  0.0000000  3
   3320   3319   3331   3332     1  0.0000000  0.6508444  3
   3320   3319   3331   3333     1  0.0000000  0.6508444  3
   3321   3319   3331   6727     1  0.0000000  1.0460000  1
   3321   3319   3331   6727     1  0.0000000  0.0000000  3
   3321   3319   3331   3332     1  0.0000000  0.6508444  3
   3321   3319   3331   3333     1  0.0000000  0.6508444  3
   3323   3322   3328   6698     1  0.0000000  1.0460000  1
   3323   3322   3328   6698     1  0.0000000  0.0000000  3
   3323   3322   3328   3329     1  0.0000000  0.6508444  3
   3323   3322   3328   3330     1  0.0000000  0.6508444  3
   3324   3322   3328   6698     1  0.0000000  1.0460000  1
   3324   3322   3328   6698     1  0.0000000  0.0000000  3
   3324   3322   3328   3329     1  0.0000000  0.6508444  3
   3324   3322   3328   3330     1  0.0000000  0.6508444  3
   3328   6698   6689   6690     1  0.0000000  1.6038667  3
   3328   6698   6689   6691     1  0.0000000  1.6038667  3
   3329   3328   6698   6689     1  0.0000000  1.6038667  3
   3330   3328   6698   6689     1  0.0000000  1.6038667  3
   3331   6727   6718   6719     1  0.0000000  1.6038667  3
   3331   6727   6718   6720     1  0.0000000  1.6038667  3
   3332   3331   6727   6718     1  0.0000000  1.6038667  3
   3333   3331   6727   6718     1  0.0000000  1.6038667  3
   3335   3336   3348   3349     1  0.0000000  0.6508444  3
   3335   3336   3348   3350     1  0.0000000  0.6508444  3
   3335   3339   3351   3352     1  0.0000000  0.6508444  3
   3335   3339   3351   3353     1  0.0000000  0.6508444  3
   3335   3342   3345   3346     1  0.0000000  0.6508444  3
   3335   3342   3345   3347     1  0.0000000  0.6508444  3
   3336   3335   3339   3340     1  0.0000000  1.2552000  3
   3336   3335   3339   3341     1  0.0000000  1.2552000  3
   3336   3335   3342   3343     1  0.0000000  1.2552000  3
   3336   3335   3342   3344     1  0.0000000  1.2552000  3
   3336   3348   3360   3361     1  0.0000000  0.6508444  3
   3336   3348   3360   3362     1  0.0000000  0.6508444  3
   3337   3336   3335   3339     1  0.0000000  1.2552000  3
   3337   3336   3335   3342     1  0.0000000  1.2552000  3
   3337   3336   3348   3360     1  0.0000000  0.6508444  3
   3337   3336   3348   3349     1  0.0000000  0.6508444  3
   3337   3336   3348   3350     1  0.0000000  0.6508444  3
   3338   3336   3335   3339     1  0.0000000  1.2552000  3
   3338   3336   3335   3342     1  0.0000000  1.2552000  3
   3338   3336   3348   3360     1  0.0000000  0.6508444  3
   3338   3336   3348   3349     1  0.0000000  0.6508444  3
   3338   3336   3348   3350     1  0.0000000  0.6508444  3
   3339   3335   3342   3343     1  0.0000000  1.2552000  3
   3339   3335   3342   3344     1  0.0000000  1.2552000  3
   3339   3351   3357   3358     1  0.0000000  0.6508444  3
   3339   3351   3357   3359     1  0.0000000  0.6508444  3
   3340   3339   3335   3342     1  0.0000000  1.2552000  3
   3340   3339   3351   3357     1  0.0000000  0.6508444  3
   3340   3339   3351   3352     1  0.0000000  0.6508444  3
   3340   3339   3351   3353     1  0.0000000  0.6508444  3
   3341   3339   3335   3342     1  0.0000000  1.2552000  3
   3341   3339   3351   3357     1  0.0000000  0.6508444  3
   3341   3339   3351   3352     1  0.0000000  0.6508444  3
   3341   3339   3351   3353     1  0.0000000  0.6508444  3
   3342   3345   3354   3355     1  0.0000000  0.6508444  3
   3342   3345   3354   3356     1  0.0000000  0.6508444  3
   3343   3342   3345   3354     1  0.0000000  0.6508444  3
   3343   3342   3345   3346     1  0.0000000  0.6508444  3
   3343   3342   3345   3347     1  0.0000000  0.6508444  3
   3344   3342   3345   3354     1  0.0000000  0.6508444  3
   3344   3342   3345   3346     1  0.0000000  0.6508444  3
   3344   3342   3345   3347     1  0.0000000  0.6508444  3
   3346   3345   3354   3363     1  0.0000000  1.0460000  1
   3346   3345   3354   3363     1  0.0000000  0.0000000  3
   3346   3345   3354   3355     1  0.0000000  0.6508444  3
   3346   3345   3354   3356     1  0.0000000  0.6508444  3
   3347   3345   3354   3363     1  0.0000000  1.0460000  1
   3347   3345   3354   3363     1  0.0000000  0.0000000  3
   3347   3345   3354   3355     1  0.0000000  0.6508444  3
   3347   3345   3354   3356     1  0.0000000  0.6508444  3
   3349   3348   3360   6785     1  0.0000000  1.0460000  1
   3349   3348   3360   6785     1  0.0000000  0.0000000  3
   3349   3348   3360   3361     1  0.0000000  0.6508444  3
   3349   3348   3360   3362     1  0.0000000  0.6508444  3
   3350   3348   3360   6785     1  0.0000000  1.0460000  1
   3350   3348   3360   6785     1  0.0000000  0.0000000  3
   3350   3348   3360   3361     1  0.0000000  0.6508444  3
   3350   3348   3360   3362     1  0.0000000  0.6508444  3
   3352   3351   3357   6756     1  0.0000000  1.0460000  1
   3352   3351   3357   6756     1  0.0000000  0.0000000  3
   3352   3351   3357   3358     1  0.0000000  0.6508444  3
   3352   3351   3357   3359     1  0.0000000  0.6508444  3
   3353   3351   3357   6756     1  0.0000000  1.0460000  1
   3353   3351   3357   6756     1  0.0000000  0.0000000  3
   3353   3351   3357   3358     1  0.0000000  0.6508444  3
   3353   3351   3357   3359     1  0.0000000  0.6508444  3
   3357   6756   6747   6748     1  0.0000000  1.6038667  3
   3357   6756   6747   6749     1  0.0000000  1.6038667  3
   3358   3357   6756   6747     1  0.0000000  1.6038667  3
   3359   3357   6756   6747     1  0.0000000  1.6038667  3
   3360   6785   6776   6777     1  0.0000000  1.6038667  3
   3360   6785   6776   6778     1  0.0000000  1.6038667  3
   3361   3360   6785   6776     1  0.0000000  1.6038667  3
   3362   3360   6785   6776     1  0.0000000  1.6038667  3
   3364   3365   3377   3378     1  0.0000000  0.6508444  3
   3364   3365   3377   3379     1  0.0000000  0.6508444  3
   3364   3368   3380   3381     1  0.0000000  0.6508444  3
   3364   3368   3380   3382     1  0.0000000  0.6508444  3
   3364   3371   3374   3375     1  0.0000000  0.6508444  3
   3364   3371   3374   3376     1  0.0000000  0.6508444  3
   3365   3364   3368   3369     1  0.0000000  1.2552000  3
   3365   3364   3368   3370     1  0.0000000  1.2552000  3
   3365   3364   3371   3372     1  0.0000000  1.2552000  3
   3365   3364   3371   3373     1  0.0000000  1.2552000  3
   3365   3377   3389   3390     1  0.0000000  0.6508444  3
   3365   3377   3389   3391     1  0.0000000  0.6508444  3
   3366   3365   3364   3368     1  0.0000000  1.2552000  3
   3366   3365   3364   3371     1  0.0000000  1.2552000  3
   3366   3365   3377   3389     1  0.0000000  0.6508444  3
   3366   3365   3377   3378     1  0.0000000  0.6508444  3
   3366   3365   3377   3379     1  0.0000000  0.6508444  3
   3367   3365   3364   3368     1  0.0000000  1.2552000  3
   3367   3365   3364   3371     1  0.0000000  1.2552000  3
   3367   3365   3377   3389     1  0.0000000  0.6508444  3
   3367   3365   3377   3378     1  0.0000000  0.6508444  3
   3367   3365   3377   3379     1  0.0000000  0.6508444  3
   3368   3364   3371   3372     1  0.0000000  1.2552000  3
   3368   3364   3371   3373     1  0.0000000  1.2552000  3
   3368   3380   3386   3387     1  0.0000000  0.6508444  3
   3368   3380   3386   3388     1  0.0000000  0.6508444  3
   3369   3368   3364   3371     1  0.0000000  1.2552000  3
   3369   3368   3380   3386     1  0.0000000  0.6508444  3
   3369   3368   3380   3381     1  0.0000000  0.6508444  3
   3369   3368   3380   3382     1  0.0000000  0.6508444  3
   3370   3368   3364   3371     1  0.0000000  1.2552000  3
   3370   3368   3380   3386     1  0.0000000  0.6508444  3
   3370   3368   3380   3381     1  0.0000000  0.6508444  3
   3370   3368   3380   3382     1  0.0000000  0.6508444  3
   3371   3374   3383   3384     1  0.0000000  0.6508444  3
   3371   3374   3383   3385     1  0.0000000  0.6508444  3
   3372   3371   3374   3383     1  0.0000000  0.6508444  3
   3372   3371   3374   3375     1  0.0000000  0.6508444  3
   3372   3371   3374   3376     1  0.0000000  0.6508444  3
   3373   3371   3374   3383     1  0.0000000  0.6508444  3
   3373   3371   3374   3375     1  0.0000000  0.6508444  3
   3373   3371   3374   3376     1  0.0000000  0.6508444  3
   3375   3374   3383   3392     1  0.0000000  1.0460000  1
   3375   3374   3383   3392     1  0.0000000  0.0000000  3
   3375   3374   3383   3384     1  0.0000000  0.6508444  3
   3375   3374   3383   3385     1  0.0000000  0.6508444  3
   3376   3374   3383   3392     1  0.0000000  1.0460000  1
   3376   3374   3383   3392     1  0.0000000  0.0000000  3
   3376   3374   3383   3384     1  0.0000000  0.6508444  3
   3376   3374   3383   3385     1  0.0000000  0.6508444  3
   3378   3377   3389   6843     1  0.0000000  1.0460000  1
   3378   3377   3389   6843     1  0.0000000  0.0000000  3
   3378   3377   3389   3390     1  0.0000000  0.6508444  3
   3378   3377   3389   3391     1  0.0000000  0.6508444  3
   3379   3377   3389   6843     1  0.0000000  1.0460000  1
   3379   3377   3389   6843     1  0.0000000  0.0000000  3
   3379   3377   3389   3390     1  0.0000000  0.6508444  3
   3379   3377   3389   3391     1  0.0000000  0.6508444  3
   3381   3380   3386   6814     1  0.0000000  1.0460000  1
   3381   3380   3386   6814     1  0.0000000  0.0000000  3
   3381   3380   3386   3387     1  0.0000000  0.6508444  3
   3381   3380   3386   3388     1  0.0000000  0.6508444  3
   3382   3380   3386   6814     1  0.0000000  1.0460000  1
   3382   3380   3386   6814     1  0.0000000  0.0000000  3
   3382   3380   3386   3387     1  0.0000000  0.6508444  3
   3382   3380   3386   3388     1  0.0000000  0.6508444  3
   3386   6814   6805   6806     1  0.0000000  1.6038667  3
   3386   6814   6805   6807     1  0.0000000  1.6038667  3
   3387   3386   6814   6805     1  0.0000000  1.6038667  3
   3388   3386   6814   6805     1  0.0000000  1.6038667  3
   3389   6843   6834   6835     1  0.0000000  1.6038667  3
   3389   6843   6834   6836     1  0.0000000  1.6038667  3
   3390   3389   6843   6834     1  0.0000000  1.6038667  3
   3391   3389   6843   6834     1  0.0000000  1.6038667  3
   3393   3394   3406   3407     1  0.0000000  0.6508444  3
   3393   3394   3406   3408     1  0.0000000  0.6508444  3
   3393   3397   3409   3410     1  0.0000000  0.6508444  3
   3393   3397   3409   3411     1  0.0000000  0.6508444  3
   3393   3400   3403   3404     1  0.0000000  0.6508444  3
   3393   3400   3403   3405     1  0.0000000  0.6508444  3
   3394   3393   3397   3398     1  0.0000000  1.2552000  3
   3394   3393   3397   3399     1  0.0000000  1.2552000  3
   3394   3393   3400   3401     1  0.0000000  1.2552000  3
   3394   3393   3400   3402     1  0.0000000  1.2552000  3
   3394   3406   3418   3419     1  0.0000000  0.6508444  3
   3394   3406   3418   3420     1  0.0000000  0.6508444  3
   3395   3394   3393   3397     1  0.0000000  1.2552000  3
   3395   3394   3393   3400     1  0.0000000  1.2552000  3
   3395   3394   3406   3418     1  0.0000000  0.6508444  3
   3395   3394   3406   3407     1  0.0000000  0.6508444  3
   3395   3394   3406   3408     1  0.0000000  0.6508444  3
   3396   3394   3393   3397     1  0.0000000  1.2552000  3
   3396   3394   3393   3400     1  0.0000000  1.2552000  3
   3396   3394   3406   3418     1  0.0000000  0.6508444  3
   3396   3394   3406   3407     1  0.0000000  0.6508444  3
   3396   3394   3406   3408     1  0.0000000  0.6508444  3
   3397   3393   3400   3401     1  0.0000000  1.2552000  3
   3397   3393   3400   3402     1  0.0000000  1.2552000  3
   3397   3409   3415   3416     1  0.0000000  0.6508444  3
   3397   3409   3415   3417     1  0.0000000  0.6508444  3
   3398   3397   3393   3400     1  0.0000000  1.2552000  3
   3398   3397   3409   3415     1  0.0000000  0.6508444  3
   3398   3397   3409   3410     1  0.0000000  0.6508444  3
   3398   3397   3409   3411     1  0.0000000  0.6508444  3
   3399   3397   3393   3400     1  0.0000000  1.2552000  3
   3399   3397   3409   3415     1  0.0000000  0.6508444  3
   3399   3397   3409   3410     1  0.0000000  0.6508444  3
   3399   3397   3409   3411     1  0.0000000  0.6508444  3
   3400   3403   3412   3413     1  0.0000000  0.6508444  3
   3400   3403   3412   3414     1  0.0000000  0.6508444  3
   3401   3400   3403   3412     1  0.0000000  0.6508444  3
   3401   3400   3403   3404     1  0.0000000  0.6508444  3
   3401   3400   3403   3405     1  0.0000000  0.6508444  3
   3402   3400   3403   3412     1  0.0000000  0.6508444  3
   3402   3400   3403   3404     1  0.0000000  0.6508444  3
   3402   3400   3403   3405     1  0.0000000  0.6508444  3
   3404   3403   3412   3421     1  0.0000000  1.0460000  1
   3404   3403   3412   3421     1  0.0000000  0.0000000  3
   3404   3403   3412   3413     1  0.0000000  0.6508444  3
   3404   3403   3412   3414     1  0.0000000  0.6508444  3
   3405   3403   3412   3421     1  0.0000000  1.0460000  1
   3405   3403   3412   3421     1  0.0000000  0.0000000  3
   3405   3403   3412   3413     1  0.0000000  0.6508444  3
   3405   3403   3412   3414     1  0.0000000  0.6508444  3
   3407   3406   3418   6901     1  0.0000000  1.0460000  1
   3407   3406   3418   6901     1  0.0000000  0.0000000  3
   3407   3406   3418   3419     1  0.0000000  0.6508444  3
   3407   3406   3418   3420     1  0.0000000  0.6508444  3
   3408   3406   3418   6901     1  0.0000000  1.0460000  1
   3408   3406   3418   6901     1  0.0000000  0.0000000  3
   3408   3406   3418   3419     1  0.0000000  0.6508444  3
   3408   3406   3418   3420     1  0.0000000  0.6508444  3
   3410   3409   3415   6872     1  0.0000000  1.0460000  1
   3410   3409   3415   6872     1  0.0000000  0.0000000  3
   3410   3409   3415   3416     1  0.0000000  0.6508444  3
   3410   3409   3415   3417     1  0.0000000  0.6508444  3
   3411   3409   3415   6872     1  0.0000000  1.0460000  1
   3411   3409   3415   6872     1  0.0000000  0.0000000  3
   3411   3409   3415   3416     1  0.0000000  0.6508444  3
   3411   3409   3415   3417     1  0.0000000  0.6508444  3
   3415   6872   6863   6864     1  0.0000000  1.6038667  3
   3415   6872   6863   6865     1  0.0000000  1.6038667  3
   3416   3415   6872   6863     1  0.0000000  1.6038667  3
   3417   3415   6872   6863     1  0.0000000  1.6038667  3
   3418   6901   6892   6893     1  0.0000000  1.6038667  3
   3418   6901   6892   6894     1  0.0000000  1.6038667  3
   3419   3418   6901   6892     1  0.0000000  1.6038667  3
   3420   3418   6901   6892     1  0.0000000  1.6038667  3
   3422   3423   3435   3436     1  0.0000000  0.6508444  3
   3422   3423   3435   3437     1  0.0000000  0.6508444  3
   3422   3426   3438   3439     1  0.0000000  0.6508444  3
   3422   3426   3438   3440     1  0.0000000  0.6508444  3
   3422   3429   3432   3433     1  0.0000000  0.6508444  3
   3422   3429   3432   3434     1  0.0000000  0.6508444  3
   3423   3422   3426   3427     1  0.0000000  1.2552000  3
   3423   3422   3426   3428     1  0.0000000  1.2552000  3
   3423   3422   3429   3430     1  0.0000000  1.2552000  3
   3423   3422   3429   3431     1  0.0000000  1.2552000  3
   3423   3435   3447   3448     1  0.0000000  0.6508444  3
   3423   3435   3447   3449     1  0.0000000  0.6508444  3
   3424   3423   3422   3426     1  0.0000000  1.2552000  3
   3424   3423   3422   3429     1  0.0000000  1.2552000  3
   3424   3423   3435   3447     1  0.0000000  0.6508444  3
   3424   3423   3435   3436     1  0.0000000  0.6508444  3
   3424   3423   3435   3437     1  0.0000000  0.6508444  3
   3425   3423   3422   3426     1  0.0000000  1.2552000  3
   3425   3423   3422   3429     1  0.0000000  1.2552000  3
   3425   3423   3435   3447     1  0.0000000  0.6508444  3
   3425   3423   3435   3436     1  0.0000000  0.6508444  3
   3425   3423   3435   3437     1  0.0000000  0.6508444  3
   3426   3422   3429   3430     1  0.0000000  1.2552000  3
   3426   3422   3429   3431     1  0.0000000  1.2552000  3
   3426   3438   3444   3445     1  0.0000000  0.6508444  3
   3426   3438   3444   3446     1  0.0000000  0.6508444  3
   3427   3426   3422   3429     1  0.0000000  1.2552000  3
   3427   3426   3438   3444     1  0.0000000  0.6508444  3
   3427   3426   3438   3439     1  0.0000000  0.6508444  3
   3427   3426   3438   3440     1  0.0000000  0.6508444  3
   3428   3426   3422   3429     1  0.0000000  1.2552000  3
   3428   3426   3438   3444     1  0.0000000  0.6508444  3
   3428   3426   3438   3439     1  0.0000000  0.6508444  3
   3428   3426   3438   3440     1  0.0000000  0.6508444  3
   3429   3432   3441   3442     1  0.0000000  0.6508444  3
   3429   3432   3441   3443     1  0.0000000  0.6508444  3
   3430   3429   3432   3441     1  0.0000000  0.6508444  3
   3430   3429   3432   3433     1  0.0000000  0.6508444  3
   3430   3429   3432   3434     1  0.0000000  0.6508444  3
   3431   3429   3432   3441     1  0.0000000  0.6508444  3
   3431   3429   3432   3433     1  0.0000000  0.6508444  3
   3431   3429   3432   3434     1  0.0000000  0.6508444  3
   3433   3432   3441   3450     1  0.0000000  1.0460000  1
   3433   3432   3441   3450     1  0.0000000  0.0000000  3
   3433   3432   3441   3442     1  0.0000000  0.6508444  3
   3433   3432   3441   3443     1  0.0000000  0.6508444  3
   3434   3432   3441   3450     1  0.0000000  1.0460000  1
   3434   3432   3441   3450     1  0.0000000  0.0000000  3
   3434   3432   3441   3442     1  0.0000000  0.6508444  3
   3434   3432   3441   3443     1  0.0000000  0.6508444  3
   3436   3435   3447   6959     1  0.0000000  1.0460000  1
   3436   3435   3447   6959     1  0.0000000  0.0000000  3
   3436   3435   3447   3448     1  0.0000000  0.6508444  3
   3436   3435   3447   3449     1  0.0000000  0.6508444  3
   3437   3435   3447   6959     1  0.0000000  1.0460000  1
   3437   3435   3447   6959     1  0.0000000  0.0000000  3
   3437   3435   3447   3448     1  0.0000000  0.6508444  3
   3437   3435   3447   3449     1  0.0000000  0.6508444  3
   3439   3438   3444   6930     1  0.0000000  1.0460000  1
   3439   3438   3444   6930     1  0.0000000  0.0000000  3
   3439   3438   3444   3445     1  0.0000000  0.6508444  3
   3439   3438   3444   3446     1  0.0000000  0.6508444  3
   3440   3438   3444   6930     1  0.0000000  1.0460000  1
   3440   3438   3444   6930     1  0.0000000  0.0000000  3
   3440   3438   3444   3445     1  0.0000000  0.6508444  3
   3440   3438   3444   3446     1  0.0000000  0.6508444  3
   3444   6930   6921   6922     1  0.0000000  1.6038667  3
   3444   6930   6921   6923     1  0.0000000  1.6038667  3
   3445   3444   6930   6921     1  0.0000000  1.6038667  3
   3446   3444   6930   6921     1  0.0000000  1.6038667  3
   3447   6959   6950   6951     1  0.0000000  1.6038667  3
   3447   6959   6950   6952     1  0.0000000  1.6038667  3
   3448   3447   6959   6950     1  0.0000000  1.6038667  3
   3449   3447   6959   6950     1  0.0000000  1.6038667  3
   3451   3452   3464   3465     1  0.0000000  0.6508444  3
   3451   3452   3464   3466     1  0.0000000  0.6508444  3
   3451   3455   3467   3468     1  0.0000000  0.6508444  3
   3451   3455   3467   3469     1  0.0000000  0.6508444  3
   3451   3458   3461   3462     1  0.0000000  0.6508444  3
   3451   3458   3461   3463     1  0.0000000  0.6508444  3
   3452   3451   3455   3456     1  0.0000000  1.2552000  3
   3452   3451   3455   3457     1  0.0000000  1.2552000  3
   3452   3451   3458   3459     1  0.0000000  1.2552000  3
   3452   3451   3458   3460     1  0.0000000  1.2552000  3
   3452   3464   3476   3477     1  0.0000000  0.6508444  3
   3452   3464   3476   3478     1  0.0000000  0.6508444  3
   3453   3452   3451   3455     1  0.0000000  1.2552000  3
   3453   3452   3451   3458     1  0.0000000  1.2552000  3
   3453   3452   3464   3476     1  0.0000000  0.6508444  3
   3453   3452   3464   3465     1  0.0000000  0.6508444  3
   3453   3452   3464   3466     1  0.0000000  0.6508444  3
   3454   3452   3451   3455     1  0.0000000  1.2552000  3
   3454   3452   3451   3458     1  0.0000000  1.2552000  3
   3454   3452   3464   3476     1  0.0000000  0.6508444  3
   3454   3452   3464   3465     1  0.0000000  0.6508444  3
   3454   3452   3464   3466     1  0.0000000  0.6508444  3
   3455   3451   3458   3459     1  0.0000000  1.2552000  3
   3455   3451   3458   3460     1  0.0000000  1.2552000  3
   3455   3467   3473   3474     1  0.0000000  0.6508444  3
   3455   3467   3473   3475     1  0.0000000  0.6508444  3
   3456   3455   3451   3458     1  0.0000000  1.2552000  3
   3456   3455   3467   3473     1  0.0000000  0.6508444  3
   3456   3455   3467   3468     1  0.0000000  0.6508444  3
   3456   3455   3467   3469     1  0.0000000  0.6508444  3
   3457   3455   3451   3458     1  0.0000000  1.2552000  3
   3457   3455   3467   3473     1  0.0000000  0.6508444  3
   3457   3455   3467   3468     1  0.0000000  0.6508444  3
   3457   3455   3467   3469     1  0.0000000  0.6508444  3
   3458   3461   3470   3471     1  0.0000000  0.6508444  3
   3458   3461   3470   3472     1  0.0000000  0.6508444  3
   3459   3458   3461   3470     1  0.0000000  0.6508444  3
   3459   3458   3461   3462     1  0.0000000  0.6508444  3
   3459   3458   3461   3463     1  0.0000000  0.6508444  3
   3460   3458   3461   3470     1  0.0000000  0.6508444  3
   3460   3458   3461   3462     1  0.0000000  0.6508444  3
   3460   3458   3461   3463     1  0.0000000  0.6508444  3
   3462   3461   3470   3479     1  0.0000000  1.0460000  1
   3462   3461   3470   3479     1  0.0000000  0.0000000  3
   3462   3461   3470   3471     1  0.0000000  0.6508444  3
   3462   3461   3470   3472     1  0.0000000  0.6508444  3
   3463   3461   3470   3479     1  0.0000000  1.0460000  1
   3463   3461   3470   3479     1  0.0000000  0.0000000  3
   3463   3461   3470   3471     1  0.0000000  0.6508444  3
   3463   3461   3470   3472     1  0.0000000  0.6508444  3
   3465   3464   3476   7017     1  0.0000000  1.0460000  1
   3465   3464   3476   7017     1  0.0000000  0.0000000  3
   3465   3464   3476   3477     1  0.0000000  0.6508444  3
   3465   3464   3476   3478     1  0.0000000  0.6508444  3
   3466   3464   3476   7017     1  0.0000000  1.0460000  1
   3466   3464   3476   7017     1  0.0000000  0.0000000  3
   3466   3464   3476   3477     1  0.0000000  0.6508444  3
   3466   3464   3476   3478     1  0.0000000  0.6508444  3
   3468   3467   3473   6988     1  0.0000000  1.0460000  1
   3468   3467   3473   6988     1  0.0000000  0.0000000  3
   3468   3467   3473   3474     1  0.0000000  0.6508444  3
   3468   3467   3473   3475     1  0.0000000  0.6508444  3
   3469   3467   3473   6988     1  0.0000000  1.0460000  1
   3469   3467   3473   6988     1  0.0000000  0.0000000  3
   3469   3467   3473   3474     1  0.0000000  0.6508444  3
   3469   3467   3473   3475     1  0.0000000  0.6508444  3
   3473   6988   6979   6980     1  0.0000000  1.6038667  3
   3473   6988   6979   6981     1  0.0000000  1.6038667  3
   3474   3473   6988   6979     1  0.0000000  1.6038667  3
   3475   3473   6988   6979     1  0.0000000  1.6038667  3
   3476   7017   7008   7009     1  0.0000000  1.6038667  3
   3476   7017   7008   7010     1  0.0000000  1.6038667  3
   3477   3476   7017   7008     1  0.0000000  1.6038667  3
   3478   3476   7017   7008     1  0.0000000  1.6038667  3
   3480   3481   3493   3494     1  0.0000000  0.6508444  3
   3480   3481   3493   3495     1  0.0000000  0.6508444  3
   3480   3484   3496   3497     1  0.0000000  0.6508444  3
   3480   3484   3496   3498     1  0.0000000  0.6508444  3
   3480   3487   3490   3491     1  0.0000000  0.6508444  3
   3480   3487   3490   3492     1  0.0000000  0.6508444  3
   3481   3480   3484   3485     1  0.0000000  1.2552000  3
   3481   3480   3484   3486     1  0.0000000  1.2552000  3
   3481   3480   3487   3488     1  0.0000000  1.2552000  3
   3481   3480   3487   3489     1  0.0000000  1.2552000  3
   3481   3493   3505   3506     1  0.0000000  0.6508444  3
   3481   3493   3505   3507     1  0.0000000  0.6508444  3
   3482   3481   3480   3484     1  0.0000000  1.2552000  3
   3482   3481   3480   3487     1  0.0000000  1.2552000  3
   3482   3481   3493   3505     1  0.0000000  0.6508444  3
   3482   3481   3493   3494     1  0.0000000  0.6508444  3
   3482   3481   3493   3495     1  0.0000000  0.6508444  3
   3483   3481   3480   3484     1  0.0000000  1.2552000  3
   3483   3481   3480   3487     1  0.0000000  1.2552000  3
   3483   3481   3493   3505     1  0.0000000  0.6508444  3
   3483   3481   3493   3494     1  0.0000000  0.6508444  3
   3483   3481   3493   3495     1  0.0000000  0.6508444  3
   3484   3480   3487   3488     1  0.0000000  1.2552000  3
   3484   3480   3487   3489     1  0.0000000  1.2552000  3
   3484   3496   3502   3503     1  0.0000000  0.6508444  3
   3484   3496   3502   3504     1  0.0000000  0.6508444  3
   3485   3484   3480   3487     1  0.0000000  1.2552000  3
   3485   3484   3496   3502     1  0.0000000  0.6508444  3
   3485   3484   3496   3497     1  0.0000000  0.6508444  3
   3485   3484   3496   3498     1  0.0000000  0.6508444  3
   3486   3484   3480   3487     1  0.0000000  1.2552000  3
   3486   3484   3496   3502     1  0.0000000  0.6508444  3
   3486   3484   3496   3497     1  0.0000000  0.6508444  3
   3486   3484   3496   3498     1  0.0000000  0.6508444  3
   3487   3490   3499   3500     1  0.0000000  0.6508444  3
   3487   3490   3499   3501     1  0.0000000  0.6508444  3
   3488   3487   3490   3499     1  0.0000000  0.6508444  3
   3488   3487   3490   3491     1  0.0000000  0.6508444  3
   3488   3487   3490   3492     1  0.0000000  0.6508444  3
   3489   3487   3490   3499     1  0.0000000  0.6508444  3
   3489   3487   3490   3491     1  0.0000000  0.6508444  3
   3489   3487   3490   3492     1  0.0000000  0.6508444  3
   3491   3490   3499   3508     1  0.0000000  1.0460000  1
   3491   3490   3499   3508     1  0.0000000  0.0000000  3
   3491   3490   3499   3500     1  0.0000000  0.6508444  3
   3491   3490   3499   3501     1  0.0000000  0.6508444  3
   3492   3490   3499   3508     1  0.0000000  1.0460000  1
   3492   3490   3499   3508     1  0.0000000  0.0000000  3
   3492   3490   3499   3500     1  0.0000000  0.6508444  3
   3492   3490   3499   3501     1  0.0000000  0.6508444  3
   3494   3493   3505   7075     1  0.0000000  1.0460000  1
   3494   3493   3505   7075     1  0.0000000  0.0000000  3
   3494   3493   3505   3506     1  0.0000000  0.6508444  3
   3494   3493   3505   3507     1  0.0000000  0.6508444  3
   3495   3493   3505   7075     1  0.0000000  1.0460000  1
   3495   3493   3505   7075     1  0.0000000  0.0000000  3
   3495   3493   3505   3506     1  0.0000000  0.6508444  3
   3495   3493   3505   3507     1  0.0000000  0.6508444  3
   3497   3496   3502   7046     1  0.0000000  1.0460000  1
   3497   3496   3502   7046     1  0.0000000  0.0000000  3
   3497   3496   3502   3503     1  0.0000000  0.6508444  3
   3497   3496   3502   3504     1  0.0000000  0.6508444  3
   3498   3496   3502   7046     1  0.0000000  1.0460000  1
   3498   3496   3502   7046     1  0.0000000  0.0000000  3
   3498   3496   3502   3503     1  0.0000000  0.6508444  3
   3498   3496   3502   3504     1  0.0000000  0.6508444  3
   3502   7046   7037   7038     1  0.0000000  1.6038667  3
   3502   7046   7037   7039     1  0.0000000  1.6038667  3
   3503   3502   7046   7037     1  0.0000000  1.6038667  3
   3504   3502   7046   7037     1  0.0000000  1.6038667  3
   3505   7075   7066   7067     1  0.0000000  1.6038667  3
   3505   7075   7066   7068     1  0.0000000  1.6038667  3
   3506   3505   7075   7066     1  0.0000000  1.6038667  3
   3507   3505   7075   7066     1  0.0000000  1.6038667  3
   3509   3510   3522   3523     1  0.0000000  0.6508444  3
   3509   3510   3522   3524     1  0.0000000  0.6508444  3
   3509   3513   3525   3526     1  0.0000000  0.6508444  3
   3509   3513   3525   3527     1  0.0000000  0.6508444  3
   3509   3516   3519   3520     1  0.0000000  0.6508444  3
   3509   3516   3519   3521     1  0.0000000  0.6508444  3
   3510   3509   3513   3514     1  0.0000000  1.2552000  3
   3510   3509   3513   3515     1  0.0000000  1.2552000  3
   3510   3509   3516   3517     1  0.0000000  1.2552000  3
   3510   3509   3516   3518     1  0.0000000  1.2552000  3
   3510   3522   3534   3535     1  0.0000000  0.6508444  3
   3510   3522   3534   3536     1  0.0000000  0.6508444  3
   3511   3510   3509   3513     1  0.0000000  1.2552000  3
   3511   3510   3509   3516     1  0.0000000  1.2552000  3
   3511   3510   3522   3534     1  0.0000000  0.6508444  3
   3511   3510   3522   3523     1  0.0000000  0.6508444  3
   3511   3510   3522   3524     1  0.0000000  0.6508444  3
   3512   3510   3509   3513     1  0.0000000  1.2552000  3
   3512   3510   3509   3516     1  0.0000000  1.2552000  3
   3512   3510   3522   3534     1  0.0000000  0.6508444  3
   3512   3510   3522   3523     1  0.0000000  0.6508444  3
   3512   3510   3522   3524     1  0.0000000  0.6508444  3
   3513   3509   3516   3517     1  0.0000000  1.2552000  3
   3513   3509   3516   3518     1  0.0000000  1.2552000  3
   3513   3525   3531   3532     1  0.0000000  0.6508444  3
   3513   3525   3531   3533     1  0.0000000  0.6508444  3
   3514   3513   3509   3516     1  0.0000000  1.2552000  3
   3514   3513   3525   3531     1  0.0000000  0.6508444  3
   3514   3513   3525   3526     1  0.0000000  0.6508444  3
   3514   3513   3525   3527     1  0.0000000  0.6508444  3
   3515   3513   3509   3516     1  0.0000000  1.2552000  3
   3515   3513   3525   3531     1  0.0000000  0.6508444  3
   3515   3513   3525   3526     1  0.0000000  0.6508444  3
   3515   3513   3525   3527     1  0.0000000  0.6508444  3
   3516   3519   3528   3529     1  0.0000000  0.6508444  3
   3516   3519   3528   3530     1  0.0000000  0.6508444  3
   3517   3516   3519   3528     1  0.0000000  0.6508444  3
   3517   3516   3519   3520     1  0.0000000  0.6508444  3
   3517   3516   3519   3521     1  0.0000000  0.6508444  3
   3518   3516   3519   3528     1  0.0000000  0.6508444  3
   3518   3516   3519   3520     1  0.0000000  0.6508444  3
   3518   3516   3519   3521     1  0.0000000  0.6508444  3
   3520   3519   3528   3537     1  0.0000000  1.0460000  1
   3520   3519   3528   3537     1  0.0000000  0.0000000  3
   3520   3519   3528   3529     1  0.0000000  0.6508444  3
   3520   3519   3528   3530     1  0.0000000  0.6508444  3
   3521   3519   3528   3537     1  0.0000000  1.0460000  1
   3521   3519   3528   3537     1  0.0000000  0.0000000  3
   3521   3519   3528   3529     1  0.0000000  0.6508444  3
   3521   3519   3528   3530     1  0.0000000  0.6508444  3
   3523   3522   3534   7133     1  0.0000000  1.0460000  1
   3523   3522   3534   7133     1  0.0000000  0.0000000  3
   3523   3522   3534   3535     1  0.0000000  0.6508444  3
   3523   3522   3534   3536     1  0.0000000  0.6508444  3
   3524   3522   3534   7133     1  0.0000000  1.0460000  1
   3524   3522   3534   7133     1  0.0000000  0.0000000  3
   3524   3522   3534   3535     1  0.0000000  0.6508444  3
   3524   3522   3534   3536     1  0.0000000  0.6508444  3
   3526   3525   3531   7104     1  0.0000000  1.0460000  1
   3526   3525   3531   7104     1  0.0000000  0.0000000  3
   3526   3525   3531   3532     1  0.0000000  0.6508444  3
   3526   3525   3531   3533     1  0.0000000  0.6508444  3
   3527   3525   3531   7104     1  0.0000000  1.0460000  1
   3527   3525   3531   7104     1  0.0000000  0.0000000  3
   3527   3525   3531   3532     1  0.0000000  0.6508444  3
   3527   3525   3531   3533     1  0.0000000  0.6508444  3
   3531   7104   7095   7096     1  0.0000000  1.6038667  3
   3531   7104   7095   7097     1  0.0000000  1.6038667  3
   3532   3531   7104   7095     1  0.0000000  1.6038667  3
   3533   3531   7104   7095     1  0.0000000  1.6038667  3
   3534   7133   7124   7125     1  0.0000000  1.6038667  3
   3534   7133   7124   7126     1  0.0000000  1.6038667  3
   3535   3534   7133   7124     1  0.0000000  1.6038667  3
   3536   3534   7133   7124     1  0.0000000  1.6038667  3
   3538   3539   3551   3552     1  0.0000000  0.6508444  3
   3538   3539   3551   3553     1  0.0000000  0.6508444  3
   3538   3542   3554   3555     1  0.0000000  0.6508444  3
   3538   3542   3554   3556     1  0.0000000  0.6508444  3
   3538   3545   3548   3549     1  0.0000000  0.6508444  3
   3538   3545   3548   3550     1  0.0000000  0.6508444  3
   3539   3538   3542   3543     1  0.0000000  1.2552000  3
   3539   3538   3542   3544     1  0.0000000  1.2552000  3
   3539   3538   3545   3546     1  0.0000000  1.2552000  3
   3539   3538   3545   3547     1  0.0000000  1.2552000  3
   3539   3551   3563   3564     1  0.0000000  0.6508444  3
   3539   3551   3563   3565     1  0.0000000  0.6508444  3
   3540   3539   3538   3542     1  0.0000000  1.2552000  3
   3540   3539   3538   3545     1  0.0000000  1.2552000  3
   3540   3539   3551   3563     1  0.0000000  0.6508444  3
   3540   3539   3551   3552     1  0.0000000  0.6508444  3
   3540   3539   3551   3553     1  0.0000000  0.6508444  3
   3541   3539   3538   3542     1  0.0000000  1.2552000  3
   3541   3539   3538   3545     1  0.0000000  1.2552000  3
   3541   3539   3551   3563     1  0.0000000  0.6508444  3
   3541   3539   3551   3552     1  0.0000000  0.6508444  3
   3541   3539   3551   3553     1  0.0000000  0.6508444  3
   3542   3538   3545   3546     1  0.0000000  1.2552000  3
   3542   3538   3545   3547     1  0.0000000  1.2552000  3
   3542   3554   3560   3561     1  0.0000000  0.6508444  3
   3542   3554   3560   3562     1  0.0000000  0.6508444  3
   3543   3542   3538   3545     1  0.0000000  1.2552000  3
   3543   3542   3554   3560     1  0.0000000  0.6508444  3
   3543   3542   3554   3555     1  0.0000000  0.6508444  3
   3543   3542   3554   3556     1  0.0000000  0.6508444  3
   3544   3542   3538   3545     1  0.0000000  1.2552000  3
   3544   3542   3554   3560     1  0.0000000  0.6508444  3
   3544   3542   3554   3555     1  0.0000000  0.6508444  3
   3544   3542   3554   3556     1  0.0000000  0.6508444  3
   3545   3548   3557   3558     1  0.0000000  0.6508444  3
   3545   3548   3557   3559     1  0.0000000  0.6508444  3
   3546   3545   3548   3557     1  0.0000000  0.6508444  3
   3546   3545   3548   3549     1  0.0000000  0.6508444  3
   3546   3545   3548   3550     1  0.0000000  0.6508444  3
   3547   3545   3548   3557     1  0.0000000  0.6508444  3
   3547   3545   3548   3549     1  0.0000000  0.6508444  3
   3547   3545   3548   3550     1  0.0000000  0.6508444  3
   3549   3548   3557   3566     1  0.0000000  1.0460000  1
   3549   3548   3557   3566     1  0.0000000  0.0000000  3
   3549   3548   3557   3558     1  0.0000000  0.6508444  3
   3549   3548   3557   3559     1  0.0000000  0.6508444  3
   3550   3548   3557   3566     1  0.0000000  1.0460000  1
   3550   3548   3557   3566     1  0.0000000  0.0000000  3
   3550   3548   3557   3558     1  0.0000000  0.6508444  3
   3550   3548   3557   3559     1  0.0000000  0.6508444  3
   3552   3551   3563   7191     1  0.0000000  1.0460000  1
   3552   3551   3563   7191     1  0.0000000  0.0000000  3
   3552   3551   3563   3564     1  0.0000000  0.6508444  3
   3552   3551   3563   3565     1  0.0000000  0.6508444  3
   3553   3551   3563   7191     1  0.0000000  1.0460000  1
   3553   3551   3563   7191     1  0.0000000  0.0000000  3
   3553   3551   3563   3564     1  0.0000000  0.6508444  3
   3553   3551   3563   3565     1  0.0000000  0.6508444  3
   3555   3554   3560   7162     1  0.0000000  1.0460000  1
   3555   3554   3560   7162     1  0.0000000  0.0000000  3
   3555   3554   3560   3561     1  0.0000000  0.6508444  3
   3555   3554   3560   3562     1  0.0000000  0.6508444  3
   3556   3554   3560   7162     1  0.0000000  1.0460000  1
   3556   3554   3560   7162     1  0.0000000  0.0000000  3
   3556   3554   3560   3561     1  0.0000000  0.6508444  3
   3556   3554   3560   3562     1  0.0000000  0.6508444  3
   3560   7162   7153   7154     1  0.0000000  1.6038667  3
   3560   7162   7153   7155     1  0.0000000  1.6038667  3
   3561   3560   7162   7153     1  0.0000000  1.6038667  3
   3562   3560   7162   7153     1  0.0000000  1.6038667  3
   3563   7191   7182   7183     1  0.0000000  1.6038667  3
   3563   7191   7182   7184     1  0.0000000  1.6038667  3
   3564   3563   7191   7182     1  0.0000000  1.6038667  3
   3565   3563   7191   7182     1  0.0000000  1.6038667  3
   3567   3568   3580   3581     1  0.0000000  0.6508444  3
   3567   3568   3580   3582     1  0.0000000  0.6508444  3
   3567   3571   3583   3584     1  0.0000000  0.6508444  3
   3567   3571   3583   3585     1  0.0000000  0.6508444  3
   3567   3574   3577   3578     1  0.0000000  0.6508444  3
   3567   3574   3577   3579     1  0.0000000  0.6508444  3
   3568   3567   3571   3572     1  0.0000000  1.2552000  3
   3568   3567   3571   3573     1  0.0000000  1.2552000  3
   3568   3567   3574   3575     1  0.0000000  1.2552000  3
   3568   3567   3574   3576     1  0.0000000  1.2552000  3
   3568   3580   3592   3593     1  0.0000000  0.6508444  3
   3568   3580   3592   3594     1  0.0000000  0.6508444  3
   3569   3568   3567   3571     1  0.0000000  1.2552000  3
   3569   3568   3567   3574     1  0.0000000  1.2552000  3
   3569   3568   3580   3592     1  0.0000000  0.6508444  3
   3569   3568   3580   3581     1  0.0000000  0.6508444  3
   3569   3568   3580   3582     1  0.0000000  0.6508444  3
   3570   3568   3567   3571     1  0.0000000  1.2552000  3
   3570   3568   3567   3574     1  0.0000000  1.2552000  3
   3570   3568   3580   3592     1  0.0000000  0.6508444  3
   3570   3568   3580   3581     1  0.0000000  0.6508444  3
   3570   3568   3580   3582     1  0.0000000  0.6508444  3
   3571   3567   3574   3575     1  0.0000000  1.2552000  3
   3571   3567   3574   3576     1  0.0000000  1.2552000  3
   3571   3583   3589   3590     1  0.0000000  0.6508444  3
   3571   3583   3589   3591     1  0.0000000  0.6508444  3
   3572   3571   3567   3574     1  0.0000000  1.2552000  3
   3572   3571   3583   3589     1  0.0000000  0.6508444  3
   3572   3571   3583   3584     1  0.0000000  0.6508444  3
   3572   3571   3583   3585     1  0.0000000  0.6508444  3
   3573   3571   3567   3574     1  0.0000000  1.2552000  3
   3573   3571   3583   3589     1  0.0000000  0.6508444  3
   3573   3571   3583   3584     1  0.0000000  0.6508444  3
   3573   3571   3583   3585     1  0.0000000  0.6508444  3
   3574   3577   3586   3587     1  0.0000000  0.6508444  3
   3574   3577   3586   3588     1  0.0000000  0.6508444  3
   3575   3574   3577   3586     1  0.0000000  0.6508444  3
   3575   3574   3577   3578     1  0.0000000  0.6508444  3
   3575   3574   3577   3579     1  0.0000000  0.6508444  3
   3576   3574   3577   3586     1  0.0000000  0.6508444  3
   3576   3574   3577   3578     1  0.0000000  0.6508444  3
   3576   3574   3577   3579     1  0.0000000  0.6508444  3
   3578   3577   3586   3595     1  0.0000000  1.0460000  1
   3578   3577   3586   3595     1  0.0000000  0.0000000  3
   3578   3577   3586   3587     1  0.0000000  0.6508444  3
   3578   3577   3586   3588     1  0.0000000  0.6508444  3
   3579   3577   3586   3595     1  0.0000000  1.0460000  1
   3579   3577   3586   3595     1  0.0000000  0.0000000  3
   3579   3577   3586   3587     1  0.0000000  0.6508444  3
   3579   3577   3586   3588     1  0.0000000  0.6508444  3
   3581   3580   3592   7249     1  0.0000000  1.0460000  1
   3581   3580   3592   7249     1  0.0000000  0.0000000  3
   3581   3580   3592   3593     1  0.0000000  0.6508444  3
   3581   3580   3592   3594     1  0.0000000  0.6508444  3
   3582   3580   3592   7249     1  0.0000000  1.0460000  1
   3582   3580   3592   7249     1  0.0000000  0.0000000  3
   3582   3580   3592   3593     1  0.0000000  0.6508444  3
   3582   3580   3592   3594     1  0.0000000  0.6508444  3
   3584   3583   3589   7220     1  0.0000000  1.0460000  1
   3584   3583   3589   7220     1  0.0000000  0.0000000  3
   3584   3583   3589   3590     1  0.0000000  0.6508444  3
   3584   3583   3589   3591     1  0.0000000  0.6508444  3
   3585   3583   3589   7220     1  0.0000000  1.0460000  1
   3585   3583   3589   7220     1  0.0000000  0.0000000  3
   3585   3583   3589   3590     1  0.0000000  0.6508444  3
   3585   3583   3589   3591     1  0.0000000  0.6508444  3
   3589   7220   7211   7212     1  0.0000000  1.6038667  3
   3589   7220   7211   7213     1  0.0000000  1.6038667  3
   3590   3589   7220   7211     1  0.0000000  1.6038667  3
   3591   3589   7220   7211     1  0.0000000  1.6038667  3
   3592   7249   7240   7241     1  0.0000000  1.6038667  3
   3592   7249   7240   7242     1  0.0000000  1.6038667  3
   3593   3592   7249   7240     1  0.0000000  1.6038667  3
   3594   3592   7249   7240     1  0.0000000  1.6038667  3
   3596   3597   3609   3610     1  0.0000000  0.6508444  3
   3596   3597   3609   3611     1  0.0000000  0.6508444  3
   3596   3600   3612   3613     1  0.0000000  0.6508444  3
   3596   3600   3612   3614     1  0.0000000  0.6508444  3
   3596   3603   3606   3607     1  0.0000000  0.6508444  3
   3596   3603   3606   3608     1  0.0000000  0.6508444  3
   3597   3596   3600   3601     1  0.0000000  1.2552000  3
   3597   3596   3600   3602     1  0.0000000  1.2552000  3
   3597   3596   3603   3604     1  0.0000000  1.2552000  3
   3597   3596   3603   3605     1  0.0000000  1.2552000  3
   3597   3609   3621   3622     1  0.0000000  0.6508444  3
   3597   3609   3621   3623     1  0.0000000  0.6508444  3
   3598   3597   3596   3600     1  0.0000000  1.2552000  3
   3598   3597   3596   3603     1  0.0000000  1.2552000  3
   3598   3597   3609   3621     1  0.0000000  0.6508444  3
   3598   3597   3609   3610     1  0.0000000  0.6508444  3
   3598   3597   3609   3611     1  0.0000000  0.6508444  3
   3599   3597   3596   3600     1  0.0000000  1.2552000  3
   3599   3597   3596   3603     1  0.0000000  1.2552000  3
   3599   3597   3609   3621     1  0.0000000  0.6508444  3
   3599   3597   3609   3610     1  0.0000000  0.6508444  3
   3599   3597   3609   3611     1  0.0000000  0.6508444  3
   3600   3596   3603   3604     1  0.0000000  1.2552000  3
   3600   3596   3603   3605     1  0.0000000  1.2552000  3
   3600   3612   3618   3619     1  0.0000000  0.6508444  3
   3600   3612   3618   3620     1  0.0000000  0.6508444  3
   3601   3600   3596   3603     1  0.0000000  1.2552000  3
   3601   3600   3612   3618     1  0.0000000  0.6508444  3
   3601   3600   3612   3613     1  0.0000000  0.6508444  3
   3601   3600   3612   3614     1  0.0000000  0.6508444  3
   3602   3600   3596   3603     1  0.0000000  1.2552000  3
   3602   3600   3612   3618     1  0.0000000  0.6508444  3
   3602   3600   3612   3613     1  0.0000000  0.6508444  3
   3602   3600   3612   3614     1  0.0000000  0.6508444  3
   3603   3606   3615   3616     1  0.0000000  0.6508444  3
   3603   3606   3615   3617     1  0.0000000  0.6508444  3
   3604   3603   3606   3615     1  0.0000000  0.6508444  3
   3604   3603   3606   3607     1  0.0000000  0.6508444  3
   3604   3603   3606   3608     1  0.0000000  0.6508444  3
   3605   3603   3606   3615     1  0.0000000  0.6508444  3
   3605   3603   3606   3607     1  0.0000000  0.6508444  3
   3605   3603   3606   3608     1  0.0000000  0.6508444  3
   3607   3606   3615   3624     1  0.0000000  1.0460000  1
   3607   3606   3615   3624     1  0.0000000  0.0000000  3
   3607   3606   3615   3616     1  0.0000000  0.6508444  3
   3607   3606   3615   3617     1  0.0000000  0.6508444  3
   3608   3606   3615   3624     1  0.0000000  1.0460000  1
   3608   3606   3615   3624     1  0.0000000  0.0000000  3
   3608   3606   3615   3616     1  0.0000000  0.6508444  3
   3608   3606   3615   3617     1  0.0000000  0.6508444  3
   3610   3609   3621   7307     1  0.0000000  1.0460000  1
   3610   3609   3621   7307     1  0.0000000  0.0000000  3
   3610   3609   3621   3622     1  0.0000000  0.6508444  3
   3610   3609   3621   3623     1  0.0000000  0.6508444  3
   3611   3609   3621   7307     1  0.0000000  1.0460000  1
   3611   3609   3621   7307     1  0.0000000  0.0000000  3
   3611   3609   3621   3622     1  0.0000000  0.6508444  3
   3611   3609   3621   3623     1  0.0000000  0.6508444  3
   3613   3612   3618   7278     1  0.0000000  1.0460000  1
   3613   3612   3618   7278     1  0.0000000  0.0000000  3
   3613   3612   3618   3619     1  0.0000000  0.6508444  3
   3613   3612   3618   3620     1  0.0000000  0.6508444  3
   3614   3612   3618   7278     1  0.0000000  1.0460000  1
   3614   3612   3618   7278     1  0.0000000  0.0000000  3
   3614   3612   3618   3619     1  0.0000000  0.6508444  3
   3614   3612   3618   3620     1  0.0000000  0.6508444  3
   3618   7278   7269   7270     1  0.0000000  1.6038667  3
   3618   7278   7269   7271     1  0.0000000  1.6038667  3
   3619   3618   7278   7269     1  0.0000000  1.6038667  3
   3620   3618   7278   7269     1  0.0000000  1.6038667  3
   3621   7307   7298   7299     1  0.0000000  1.6038667  3
   3621   7307   7298   7300     1  0.0000000  1.6038667  3
   3622   3621   7307   7298     1  0.0000000  1.6038667  3
   3623   3621   7307   7298     1  0.0000000  1.6038667  3
   3625   3626   3638   3639     1  0.0000000  0.6508444  3
   3625   3626   3638   3640     1  0.0000000  0.6508444  3
   3625   3629   3641   3642     1  0.0000000  0.6508444  3
   3625   3629   3641   3643     1  0.0000000  0.6508444  3
   3625   3632   3635   3636     1  0.0000000  0.6508444  3
   3625   3632   3635   3637     1  0.0000000  0.6508444  3
   3626   3625   3629   3630     1  0.0000000  1.2552000  3
   3626   3625   3629   3631     1  0.0000000  1.2552000  3
   3626   3625   3632   3633     1  0.0000000  1.2552000  3
   3626   3625   3632   3634     1  0.0000000  1.2552000  3
   3626   3638   3650   3651     1  0.0000000  0.6508444  3
   3626   3638   3650   3652     1  0.0000000  0.6508444  3
   3627   3626   3625   3629     1  0.0000000  1.2552000  3
   3627   3626   3625   3632     1  0.0000000  1.2552000  3
   3627   3626   3638   3650     1  0.0000000  0.6508444  3
   3627   3626   3638   3639     1  0.0000000  0.6508444  3
   3627   3626   3638   3640     1  0.0000000  0.6508444  3
   3628   3626   3625   3629     1  0.0000000  1.2552000  3
   3628   3626   3625   3632     1  0.0000000  1.2552000  3
   3628   3626   3638   3650     1  0.0000000  0.6508444  3
   3628   3626   3638   3639     1  0.0000000  0.6508444  3
   3628   3626   3638   3640     1  0.0000000  0.6508444  3
   3629   3625   3632   3633     1  0.0000000  1.2552000  3
   3629   3625   3632   3634     1  0.0000000  1.2552000  3
   3629   3641   3647   3648     1  0.0000000  0.6508444  3
   3629   3641   3647   3649     1  0.0000000  0.6508444  3
   3630   3629   3625   3632     1  0.0000000  1.2552000  3
   3630   3629   3641   3647     1  0.0000000  0.6508444  3
   3630   3629   3641   3642     1  0.0000000  0.6508444  3
   3630   3629   3641   3643     1  0.0000000  0.6508444  3
   3631   3629   3625   3632     1  0.0000000  1.2552000  3
   3631   3629   3641   3647     1  0.0000000  0.6508444  3
   3631   3629   3641   3642     1  0.0000000  0.6508444  3
   3631   3629   3641   3643     1  0.0000000  0.6508444  3
   3632   3635   3644   3645     1  0.0000000  0.6508444  3
   3632   3635   3644   3646     1  0.0000000  0.6508444  3
   3633   3632   3635   3644     1  0.0000000  0.6508444  3
   3633   3632   3635   3636     1  0.0000000  0.6508444  3
   3633   3632   3635   3637     1  0.0000000  0.6508444  3
   3634   3632   3635   3644     1  0.0000000  0.6508444  3
   3634   3632   3635   3636     1  0.0000000  0.6508444  3
   3634   3632   3635   3637     1  0.0000000  0.6508444  3
   3636   3635   3644   3653     1  0.0000000  1.0460000  1
   3636   3635   3644   3653     1  0.0000000  0.0000000  3
   3636   3635   3644   3645     1  0.0000000  0.6508444  3
   3636   3635   3644   3646     1  0.0000000  0.6508444  3
   3637   3635   3644   3653     1  0.0000000  1.0460000  1
   3637   3635   3644   3653     1  0.0000000  0.0000000  3
   3637   3635   3644   3645     1  0.0000000  0.6508444  3
   3637   3635   3644   3646     1  0.0000000  0.6508444  3
   3639   3638   3650   7365     1  0.0000000  1.0460000  1
   3639   3638   3650   7365     1  0.0000000  0.0000000  3
   3639   3638   3650   3651     1  0.0000000  0.6508444  3
   3639   3638   3650   3652     1  0.0000000  0.6508444  3
   3640   3638   3650   7365     1  0.0000000  1.0460000  1
   3640   3638   3650   7365     1  0.0000000  0.0000000  3
   3640   3638   3650   3651     1  0.0000000  0.6508444  3
   3640   3638   3650   3652     1  0.0000000  0.6508444  3
   3642   3641   3647   7336     1  0.0000000  1.0460000  1
   3642   3641   3647   7336     1  0.0000000  0.0000000  3
   3642   3641   3647   3648     1  0.0000000  0.6508444  3
   3642   3641   3647   3649     1  0.0000000  0.6508444  3
   3643   3641   3647   7336     1  0.0000000  1.0460000  1
   3643   3641   3647   7336     1  0.0000000  0.0000000  3
   3643   3641   3647   3648     1  0.0000000  0.6508444  3
   3643   3641   3647   3649     1  0.0000000  0.6508444  3
   3647   7336   7327   7328     1  0.0000000  1.6038667  3
   3647   7336   7327   7329     1  0.0000000  1.6038667  3
   3648   3647   7336   7327     1  0.0000000  1.6038667  3
   3649   3647   7336   7327     1  0.0000000  1.6038667  3
   3650   7365   7356   7357     1  0.0000000  1.6038667  3
   3650   7365   7356   7358     1  0.0000000  1.6038667  3
   3651   3650   7365   7356     1  0.0000000  1.6038667  3
   3652   3650   7365   7356     1  0.0000000  1.6038667  3
   3654   3655   3667   3668     1  0.0000000  0.6508444  3
   3654   3655   3667   3669     1  0.0000000  0.6508444  3
   3654   3658   3670   3671     1  0.0000000  0.6508444  3
   3654   3658   3670   3672     1  0.0000000  0.6508444  3
   3654   3661   3664   3665     1  0.0000000  0.6508444  3
   3654   3661   3664   3666     1  0.0000000  0.6508444  3
   3655   3654   3658   3659     1  0.0000000  1.2552000  3
   3655   3654   3658   3660     1  0.0000000  1.2552000  3
   3655   3654   3661   3662     1  0.0000000  1.2552000  3
   3655   3654   3661   3663     1  0.0000000  1.2552000  3
   3655   3667   3679   3680     1  0.0000000  0.6508444  3
   3655   3667   3679   3681     1  0.0000000  0.6508444  3
   3656   3655   3654   3658     1  0.0000000  1.2552000  3
   3656   3655   3654   3661     1  0.0000000  1.2552000  3
   3656   3655   3667   3679     1  0.0000000  0.6508444  3
   3656   3655   3667   3668     1  0.0000000  0.6508444  3
   3656   3655   3667   3669     1  0.0000000  0.6508444  3
   3657   3655   3654   3658     1  0.0000000  1.2552000  3
   3657   3655   3654   3661     1  0.0000000  1.2552000  3
   3657   3655   3667   3679     1  0.0000000  0.6508444  3
   3657   3655   3667   3668     1  0.0000000  0.6508444  3
   3657   3655   3667   3669     1  0.0000000  0.6508444  3
   3658   3654   3661   3662     1  0.0000000  1.2552000  3
   3658   3654   3661   3663     1  0.0000000  1.2552000  3
   3658   3670   3676   3677     1  0.0000000  0.6508444  3
   3658   3670   3676   3678     1  0.0000000  0.6508444  3
   3659   3658   3654   3661     1  0.0000000  1.2552000  3
   3659   3658   3670   3676     1  0.0000000  0.6508444  3
   3659   3658   3670   3671     1  0.0000000  0.6508444  3
   3659   3658   3670   3672     1  0.0000000  0.6508444  3
   3660   3658   3654   3661     1  0.0000000  1.2552000  3
   3660   3658   3670   3676     1  0.0000000  0.6508444  3
   3660   3658   3670   3671     1  0.0000000  0.6508444  3
   3660   3658   3670   3672     1  0.0000000  0.6508444  3
   3661   3664   3673   3674     1  0.0000000  0.6508444  3
   3661   3664   3673   3675     1  0.0000000  0.6508444  3
   3662   3661   3664   3673     1  0.0000000  0.6508444  3
   3662   3661   3664   3665     1  0.0000000  0.6508444  3
   3662   3661   3664   3666     1  0.0000000  0.6508444  3
   3663   3661   3664   3673     1  0.0000000  0.6508444  3
   3663   3661   3664   3665     1  0.0000000  0.6508444  3
   3663   3661   3664   3666     1  0.0000000  0.6508444  3
   3665   3664   3673   3682     1  0.0000000  1.0460000  1
   3665   3664   3673   3682     1  0.0000000  0.0000000  3
   3665   3664   3673   3674     1  0.0000000  0.6508444  3
   3665   3664   3673   3675     1  0.0000000  0.6508444  3
   3666   3664   3673   3682     1  0.0000000  1.0460000  1
   3666   3664   3673   3682     1  0.0000000  0.0000000  3
   3666   3664   3673   3674     1  0.0000000  0.6508444  3
   3666   3664   3673   3675     1  0.0000000  0.6508444  3
   3668   3667   3679   7423     1  0.0000000  1.0460000  1
   3668   3667   3679   7423     1  0.0000000  0.0000000  3
   3668   3667   3679   3680     1  0.0000000  0.6508444  3
   3668   3667   3679   3681     1  0.0000000  0.6508444  3
   3669   3667   3679   7423     1  0.0000000  1.0460000  1
   3669   3667   3679   7423     1  0.0000000  0.0000000  3
   3669   3667   3679   3680     1  0.0000000  0.6508444  3
   3669   3667   3679   3681     1  0.0000000  0.6508444  3
   3671   3670   3676   7394     1  0.0000000  1.0460000  1
   3671   3670   3676   7394     1  0.0000000  0.0000000  3
   3671   3670   3676   3677     1  0.0000000  0.6508444  3
   3671   3670   3676   3678     1  0.0000000  0.6508444  3
   3672   3670   3676   7394     1  0.0000000  1.0460000  1
   3672   3670   3676   7394     1  0.0000000  0.0000000  3
   3672   3670   3676   3677     1  0.0000000  0.6508444  3
   3672   3670   3676   3678     1  0.0000000  0.6508444  3
   3676   7394   7385   7386     1  0.0000000  1.6038667  3
   3676   7394   7385   7387     1  0.0000000  1.6038667  3
   3677   3676   7394   7385     1  0.0000000  1.6038667  3
   3678   3676   7394   7385     1  0.0000000  1.6038667  3
   3679   7423   7414   7415     1  0.0000000  1.6038667  3
   3679   7423   7414   7416     1  0.0000000  1.6038667  3
   3680   3679   7423   7414     1  0.0000000  1.6038667  3
   3681   3679   7423   7414     1  0.0000000  1.6038667  3
   3683   3684   3696   3697     1  0.0000000  0.6508444  3
   3683   3684   3696   3698     1  0.0000000  0.6508444  3
   3683   3687   3699   3700     1  0.0000000  0.6508444  3
   3683   3687   3699   3701     1  0.0000000  0.6508444  3
   3683   3690   3693   3694     1  0.0000000  0.6508444  3
   3683   3690   3693   3695     1  0.0000000  0.6508444  3
   3684   3683   3687   3688     1  0.0000000  1.2552000  3
   3684   3683   3687   3689     1  0.0000000  1.2552000  3
   3684   3683   3690   3691     1  0.0000000  1.2552000  3
   3684   3683   3690   3692     1  0.0000000  1.2552000  3
   3684   3696   3708   3709     1  0.0000000  0.6508444  3
   3684   3696   3708   3710     1  0.0000000  0.6508444  3
   3685   3684   3683   3687     1  0.0000000  1.2552000  3
   3685   3684   3683   3690     1  0.0000000  1.2552000  3
   3685   3684   3696   3708     1  0.0000000  0.6508444  3
   3685   3684   3696   3697     1  0.0000000  0.6508444  3
   3685   3684   3696   3698     1  0.0000000  0.6508444  3
   3686   3684   3683   3687     1  0.0000000  1.2552000  3
   3686   3684   3683   3690     1  0.0000000  1.2552000  3
   3686   3684   3696   3708     1  0.0000000  0.6508444  3
   3686   3684   3696   3697     1  0.0000000  0.6508444  3
   3686   3684   3696   3698     1  0.0000000  0.6508444  3
   3687   3683   3690   3691     1  0.0000000  1.2552000  3
   3687   3683   3690   3692     1  0.0000000  1.2552000  3
   3687   3699   3705   3706     1  0.0000000  0.6508444  3
   3687   3699   3705   3707     1  0.0000000  0.6508444  3
   3688   3687   3683   3690     1  0.0000000  1.2552000  3
   3688   3687   3699   3705     1  0.0000000  0.6508444  3
   3688   3687   3699   3700     1  0.0000000  0.6508444  3
   3688   3687   3699   3701     1  0.0000000  0.6508444  3
   3689   3687   3683   3690     1  0.0000000  1.2552000  3
   3689   3687   3699   3705     1  0.0000000  0.6508444  3
   3689   3687   3699   3700     1  0.0000000  0.6508444  3
   3689   3687   3699   3701     1  0.0000000  0.6508444  3
   3690   3693   3702   3703     1  0.0000000  0.6508444  3
   3690   3693   3702   3704     1  0.0000000  0.6508444  3
   3691   3690   3693   3702     1  0.0000000  0.6508444  3
   3691   3690   3693   3694     1  0.0000000  0.6508444  3
   3691   3690   3693   3695     1  0.0000000  0.6508444  3
   3692   3690   3693   3702     1  0.0000000  0.6508444  3
   3692   3690   3693   3694     1  0.0000000  0.6508444  3
   3692   3690   3693   3695     1  0.0000000  0.6508444  3
   3694   3693   3702   3711     1  0.0000000  1.0460000  1
   3694   3693   3702   3711     1  0.0000000  0.0000000  3
   3694   3693   3702   3703     1  0.0000000  0.6508444  3
   3694   3693   3702   3704     1  0.0000000  0.6508444  3
   3695   3693   3702   3711     1  0.0000000  1.0460000  1
   3695   3693   3702   3711     1  0.0000000  0.0000000  3
   3695   3693   3702   3703     1  0.0000000  0.6508444  3
   3695   3693   3702   3704     1  0.0000000  0.6508444  3
   3697   3696   3708   7481     1  0.0000000  1.0460000  1
   3697   3696   3708   7481     1  0.0000000  0.0000000  3
   3697   3696   3708   3709     1  0.0000000  0.6508444  3
   3697   3696   3708   3710     1  0.0000000  0.6508444  3
   3698   3696   3708   7481     1  0.0000000  1.0460000  1
   3698   3696   3708   7481     1  0.0000000  0.0000000  3
   3698   3696   3708   3709     1  0.0000000  0.6508444  3
   3698   3696   3708   3710     1  0.0000000  0.6508444  3
   3700   3699   3705   7452     1  0.0000000  1.0460000  1
   3700   3699   3705   7452     1  0.0000000  0.0000000  3
   3700   3699   3705   3706     1  0.0000000  0.6508444  3
   3700   3699   3705   3707     1  0.0000000  0.6508444  3
   3701   3699   3705   7452     1  0.0000000  1.0460000  1
   3701   3699   3705   7452     1  0.0000000  0.0000000  3
   3701   3699   3705   3706     1  0.0000000  0.6508444  3
   3701   3699   3705   3707     1  0.0000000  0.6508444  3
   3705   7452   7443   7444     1  0.0000000  1.6038667  3
   3705   7452   7443   7445     1  0.0000000  1.6038667  3
   3706   3705   7452   7443     1  0.0000000  1.6038667  3
   3707   3705   7452   7443     1  0.0000000  1.6038667  3
   3708   7481   7472   7473     1  0.0000000  1.6038667  3
   3708   7481   7472   7474     1  0.0000000  1.6038667  3
   3709   3708   7481   7472     1  0.0000000  1.6038667  3
   3710   3708   7481   7472     1  0.0000000  1.6038667  3
   3712   3713   3725   3726     1  0.0000000  0.6508444  3
   3712   3713   3725   3727     1  0.0000000  0.6508444  3
   3712   3716   3728   3729     1  0.0000000  0.6508444  3
   3712   3716   3728   3730     1  0.0000000  0.6508444  3
   3712   3719   3722   3723     1  0.0000000  0.6508444  3
   3712   3719   3722   3724     1  0.0000000  0.6508444  3
   3713   3712   3716   3717     1  0.0000000  1.2552000  3
   3713   3712   3716   3718     1  0.0000000  1.2552000  3
   3713   3712   3719   3720     1  0.0000000  1.2552000  3
   3713   3712   3719   3721     1  0.0000000  1.2552000  3
   3713   3725   3737   3738     1  0.0000000  0.6508444  3
   3713   3725   3737   3739     1  0.0000000  0.6508444  3
   3714   3713   3712   3716     1  0.0000000  1.2552000  3
   3714   3713   3712   3719     1  0.0000000  1.2552000  3
   3714   3713   3725   3737     1  0.0000000  0.6508444  3
   3714   3713   3725   3726     1  0.0000000  0.6508444  3
   3714   3713   3725   3727     1  0.0000000  0.6508444  3
   3715   3713   3712   3716     1  0.0000000  1.2552000  3
   3715   3713   3712   3719     1  0.0000000  1.2552000  3
   3715   3713   3725   3737     1  0.0000000  0.6508444  3
   3715   3713   3725   3726     1  0.0000000  0.6508444  3
   3715   3713   3725   3727     1  0.0000000  0.6508444  3
   3716   3712   3719   3720     1  0.0000000  1.2552000  3
   3716   3712   3719   3721     1  0.0000000  1.2552000  3
   3716   3728   3734   3735     1  0.0000000  0.6508444  3
   3716   3728   3734   3736     1  0.0000000  0.6508444  3
   3717   3716   3712   3719     1  0.0000000  1.2552000  3
   3717   3716   3728   3734     1  0.0000000  0.6508444  3
   3717   3716   3728   3729     1  0.0000000  0.6508444  3
   3717   3716   3728   3730     1  0.0000000  0.6508444  3
   3718   3716   3712   3719     1  0.0000000  1.2552000  3
   3718   3716   3728   3734     1  0.0000000  0.6508444  3
   3718   3716   3728   3729     1  0.0000000  0.6508444  3
   3718   3716   3728   3730     1  0.0000000  0.6508444  3
   3719   3722   3731   3732     1  0.0000000  0.6508444  3
   3719   3722   3731   3733     1  0.0000000  0.6508444  3
   3720   3719   3722   3731     1  0.0000000  0.6508444  3
   3720   3719   3722   3723     1  0.0000000  0.6508444  3
   3720   3719   3722   3724     1  0.0000000  0.6508444  3
   3721   3719   3722   3731     1  0.0000000  0.6508444  3
   3721   3719   3722   3723     1  0.0000000  0.6508444  3
   3721   3719   3722   3724     1  0.0000000  0.6508444  3
   3723   3722   3731   3740     1  0.0000000  1.0460000  1
   3723   3722   3731   3740     1  0.0000000  0.0000000  3
   3723   3722   3731   3732     1  0.0000000  0.6508444  3
   3723   3722   3731   3733     1  0.0000000  0.6508444  3
   3724   3722   3731   3740     1  0.0000000  1.0460000  1
   3724   3722   3731   3740     1  0.0000000  0.0000000  3
   3724   3722   3731   3732     1  0.0000000  0.6508444  3
   3724   3722   3731   3733     1  0.0000000  0.6508444  3
   3726   3725   3737   7539     1  0.0000000  1.0460000  1
   3726   3725   3737   7539     1  0.0000000  0.0000000  3
   3726   3725   3737   3738     1  0.0000000  0.6508444  3
   3726   3725   3737   3739     1  0.0000000  0.6508444  3
   3727   3725   3737   7539     1  0.0000000  1.0460000  1
   3727   3725   3737   7539     1  0.0000000  0.0000000  3
   3727   3725   3737   3738     1  0.0000000  0.6508444  3
   3727   3725   3737   3739     1  0.0000000  0.6508444  3
   3729   3728   3734   7510     1  0.0000000  1.0460000  1
   3729   3728   3734   7510     1  0.0000000  0.0000000  3
   3729   3728   3734   3735     1  0.0000000  0.6508444  3
   3729   3728   3734   3736     1  0.0000000  0.6508444  3
   3730   3728   3734   7510     1  0.0000000  1.0460000  1
   3730   3728   3734   7510     1  0.0000000  0.0000000  3
   3730   3728   3734   3735     1  0.0000000  0.6508444  3
   3730   3728   3734   3736     1  0.0000000  0.6508444  3
   3734   7510   7501   7502     1  0.0000000  1.6038667  3
   3734   7510   7501   7503     1  0.0000000  1.6038667  3
   3735   3734   7510   7501     1  0.0000000  1.6038667  3
   3736   3734   7510   7501     1  0.0000000  1.6038667  3
   3737   7539   7530   7531     1  0.0000000  1.6038667  3
   3737   7539   7530   7532     1  0.0000000  1.6038667  3
   3738   3737   7539   7530     1  0.0000000  1.6038667  3
   3739   3737   7539   7530     1  0.0000000  1.6038667  3
   3741   3742   3754   3755     1  0.0000000  0.6508444  3
   3741   3742   3754   3756     1  0.0000000  0.6508444  3
   3741   3745   3757   3758     1  0.0000000  0.6508444  3
   3741   3745   3757   3759     1  0.0000000  0.6508444  3
   3741   3748   3751   3752     1  0.0000000  0.6508444  3
   3741   3748   3751   3753     1  0.0000000  0.6508444  3
   3742   3741   3745   3746     1  0.0000000  1.2552000  3
   3742   3741   3745   3747     1  0.0000000  1.2552000  3
   3742   3741   3748   3749     1  0.0000000  1.2552000  3
   3742   3741   3748   3750     1  0.0000000  1.2552000  3
   3742   3754   3766   3767     1  0.0000000  0.6508444  3
   3742   3754   3766   3768     1  0.0000000  0.6508444  3
   3743   3742   3741   3745     1  0.0000000  1.2552000  3
   3743   3742   3741   3748     1  0.0000000  1.2552000  3
   3743   3742   3754   3766     1  0.0000000  0.6508444  3
   3743   3742   3754   3755     1  0.0000000  0.6508444  3
   3743   3742   3754   3756     1  0.0000000  0.6508444  3
   3744   3742   3741   3745     1  0.0000000  1.2552000  3
   3744   3742   3741   3748     1  0.0000000  1.2552000  3
   3744   3742   3754   3766     1  0.0000000  0.6508444  3
   3744   3742   3754   3755     1  0.0000000  0.6508444  3
   3744   3742   3754   3756     1  0.0000000  0.6508444  3
   3745   3741   3748   3749     1  0.0000000  1.2552000  3
   3745   3741   3748   3750     1  0.0000000  1.2552000  3
   3745   3757   3763   3764     1  0.0000000  0.6508444  3
   3745   3757   3763   3765     1  0.0000000  0.6508444  3
   3746   3745   3741   3748     1  0.0000000  1.2552000  3
   3746   3745   3757   3763     1  0.0000000  0.6508444  3
   3746   3745   3757   3758     1  0.0000000  0.6508444  3
   3746   3745   3757   3759     1  0.0000000  0.6508444  3
   3747   3745   3741   3748     1  0.0000000  1.2552000  3
   3747   3745   3757   3763     1  0.0000000  0.6508444  3
   3747   3745   3757   3758     1  0.0000000  0.6508444  3
   3747   3745   3757   3759     1  0.0000000  0.6508444  3
   3748   3751   3760   3761     1  0.0000000  0.6508444  3
   3748   3751   3760   3762     1  0.0000000  0.6508444  3
   3749   3748   3751   3760     1  0.0000000  0.6508444  3
   3749   3748   3751   3752     1  0.0000000  0.6508444  3
   3749   3748   3751   3753     1  0.0000000  0.6508444  3
   3750   3748   3751   3760     1  0.0000000  0.6508444  3
   3750   3748   3751   3752     1  0.0000000  0.6508444  3
   3750   3748   3751   3753     1  0.0000000  0.6508444  3
   3752   3751   3760   3769     1  0.0000000  1.0460000  1
   3752   3751   3760   3769     1  0.0000000  0.0000000  3
   3752   3751   3760   3761     1  0.0000000  0.6508444  3
   3752   3751   3760   3762     1  0.0000000  0.6508444  3
   3753   3751   3760   3769     1  0.0000000  1.0460000  1
   3753   3751   3760   3769     1  0.0000000  0.0000000  3
   3753   3751   3760   3761     1  0.0000000  0.6508444  3
   3753   3751   3760   3762     1  0.0000000  0.6508444  3
   3755   3754   3766   7597     1  0.0000000  1.0460000  1
   3755   3754   3766   7597     1  0.0000000  0.0000000  3
   3755   3754   3766   3767     1  0.0000000  0.6508444  3
   3755   3754   3766   3768     1  0.0000000  0.6508444  3
   3756   3754   3766   7597     1  0.0000000  1.0460000  1
   3756   3754   3766   7597     1  0.0000000  0.0000000  3
   3756   3754   3766   3767     1  0.0000000  0.6508444  3
   3756   3754   3766   3768     1  0.0000000  0.6508444  3
   3758   3757   3763   7568     1  0.0000000  1.0460000  1
   3758   3757   3763   7568     1  0.0000000  0.0000000  3
   3758   3757   3763   3764     1  0.0000000  0.6508444  3
   3758   3757   3763   3765     1  0.0000000  0.6508444  3
   3759   3757   3763   7568     1  0.0000000  1.0460000  1
   3759   3757   3763   7568     1  0.0000000  0.0000000  3
   3759   3757   3763   3764     1  0.0000000  0.6508444  3
   3759   3757   3763   3765     1  0.0000000  0.6508444  3
   3763   7568   7559   7560     1  0.0000000  1.6038667  3
   3763   7568   7559   7561     1  0.0000000  1.6038667  3
   3764   3763   7568   7559     1  0.0000000  1.6038667  3
   3765   3763   7568   7559     1  0.0000000  1.6038667  3
   3766   7597   7588   7589     1  0.0000000  1.6038667  3
   3766   7597   7588   7590     1  0.0000000  1.6038667  3
   3767   3766   7597   7588     1  0.0000000  1.6038667  3
   3768   3766   7597   7588     1  0.0000000  1.6038667  3
   3770   3771   3783   3784     1  0.0000000  0.6508444  3
   3770   3771   3783   3785     1  0.0000000  0.6508444  3
   3770   3774   3786   3787     1  0.0000000  0.6508444  3
   3770   3774   3786   3788     1  0.0000000  0.6508444  3
   3770   3777   3780   3781     1  0.0000000  0.6508444  3
   3770   3777   3780   3782     1  0.0000000  0.6508444  3
   3771   3770   3774   3775     1  0.0000000  1.2552000  3
   3771   3770   3774   3776     1  0.0000000  1.2552000  3
   3771   3770   3777   3778     1  0.0000000  1.2552000  3
   3771   3770   3777   3779     1  0.0000000  1.2552000  3
   3771   3783   3795   3796     1  0.0000000  0.6508444  3
   3771   3783   3795   3797     1  0.0000000  0.6508444  3
   3772   3771   3770   3774     1  0.0000000  1.2552000  3
   3772   3771   3770   3777     1  0.0000000  1.2552000  3
   3772   3771   3783   3795     1  0.0000000  0.6508444  3
   3772   3771   3783   3784     1  0.0000000  0.6508444  3
   3772   3771   3783   3785     1  0.0000000  0.6508444  3
   3773   3771   3770   3774     1  0.0000000  1.2552000  3
   3773   3771   3770   3777     1  0.0000000  1.2552000  3
   3773   3771   3783   3795     1  0.0000000  0.6508444  3
   3773   3771   3783   3784     1  0.0000000  0.6508444  3
   3773   3771   3783   3785     1  0.0000000  0.6508444  3
   3774   3770   3777   3778     1  0.0000000  1.2552000  3
   3774   3770   3777   3779     1  0.0000000  1.2552000  3
   3774   3786   3792   3793     1  0.0000000  0.6508444  3
   3774   3786   3792   3794     1  0.0000000  0.6508444  3
   3775   3774   3770   3777     1  0.0000000  1.2552000  3
   3775   3774   3786   3792     1  0.0000000  0.6508444  3
   3775   3774   3786   3787     1  0.0000000  0.6508444  3
   3775   3774   3786   3788     1  0.0000000  0.6508444  3
   3776   3774   3770   3777     1  0.0000000  1.2552000  3
   3776   3774   3786   3792     1  0.0000000  0.6508444  3
   3776   3774   3786   3787     1  0.0000000  0.6508444  3
   3776   3774   3786   3788     1  0.0000000  0.6508444  3
   3777   3780   3789   3790     1  0.0000000  0.6508444  3
   3777   3780   3789   3791     1  0.0000000  0.6508444  3
   3778   3777   3780   3789     1  0.0000000  0.6508444  3
   3778   3777   3780   3781     1  0.0000000  0.6508444  3
   3778   3777   3780   3782     1  0.0000000  0.6508444  3
   3779   3777   3780   3789     1  0.0000000  0.6508444  3
   3779   3777   3780   3781     1  0.0000000  0.6508444  3
   3779   3777   3780   3782     1  0.0000000  0.6508444  3
   3781   3780   3789   3798     1  0.0000000  1.0460000  1
   3781   3780   3789   3798     1  0.0000000  0.0000000  3
   3781   3780   3789   3790     1  0.0000000  0.6508444  3
   3781   3780   3789   3791     1  0.0000000  0.6508444  3
   3782   3780   3789   3798     1  0.0000000  1.0460000  1
   3782   3780   3789   3798     1  0.0000000  0.0000000  3
   3782   3780   3789   3790     1  0.0000000  0.6508444  3
   3782   3780   3789   3791     1  0.0000000  0.6508444  3
   3784   3783   3795   7655     1  0.0000000  1.0460000  1
   3784   3783   3795   7655     1  0.0000000  0.0000000  3
   3784   3783   3795   3796     1  0.0000000  0.6508444  3
   3784   3783   3795   3797     1  0.0000000  0.6508444  3
   3785   3783   3795   7655     1  0.0000000  1.0460000  1
   3785   3783   3795   7655     1  0.0000000  0.0000000  3
   3785   3783   3795   3796     1  0.0000000  0.6508444  3
   3785   3783   3795   3797     1  0.0000000  0.6508444  3
   3787   3786   3792   7626     1  0.0000000  1.0460000  1
   3787   3786   3792   7626     1  0.0000000  0.0000000  3
   3787   3786   3792   3793     1  0.0000000  0.6508444  3
   3787   3786   3792   3794     1  0.0000000  0.6508444  3
   3788   3786   3792   7626     1  0.0000000  1.0460000  1
   3788   3786   3792   7626     1  0.0000000  0.0000000  3
   3788   3786   3792   3793     1  0.0000000  0.6508444  3
   3788   3786   3792   3794     1  0.0000000  0.6508444  3
   3792   7626   7617   7618     1  0.0000000  1.6038667  3
   3792   7626   7617   7619     1  0.0000000  1.6038667  3
   3793   3792   7626   7617     1  0.0000000  1.6038667  3
   3794   3792   7626   7617     1  0.0000000  1.6038667  3
   3795   7655   7646   7647     1  0.0000000  1.6038667  3
   3795   7655   7646   7648     1  0.0000000  1.6038667  3
   3796   3795   7655   7646     1  0.0000000  1.6038667  3
   3797   3795   7655   7646     1  0.0000000  1.6038667  3
   3799   3800   3812   3813     1  0.0000000  0.6508444  3
   3799   3800   3812   3814     1  0.0000000  0.6508444  3
   3799   3803   3815   3816     1  0.0000000  0.6508444  3
   3799   3803   3815   3817     1  0.0000000  0.6508444  3
   3799   3806   3809   3810     1  0.0000000  0.6508444  3
   3799   3806   3809   3811     1  0.0000000  0.6508444  3
   3800   3799   3803   3804     1  0.0000000  1.2552000  3
   3800   3799   3803   3805     1  0.0000000  1.2552000  3
   3800   3799   3806   3807     1  0.0000000  1.2552000  3
   3800   3799   3806   3808     1  0.0000000  1.2552000  3
   3800   3812   3824   3825     1  0.0000000  0.6508444  3
   3800   3812   3824   3826     1  0.0000000  0.6508444  3
   3801   3800   3799   3803     1  0.0000000  1.2552000  3
   3801   3800   3799   3806     1  0.0000000  1.2552000  3
   3801   3800   3812   3824     1  0.0000000  0.6508444  3
   3801   3800   3812   3813     1  0.0000000  0.6508444  3
   3801   3800   3812   3814     1  0.0000000  0.6508444  3
   3802   3800   3799   3803     1  0.0000000  1.2552000  3
   3802   3800   3799   3806     1  0.0000000  1.2552000  3
   3802   3800   3812   3824     1  0.0000000  0.6508444  3
   3802   3800   3812   3813     1  0.0000000  0.6508444  3
   3802   3800   3812   3814     1  0.0000000  0.6508444  3
   3803   3799   3806   3807     1  0.0000000  1.2552000  3
   3803   3799   3806   3808     1  0.0000000  1.2552000  3
   3803   3815   3821   3822     1  0.0000000  0.6508444  3
   3803   3815   3821   3823     1  0.0000000  0.6508444  3
   3804   3803   3799   3806     1  0.0000000  1.2552000  3
   3804   3803   3815   3821     1  0.0000000  0.6508444  3
   3804   3803   3815   3816     1  0.0000000  0.6508444  3
   3804   3803   3815   3817     1  0.0000000  0.6508444  3
   3805   3803   3799   3806     1  0.0000000  1.2552000  3
   3805   3803   3815   3821     1  0.0000000  0.6508444  3
   3805   3803   3815   3816     1  0.0000000  0.6508444  3
   3805   3803   3815   3817     1  0.0000000  0.6508444  3
   3806   3809   3818   3819     1  0.0000000  0.6508444  3
   3806   3809   3818   3820     1  0.0000000  0.6508444  3
   3807   3806   3809   3818     1  0.0000000  0.6508444  3
   3807   3806   3809   3810     1  0.0000000  0.6508444  3
   3807   3806   3809   3811     1  0.0000000  0.6508444  3
   3808   3806   3809   3818     1  0.0000000  0.6508444  3
   3808   3806   3809   3810     1  0.0000000  0.6508444  3
   3808   3806   3809   3811     1  0.0000000  0.6508444  3
   3810   3809   3818   3827     1  0.0000000  1.0460000  1
   3810   3809   3818   3827     1  0.0000000  0.0000000  3
   3810   3809   3818   3819     1  0.0000000  0.6508444  3
   3810   3809   3818   3820     1  0.0000000  0.6508444  3
   3811   3809   3818   3827     1  0.0000000  1.0460000  1
   3811   3809   3818   3827     1  0.0000000  0.0000000  3
   3811   3809   3818   3819     1  0.0000000  0.6508444  3
   3811   3809   3818   3820     1  0.0000000  0.6508444  3
   3813   3812   3824   7713     1  0.0000000  1.0460000  1
   3813   3812   3824   7713     1  0.0000000  0.0000000  3
   3813   3812   3824   3825     1  0.0000000  0.6508444  3
   3813   3812   3824   3826     1  0.0000000  0.6508444  3
   3814   3812   3824   7713     1  0.0000000  1.0460000  1
   3814   3812   3824   7713     1  0.0000000  0.0000000  3
   3814   3812   3824   3825     1  0.0000000  0.6508444  3
   3814   3812   3824   3826     1  0.0000000  0.6508444  3
   3816   3815   3821   7684     1  0.0000000  1.0460000  1
   3816   3815   3821   7684     1  0.0000000  0.0000000  3
   3816   3815   3821   3822     1  0.0000000  0.6508444  3
   3816   3815   3821   3823     1  0.0000000  0.6508444  3
   3817   3815   3821   7684     1  0.0000000  1.0460000  1
   3817   3815   3821   7684     1  0.0000000  0.0000000  3
   3817   3815   3821   3822     1  0.0000000  0.6508444  3
   3817   3815   3821   3823     1  0.0000000  0.6508444  3
   3821   7684   7675   7676     1  0.0000000  1.6038667  3
   3821   7684   7675   7677     1  0.0000000  1.6038667  3
   3822   3821   7684   7675     1  0.0000000  1.6038667  3
   3823   3821   7684   7675     1  0.0000000  1.6038667  3
   3824   7713   7704   7705     1  0.0000000  1.6038667  3
   3824   7713   7704   7706     1  0.0000000  1.6038667  3
   3825   3824   7713   7704     1  0.0000000  1.6038667  3
   3826   3824   7713   7704     1  0.0000000  1.6038667  3
   3828   3829   3841   3842     1  0.0000000  0.6508444  3
   3828   3829   3841   3843     1  0.0000000  0.6508444  3
   3828   3832   3844   3845     1  0.0000000  0.6508444  3
   3828   3832   3844   3846     1  0.0000000  0.6508444  3
   3828   3835   3838   3839     1  0.0000000  0.6508444  3
   3828   3835   3838   3840     1  0.0000000  0.6508444  3
   3829   3828   3832   3833     1  0.0000000  1.2552000  3
   3829   3828   3832   3834     1  0.0000000  1.2552000  3
   3829   3828   3835   3836     1  0.0000000  1.2552000  3
   3829   3828   3835   3837     1  0.0000000  1.2552000  3
   3829   3841   3853   3854     1  0.0000000  0.6508444  3
   3829   3841   3853   3855     1  0.0000000  0.6508444  3
   3830   3829   3828   3832     1  0.0000000  1.2552000  3
   3830   3829   3828   3835     1  0.0000000  1.2552000  3
   3830   3829   3841   3853     1  0.0000000  0.6508444  3
   3830   3829   3841   3842     1  0.0000000  0.6508444  3
   3830   3829   3841   3843     1  0.0000000  0.6508444  3
   3831   3829   3828   3832     1  0.0000000  1.2552000  3
   3831   3829   3828   3835     1  0.0000000  1.2552000  3
   3831   3829   3841   3853     1  0.0000000  0.6508444  3
   3831   3829   3841   3842     1  0.0000000  0.6508444  3
   3831   3829   3841   3843     1  0.0000000  0.6508444  3
   3832   3828   3835   3836     1  0.0000000  1.2552000  3
   3832   3828   3835   3837     1  0.0000000  1.2552000  3
   3832   3844   3850   3851     1  0.0000000  0.6508444  3
   3832   3844   3850   3852     1  0.0000000  0.6508444  3
   3833   3832   3828   3835     1  0.0000000  1.2552000  3
   3833   3832   3844   3850     1  0.0000000  0.6508444  3
   3833   3832   3844   3845     1  0.0000000  0.6508444  3
   3833   3832   3844   3846     1  0.0000000  0.6508444  3
   3834   3832   3828   3835     1  0.0000000  1.2552000  3
   3834   3832   3844   3850     1  0.0000000  0.6508444  3
   3834   3832   3844   3845     1  0.0000000  0.6508444  3
   3834   3832   3844   3846     1  0.0000000  0.6508444  3
   3835   3838   3847   3848     1  0.0000000  0.6508444  3
   3835   3838   3847   3849     1  0.0000000  0.6508444  3
   3836   3835   3838   3847     1  0.0000000  0.6508444  3
   3836   3835   3838   3839     1  0.0000000  0.6508444  3
   3836   3835   3838   3840     1  0.0000000  0.6508444  3
   3837   3835   3838   3847     1  0.0000000  0.6508444  3
   3837   3835   3838   3839     1  0.0000000  0.6508444  3
   3837   3835   3838   3840     1  0.0000000  0.6508444  3
   3839   3838   3847   3856     1  0.0000000  1.0460000  1
   3839   3838   3847   3856     1  0.0000000  0.0000000  3
   3839   3838   3847   3848     1  0.0000000  0.6508444  3
   3839   3838   3847   3849     1  0.0000000  0.6508444  3
   3840   3838   3847   3856     1  0.0000000  1.0460000  1
   3840   3838   3847   3856     1  0.0000000  0.0000000  3
   3840   3838   3847   3848     1  0.0000000  0.6508444  3
   3840   3838   3847   3849     1  0.0000000  0.6508444  3
   3842   3841   3853   7771     1  0.0000000  1.0460000  1
   3842   3841   3853   7771     1  0.0000000  0.0000000  3
   3842   3841   3853   3854     1  0.0000000  0.6508444  3
   3842   3841   3853   3855     1  0.0000000  0.6508444  3
   3843   3841   3853   7771     1  0.0000000  1.0460000  1
   3843   3841   3853   7771     1  0.0000000  0.0000000  3
   3843   3841   3853   3854     1  0.0000000  0.6508444  3
   3843   3841   3853   3855     1  0.0000000  0.6508444  3
   3845   3844   3850   7742     1  0.0000000  1.0460000  1
   3845   3844   3850   7742     1  0.0000000  0.0000000  3
   3845   3844   3850   3851     1  0.0000000  0.6508444  3
   3845   3844   3850   3852     1  0.0000000  0.6508444  3
   3846   3844   3850   7742     1  0.0000000  1.0460000  1
   3846   3844   3850   7742     1  0.0000000  0.0000000  3
   3846   3844   3850   3851     1  0.0000000  0.6508444  3
   3846   3844   3850   3852     1  0.0000000  0.6508444  3
   3850   7742   7733   7734     1  0.0000000  1.6038667  3
   3850   7742   7733   7735     1  0.0000000  1.6038667  3
   3851   3850   7742   7733     1  0.0000000  1.6038667  3
   3852   3850   7742   7733     1  0.0000000  1.6038667  3
   3853   7771   7762   7763     1  0.0000000  1.6038667  3
   3853   7771   7762   7764     1  0.0000000  1.6038667  3
   3854   3853   7771   7762     1  0.0000000  1.6038667  3
   3855   3853   7771   7762     1  0.0000000  1.6038667  3
   3857   3858   3870   3871     1  0.0000000  0.6508444  3
   3857   3858   3870   3872     1  0.0000000  0.6508444  3
   3857   3861   3873   3874     1  0.0000000  0.6508444  3
   3857   3861   3873   3875     1  0.0000000  0.6508444  3
   3857   3864   3867   3868     1  0.0000000  0.6508444  3
   3857   3864   3867   3869     1  0.0000000  0.6508444  3
   3858   3857   3861   3862     1  0.0000000  1.2552000  3
   3858   3857   3861   3863     1  0.0000000  1.2552000  3
   3858   3857   3864   3865     1  0.0000000  1.2552000  3
   3858   3857   3864   3866     1  0.0000000  1.2552000  3
   3858   3870   3882   3883     1  0.0000000  0.6508444  3
   3858   3870   3882   3884     1  0.0000000  0.6508444  3
   3859   3858   3857   3861     1  0.0000000  1.2552000  3
   3859   3858   3857   3864     1  0.0000000  1.2552000  3
   3859   3858   3870   3882     1  0.0000000  0.6508444  3
   3859   3858   3870   3871     1  0.0000000  0.6508444  3
   3859   3858   3870   3872     1  0.0000000  0.6508444  3
   3860   3858   3857   3861     1  0.0000000  1.2552000  3
   3860   3858   3857   3864     1  0.0000000  1.2552000  3
   3860   3858   3870   3882     1  0.0000000  0.6508444  3
   3860   3858   3870   3871     1  0.0000000  0.6508444  3
   3860   3858   3870   3872     1  0.0000000  0.6508444  3
   3861   3857   3864   3865     1  0.0000000  1.2552000  3
   3861   3857   3864   3866     1  0.0000000  1.2552000  3
   3861   3873   3879   3880     1  0.0000000  0.6508444  3
   3861   3873   3879   3881     1  0.0000000  0.6508444  3
   3862   3861   3857   3864     1  0.0000000  1.2552000  3
   3862   3861   3873   3879     1  0.0000000  0.6508444  3
   3862   3861   3873   3874     1  0.0000000  0.6508444  3
   3862   3861   3873   3875     1  0.0000000  0.6508444  3
   3863   3861   3857   3864     1  0.0000000  1.2552000  3
   3863   3861   3873   3879     1  0.0000000  0.6508444  3
   3863   3861   3873   3874     1  0.0000000  0.6508444  3
   3863   3861   3873   3875     1  0.0000000  0.6508444  3
   3864   3867   3876   3877     1  0.0000000  0.6508444  3
   3864   3867   3876   3878     1  0.0000000  0.6508444  3
   3865   3864   3867   3876     1  0.0000000  0.6508444  3
   3865   3864   3867   3868     1  0.0000000  0.6508444  3
   3865   3864   3867   3869     1  0.0000000  0.6508444  3
   3866   3864   3867   3876     1  0.0000000  0.6508444  3
   3866   3864   3867   3868     1  0.0000000  0.6508444  3
   3866   3864   3867   3869     1  0.0000000  0.6508444  3
   3868   3867   3876   3885     1  0.0000000  1.0460000  1
   3868   3867   3876   3885     1  0.0000000  0.0000000  3
   3868   3867   3876   3877     1  0.0000000  0.6508444  3
   3868   3867   3876   3878     1  0.0000000  0.6508444  3
   3869   3867   3876   3885     1  0.0000000  1.0460000  1
   3869   3867   3876   3885     1  0.0000000  0.0000000  3
   3869   3867   3876   3877     1  0.0000000  0.6508444  3
   3869   3867   3876   3878     1  0.0000000  0.6508444  3
   3871   3870   3882   7829     1  0.0000000  1.0460000  1
   3871   3870   3882   7829     1  0.0000000  0.0000000  3
   3871   3870   3882   3883     1  0.0000000  0.6508444  3
   3871   3870   3882   3884     1  0.0000000  0.6508444  3
   3872   3870   3882   7829     1  0.0000000  1.0460000  1
   3872   3870   3882   7829     1  0.0000000  0.0000000  3
   3872   3870   3882   3883     1  0.0000000  0.6508444  3
   3872   3870   3882   3884     1  0.0000000  0.6508444  3
   3874   3873   3879   7800     1  0.0000000  1.0460000  1
   3874   3873   3879   7800     1  0.0000000  0.0000000  3
   3874   3873   3879   3880     1  0.0000000  0.6508444  3
   3874   3873   3879   3881     1  0.0000000  0.6508444  3
   3875   3873   3879   7800     1  0.0000000  1.0460000  1
   3875   3873   3879   7800     1  0.0000000  0.0000000  3
   3875   3873   3879   3880     1  0.0000000  0.6508444  3
   3875   3873   3879   3881     1  0.0000000  0.6508444  3
   3879   7800   7791   7792     1  0.0000000  1.6038667  3
   3879   7800   7791   7793     1  0.0000000  1.6038667  3
   3880   3879   7800   7791     1  0.0000000  1.6038667  3
   3881   3879   7800   7791     1  0.0000000  1.6038667  3
   3882   7829   7820   7821     1  0.0000000  1.6038667  3
   3882   7829   7820   7822     1  0.0000000  1.6038667  3
   3883   3882   7829   7820     1  0.0000000  1.6038667  3
   3884   3882   7829   7820     1  0.0000000  1.6038667  3
   3886   3887   3899   3900     1  0.0000000  0.6508444  3
   3886   3887   3899   3901     1  0.0000000  0.6508444  3
   3886   3890   3902   3903     1  0.0000000  0.6508444  3
   3886   3890   3902   3904     1  0.0000000  0.6508444  3
   3886   3893   3896   3897     1  0.0000000  0.6508444  3
   3886   3893   3896   3898     1  0.0000000  0.6508444  3
   3887   3886   3890   3891     1  0.0000000  1.2552000  3
   3887   3886   3890   3892     1  0.0000000  1.2552000  3
   3887   3886   3893   3894     1  0.0000000  1.2552000  3
   3887   3886   3893   3895     1  0.0000000  1.2552000  3
   3887   3899   3911   3912     1  0.0000000  0.6508444  3
   3887   3899   3911   3913     1  0.0000000  0.6508444  3
   3888   3887   3886   3890     1  0.0000000  1.2552000  3
   3888   3887   3886   3893     1  0.0000000  1.2552000  3
   3888   3887   3899   3911     1  0.0000000  0.6508444  3
   3888   3887   3899   3900     1  0.0000000  0.6508444  3
   3888   3887   3899   3901     1  0.0000000  0.6508444  3
   3889   3887   3886   3890     1  0.0000000  1.2552000  3
   3889   3887   3886   3893     1  0.0000000  1.2552000  3
   3889   3887   3899   3911     1  0.0000000  0.6508444  3
   3889   3887   3899   3900     1  0.0000000  0.6508444  3
   3889   3887   3899   3901     1  0.0000000  0.6508444  3
   3890   3886   3893   3894     1  0.0000000  1.2552000  3
   3890   3886   3893   3895     1  0.0000000  1.2552000  3
   3890   3902   3908   3909     1  0.0000000  0.6508444  3
   3890   3902   3908   3910     1  0.0000000  0.6508444  3
   3891   3890   3886   3893     1  0.0000000  1.2552000  3
   3891   3890   3902   3908     1  0.0000000  0.6508444  3
   3891   3890   3902   3903     1  0.0000000  0.6508444  3
   3891   3890   3902   3904     1  0.0000000  0.6508444  3
   3892   3890   3886   3893     1  0.0000000  1.2552000  3
   3892   3890   3902   3908     1  0.0000000  0.6508444  3
   3892   3890   3902   3903     1  0.0000000  0.6508444  3
   3892   3890   3902   3904     1  0.0000000  0.6508444  3
   3893   3896   3905   3906     1  0.0000000  0.6508444  3
   3893   3896   3905   3907     1  0.0000000  0.6508444  3
   3894   3893   3896   3905     1  0.0000000  0.6508444  3
   3894   3893   3896   3897     1  0.0000000  0.6508444  3
   3894   3893   3896   3898     1  0.0000000  0.6508444  3
   3895   3893   3896   3905     1  0.0000000  0.6508444  3
   3895   3893   3896   3897     1  0.0000000  0.6508444  3
   3895   3893   3896   3898     1  0.0000000  0.6508444  3
   3897   3896   3905   3914     1  0.0000000  1.0460000  1
   3897   3896   3905   3914     1  0.0000000  0.0000000  3
   3897   3896   3905   3906     1  0.0000000  0.6508444  3
   3897   3896   3905   3907     1  0.0000000  0.6508444  3
   3898   3896   3905   3914     1  0.0000000  1.0460000  1
   3898   3896   3905   3914     1  0.0000000  0.0000000  3
   3898   3896   3905   3906     1  0.0000000  0.6508444  3
   3898   3896   3905   3907     1  0.0000000  0.6508444  3
   3900   3899   3911   7887     1  0.0000000  1.0460000  1
   3900   3899   3911   7887     1  0.0000000  0.0000000  3
   3900   3899   3911   3912     1  0.0000000  0.6508444  3
   3900   3899   3911   3913     1  0.0000000  0.6508444  3
   3901   3899   3911   7887     1  0.0000000  1.0460000  1
   3901   3899   3911   7887     1  0.0000000  0.0000000  3
   3901   3899   3911   3912     1  0.0000000  0.6508444  3
   3901   3899   3911   3913     1  0.0000000  0.6508444  3
   3903   3902   3908   7858     1  0.0000000  1.0460000  1
   3903   3902   3908   7858     1  0.0000000  0.0000000  3
   3903   3902   3908   3909     1  0.0000000  0.6508444  3
   3903   3902   3908   3910     1  0.0000000  0.6508444  3
   3904   3902   3908   7858     1  0.0000000  1.0460000  1
   3904   3902   3908   7858     1  0.0000000  0.0000000  3
   3904   3902   3908   3909     1  0.0000000  0.6508444  3
   3904   3902   3908   3910     1  0.0000000  0.6508444  3
   3908   7858   7849   7850     1  0.0000000  1.6038667  3
   3908   7858   7849   7851     1  0.0000000  1.6038667  3
   3909   3908   7858   7849     1  0.0000000  1.6038667  3
   3910   3908   7858   7849     1  0.0000000  1.6038667  3
   3911   7887   7878   7879     1  0.0000000  1.6038667  3
   3911   7887   7878   7880     1  0.0000000  1.6038667  3
   3912   3911   7887   7878     1  0.0000000  1.6038667  3
   3913   3911   7887   7878     1  0.0000000  1.6038667  3
   3915   3916   3928   3929     1  0.0000000  0.6508444  3
   3915   3916   3928   3930     1  0.0000000  0.6508444  3
   3915   3919   3931   3932     1  0.0000000  0.6508444  3
   3915   3919   3931   3933     1  0.0000000  0.6508444  3
   3915   3922   3925   3926     1  0.0000000  0.6508444  3
   3915   3922   3925   3927     1  0.0000000  0.6508444  3
   3916   3915   3919   3920     1  0.0000000  1.2552000  3
   3916   3915   3919   3921     1  0.0000000  1.2552000  3
   3916   3915   3922   3923     1  0.0000000  1.2552000  3
   3916   3915   3922   3924     1  0.0000000  1.2552000  3
   3916   3928   3940   3941     1  0.0000000  0.6508444  3
   3916   3928   3940   3942     1  0.0000000  0.6508444  3
   3917   3916   3915   3919     1  0.0000000  1.2552000  3
   3917   3916   3915   3922     1  0.0000000  1.2552000  3
   3917   3916   3928   3940     1  0.0000000  0.6508444  3
   3917   3916   3928   3929     1  0.0000000  0.6508444  3
   3917   3916   3928   3930     1  0.0000000  0.6508444  3
   3918   3916   3915   3919     1  0.0000000  1.2552000  3
   3918   3916   3915   3922     1  0.0000000  1.2552000  3
   3918   3916   3928   3940     1  0.0000000  0.6508444  3
   3918   3916   3928   3929     1  0.0000000  0.6508444  3
   3918   3916   3928   3930     1  0.0000000  0.6508444  3
   3919   3915   3922   3923     1  0.0000000  1.2552000  3
   3919   3915   3922   3924     1  0.0000000  1.2552000  3
   3919   3931   3937   3938     1  0.0000000  0.6508444  3
   3919   3931   3937   3939     1  0.0000000  0.6508444  3
   3920   3919   3915   3922     1  0.0000000  1.2552000  3
   3920   3919   3931   3937     1  0.0000000  0.6508444  3
   3920   3919   3931   3932     1  0.0000000  0.6508444  3
   3920   3919   3931   3933     1  0.0000000  0.6508444  3
   3921   3919   3915   3922     1  0.0000000  1.2552000  3
   3921   3919   3931   3937     1  0.0000000  0.6508444  3
   3921   3919   3931   3932     1  0.0000000  0.6508444  3
   3921   3919   3931   3933     1  0.0000000  0.6508444  3
   3922   3925   3934   3935     1  0.0000000  0.6508444  3
   3922   3925   3934   3936     1  0.0000000  0.6508444  3
   3923   3922   3925   3934     1  0.0000000  0.6508444  3
   3923   3922   3925   3926     1  0.0000000  0.6508444  3
   3923   3922   3925   3927     1  0.0000000  0.6508444  3
   3924   3922   3925   3934     1  0.0000000  0.6508444  3
   3924   3922   3925   3926     1  0.0000000  0.6508444  3
   3924   3922   3925   3927     1  0.0000000  0.6508444  3
   3926   3925   3934   3943     1  0.0000000  1.0460000  1
   3926   3925   3934   3943     1  0.0000000  0.0000000  3
   3926   3925   3934   3935     1  0.0000000  0.6508444  3
   3926   3925   3934   3936     1  0.0000000  0.6508444  3
   3927   3925   3934   3943     1  0.0000000  1.0460000  1
   3927   3925   3934   3943     1  0.0000000  0.0000000  3
   3927   3925   3934   3935     1  0.0000000  0.6508444  3
   3927   3925   3934   3936     1  0.0000000  0.6508444  3
   3929   3928   3940   7945     1  0.0000000  1.0460000  1
   3929   3928   3940   7945     1  0.0000000  0.0000000  3
   3929   3928   3940   3941     1  0.0000000  0.6508444  3
   3929   3928   3940   3942     1  0.0000000  0.6508444  3
   3930   3928   3940   7945     1  0.0000000  1.0460000  1
   3930   3928   3940   7945     1  0.0000000  0.0000000  3
   3930   3928   3940   3941     1  0.0000000  0.6508444  3
   3930   3928   3940   3942     1  0.0000000  0.6508444  3
   3932   3931   3937   7916     1  0.0000000  1.0460000  1
   3932   3931   3937   7916     1  0.0000000  0.0000000  3
   3932   3931   3937   3938     1  0.0000000  0.6508444  3
   3932   3931   3937   3939     1  0.0000000  0.6508444  3
   3933   3931   3937   7916     1  0.0000000  1.0460000  1
   3933   3931   3937   7916     1  0.0000000  0.0000000  3
   3933   3931   3937   3938     1  0.0000000  0.6508444  3
   3933   3931   3937   3939     1  0.0000000  0.6508444  3
   3937   7916   7907   7908     1  0.0000000  1.6038667  3
   3937   7916   7907   7909     1  0.0000000  1.6038667  3
   3938   3937   7916   7907     1  0.0000000  1.6038667  3
   3939   3937   7916   7907     1  0.0000000  1.6038667  3
   3940   7945   7936   7937     1  0.0000000  1.6038667  3
   3940   7945   7936   7938     1  0.0000000  1.6038667  3
   3941   3940   7945   7936     1  0.0000000  1.6038667  3
   3942   3940   7945   7936     1  0.0000000  1.6038667  3
   3944   3945   3957   3958     1  0.0000000  0.6508444  3
   3944   3945   3957   3959     1  0.0000000  0.6508444  3
   3944   3948   3960   3961     1  0.0000000  0.6508444  3
   3944   3948   3960   3962     1  0.0000000  0.6508444  3
   3944   3951   3954   3955     1  0.0000000  0.6508444  3
   3944   3951   3954   3956     1  0.0000000  0.6508444  3
   3945   3944   3948   3949     1  0.0000000  1.2552000  3
   3945   3944   3948   3950     1  0.0000000  1.2552000  3
   3945   3944   3951   3952     1  0.0000000  1.2552000  3
   3945   3944   3951   3953     1  0.0000000  1.2552000  3
   3945   3957   3969   3970     1  0.0000000  0.6508444  3
   3945   3957   3969   3971     1  0.0000000  0.6508444  3
   3946   3945   3944   3948     1  0.0000000  1.2552000  3
   3946   3945   3944   3951     1  0.0000000  1.2552000  3
   3946   3945   3957   3969     1  0.0000000  0.6508444  3
   3946   3945   3957   3958     1  0.0000000  0.6508444  3
   3946   3945   3957   3959     1  0.0000000  0.6508444  3
   3947   3945   3944   3948     1  0.0000000  1.2552000  3
   3947   3945   3944   3951     1  0.0000000  1.2552000  3
   3947   3945   3957   3969     1  0.0000000  0.6508444  3
   3947   3945   3957   3958     1  0.0000000  0.6508444  3
   3947   3945   3957   3959     1  0.0000000  0.6508444  3
   3948   3944   3951   3952     1  0.0000000  1.2552000  3
   3948   3944   3951   3953     1  0.0000000  1.2552000  3
   3948   3960   3966   3967     1  0.0000000  0.6508444  3
   3948   3960   3966   3968     1  0.0000000  0.6508444  3
   3949   3948   3944   3951     1  0.0000000  1.2552000  3
   3949   3948   3960   3966     1  0.0000000  0.6508444  3
   3949   3948   3960   3961     1  0.0000000  0.6508444  3
   3949   3948   3960   3962     1  0.0000000  0.6508444  3
   3950   3948   3944   3951     1  0.0000000  1.2552000  3
   3950   3948   3960   3966     1  0.0000000  0.6508444  3
   3950   3948   3960   3961     1  0.0000000  0.6508444  3
   3950   3948   3960   3962     1  0.0000000  0.6508444  3
   3951   3954   3963   3964     1  0.0000000  0.6508444  3
   3951   3954   3963   3965     1  0.0000000  0.6508444  3
   3952   3951   3954   3963     1  0.0000000  0.6508444  3
   3952   3951   3954   3955     1  0.0000000  0.6508444  3
   3952   3951   3954   3956     1  0.0000000  0.6508444  3
   3953   3951   3954   3963     1  0.0000000  0.6508444  3
   3953   3951   3954   3955     1  0.0000000  0.6508444  3
   3953   3951   3954   3956     1  0.0000000  0.6508444  3
   3955   3954   3963   3972     1  0.0000000  1.0460000  1
   3955   3954   3963   3972     1  0.0000000  0.0000000  3
   3955   3954   3963   3964     1  0.0000000  0.6508444  3
   3955   3954   3963   3965     1  0.0000000  0.6508444  3
   3956   3954   3963   3972     1  0.0000000  1.0460000  1
   3956   3954   3963   3972     1  0.0000000  0.0000000  3
   3956   3954   3963   3964     1  0.0000000  0.6508444  3
   3956   3954   3963   3965     1  0.0000000  0.6508444  3
   3958   3957   3969   8003     1  0.0000000  1.0460000  1
   3958   3957   3969   8003     1  0.0000000  0.0000000  3
   3958   3957   3969   3970     1  0.0000000  0.6508444  3
   3958   3957   3969   3971     1  0.0000000  0.6508444  3
   3959   3957   3969   8003     1  0.0000000  1.0460000  1
   3959   3957   3969   8003     1  0.0000000  0.0000000  3
   3959   3957   3969   3970     1  0.0000000  0.6508444  3
   3959   3957   3969   3971     1  0.0000000  0.6508444  3
   3961   3960   3966   7974     1  0.0000000  1.0460000  1
   3961   3960   3966   7974     1  0.0000000  0.0000000  3
   3961   3960   3966   3967     1  0.0000000  0.6508444  3
   3961   3960   3966   3968     1  0.0000000  0.6508444  3
   3962   3960   3966   7974     1  0.0000000  1.0460000  1
   3962   3960   3966   7974     1  0.0000000  0.0000000  3
   3962   3960   3966   3967     1  0.0000000  0.6508444  3
   3962   3960   3966   3968     1  0.0000000  0.6508444  3
   3966   7974   7965   7966     1  0.0000000  1.6038667  3
   3966   7974   7965   7967     1  0.0000000  1.6038667  3
   3967   3966   7974   7965     1  0.0000000  1.6038667  3
   3968   3966   7974   7965     1  0.0000000  1.6038667  3
   3969   8003   7994   7995     1  0.0000000  1.6038667  3
   3969   8003   7994   7996     1  0.0000000  1.6038667  3
   3970   3969   8003   7994     1  0.0000000  1.6038667  3
   3971   3969   8003   7994     1  0.0000000  1.6038667  3
   3973   3974   3986   3987     1  0.0000000  0.6508444  3
   3973   3974   3986   3988     1  0.0000000  0.6508444  3
   3973   3977   3989   3990     1  0.0000000  0.6508444  3
   3973   3977   3989   3991     1  0.0000000  0.6508444  3
   3973   3980   3983   3984     1  0.0000000  0.6508444  3
   3973   3980   3983   3985     1  0.0000000  0.6508444  3
   3974   3973   3977   3978     1  0.0000000  1.2552000  3
   3974   3973   3977   3979     1  0.0000000  1.2552000  3
   3974   3973   3980   3981     1  0.0000000  1.2552000  3
   3974   3973   3980   3982     1  0.0000000  1.2552000  3
   3974   3986   3998   3999     1  0.0000000  0.6508444  3
   3974   3986   3998   4000     1  0.0000000  0.6508444  3
   3975   3974   3973   3977     1  0.0000000  1.2552000  3
   3975   3974   3973   3980     1  0.0000000  1.2552000  3
   3975   3974   3986   3998     1  0.0000000  0.6508444  3
   3975   3974   3986   3987     1  0.0000000  0.6508444  3
   3975   3974   3986   3988     1  0.0000000  0.6508444  3
   3976   3974   3973   3977     1  0.0000000  1.2552000  3
   3976   3974   3973   3980     1  0.0000000  1.2552000  3
   3976   3974   3986   3998     1  0.0000000  0.6508444  3
   3976   3974   3986   3987     1  0.0000000  0.6508444  3
   3976   3974   3986   3988     1  0.0000000  0.6508444  3
   3977   3973   3980   3981     1  0.0000000  1.2552000  3
   3977   3973   3980   3982     1  0.0000000  1.2552000  3
   3977   3989   3995   3996     1  0.0000000  0.6508444  3
   3977   3989   3995   3997     1  0.0000000  0.6508444  3
   3978   3977   3973   3980     1  0.0000000  1.2552000  3
   3978   3977   3989   3995     1  0.0000000  0.6508444  3
   3978   3977   3989   3990     1  0.0000000  0.6508444  3
   3978   3977   3989   3991     1  0.0000000  0.6508444  3
   3979   3977   3973   3980     1  0.0000000  1.2552000  3
   3979   3977   3989   3995     1  0.0000000  0.6508444  3
   3979   3977   3989   3990     1  0.0000000  0.6508444  3
   3979   3977   3989   3991     1  0.0000000  0.6508444  3
   3980   3983   3992   3993     1  0.0000000  0.6508444  3
   3980   3983   3992   3994     1  0.0000000  0.6508444  3
   3981   3980   3983   3992     1  0.0000000  0.6508444  3
   3981   3980   3983   3984     1  0.0000000  0.6508444  3
   3981   3980   3983   3985     1  0.0000000  0.6508444  3
   3982   3980   3983   3992     1  0.0000000  0.6508444  3
   3982   3980   3983   3984     1  0.0000000  0.6508444  3
   3982   3980   3983   3985     1  0.0000000  0.6508444  3
   3984   3983   3992   4001     1  0.0000000  1.0460000  1
   3984   3983   3992   4001     1  0.0000000  0.0000000  3
   3984   3983   3992   3993     1  0.0000000  0.6508444  3
   3984   3983   3992   3994     1  0.0000000  0.6508444  3
   3985   3983   3992   4001     1  0.0000000  1.0460000  1
   3985   3983   3992   4001     1  0.0000000  0.0000000  3
   3985   3983   3992   3993     1  0.0000000  0.6508444  3
   3985   3983   3992   3994     1  0.0000000  0.6508444  3
   3987   3986   3998   8061     1  0.0000000  1.0460000  1
   3987   3986   3998   8061     1  0.0000000  0.0000000  3
   3987   3986   3998   3999     1  0.0000000  0.6508444  3
   3987   3986   3998   4000     1  0.0000000  0.6508444  3
   3988   3986   3998   8061     1  0.0000000  1.0460000  1
   3988   3986   3998   8061     1  0.0000000  0.0000000  3
   3988   3986   3998   3999     1  0.0000000  0.6508444  3
   3988   3986   3998   4000     1  0.0000000  0.6508444  3
   3990   3989   3995   8032     1  0.0000000  1.0460000  1
   3990   3989   3995   8032     1  0.0000000  0.0000000  3
   3990   3989   3995   3996     1  0.0000000  0.6508444  3
   3990   3989   3995   3997     1  0.0000000  0.6508444  3
   3991   3989   3995   8032     1  0.0000000  1.0460000  1
   3991   3989   3995   8032     1  0.0000000  0.0000000  3
   3991   3989   3995   3996     1  0.0000000  0.6508444  3
   3991   3989   3995   3997     1  0.0000000  0.6508444  3
   3995   8032   8023   8024     1  0.0000000  1.6038667  3
   3995   8032   8023   8025     1  0.0000000  1.6038667  3
   3996   3995   8032   8023     1  0.0000000  1.6038667  3
   3997   3995   8032   8023     1  0.0000000  1.6038667  3
   3998   8061   8052   8053     1  0.0000000  1.6038667  3
   3998   8061   8052   8054     1  0.0000000  1.6038667  3
   3999   3998   8061   8052     1  0.0000000  1.6038667  3
   4000   3998   8061   8052     1  0.0000000  1.6038667  3
   4002   4003   4015   4016     1  0.0000000  0.6508444  3
   4002   4003   4015   4017     1  0.0000000  0.6508444  3
   4002   4006   4018   4019     1  0.0000000  0.6508444  3
   4002   4006   4018   4020     1  0.0000000  0.6508444  3
   4002   4009   4012   4013     1  0.0000000  0.6508444  3
   4002   4009   4012   4014     1  0.0000000  0.6508444  3
   4003   4002   4006   4007     1  0.0000000  1.2552000  3
   4003   4002   4006   4008     1  0.0000000  1.2552000  3
   4003   4002   4009   4010     1  0.0000000  1.2552000  3
   4003   4002   4009   4011     1  0.0000000  1.2552000  3
   4003   4015   4027   4028     1  0.0000000  0.6508444  3
   4003   4015   4027   4029     1  0.0000000  0.6508444  3
   4004   4003   4002   4006     1  0.0000000  1.2552000  3
   4004   4003   4002   4009     1  0.0000000  1.2552000  3
   4004   4003   4015   4027     1  0.0000000  0.6508444  3
   4004   4003   4015   4016     1  0.0000000  0.6508444  3
   4004   4003   4015   4017     1  0.0000000  0.6508444  3
   4005   4003   4002   4006     1  0.0000000  1.2552000  3
   4005   4003   4002   4009     1  0.0000000  1.2552000  3
   4005   4003   4015   4027     1  0.0000000  0.6508444  3
   4005   4003   4015   4016     1  0.0000000  0.6508444  3
   4005   4003   4015   4017     1  0.0000000  0.6508444  3
   4006   4002   4009   4010     1  0.0000000  1.2552000  3
   4006   4002   4009   4011     1  0.0000000  1.2552000  3
   4006   4018   4024   4025     1  0.0000000  0.6508444  3
   4006   4018   4024   4026     1  0.0000000  0.6508444  3
   4007   4006   4002   4009     1  0.0000000  1.2552000  3
   4007   4006   4018   4024     1  0.0000000  0.6508444  3
   4007   4006   4018   4019     1  0.0000000  0.6508444  3
   4007   4006   4018   4020     1  0.0000000  0.6508444  3
   4008   4006   4002   4009     1  0.0000000  1.2552000  3
   4008   4006   4018   4024     1  0.0000000  0.6508444  3
   4008   4006   4018   4019     1  0.0000000  0.6508444  3
   4008   4006   4018   4020     1  0.0000000  0.6508444  3
   4009   4012   4021   4022     1  0.0000000  0.6508444  3
   4009   4012   4021   4023     1  0.0000000  0.6508444  3
   4010   4009   4012   4021     1  0.0000000  0.6508444  3
   4010   4009   4012   4013     1  0.0000000  0.6508444  3
   4010   4009   4012   4014     1  0.0000000  0.6508444  3
   4011   4009   4012   4021     1  0.0000000  0.6508444  3
   4011   4009   4012   4013     1  0.0000000  0.6508444  3
   4011   4009   4012   4014     1  0.0000000  0.6508444  3
   4013   4012   4021   4030     1  0.0000000  1.0460000  1
   4013   4012   4021   4030     1  0.0000000  0.0000000  3
   4013   4012   4021   4022     1  0.0000000  0.6508444  3
   4013   4012   4021   4023     1  0.0000000  0.6508444  3
   4014   4012   4021   4030     1  0.0000000  1.0460000  1
   4014   4012   4021   4030     1  0.0000000  0.0000000  3
   4014   4012   4021   4022     1  0.0000000  0.6508444  3
   4014   4012   4021   4023     1  0.0000000  0.6508444  3
   4016   4015   4027   8119     1  0.0000000  1.0460000  1
   4016   4015   4027   8119     1  0.0000000  0.0000000  3
   4016   4015   4027   4028     1  0.0000000  0.6508444  3
   4016   4015   4027   4029     1  0.0000000  0.6508444  3
   4017   4015   4027   8119     1  0.0000000  1.0460000  1
   4017   4015   4027   8119     1  0.0000000  0.0000000  3
   4017   4015   4027   4028     1  0.0000000  0.6508444  3
   4017   4015   4027   4029     1  0.0000000  0.6508444  3
   4019   4018   4024   8090     1  0.0000000  1.0460000  1
   4019   4018   4024   8090     1  0.0000000  0.0000000  3
   4019   4018   4024   4025     1  0.0000000  0.6508444  3
   4019   4018   4024   4026     1  0.0000000  0.6508444  3
   4020   4018   4024   8090     1  0.0000000  1.0460000  1
   4020   4018   4024   8090     1  0.0000000  0.0000000  3
   4020   4018   4024   4025     1  0.0000000  0.6508444  3
   4020   4018   4024   4026     1  0.0000000  0.6508444  3
   4024   8090   8081   8082     1  0.0000000  1.6038667  3
   4024   8090   8081   8083     1  0.0000000  1.6038667  3
   4025   4024   8090   8081     1  0.0000000  1.6038667  3
   4026   4024   8090   8081     1  0.0000000  1.6038667  3
   4027   8119   8110   8111     1  0.0000000  1.6038667  3
   4027   8119   8110   8112     1  0.0000000  1.6038667  3
   4028   4027   8119   8110     1  0.0000000  1.6038667  3
   4029   4027   8119   8110     1  0.0000000  1.6038667  3
   4031   4032   4044   4045     1  0.0000000  0.6508444  3
   4031   4032   4044   4046     1  0.0000000  0.6508444  3
   4031   4035   4047   4048     1  0.0000000  0.6508444  3
   4031   4035   4047   4049     1  0.0000000  0.6508444  3
   4031   4038   4041   4042     1  0.0000000  0.6508444  3
   4031   4038   4041   4043     1  0.0000000  0.6508444  3
   4032   4031   4035   4036     1  0.0000000  1.2552000  3
   4032   4031   4035   4037     1  0.0000000  1.2552000  3
   4032   4031   4038   4039     1  0.0000000  1.2552000  3
   4032   4031   4038   4040     1  0.0000000  1.2552000  3
   4032   4044   4056   4057     1  0.0000000  0.6508444  3
   4032   4044   4056   4058     1  0.0000000  0.6508444  3
   4033   4032   4031   4035     1  0.0000000  1.2552000  3
   4033   4032   4031   4038     1  0.0000000  1.2552000  3
   4033   4032   4044   4056     1  0.0000000  0.6508444  3
   4033   4032   4044   4045     1  0.0000000  0.6508444  3
   4033   4032   4044   4046     1  0.0000000  0.6508444  3
   4034   4032   4031   4035     1  0.0000000  1.2552000  3
   4034   4032   4031   4038     1  0.0000000  1.2552000  3
   4034   4032   4044   4056     1  0.0000000  0.6508444  3
   4034   4032   4044   4045     1  0.0000000  0.6508444  3
   4034   4032   4044   4046     1  0.0000000  0.6508444  3
   4035   4031   4038   4039     1  0.0000000  1.2552000  3
   4035   4031   4038   4040     1  0.0000000  1.2552000  3
   4035   4047   4053   4054     1  0.0000000  0.6508444  3
   4035   4047   4053   4055     1  0.0000000  0.6508444  3
   4036   4035   4031   4038     1  0.0000000  1.2552000  3
   4036   4035   4047   4053     1  0.0000000  0.6508444  3
   4036   4035   4047   4048     1  0.0000000  0.6508444  3
   4036   4035   4047   4049     1  0.0000000  0.6508444  3
   4037   4035   4031   4038     1  0.0000000  1.2552000  3
   4037   4035   4047   4053     1  0.0000000  0.6508444  3
   4037   4035   4047   4048     1  0.0000000  0.6508444  3
   4037   4035   4047   4049     1  0.0000000  0.6508444  3
   4038   4041   4050   4051     1  0.0000000  0.6508444  3
   4038   4041   4050   4052     1  0.0000000  0.6508444  3
   4039   4038   4041   4050     1  0.0000000  0.6508444  3
   4039   4038   4041   4042     1  0.0000000  0.6508444  3
   4039   4038   4041   4043     1  0.0000000  0.6508444  3
   4040   4038   4041   4050     1  0.0000000  0.6508444  3
   4040   4038   4041   4042     1  0.0000000  0.6508444  3
   4040   4038   4041   4043     1  0.0000000  0.6508444  3
   4042   4041   4050   4059     1  0.0000000  1.0460000  1
   4042   4041   4050   4059     1  0.0000000  0.0000000  3
   4042   4041   4050   4051     1  0.0000000  0.6508444  3
   4042   4041   4050   4052     1  0.0000000  0.6508444  3
   4043   4041   4050   4059     1  0.0000000  1.0460000  1
   4043   4041   4050   4059     1  0.0000000  0.0000000  3
   4043   4041   4050   4051     1  0.0000000  0.6508444  3
   4043   4041   4050   4052     1  0.0000000  0.6508444  3
   4045   4044   4056   8177     1  0.0000000  1.0460000  1
   4045   4044   4056   8177     1  0.0000000  0.0000000  3
   4045   4044   4056   4057     1  0.0000000  0.6508444  3
   4045   4044   4056   4058     1  0.0000000  0.6508444  3
   4046   4044   4056   8177     1  0.0000000  1.0460000  1
   4046   4044   4056   8177     1  0.0000000  0.0000000  3
   4046   4044   4056   4057     1  0.0000000  0.6508444  3
   4046   4044   4056   4058     1  0.0000000  0.6508444  3
   4048   4047   4053   8148     1  0.0000000  1.0460000  1
   4048   4047   4053   8148     1  0.0000000  0.0000000  3
   4048   4047   4053   4054     1  0.0000000  0.6508444  3
   4048   4047   4053   4055     1  0.0000000  0.6508444  3
   4049   4047   4053   8148     1  0.0000000  1.0460000  1
   4049   4047   4053   8148     1  0.0000000  0.0000000  3
   4049   4047   4053   4054     1  0.0000000  0.6508444  3
   4049   4047   4053   4055     1  0.0000000  0.6508444  3
   4053   8148   8139   8140     1  0.0000000  1.6038667  3
   4053   8148   8139   8141     1  0.0000000  1.6038667  3
   4054   4053   8148   8139     1  0.0000000  1.6038667  3
   4055   4053   8148   8139     1  0.0000000  1.6038667  3
   4056   8177   8168   8169     1  0.0000000  1.6038667  3
   4056   8177   8168   8170     1  0.0000000  1.6038667  3
   4057   4056   8177   8168     1  0.0000000  1.6038667  3
   4058   4056   8177   8168     1  0.0000000  1.6038667  3
   4060   4061   4073   4074     1  0.0000000  0.6508444  3
   4060   4061   4073   4075     1  0.0000000  0.6508444  3
   4060   4064   4076   4077     1  0.0000000  0.6508444  3
   4060   4064   4076   4078     1  0.0000000  0.6508444  3
   4060   4067   4070   4071     1  0.0000000  0.6508444  3
   4060   4067   4070   4072     1  0.0000000  0.6508444  3
   4061   4060   4064   4065     1  0.0000000  1.2552000  3
   4061   4060   4064   4066     1  0.0000000  1.2552000  3
   4061   4060   4067   4068     1  0.0000000  1.2552000  3
   4061   4060   4067   4069     1  0.0000000  1.2552000  3
   4061   4073   4085   4086     1  0.0000000  0.6508444  3
   4061   4073   4085   4087     1  0.0000000  0.6508444  3
   4062   4061   4060   4064     1  0.0000000  1.2552000  3
   4062   4061   4060   4067     1  0.0000000  1.2552000  3
   4062   4061   4073   4085     1  0.0000000  0.6508444  3
   4062   4061   4073   4074     1  0.0000000  0.6508444  3
   4062   4061   4073   4075     1  0.0000000  0.6508444  3
   4063   4061   4060   4064     1  0.0000000  1.2552000  3
   4063   4061   4060   4067     1  0.0000000  1.2552000  3
   4063   4061   4073   4085     1  0.0000000  0.6508444  3
   4063   4061   4073   4074     1  0.0000000  0.6508444  3
   4063   4061   4073   4075     1  0.0000000  0.6508444  3
   4064   4060   4067   4068     1  0.0000000  1.2552000  3
   4064   4060   4067   4069     1  0.0000000  1.2552000  3
   4064   4076   4082   4083     1  0.0000000  0.6508444  3
   4064   4076   4082   4084     1  0.0000000  0.6508444  3
   4065   4064   4060   4067     1  0.0000000  1.2552000  3
   4065   4064   4076   4082     1  0.0000000  0.6508444  3
   4065   4064   4076   4077     1  0.0000000  0.6508444  3
   4065   4064   4076   4078     1  0.0000000  0.6508444  3
   4066   4064   4060   4067     1  0.0000000  1.2552000  3
   4066   4064   4076   4082     1  0.0000000  0.6508444  3
   4066   4064   4076   4077     1  0.0000000  0.6508444  3
   4066   4064   4076   4078     1  0.0000000  0.6508444  3
   4067   4070   4079   4080     1  0.0000000  0.6508444  3
   4067   4070   4079   4081     1  0.0000000  0.6508444  3
   4068   4067   4070   4079     1  0.0000000  0.6508444  3
   4068   4067   4070   4071     1  0.0000000  0.6508444  3
   4068   4067   4070   4072     1  0.0000000  0.6508444  3
   4069   4067   4070   4079     1  0.0000000  0.6508444  3
   4069   4067   4070   4071     1  0.0000000  0.6508444  3
   4069   4067   4070   4072     1  0.0000000  0.6508444  3
   4071   4070   4079   4088     1  0.0000000  1.0460000  1
   4071   4070   4079   4088     1  0.0000000  0.0000000  3
   4071   4070   4079   4080     1  0.0000000  0.6508444  3
   4071   4070   4079   4081     1  0.0000000  0.6508444  3
   4072   4070   4079   4088     1  0.0000000  1.0460000  1
   4072   4070   4079   4088     1  0.0000000  0.0000000  3
   4072   4070   4079   4080     1  0.0000000  0.6508444  3
   4072   4070   4079   4081     1  0.0000000  0.6508444  3
   4074   4073   4085   8235     1  0.0000000  1.0460000  1
   4074   4073   4085   8235     1  0.0000000  0.0000000  3
   4074   4073   4085   4086     1  0.0000000  0.6508444  3
   4074   4073   4085   4087     1  0.0000000  0.6508444  3
   4075   4073   4085   8235     1  0.0000000  1.0460000  1
   4075   4073   4085   8235     1  0.0000000  0.0000000  3
   4075   4073   4085   4086     1  0.0000000  0.6508444  3
   4075   4073   4085   4087     1  0.0000000  0.6508444  3
   4077   4076   4082   8206     1  0.0000000  1.0460000  1
   4077   4076   4082   8206     1  0.0000000  0.0000000  3
   4077   4076   4082   4083     1  0.0000000  0.6508444  3
   4077   4076   4082   4084     1  0.0000000  0.6508444  3
   4078   4076   4082   8206     1  0.0000000  1.0460000  1
   4078   4076   4082   8206     1  0.0000000  0.0000000  3
   4078   4076   4082   4083     1  0.0000000  0.6508444  3
   4078   4076   4082   4084     1  0.0000000  0.6508444  3
   4082   8206   8197   8198     1  0.0000000  1.6038667  3
   4082   8206   8197   8199     1  0.0000000  1.6038667  3
   4083   4082   8206   8197     1  0.0000000  1.6038667  3
   4084   4082   8206   8197     1  0.0000000  1.6038667  3
   4085   8235   8226   8227     1  0.0000000  1.6038667  3
   4085   8235   8226   8228     1  0.0000000  1.6038667  3
   4086   4085   8235   8226     1  0.0000000  1.6038667  3
   4087   4085   8235   8226     1  0.0000000  1.6038667  3
   4089   4090   4102   4103     1  0.0000000  0.6508444  3
   4089   4090   4102   4104     1  0.0000000  0.6508444  3
   4089   4093   4105   4106     1  0.0000000  0.6508444  3
   4089   4093   4105   4107     1  0.0000000  0.6508444  3
   4089   4096   4099   4100     1  0.0000000  0.6508444  3
   4089   4096   4099   4101     1  0.0000000  0.6508444  3
   4090   4089   4093   4094     1  0.0000000  1.2552000  3
   4090   4089   4093   4095     1  0.0000000  1.2552000  3
   4090   4089   4096   4097     1  0.0000000  1.2552000  3
   4090   4089   4096   4098     1  0.0000000  1.2552000  3
   4090   4102   4114   4115     1  0.0000000  0.6508444  3
   4090   4102   4114   4116     1  0.0000000  0.6508444  3
   4091   4090   4089   4093     1  0.0000000  1.2552000  3
   4091   4090   4089   4096     1  0.0000000  1.2552000  3
   4091   4090   4102   4114     1  0.0000000  0.6508444  3
   4091   4090   4102   4103     1  0.0000000  0.6508444  3
   4091   4090   4102   4104     1  0.0000000  0.6508444  3
   4092   4090   4089   4093     1  0.0000000  1.2552000  3
   4092   4090   4089   4096     1  0.0000000  1.2552000  3
   4092   4090   4102   4114     1  0.0000000  0.6508444  3
   4092   4090   4102   4103     1  0.0000000  0.6508444  3
   4092   4090   4102   4104     1  0.0000000  0.6508444  3
   4093   4089   4096   4097     1  0.0000000  1.2552000  3
   4093   4089   4096   4098     1  0.0000000  1.2552000  3
   4093   4105   4111   4112     1  0.0000000  0.6508444  3
   4093   4105   4111   4113     1  0.0000000  0.6508444  3
   4094   4093   4089   4096     1  0.0000000  1.2552000  3
   4094   4093   4105   4111     1  0.0000000  0.6508444  3
   4094   4093   4105   4106     1  0.0000000  0.6508444  3
   4094   4093   4105   4107     1  0.0000000  0.6508444  3
   4095   4093   4089   4096     1  0.0000000  1.2552000  3
   4095   4093   4105   4111     1  0.0000000  0.6508444  3
   4095   4093   4105   4106     1  0.0000000  0.6508444  3
   4095   4093   4105   4107     1  0.0000000  0.6508444  3
   4096   4099   4108   4109     1  0.0000000  0.6508444  3
   4096   4099   4108   4110     1  0.0000000  0.6508444  3
   4097   4096   4099   4108     1  0.0000000  0.6508444  3
   4097   4096   4099   4100     1  0.0000000  0.6508444  3
   4097   4096   4099   4101     1  0.0000000  0.6508444  3
   4098   4096   4099   4108     1  0.0000000  0.6508444  3
   4098   4096   4099   4100     1  0.0000000  0.6508444  3
   4098   4096   4099   4101     1  0.0000000  0.6508444  3
   4100   4099   4108   4117     1  0.0000000  1.0460000  1
   4100   4099   4108   4117     1  0.0000000  0.0000000  3
   4100   4099   4108   4109     1  0.0000000  0.6508444  3
   4100   4099   4108   4110     1  0.0000000  0.6508444  3
   4101   4099   4108   4117     1  0.0000000  1.0460000  1
   4101   4099   4108   4117     1  0.0000000  0.0000000  3
   4101   4099   4108   4109     1  0.0000000  0.6508444  3
   4101   4099   4108   4110     1  0.0000000  0.6508444  3
   4103   4102   4114   8293     1  0.0000000  1.0460000  1
   4103   4102   4114   8293     1  0.0000000  0.0000000  3
   4103   4102   4114   4115     1  0.0000000  0.6508444  3
   4103   4102   4114   4116     1  0.0000000  0.6508444  3
   4104   4102   4114   8293     1  0.0000000  1.0460000  1
   4104   4102   4114   8293     1  0.0000000  0.0000000  3
   4104   4102   4114   4115     1  0.0000000  0.6508444  3
   4104   4102   4114   4116     1  0.0000000  0.6508444  3
   4106   4105   4111   8264     1  0.0000000  1.0460000  1
   4106   4105   4111   8264     1  0.0000000  0.0000000  3
   4106   4105   4111   4112     1  0.0000000  0.6508444  3
   4106   4105   4111   4113     1  0.0000000  0.6508444  3
   4107   4105   4111   8264     1  0.0000000  1.0460000  1
   4107   4105   4111   8264     1  0.0000000  0.0000000  3
   4107   4105   4111   4112     1  0.0000000  0.6508444  3
   4107   4105   4111   4113     1  0.0000000  0.6508444  3
   4111   8264   8255   8256     1  0.0000000  1.6038667  3
   4111   8264   8255   8257     1  0.0000000  1.6038667  3
   4112   4111   8264   8255     1  0.0000000  1.6038667  3
   4113   4111   8264   8255     1  0.0000000  1.6038667  3
   4114   8293   8284   8285     1  0.0000000  1.6038667  3
   4114   8293   8284   8286     1  0.0000000  1.6038667  3
   4115   4114   8293   8284     1  0.0000000  1.6038667  3
   4116   4114   8293   8284     1  0.0000000  1.6038667  3
   4118   4119   4131   4132     1  0.0000000  0.6508444  3
   4118   4119   4131   4133     1  0.0000000  0.6508444  3
   4118   4122   4134   4135     1  0.0000000  0.6508444  3
   4118   4122   4134   4136     1  0.0000000  0.6508444  3
   4118   4125   4128   4129     1  0.0000000  0.6508444  3
   4118   4125   4128   4130     1  0.0000000  0.6508444  3
   4119   4118   4122   4123     1  0.0000000  1.2552000  3
   4119   4118   4122   4124     1  0.0000000  1.2552000  3
   4119   4118   4125   4126     1  0.0000000  1.2552000  3
   4119   4118   4125   4127     1  0.0000000  1.2552000  3
   4119   4131   4143   4144     1  0.0000000  0.6508444  3
   4119   4131   4143   4145     1  0.0000000  0.6508444  3
   4120   4119   4118   4122     1  0.0000000  1.2552000  3
   4120   4119   4118   4125     1  0.0000000  1.2552000  3
   4120   4119   4131   4143     1  0.0000000  0.6508444  3
   4120   4119   4131   4132     1  0.0000000  0.6508444  3
   4120   4119   4131   4133     1  0.0000000  0.6508444  3
   4121   4119   4118   4122     1  0.0000000  1.2552000  3
   4121   4119   4118   4125     1  0.0000000  1.2552000  3
   4121   4119   4131   4143     1  0.0000000  0.6508444  3
   4121   4119   4131   4132     1  0.0000000  0.6508444  3
   4121   4119   4131   4133     1  0.0000000  0.6508444  3
   4122   4118   4125   4126     1  0.0000000  1.2552000  3
   4122   4118   4125   4127     1  0.0000000  1.2552000  3
   4122   4134   4140   4141     1  0.0000000  0.6508444  3
   4122   4134   4140   4142     1  0.0000000  0.6508444  3
   4123   4122   4118   4125     1  0.0000000  1.2552000  3
   4123   4122   4134   4140     1  0.0000000  0.6508444  3
   4123   4122   4134   4135     1  0.0000000  0.6508444  3
   4123   4122   4134   4136     1  0.0000000  0.6508444  3
   4124   4122   4118   4125     1  0.0000000  1.2552000  3
   4124   4122   4134   4140     1  0.0000000  0.6508444  3
   4124   4122   4134   4135     1  0.0000000  0.6508444  3
   4124   4122   4134   4136     1  0.0000000  0.6508444  3
   4125   4128   4137   4138     1  0.0000000  0.6508444  3
   4125   4128   4137   4139     1  0.0000000  0.6508444  3
   4126   4125   4128   4137     1  0.0000000  0.6508444  3
   4126   4125   4128   4129     1  0.0000000  0.6508444  3
   4126   4125   4128   4130     1  0.0000000  0.6508444  3
   4127   4125   4128   4137     1  0.0000000  0.6508444  3
   4127   4125   4128   4129     1  0.0000000  0.6508444  3
   4127   4125   4128   4130     1  0.0000000  0.6508444  3
   4129   4128   4137   4146     1  0.0000000  1.0460000  1
   4129   4128   4137   4146     1  0.0000000  0.0000000  3
   4129   4128   4137   4138     1  0.0000000  0.6508444  3
   4129   4128   4137   4139     1  0.0000000  0.6508444  3
   4130   4128   4137   4146     1  0.0000000  1.0460000  1
   4130   4128   4137   4146     1  0.0000000  0.0000000  3
   4130   4128   4137   4138     1  0.0000000  0.6508444  3
   4130   4128   4137   4139     1  0.0000000  0.6508444  3
   4132   4131   4143   8351     1  0.0000000  1.0460000  1
   4132   4131   4143   8351     1  0.0000000  0.0000000  3
   4132   4131   4143   4144     1  0.0000000  0.6508444  3
   4132   4131   4143   4145     1  0.0000000  0.6508444  3
   4133   4131   4143   8351     1  0.0000000  1.0460000  1
   4133   4131   4143   8351     1  0.0000000  0.0000000  3
   4133   4131   4143   4144     1  0.0000000  0.6508444  3
   4133   4131   4143   4145     1  0.0000000  0.6508444  3
   4135   4134   4140   8322     1  0.0000000  1.0460000  1
   4135   4134   4140   8322     1  0.0000000  0.0000000  3
   4135   4134   4140   4141     1  0.0000000  0.6508444  3
   4135   4134   4140   4142     1  0.0000000  0.6508444  3
   4136   4134   4140   8322     1  0.0000000  1.0460000  1
   4136   4134   4140   8322     1  0.0000000  0.0000000  3
   4136   4134   4140   4141     1  0.0000000  0.6508444  3
   4136   4134   4140   4142     1  0.0000000  0.6508444  3
   4140   8322   8313   8314     1  0.0000000  1.6038667  3
   4140   8322   8313   8315     1  0.0000000  1.6038667  3
   4141   4140   8322   8313     1  0.0000000  1.6038667  3
   4142   4140   8322   8313     1  0.0000000  1.6038667  3
   4143   8351   8342   8343     1  0.0000000  1.6038667  3
   4143   8351   8342   8344     1  0.0000000  1.6038667  3
   4144   4143   8351   8342     1  0.0000000  1.6038667  3
   4145   4143   8351   8342     1  0.0000000  1.6038667  3
   4147   4148   4160   4161     1  0.0000000  0.6508444  3
   4147   4148   4160   4162     1  0.0000000  0.6508444  3
   4147   4151   4163   4164     1  0.0000000  0.6508444  3
   4147   4151   4163   4165     1  0.0000000  0.6508444  3
   4147   4154   4157   4158     1  0.0000000  0.6508444  3
   4147   4154   4157   4159     1  0.0000000  0.6508444  3
   4148   4147   4151   4152     1  0.0000000  1.2552000  3
   4148   4147   4151   4153     1  0.0000000  1.2552000  3
   4148   4147   4154   4155     1  0.0000000  1.2552000  3
   4148   4147   4154   4156     1  0.0000000  1.2552000  3
   4148   4160   4172   4173     1  0.0000000  0.6508444  3
   4148   4160   4172   4174     1  0.0000000  0.6508444  3
   4149   4148   4147   4151     1  0.0000000  1.2552000  3
   4149   4148   4147   4154     1  0.0000000  1.2552000  3
   4149   4148   4160   4172     1  0.0000000  0.6508444  3
   4149   4148   4160   4161     1  0.0000000  0.6508444  3
   4149   4148   4160   4162     1  0.0000000  0.6508444  3
   4150   4148   4147   4151     1  0.0000000  1.2552000  3
   4150   4148   4147   4154     1  0.0000000  1.2552000  3
   4150   4148   4160   4172     1  0.0000000  0.6508444  3
   4150   4148   4160   4161     1  0.0000000  0.6508444  3
   4150   4148   4160   4162     1  0.0000000  0.6508444  3
   4151   4147   4154   4155     1  0.0000000  1.2552000  3
   4151   4147   4154   4156     1  0.0000000  1.2552000  3
   4151   4163   4169   4170     1  0.0000000  0.6508444  3
   4151   4163   4169   4171     1  0.0000000  0.6508444  3
   4152   4151   4147   4154     1  0.0000000  1.2552000  3
   4152   4151   4163   4169     1  0.0000000  0.6508444  3
   4152   4151   4163   4164     1  0.0000000  0.6508444  3
   4152   4151   4163   4165     1  0.0000000  0.6508444  3
   4153   4151   4147   4154     1  0.0000000  1.2552000  3
   4153   4151   4163   4169     1  0.0000000  0.6508444  3
   4153   4151   4163   4164     1  0.0000000  0.6508444  3
   4153   4151   4163   4165     1  0.0000000  0.6508444  3
   4154   4157   4166   4167     1  0.0000000  0.6508444  3
   4154   4157   4166   4168     1  0.0000000  0.6508444  3
   4155   4154   4157   4166     1  0.0000000  0.6508444  3
   4155   4154   4157   4158     1  0.0000000  0.6508444  3
   4155   4154   4157   4159     1  0.0000000  0.6508444  3
   4156   4154   4157   4166     1  0.0000000  0.6508444  3
   4156   4154   4157   4158     1  0.0000000  0.6508444  3
   4156   4154   4157   4159     1  0.0000000  0.6508444  3
   4158   4157   4166   4175     1  0.0000000  1.0460000  1
   4158   4157   4166   4175     1  0.0000000  0.0000000  3
   4158   4157   4166   4167     1  0.0000000  0.6508444  3
   4158   4157   4166   4168     1  0.0000000  0.6508444  3
   4159   4157   4166   4175     1  0.0000000  1.0460000  1
   4159   4157   4166   4175     1  0.0000000  0.0000000  3
   4159   4157   4166   4167     1  0.0000000  0.6508444  3
   4159   4157   4166   4168     1  0.0000000  0.6508444  3
   4161   4160   4172   8409     1  0.0000000  1.0460000  1
   4161   4160   4172   8409     1  0.0000000  0.0000000  3
   4161   4160   4172   4173     1  0.0000000  0.6508444  3
   4161   4160   4172   4174     1  0.0000000  0.6508444  3
   4162   4160   4172   8409     1  0.0000000  1.0460000  1
   4162   4160   4172   8409     1  0.0000000  0.0000000  3
   4162   4160   4172   4173     1  0.0000000  0.6508444  3
   4162   4160   4172   4174     1  0.0000000  0.6508444  3
   4164   4163   4169   8380     1  0.0000000  1.0460000  1
   4164   4163   4169   8380     1  0.0000000  0.0000000  3
   4164   4163   4169   4170     1  0.0000000  0.6508444  3
   4164   4163   4169   4171     1  0.0000000  0.6508444  3
   4165   4163   4169   8380     1  0.0000000  1.0460000  1
   4165   4163   4169   8380     1  0.0000000  0.0000000  3
   4165   4163   4169   4170     1  0.0000000  0.6508444  3
   4165   4163   4169   4171     1  0.0000000  0.6508444  3
   4169   8380   8371   8372     1  0.0000000  1.6038667  3
   4169   8380   8371   8373     1  0.0000000  1.6038667  3
   4170   4169   8380   8371     1  0.0000000  1.6038667  3
   4171   4169   8380   8371     1  0.0000000  1.6038667  3
   4172   8409   8400   8401     1  0.0000000  1.6038667  3
   4172   8409   8400   8402     1  0.0000000  1.6038667  3
   4173   4172   8409   8400     1  0.0000000  1.6038667  3
   4174   4172   8409   8400     1  0.0000000  1.6038667  3
   4176   4177   4189   4190     1  0.0000000  0.6508444  3
   4176   4177   4189   4191     1  0.0000000  0.6508444  3
   4176   4180   4192   4193     1  0.0000000  0.6508444  3
   4176   4180   4192   4194     1  0.0000000  0.6508444  3
   4176   4183   4186   4187     1  0.0000000  0.6508444  3
   4176   4183   4186   4188     1  0.0000000  0.6508444  3
   4177   4176   4180   4181     1  0.0000000  1.2552000  3
   4177   4176   4180   4182     1  0.0000000  1.2552000  3
   4177   4176   4183   4184     1  0.0000000  1.2552000  3
   4177   4176   4183   4185     1  0.0000000  1.2552000  3
   4177   4189   4201   4202     1  0.0000000  0.6508444  3
   4177   4189   4201   4203     1  0.0000000  0.6508444  3
   4178   4177   4176   4180     1  0.0000000  1.2552000  3
   4178   4177   4176   4183     1  0.0000000  1.2552000  3
   4178   4177   4189   4201     1  0.0000000  0.6508444  3
   4178   4177   4189   4190     1  0.0000000  0.6508444  3
   4178   4177   4189   4191     1  0.0000000  0.6508444  3
   4179   4177   4176   4180     1  0.0000000  1.2552000  3
   4179   4177   4176   4183     1  0.0000000  1.2552000  3
   4179   4177   4189   4201     1  0.0000000  0.6508444  3
   4179   4177   4189   4190     1  0.0000000  0.6508444  3
   4179   4177   4189   4191     1  0.0000000  0.6508444  3
   4180   4176   4183   4184     1  0.0000000  1.2552000  3
   4180   4176   4183   4185     1  0.0000000  1.2552000  3
   4180   4192   4198   4199     1  0.0000000  0.6508444  3
   4180   4192   4198   4200     1  0.0000000  0.6508444  3
   4181   4180   4176   4183     1  0.0000000  1.2552000  3
   4181   4180   4192   4198     1  0.0000000  0.6508444  3
   4181   4180   4192   4193     1  0.0000000  0.6508444  3
   4181   4180   4192   4194     1  0.0000000  0.6508444  3
   4182   4180   4176   4183     1  0.0000000  1.2552000  3
   4182   4180   4192   4198     1  0.0000000  0.6508444  3
   4182   4180   4192   4193     1  0.0000000  0.6508444  3
   4182   4180   4192   4194     1  0.0000000  0.6508444  3
   4183   4186   4195   4196     1  0.0000000  0.6508444  3
   4183   4186   4195   4197     1  0.0000000  0.6508444  3
   4184   4183   4186   4195     1  0.0000000  0.6508444  3
   4184   4183   4186   4187     1  0.0000000  0.6508444  3
   4184   4183   4186   4188     1  0.0000000  0.6508444  3
   4185   4183   4186   4195     1  0.0000000  0.6508444  3
   4185   4183   4186   4187     1  0.0000000  0.6508444  3
   4185   4183   4186   4188     1  0.0000000  0.6508444  3
   4187   4186   4195   4204     1  0.0000000  1.0460000  1
   4187   4186   4195   4204     1  0.0000000  0.0000000  3
   4187   4186   4195   4196     1  0.0000000  0.6508444  3
   4187   4186   4195   4197     1  0.0000000  0.6508444  3
   4188   4186   4195   4204     1  0.0000000  1.0460000  1
   4188   4186   4195   4204     1  0.0000000  0.0000000  3
   4188   4186   4195   4196     1  0.0000000  0.6508444  3
   4188   4186   4195   4197     1  0.0000000  0.6508444  3
   4190   4189   4201   8467     1  0.0000000  1.0460000  1
   4190   4189   4201   8467     1  0.0000000  0.0000000  3
   4190   4189   4201   4202     1  0.0000000  0.6508444  3
   4190   4189   4201   4203     1  0.0000000  0.6508444  3
   4191   4189   4201   8467     1  0.0000000  1.0460000  1
   4191   4189   4201   8467     1  0.0000000  0.0000000  3
   4191   4189   4201   4202     1  0.0000000  0.6508444  3
   4191   4189   4201   4203     1  0.0000000  0.6508444  3
   4193   4192   4198   8438     1  0.0000000  1.0460000  1
   4193   4192   4198   8438     1  0.0000000  0.0000000  3
   4193   4192   4198   4199     1  0.0000000  0.6508444  3
   4193   4192   4198   4200     1  0.0000000  0.6508444  3
   4194   4192   4198   8438     1  0.0000000  1.0460000  1
   4194   4192   4198   8438     1  0.0000000  0.0000000  3
   4194   4192   4198   4199     1  0.0000000  0.6508444  3
   4194   4192   4198   4200     1  0.0000000  0.6508444  3
   4198   8438   8429   8430     1  0.0000000  1.6038667  3
   4198   8438   8429   8431     1  0.0000000  1.6038667  3
   4199   4198   8438   8429     1  0.0000000  1.6038667  3
   4200   4198   8438   8429     1  0.0000000  1.6038667  3
   4201   8467   8458   8459     1  0.0000000  1.6038667  3
   4201   8467   8458   8460     1  0.0000000  1.6038667  3
   4202   4201   8467   8458     1  0.0000000  1.6038667  3
   4203   4201   8467   8458     1  0.0000000  1.6038667  3
   4205   4206   4218   4219     1  0.0000000  0.6508444  3
   4205   4206   4218   4220     1  0.0000000  0.6508444  3
   4205   4209   4221   4222     1  0.0000000  0.6508444  3
   4205   4209   4221   4223     1  0.0000000  0.6508444  3
   4205   4212   4215   4216     1  0.0000000  0.6508444  3
   4205   4212   4215   4217     1  0.0000000  0.6508444  3
   4206   4205   4209   4210     1  0.0000000  1.2552000  3
   4206   4205   4209   4211     1  0.0000000  1.2552000  3
   4206   4205   4212   4213     1  0.0000000  1.2552000  3
   4206   4205   4212   4214     1  0.0000000  1.2552000  3
   4206   4218   4230   4231     1  0.0000000  0.6508444  3
   4206   4218   4230   4232     1  0.0000000  0.6508444  3
   4207   4206   4205   4209     1  0.0000000  1.2552000  3
   4207   4206   4205   4212     1  0.0000000  1.2552000  3
   4207   4206   4218   4230     1  0.0000000  0.6508444  3
   4207   4206   4218   4219     1  0.0000000  0.6508444  3
   4207   4206   4218   4220     1  0.0000000  0.6508444  3
   4208   4206   4205   4209     1  0.0000000  1.2552000  3
   4208   4206   4205   4212     1  0.0000000  1.2552000  3
   4208   4206   4218   4230     1  0.0000000  0.6508444  3
   4208   4206   4218   4219     1  0.0000000  0.6508444  3
   4208   4206   4218   4220     1  0.0000000  0.6508444  3
   4209   4205   4212   4213     1  0.0000000  1.2552000  3
   4209   4205   4212   4214     1  0.0000000  1.2552000  3
   4209   4221   4227   4228     1  0.0000000  0.6508444  3
   4209   4221   4227   4229     1  0.0000000  0.6508444  3
   4210   4209   4205   4212     1  0.0000000  1.2552000  3
   4210   4209   4221   4227     1  0.0000000  0.6508444  3
   4210   4209   4221   4222     1  0.0000000  0.6508444  3
   4210   4209   4221   4223     1  0.0000000  0.6508444  3
   4211   4209   4205   4212     1  0.0000000  1.2552000  3
   4211   4209   4221   4227     1  0.0000000  0.6508444  3
   4211   4209   4221   4222     1  0.0000000  0.6508444  3
   4211   4209   4221   4223     1  0.0000000  0.6508444  3
   4212   4215   4224   4225     1  0.0000000  0.6508444  3
   4212   4215   4224   4226     1  0.0000000  0.6508444  3
   4213   4212   4215   4224     1  0.0000000  0.6508444  3
   4213   4212   4215   4216     1  0.0000000  0.6508444  3
   4213   4212   4215   4217     1  0.0000000  0.6508444  3
   4214   4212   4215   4224     1  0.0000000  0.6508444  3
   4214   4212   4215   4216     1  0.0000000  0.6508444  3
   4214   4212   4215   4217     1  0.0000000  0.6508444  3
   4216   4215   4224   4233     1  0.0000000  1.0460000  1
   4216   4215   4224   4233     1  0.0000000  0.0000000  3
   4216   4215   4224   4225     1  0.0000000  0.6508444  3
   4216   4215   4224   4226     1  0.0000000  0.6508444  3
   4217   4215   4224   4233     1  0.0000000  1.0460000  1
   4217   4215   4224   4233     1  0.0000000  0.0000000  3
   4217   4215   4224   4225     1  0.0000000  0.6508444  3
   4217   4215   4224   4226     1  0.0000000  0.6508444  3
   4219   4218   4230   8525     1  0.0000000  1.0460000  1
   4219   4218   4230   8525     1  0.0000000  0.0000000  3
   4219   4218   4230   4231     1  0.0000000  0.6508444  3
   4219   4218   4230   4232     1  0.0000000  0.6508444  3
   4220   4218   4230   8525     1  0.0000000  1.0460000  1
   4220   4218   4230   8525     1  0.0000000  0.0000000  3
   4220   4218   4230   4231     1  0.0000000  0.6508444  3
   4220   4218   4230   4232     1  0.0000000  0.6508444  3
   4222   4221   4227   8496     1  0.0000000  1.0460000  1
   4222   4221   4227   8496     1  0.0000000  0.0000000  3
   4222   4221   4227   4228     1  0.0000000  0.6508444  3
   4222   4221   4227   4229     1  0.0000000  0.6508444  3
   4223   4221   4227   8496     1  0.0000000  1.0460000  1
   4223   4221   4227   8496     1  0.0000000  0.0000000  3
   4223   4221   4227   4228     1  0.0000000  0.6508444  3
   4223   4221   4227   4229     1  0.0000000  0.6508444  3
   4227   8496   8487   8488     1  0.0000000  1.6038667  3
   4227   8496   8487   8489     1  0.0000000  1.6038667  3
   4228   4227   8496   8487     1  0.0000000  1.6038667  3
   4229   4227   8496   8487     1  0.0000000  1.6038667  3
   4230   8525   8516   8517     1  0.0000000  1.6038667  3
   4230   8525   8516   8518     1  0.0000000  1.6038667  3
   4231   4230   8525   8516     1  0.0000000  1.6038667  3
   4232   4230   8525   8516     1  0.0000000  1.6038667  3
   4234   4235   4247   4248     1  0.0000000  0.6508444  3
   4234   4235   4247   4249     1  0.0000000  0.6508444  3
   4234   4238   4250   4251     1  0.0000000  0.6508444  3
   4234   4238   4250   4252     1  0.0000000  0.6508444  3
   4234   4241   4244   4245     1  0.0000000  0.6508444  3
   4234   4241   4244   4246     1  0.0000000  0.6508444  3
   4235   4234   4238   4239     1  0.0000000  1.2552000  3
   4235   4234   4238   4240     1  0.0000000  1.2552000  3
   4235   4234   4241   4242     1  0.0000000  1.2552000  3
   4235   4234   4241   4243     1  0.0000000  1.2552000  3
   4235   4247   4259   4260     1  0.0000000  0.6508444  3
   4235   4247   4259   4261     1  0.0000000  0.6508444  3
   4236   4235   4234   4238     1  0.0000000  1.2552000  3
   4236   4235   4234   4241     1  0.0000000  1.2552000  3
   4236   4235   4247   4259     1  0.0000000  0.6508444  3
   4236   4235   4247   4248     1  0.0000000  0.6508444  3
   4236   4235   4247   4249     1  0.0000000  0.6508444  3
   4237   4235   4234   4238     1  0.0000000  1.2552000  3
   4237   4235   4234   4241     1  0.0000000  1.2552000  3
   4237   4235   4247   4259     1  0.0000000  0.6508444  3
   4237   4235   4247   4248     1  0.0000000  0.6508444  3
   4237   4235   4247   4249     1  0.0000000  0.6508444  3
   4238   4234   4241   4242     1  0.0000000  1.2552000  3
   4238   4234   4241   4243     1  0.0000000  1.2552000  3
   4238   4250   4256   4257     1  0.0000000  0.6508444  3
   4238   4250   4256   4258     1  0.0000000  0.6508444  3
   4239   4238   4234   4241     1  0.0000000  1.2552000  3
   4239   4238   4250   4256     1  0.0000000  0.6508444  3
   4239   4238   4250   4251     1  0.0000000  0.6508444  3
   4239   4238   4250   4252     1  0.0000000  0.6508444  3
   4240   4238   4234   4241     1  0.0000000  1.2552000  3
   4240   4238   4250   4256     1  0.0000000  0.6508444  3
   4240   4238   4250   4251     1  0.0000000  0.6508444  3
   4240   4238   4250   4252     1  0.0000000  0.6508444  3
   4241   4244   4253   4254     1  0.0000000  0.6508444  3
   4241   4244   4253   4255     1  0.0000000  0.6508444  3
   4242   4241   4244   4253     1  0.0000000  0.6508444  3
   4242   4241   4244   4245     1  0.0000000  0.6508444  3
   4242   4241   4244   4246     1  0.0000000  0.6508444  3
   4243   4241   4244   4253     1  0.0000000  0.6508444  3
   4243   4241   4244   4245     1  0.0000000  0.6508444  3
   4243   4241   4244   4246     1  0.0000000  0.6508444  3
   4245   4244   4253   4262     1  0.0000000  1.0460000  1
   4245   4244   4253   4262     1  0.0000000  0.0000000  3
   4245   4244   4253   4254     1  0.0000000  0.6508444  3
   4245   4244   4253   4255     1  0.0000000  0.6508444  3
   4246   4244   4253   4262     1  0.0000000  1.0460000  1
   4246   4244   4253   4262     1  0.0000000  0.0000000  3
   4246   4244   4253   4254     1  0.0000000  0.6508444  3
   4246   4244   4253   4255     1  0.0000000  0.6508444  3
   4248   4247   4259   8583     1  0.0000000  1.0460000  1
   4248   4247   4259   8583     1  0.0000000  0.0000000  3
   4248   4247   4259   4260     1  0.0000000  0.6508444  3
   4248   4247   4259   4261     1  0.0000000  0.6508444  3
   4249   4247   4259   8583     1  0.0000000  1.0460000  1
   4249   4247   4259   8583     1  0.0000000  0.0000000  3
   4249   4247   4259   4260     1  0.0000000  0.6508444  3
   4249   4247   4259   4261     1  0.0000000  0.6508444  3
   4251   4250   4256   8554     1  0.0000000  1.0460000  1
   4251   4250   4256   8554     1  0.0000000  0.0000000  3
   4251   4250   4256   4257     1  0.0000000  0.6508444  3
   4251   4250   4256   4258     1  0.0000000  0.6508444  3
   4252   4250   4256   8554     1  0.0000000  1.0460000  1
   4252   4250   4256   8554     1  0.0000000  0.0000000  3
   4252   4250   4256   4257     1  0.0000000  0.6508444  3
   4252   4250   4256   4258     1  0.0000000  0.6508444  3
   4256   8554   8545   8546     1  0.0000000  1.6038667  3
   4256   8554   8545   8547     1  0.0000000  1.6038667  3
   4257   4256   8554   8545     1  0.0000000  1.6038667  3
   4258   4256   8554   8545     1  0.0000000  1.6038667  3
   4259   8583   8574   8575     1  0.0000000  1.6038667  3
   4259   8583   8574   8576     1  0.0000000  1.6038667  3
   4260   4259   8583   8574     1  0.0000000  1.6038667  3
   4261   4259   8583   8574     1  0.0000000  1.6038667  3
   4263   4264   4276   4277     1  0.0000000  0.6508444  3
   4263   4264   4276   4278     1  0.0000000  0.6508444  3
   4263   4267   4279   4280     1  0.0000000  0.6508444  3
   4263   4267   4279   4281     1  0.0000000  0.6508444  3
   4263   4270   4273   4274     1  0.0000000  0.6508444  3
   4263   4270   4273   4275     1  0.0000000  0.6508444  3
   4264   4263   4267   4268     1  0.0000000  1.2552000  3
   4264   4263   4267   4269     1  0.0000000  1.2552000  3
   4264   4263   4270   4271     1  0.0000000  1.2552000  3
   4264   4263   4270   4272     1  0.0000000  1.2552000  3
   4264   4276   4288   4289     1  0.0000000  0.6508444  3
   4264   4276   4288   4290     1  0.0000000  0.6508444  3
   4265   4264   4263   4267     1  0.0000000  1.2552000  3
   4265   4264   4263   4270     1  0.0000000  1.2552000  3
   4265   4264   4276   4288     1  0.0000000  0.6508444  3
   4265   4264   4276   4277     1  0.0000000  0.6508444  3
   4265   4264   4276   4278     1  0.0000000  0.6508444  3
   4266   4264   4263   4267     1  0.0000000  1.2552000  3
   4266   4264   4263   4270     1  0.0000000  1.2552000  3
   4266   4264   4276   4288     1  0.0000000  0.6508444  3
   4266   4264   4276   4277     1  0.0000000  0.6508444  3
   4266   4264   4276   4278     1  0.0000000  0.6508444  3
   4267   4263   4270   4271     1  0.0000000  1.2552000  3
   4267   4263   4270   4272     1  0.0000000  1.2552000  3
   4267   4279   4285   4286     1  0.0000000  0.6508444  3
   4267   4279   4285   4287     1  0.0000000  0.6508444  3
   4268   4267   4263   4270     1  0.0000000  1.2552000  3
   4268   4267   4279   4285     1  0.0000000  0.6508444  3
   4268   4267   4279   4280     1  0.0000000  0.6508444  3
   4268   4267   4279   4281     1  0.0000000  0.6508444  3
   4269   4267   4263   4270     1  0.0000000  1.2552000  3
   4269   4267   4279   4285     1  0.0000000  0.6508444  3
   4269   4267   4279   4280     1  0.0000000  0.6508444  3
   4269   4267   4279   4281     1  0.0000000  0.6508444  3
   4270   4273   4282   4283     1  0.0000000  0.6508444  3
   4270   4273   4282   4284     1  0.0000000  0.6508444  3
   4271   4270   4273   4282     1  0.0000000  0.6508444  3
   4271   4270   4273   4274     1  0.0000000  0.6508444  3
   4271   4270   4273   4275     1  0.0000000  0.6508444  3
   4272   4270   4273   4282     1  0.0000000  0.6508444  3
   4272   4270   4273   4274     1  0.0000000  0.6508444  3
   4272   4270   4273   4275     1  0.0000000  0.6508444  3
   4274   4273   4282   4291     1  0.0000000  1.0460000  1
   4274   4273   4282   4291     1  0.0000000  0.0000000  3
   4274   4273   4282   4283     1  0.0000000  0.6508444  3
   4274   4273   4282   4284     1  0.0000000  0.6508444  3
   4275   4273   4282   4291     1  0.0000000  1.0460000  1
   4275   4273   4282   4291     1  0.0000000  0.0000000  3
   4275   4273   4282   4283     1  0.0000000  0.6508444  3
   4275   4273   4282   4284     1  0.0000000  0.6508444  3
   4277   4276   4288   8641     1  0.0000000  1.0460000  1
   4277   4276   4288   8641     1  0.0000000  0.0000000  3
   4277   4276   4288   4289     1  0.0000000  0.6508444  3
   4277   4276   4288   4290     1  0.0000000  0.6508444  3
   4278   4276   4288   8641     1  0.0000000  1.0460000  1
   4278   4276   4288   8641     1  0.0000000  0.0000000  3
   4278   4276   4288   4289     1  0.0000000  0.6508444  3
   4278   4276   4288   4290     1  0.0000000  0.6508444  3
   4280   4279   4285   8612     1  0.0000000  1.0460000  1
   4280   4279   4285   8612     1  0.0000000  0.0000000  3
   4280   4279   4285   4286     1  0.0000000  0.6508444  3
   4280   4279   4285   4287     1  0.0000000  0.6508444  3
   4281   4279   4285   8612     1  0.0000000  1.0460000  1
   4281   4279   4285   8612     1  0.0000000  0.0000000  3
   4281   4279   4285   4286     1  0.0000000  0.6508444  3
   4281   4279   4285   4287     1  0.0000000  0.6508444  3
   4285   8612   8603   8604     1  0.0000000  1.6038667  3
   4285   8612   8603   8605     1  0.0000000  1.6038667  3
   4286   4285   8612   8603     1  0.0000000  1.6038667  3
   4287   4285   8612   8603     1  0.0000000  1.6038667  3
   4288   8641   8632   8633     1  0.0000000  1.6038667  3
   4288   8641   8632   8634     1  0.0000000  1.6038667  3
   4289   4288   8641   8632     1  0.0000000  1.6038667  3
   4290   4288   8641   8632     1  0.0000000  1.6038667  3
   4292   4293   4305   4306     1  0.0000000  0.6508444  3
   4292   4293   4305   4307     1  0.0000000  0.6508444  3
   4292   4296   4308   4309     1  0.0000000  0.6508444  3
   4292   4296   4308   4310     1  0.0000000  0.6508444  3
   4292   4299   4302   4303     1  0.0000000  0.6508444  3
   4292   4299   4302   4304     1  0.0000000  0.6508444  3
   4293   4292   4296   4297     1  0.0000000  1.2552000  3
   4293   4292   4296   4298     1  0.0000000  1.2552000  3
   4293   4292   4299   4300     1  0.0000000  1.2552000  3
   4293   4292   4299   4301     1  0.0000000  1.2552000  3
   4293   4305   4317   4318     1  0.0000000  0.6508444  3
   4293   4305   4317   4319     1  0.0000000  0.6508444  3
   4294   4293   4292   4296     1  0.0000000  1.2552000  3
   4294   4293   4292   4299     1  0.0000000  1.2552000  3
   4294   4293   4305   4317     1  0.0000000  0.6508444  3
   4294   4293   4305   4306     1  0.0000000  0.6508444  3
   4294   4293   4305   4307     1  0.0000000  0.6508444  3
   4295   4293   4292   4296     1  0.0000000  1.2552000  3
   4295   4293   4292   4299     1  0.0000000  1.2552000  3
   4295   4293   4305   4317     1  0.0000000  0.6508444  3
   4295   4293   4305   4306     1  0.0000000  0.6508444  3
   4295   4293   4305   4307     1  0.0000000  0.6508444  3
   4296   4292   4299   4300     1  0.0000000  1.2552000  3
   4296   4292   4299   4301     1  0.0000000  1.2552000  3
   4296   4308   4314   4315     1  0.0000000  0.6508444  3
   4296   4308   4314   4316     1  0.0000000  0.6508444  3
   4297   4296   4292   4299     1  0.0000000  1.2552000  3
   4297   4296   4308   4314     1  0.0000000  0.6508444  3
   4297   4296   4308   4309     1  0.0000000  0.6508444  3
   4297   4296   4308   4310     1  0.0000000  0.6508444  3
   4298   4296   4292   4299     1  0.0000000  1.2552000  3
   4298   4296   4308   4314     1  0.0000000  0.6508444  3
   4298   4296   4308   4309     1  0.0000000  0.6508444  3
   4298   4296   4308   4310     1  0.0000000  0.6508444  3
   4299   4302   4311   4312     1  0.0000000  0.6508444  3
   4299   4302   4311   4313     1  0.0000000  0.6508444  3
   4300   4299   4302   4311     1  0.0000000  0.6508444  3
   4300   4299   4302   4303     1  0.0000000  0.6508444  3
   4300   4299   4302   4304     1  0.0000000  0.6508444  3
   4301   4299   4302   4311     1  0.0000000  0.6508444  3
   4301   4299   4302   4303     1  0.0000000  0.6508444  3
   4301   4299   4302   4304     1  0.0000000  0.6508444  3
   4303   4302   4311   4320     1  0.0000000  1.0460000  1
   4303   4302   4311   4320     1  0.0000000  0.0000000  3
   4303   4302   4311   4312     1  0.0000000  0.6508444  3
   4303   4302   4311   4313     1  0.0000000  0.6508444  3
   4304   4302   4311   4320     1  0.0000000  1.0460000  1
   4304   4302   4311   4320     1  0.0000000  0.0000000  3
   4304   4302   4311   4312     1  0.0000000  0.6508444  3
   4304   4302   4311   4313     1  0.0000000  0.6508444  3
   4306   4305   4317   8699     1  0.0000000  1.0460000  1
   4306   4305   4317   8699     1  0.0000000  0.0000000  3
   4306   4305   4317   4318     1  0.0000000  0.6508444  3
   4306   4305   4317   4319     1  0.0000000  0.6508444  3
   4307   4305   4317   8699     1  0.0000000  1.0460000  1
   4307   4305   4317   8699     1  0.0000000  0.0000000  3
   4307   4305   4317   4318     1  0.0000000  0.6508444  3
   4307   4305   4317   4319     1  0.0000000  0.6508444  3
   4309   4308   4314   8670     1  0.0000000  1.0460000  1
   4309   4308   4314   8670     1  0.0000000  0.0000000  3
   4309   4308   4314   4315     1  0.0000000  0.6508444  3
   4309   4308   4314   4316     1  0.0000000  0.6508444  3
   4310   4308   4314   8670     1  0.0000000  1.0460000  1
   4310   4308   4314   8670     1  0.0000000  0.0000000  3
   4310   4308   4314   4315     1  0.0000000  0.6508444  3
   4310   4308   4314   4316     1  0.0000000  0.6508444  3
   4314   8670   8661   8662     1  0.0000000  1.6038667  3
   4314   8670   8661   8663     1  0.0000000  1.6038667  3
   4315   4314   8670   8661     1  0.0000000  1.6038667  3
   4316   4314   8670   8661     1  0.0000000  1.6038667  3
   4317   8699   8690   8691     1  0.0000000  1.6038667  3
   4317   8699   8690   8692     1  0.0000000  1.6038667  3
   4318   4317   8699   8690     1  0.0000000  1.6038667  3
   4319   4317   8699   8690     1  0.0000000  1.6038667  3
   4321   4322   4334   4335     1  0.0000000  0.6508444  3
   4321   4322   4334   4336     1  0.0000000  0.6508444  3
   4321   4325   4337   4338     1  0.0000000  0.6508444  3
   4321   4325   4337   4339     1  0.0000000  0.6508444  3
   4321   4328   4331   4332     1  0.0000000  0.6508444  3
   4321   4328   4331   4333     1  0.0000000  0.6508444  3
   4322   4321   4325   4326     1  0.0000000  1.2552000  3
   4322   4321   4325   4327     1  0.0000000  1.2552000  3
   4322   4321   4328   4329     1  0.0000000  1.2552000  3
   4322   4321   4328   4330     1  0.0000000  1.2552000  3
   4322   4334   4346   4347     1  0.0000000  0.6508444  3
   4322   4334   4346   4348     1  0.0000000  0.6508444  3
   4323   4322   4321   4325     1  0.0000000  1.2552000  3
   4323   4322   4321   4328     1  0.0000000  1.2552000  3
   4323   4322   4334   4346     1  0.0000000  0.6508444  3
   4323   4322   4334   4335     1  0.0000000  0.6508444  3
   4323   4322   4334   4336     1  0.0000000  0.6508444  3
   4324   4322   4321   4325     1  0.0000000  1.2552000  3
   4324   4322   4321   4328     1  0.0000000  1.2552000  3
   4324   4322   4334   4346     1  0.0000000  0.6508444  3
   4324   4322   4334   4335     1  0.0000000  0.6508444  3
   4324   4322   4334   4336     1  0.0000000  0.6508444  3
   4325   4321   4328   4329     1  0.0000000  1.2552000  3
   4325   4321   4328   4330     1  0.0000000  1.2552000  3
   4325   4337   4343   4344     1  0.0000000  0.6508444  3
   4325   4337   4343   4345     1  0.0000000  0.6508444  3
   4326   4325   4321   4328     1  0.0000000  1.2552000  3
   4326   4325   4337   4343     1  0.0000000  0.6508444  3
   4326   4325   4337   4338     1  0.0000000  0.6508444  3
   4326   4325   4337   4339     1  0.0000000  0.6508444  3
   4327   4325   4321   4328     1  0.0000000  1.2552000  3
   4327   4325   4337   4343     1  0.0000000  0.6508444  3
   4327   4325   4337   4338     1  0.0000000  0.6508444  3
   4327   4325   4337   4339     1  0.0000000  0.6508444  3
   4328   4331   4340   4341     1  0.0000000  0.6508444  3
   4328   4331   4340   4342     1  0.0000000  0.6508444  3
   4329   4328   4331   4340     1  0.0000000  0.6508444  3
   4329   4328   4331   4332     1  0.0000000  0.6508444  3
   4329   4328   4331   4333     1  0.0000000  0.6508444  3
   4330   4328   4331   4340     1  0.0000000  0.6508444  3
   4330   4328   4331   4332     1  0.0000000  0.6508444  3
   4330   4328   4331   4333     1  0.0000000  0.6508444  3
   4332   4331   4340   4349     1  0.0000000  1.0460000  1
   4332   4331   4340   4349     1  0.0000000  0.0000000  3
   4332   4331   4340   4341     1  0.0000000  0.6508444  3
   4332   4331   4340   4342     1  0.0000000  0.6508444  3
   4333   4331   4340   4349     1  0.0000000  1.0460000  1
   4333   4331   4340   4349     1  0.0000000  0.0000000  3
   4333   4331   4340   4341     1  0.0000000  0.6508444  3
   4333   4331   4340   4342     1  0.0000000  0.6508444  3
   4335   4334   4346   8757     1  0.0000000  1.0460000  1
   4335   4334   4346   8757     1  0.0000000  0.0000000  3
   4335   4334   4346   4347     1  0.0000000  0.6508444  3
   4335   4334   4346   4348     1  0.0000000  0.6508444  3
   4336   4334   4346   8757     1  0.0000000  1.0460000  1
   4336   4334   4346   8757     1  0.0000000  0.0000000  3
   4336   4334   4346   4347     1  0.0000000  0.6508444  3
   4336   4334   4346   4348     1  0.0000000  0.6508444  3
   4338   4337   4343   8728     1  0.0000000  1.0460000  1
   4338   4337   4343   8728     1  0.0000000  0.0000000  3
   4338   4337   4343   4344     1  0.0000000  0.6508444  3
   4338   4337   4343   4345     1  0.0000000  0.6508444  3
   4339   4337   4343   8728     1  0.0000000  1.0460000  1
   4339   4337   4343   8728     1  0.0000000  0.0000000  3
   4339   4337   4343   4344     1  0.0000000  0.6508444  3
   4339   4337   4343   4345     1  0.0000000  0.6508444  3
   4343   8728   8719   8720     1  0.0000000  1.6038667  3
   4343   8728   8719   8721     1  0.0000000  1.6038667  3
   4344   4343   8728   8719     1  0.0000000  1.6038667  3
   4345   4343   8728   8719     1  0.0000000  1.6038667  3
   4346   8757   8748   8749     1  0.0000000  1.6038667  3
   4346   8757   8748   8750     1  0.0000000  1.6038667  3
   4347   4346   8757   8748     1  0.0000000  1.6038667  3
   4348   4346   8757   8748     1  0.0000000  1.6038667  3
   4350   4351   4363   4364     1  0.0000000  0.6508444  3
   4350   4351   4363   4365     1  0.0000000  0.6508444  3
   4350   4354   4366   4367     1  0.0000000  0.6508444  3
   4350   4354   4366   4368     1  0.0000000  0.6508444  3
   4350   4357   4360   4361     1  0.0000000  0.6508444  3
   4350   4357   4360   4362     1  0.0000000  0.6508444  3
   4351   4350   4354   4355     1  0.0000000  1.2552000  3
   4351   4350   4354   4356     1  0.0000000  1.2552000  3
   4351   4350   4357   4358     1  0.0000000  1.2552000  3
   4351   4350   4357   4359     1  0.0000000  1.2552000  3
   4351   4363   4375   4376     1  0.0000000  0.6508444  3
   4351   4363   4375   4377     1  0.0000000  0.6508444  3
   4352   4351   4350   4354     1  0.0000000  1.2552000  3
   4352   4351   4350   4357     1  0.0000000  1.2552000  3
   4352   4351   4363   4375     1  0.0000000  0.6508444  3
   4352   4351   4363   4364     1  0.0000000  0.6508444  3
   4352   4351   4363   4365     1  0.0000000  0.6508444  3
   4353   4351   4350   4354     1  0.0000000  1.2552000  3
   4353   4351   4350   4357     1  0.0000000  1.2552000  3
   4353   4351   4363   4375     1  0.0000000  0.6508444  3
   4353   4351   4363   4364     1  0.0000000  0.6508444  3
   4353   4351   4363   4365     1  0.0000000  0.6508444  3
   4354   4350   4357   4358     1  0.0000000  1.2552000  3
   4354   4350   4357   4359     1  0.0000000  1.2552000  3
   4354   4366   4372   4373     1  0.0000000  0.6508444  3
   4354   4366   4372   4374     1  0.0000000  0.6508444  3
   4355   4354   4350   4357     1  0.0000000  1.2552000  3
   4355   4354   4366   4372     1  0.0000000  0.6508444  3
   4355   4354   4366   4367     1  0.0000000  0.6508444  3
   4355   4354   4366   4368     1  0.0000000  0.6508444  3
   4356   4354   4350   4357     1  0.0000000  1.2552000  3
   4356   4354   4366   4372     1  0.0000000  0.6508444  3
   4356   4354   4366   4367     1  0.0000000  0.6508444  3
   4356   4354   4366   4368     1  0.0000000  0.6508444  3
   4357   4360   4369   4370     1  0.0000000  0.6508444  3
   4357   4360   4369   4371     1  0.0000000  0.6508444  3
   4358   4357   4360   4369     1  0.0000000  0.6508444  3
   4358   4357   4360   4361     1  0.0000000  0.6508444  3
   4358   4357   4360   4362     1  0.0000000  0.6508444  3
   4359   4357   4360   4369     1  0.0000000  0.6508444  3
   4359   4357   4360   4361     1  0.0000000  0.6508444  3
   4359   4357   4360   4362     1  0.0000000  0.6508444  3
   4361   4360   4369   4378     1  0.0000000  1.0460000  1
   4361   4360   4369   4378     1  0.0000000  0.0000000  3
   4361   4360   4369   4370     1  0.0000000  0.6508444  3
   4361   4360   4369   4371     1  0.0000000  0.6508444  3
   4362   4360   4369   4378     1  0.0000000  1.0460000  1
   4362   4360   4369   4378     1  0.0000000  0.0000000  3
   4362   4360   4369   4370     1  0.0000000  0.6508444  3
   4362   4360   4369   4371     1  0.0000000  0.6508444  3
   4364   4363   4375   8815     1  0.0000000  1.0460000  1
   4364   4363   4375   8815     1  0.0000000  0.0000000  3
   4364   4363   4375   4376     1  0.0000000  0.6508444  3
   4364   4363   4375   4377     1  0.0000000  0.6508444  3
   4365   4363   4375   8815     1  0.0000000  1.0460000  1
   4365   4363   4375   8815     1  0.0000000  0.0000000  3
   4365   4363   4375   4376     1  0.0000000  0.6508444  3
   4365   4363   4375   4377     1  0.0000000  0.6508444  3
   4367   4366   4372   8786     1  0.0000000  1.0460000  1
   4367   4366   4372   8786     1  0.0000000  0.0000000  3
   4367   4366   4372   4373     1  0.0000000  0.6508444  3
   4367   4366   4372   4374     1  0.0000000  0.6508444  3
   4368   4366   4372   8786     1  0.0000000  1.0460000  1
   4368   4366   4372   8786     1  0.0000000  0.0000000  3
   4368   4366   4372   4373     1  0.0000000  0.6508444  3
   4368   4366   4372   4374     1  0.0000000  0.6508444  3
   4372   8786   8777   8778     1  0.0000000  1.6038667  3
   4372   8786   8777   8779     1  0.0000000  1.6038667  3
   4373   4372   8786   8777     1  0.0000000  1.6038667  3
   4374   4372   8786   8777     1  0.0000000  1.6038667  3
   4375   8815   8806   8807     1  0.0000000  1.6038667  3
   4375   8815   8806   8808     1  0.0000000  1.6038667  3
   4376   4375   8815   8806     1  0.0000000  1.6038667  3
   4377   4375   8815   8806     1  0.0000000  1.6038667  3
   4379   4380   4392   4393     1  0.0000000  0.6508444  3
   4379   4380   4392   4394     1  0.0000000  0.6508444  3
   4379   4383   4395   4396     1  0.0000000  0.6508444  3
   4379   4383   4395   4397     1  0.0000000  0.6508444  3
   4379   4386   4389   4390     1  0.0000000  0.6508444  3
   4379   4386   4389   4391     1  0.0000000  0.6508444  3
   4380   4379   4383   4384     1  0.0000000  1.2552000  3
   4380   4379   4383   4385     1  0.0000000  1.2552000  3
   4380   4379   4386   4387     1  0.0000000  1.2552000  3
   4380   4379   4386   4388     1  0.0000000  1.2552000  3
   4380   4392   4404   4405     1  0.0000000  0.6508444  3
   4380   4392   4404   4406     1  0.0000000  0.6508444  3
   4381   4380   4379   4383     1  0.0000000  1.2552000  3
   4381   4380   4379   4386     1  0.0000000  1.2552000  3
   4381   4380   4392   4404     1  0.0000000  0.6508444  3
   4381   4380   4392   4393     1  0.0000000  0.6508444  3
   4381   4380   4392   4394     1  0.0000000  0.6508444  3
   4382   4380   4379   4383     1  0.0000000  1.2552000  3
   4382   4380   4379   4386     1  0.0000000  1.2552000  3
   4382   4380   4392   4404     1  0.0000000  0.6508444  3
   4382   4380   4392   4393     1  0.0000000  0.6508444  3
   4382   4380   4392   4394     1  0.0000000  0.6508444  3
   4383   4379   4386   4387     1  0.0000000  1.2552000  3
   4383   4379   4386   4388     1  0.0000000  1.2552000  3
   4383   4395   4401   4402     1  0.0000000  0.6508444  3
   4383   4395   4401   4403     1  0.0000000  0.6508444  3
   4384   4383   4379   4386     1  0.0000000  1.2552000  3
   4384   4383   4395   4401     1  0.0000000  0.6508444  3
   4384   4383   4395   4396     1  0.0000000  0.6508444  3
   4384   4383   4395   4397     1  0.0000000  0.6508444  3
   4385   4383   4379   4386     1  0.0000000  1.2552000  3
   4385   4383   4395   4401     1  0.0000000  0.6508444  3
   4385   4383   4395   4396     1  0.0000000  0.6508444  3
   4385   4383   4395   4397     1  0.0000000  0.6508444  3
   4386   4389   4398   4399     1  0.0000000  0.6508444  3
   4386   4389   4398   4400     1  0.0000000  0.6508444  3
   4387   4386   4389   4398     1  0.0000000  0.6508444  3
   4387   4386   4389   4390     1  0.0000000  0.6508444  3
   4387   4386   4389   4391     1  0.0000000  0.6508444  3
   4388   4386   4389   4398     1  0.0000000  0.6508444  3
   4388   4386   4389   4390     1  0.0000000  0.6508444  3
   4388   4386   4389   4391     1  0.0000000  0.6508444  3
   4390   4389   4398   4407     1  0.0000000  1.0460000  1
   4390   4389   4398   4407     1  0.0000000  0.0000000  3
   4390   4389   4398   4399     1  0.0000000  0.6508444  3
   4390   4389   4398   4400     1  0.0000000  0.6508444  3
   4391   4389   4398   4407     1  0.0000000  1.0460000  1
   4391   4389   4398   4407     1  0.0000000  0.0000000  3
   4391   4389   4398   4399     1  0.0000000  0.6508444  3
   4391   4389   4398   4400     1  0.0000000  0.6508444  3
   4393   4392   4404   8873     1  0.0000000  1.0460000  1
   4393   4392   4404   8873     1  0.0000000  0.0000000  3
   4393   4392   4404   4405     1  0.0000000  0.6508444  3
   4393   4392   4404   4406     1  0.0000000  0.6508444  3
   4394   4392   4404   8873     1  0.0000000  1.0460000  1
   4394   4392   4404   8873     1  0.0000000  0.0000000  3
   4394   4392   4404   4405     1  0.0000000  0.6508444  3
   4394   4392   4404   4406     1  0.0000000  0.6508444  3
   4396   4395   4401   8844     1  0.0000000  1.0460000  1
   4396   4395   4401   8844     1  0.0000000  0.0000000  3
   4396   4395   4401   4402     1  0.0000000  0.6508444  3
   4396   4395   4401   4403     1  0.0000000  0.6508444  3
   4397   4395   4401   8844     1  0.0000000  1.0460000  1
   4397   4395   4401   8844     1  0.0000000  0.0000000  3
   4397   4395   4401   4402     1  0.0000000  0.6508444  3
   4397   4395   4401   4403     1  0.0000000  0.6508444  3
   4401   8844   8835   8836     1  0.0000000  1.6038667  3
   4401   8844   8835   8837     1  0.0000000  1.6038667  3
   4402   4401   8844   8835     1  0.0000000  1.6038667  3
   4403   4401   8844   8835     1  0.0000000  1.6038667  3
   4404   8873   8864   8865     1  0.0000000  1.6038667  3
   4404   8873   8864   8866     1  0.0000000  1.6038667  3
   4405   4404   8873   8864     1  0.0000000  1.6038667  3
   4406   4404   8873   8864     1  0.0000000  1.6038667  3
   4408   4409   4421   4422     1  0.0000000  0.6508444  3
   4408   4409   4421   4423     1  0.0000000  0.6508444  3
   4408   4412   4424   4425     1  0.0000000  0.6508444  3
   4408   4412   4424   4426     1  0.0000000  0.6508444  3
   4408   4415   4418   4419     1  0.0000000  0.6508444  3
   4408   4415   4418   4420     1  0.0000000  0.6508444  3
   4409   4408   4412   4413     1  0.0000000  1.2552000  3
   4409   4408   4412   4414     1  0.0000000  1.2552000  3
   4409   4408   4415   4416     1  0.0000000  1.2552000  3
   4409   4408   4415   4417     1  0.0000000  1.2552000  3
   4409   4421   4433   4434     1  0.0000000  0.6508444  3
   4409   4421   4433   4435     1  0.0000000  0.6508444  3
   4410   4409   4408   4412     1  0.0000000  1.2552000  3
   4410   4409   4408   4415     1  0.0000000  1.2552000  3
   4410   4409   4421   4433     1  0.0000000  0.6508444  3
   4410   4409   4421   4422     1  0.0000000  0.6508444  3
   4410   4409   4421   4423     1  0.0000000  0.6508444  3
   4411   4409   4408   4412     1  0.0000000  1.2552000  3
   4411   4409   4408   4415     1  0.0000000  1.2552000  3
   4411   4409   4421   4433     1  0.0000000  0.6508444  3
   4411   4409   4421   4422     1  0.0000000  0.6508444  3
   4411   4409   4421   4423     1  0.0000000  0.6508444  3
   4412   4408   4415   4416     1  0.0000000  1.2552000  3
   4412   4408   4415   4417     1  0.0000000  1.2552000  3
   4412   4424   4430   4431     1  0.0000000  0.6508444  3
   4412   4424   4430   4432     1  0.0000000  0.6508444  3
   4413   4412   4408   4415     1  0.0000000  1.2552000  3
   4413   4412   4424   4430     1  0.0000000  0.6508444  3
   4413   4412   4424   4425     1  0.0000000  0.6508444  3
   4413   4412   4424   4426     1  0.0000000  0.6508444  3
   4414   4412   4408   4415     1  0.0000000  1.2552000  3
   4414   4412   4424   4430     1  0.0000000  0.6508444  3
   4414   4412   4424   4425     1  0.0000000  0.6508444  3
   4414   4412   4424   4426     1  0.0000000  0.6508444  3
   4415   4418   4427   4428     1  0.0000000  0.6508444  3
   4415   4418   4427   4429     1  0.0000000  0.6508444  3
   4416   4415   4418   4427     1  0.0000000  0.6508444  3
   4416   4415   4418   4419     1  0.0000000  0.6508444  3
   4416   4415   4418   4420     1  0.0000000  0.6508444  3
   4417   4415   4418   4427     1  0.0000000  0.6508444  3
   4417   4415   4418   4419     1  0.0000000  0.6508444  3
   4417   4415   4418   4420     1  0.0000000  0.6508444  3
   4419   4418   4427   4436     1  0.0000000  1.0460000  1
   4419   4418   4427   4436     1  0.0000000  0.0000000  3
   4419   4418   4427   4428     1  0.0000000  0.6508444  3
   4419   4418   4427   4429     1  0.0000000  0.6508444  3
   4420   4418   4427   4436     1  0.0000000  1.0460000  1
   4420   4418   4427   4436     1  0.0000000  0.0000000  3
   4420   4418   4427   4428     1  0.0000000  0.6508444  3
   4420   4418   4427   4429     1  0.0000000  0.6508444  3
   4422   4421   4433   8931     1  0.0000000  1.0460000  1
   4422   4421   4433   8931     1  0.0000000  0.0000000  3
   4422   4421   4433   4434     1  0.0000000  0.6508444  3
   4422   4421   4433   4435     1  0.0000000  0.6508444  3
   4423   4421   4433   8931     1  0.0000000  1.0460000  1
   4423   4421   4433   8931     1  0.0000000  0.0000000  3
   4423   4421   4433   4434     1  0.0000000  0.6508444  3
   4423   4421   4433   4435     1  0.0000000  0.6508444  3
   4425   4424   4430   8902     1  0.0000000  1.0460000  1
   4425   4424   4430   8902     1  0.0000000  0.0000000  3
   4425   4424   4430   4431     1  0.0000000  0.6508444  3
   4425   4424   4430   4432     1  0.0000000  0.6508444  3
   4426   4424   4430   8902     1  0.0000000  1.0460000  1
   4426   4424   4430   8902     1  0.0000000  0.0000000  3
   4426   4424   4430   4431     1  0.0000000  0.6508444  3
   4426   4424   4430   4432     1  0.0000000  0.6508444  3
   4430   8902   8893   8894     1  0.0000000  1.6038667  3
   4430   8902   8893   8895     1  0.0000000  1.6038667  3
   4431   4430   8902   8893     1  0.0000000  1.6038667  3
   4432   4430   8902   8893     1  0.0000000  1.6038667  3
   4433   8931   8922   8923     1  0.0000000  1.6038667  3
   4433   8931   8922   8924     1  0.0000000  1.6038667  3
   4434   4433   8931   8922     1  0.0000000  1.6038667  3
   4435   4433   8931   8922     1  0.0000000  1.6038667  3
   4437   4438   4450   4451     1  0.0000000  0.6508444  3
   4437   4438   4450   4452     1  0.0000000  0.6508444  3
   4437   4441   4453   4454     1  0.0000000  0.6508444  3
   4437   4441   4453   4455     1  0.0000000  0.6508444  3
   4437   4444   4447   4448     1  0.0000000  0.6508444  3
   4437   4444   4447   4449     1  0.0000000  0.6508444  3
   4438   4437   4441   4442     1  0.0000000  1.2552000  3
   4438   4437   4441   4443     1  0.0000000  1.2552000  3
   4438   4437   4444   4445     1  0.0000000  1.2552000  3
   4438   4437   4444   4446     1  0.0000000  1.2552000  3
   4438   4450   4462   4463     1  0.0000000  0.6508444  3
   4438   4450   4462   4464     1  0.0000000  0.6508444  3
   4439   4438   4437   4441     1  0.0000000  1.2552000  3
   4439   4438   4437   4444     1  0.0000000  1.2552000  3
   4439   4438   4450   4462     1  0.0000000  0.6508444  3
   4439   4438   4450   4451     1  0.0000000  0.6508444  3
   4439   4438   4450   4452     1  0.0000000  0.6508444  3
   4440   4438   4437   4441     1  0.0000000  1.2552000  3
   4440   4438   4437   4444     1  0.0000000  1.2552000  3
   4440   4438   4450   4462     1  0.0000000  0.6508444  3
   4440   4438   4450   4451     1  0.0000000  0.6508444  3
   4440   4438   4450   4452     1  0.0000000  0.6508444  3
   4441   4437   4444   4445     1  0.0000000  1.2552000  3
   4441   4437   4444   4446     1  0.0000000  1.2552000  3
   4441   4453   4459   4460     1  0.0000000  0.6508444  3
   4441   4453   4459   4461     1  0.0000000  0.6508444  3
   4442   4441   4437   4444     1  0.0000000  1.2552000  3
   4442   4441   4453   4459     1  0.0000000  0.6508444  3
   4442   4441   4453   4454     1  0.0000000  0.6508444  3
   4442   4441   4453   4455     1  0.0000000  0.6508444  3
   4443   4441   4437   4444     1  0.0000000  1.2552000  3
   4443   4441   4453   4459     1  0.0000000  0.6508444  3
   4443   4441   4453   4454     1  0.0000000  0.6508444  3
   4443   4441   4453   4455     1  0.0000000  0.6508444  3
   4444   4447   4456   4457     1  0.0000000  0.6508444  3
   4444   4447   4456   4458     1  0.0000000  0.6508444  3
   4445   4444   4447   4456     1  0.0000000  0.6508444  3
   4445   4444   4447   4448     1  0.0000000  0.6508444  3
   4445   4444   4447   4449     1  0.0000000  0.6508444  3
   4446   4444   4447   4456     1  0.0000000  0.6508444  3
   4446   4444   4447   4448     1  0.0000000  0.6508444  3
   4446   4444   4447   4449     1  0.0000000  0.6508444  3
   4448   4447   4456   4465     1  0.0000000  1.0460000  1
   4448   4447   4456   4465     1  0.0000000  0.0000000  3
   4448   4447   4456   4457     1  0.0000000  0.6508444  3
   4448   4447   4456   4458     1  0.0000000  0.6508444  3
   4449   4447   4456   4465     1  0.0000000  1.0460000  1
   4449   4447   4456   4465     1  0.0000000  0.0000000  3
   4449   4447   4456   4457     1  0.0000000  0.6508444  3
   4449   4447   4456   4458     1  0.0000000  0.6508444  3
   4451   4450   4462   8989     1  0.0000000  1.0460000  1
   4451   4450   4462   8989     1  0.0000000  0.0000000  3
   4451   4450   4462   4463     1  0.0000000  0.6508444  3
   4451   4450   4462   4464     1  0.0000000  0.6508444  3
   4452   4450   4462   8989     1  0.0000000  1.0460000  1
   4452   4450   4462   8989     1  0.0000000  0.0000000  3
   4452   4450   4462   4463     1  0.0000000  0.6508444  3
   4452   4450   4462   4464     1  0.0000000  0.6508444  3
   4454   4453   4459   8960     1  0.0000000  1.0460000  1
   4454   4453   4459   8960     1  0.0000000  0.0000000  3
   4454   4453   4459   4460     1  0.0000000  0.6508444  3
   4454   4453   4459   4461     1  0.0000000  0.6508444  3
   4455   4453   4459   8960     1  0.0000000  1.0460000  1
   4455   4453   4459   8960     1  0.0000000  0.0000000  3
   4455   4453   4459   4460     1  0.0000000  0.6508444  3
   4455   4453   4459   4461     1  0.0000000  0.6508444  3
   4459   8960   8951   8952     1  0.0000000  1.6038667  3
   4459   8960   8951   8953     1  0.0000000  1.6038667  3
   4460   4459   8960   8951     1  0.0000000  1.6038667  3
   4461   4459   8960   8951     1  0.0000000  1.6038667  3
   4462   8989   8980   8981     1  0.0000000  1.6038667  3
   4462   8989   8980   8982     1  0.0000000  1.6038667  3
   4463   4462   8989   8980     1  0.0000000  1.6038667  3
   4464   4462   8989   8980     1  0.0000000  1.6038667  3
   4466   4467   4479   4480     1  0.0000000  0.6508444  3
   4466   4467   4479   4481     1  0.0000000  0.6508444  3
   4466   4470   4482   4483     1  0.0000000  0.6508444  3
   4466   4470   4482   4484     1  0.0000000  0.6508444  3
   4466   4473   4476   4477     1  0.0000000  0.6508444  3
   4466   4473   4476   4478     1  0.0000000  0.6508444  3
   4467   4466   4470   4471     1  0.0000000  1.2552000  3
   4467   4466   4470   4472     1  0.0000000  1.2552000  3
   4467   4466   4473   4474     1  0.0000000  1.2552000  3
   4467   4466   4473   4475     1  0.0000000  1.2552000  3
   4467   4479   4491   4492     1  0.0000000  0.6508444  3
   4467   4479   4491   4493     1  0.0000000  0.6508444  3
   4468   4467   4466   4470     1  0.0000000  1.2552000  3
   4468   4467   4466   4473     1  0.0000000  1.2552000  3
   4468   4467   4479   4491     1  0.0000000  0.6508444  3
   4468   4467   4479   4480     1  0.0000000  0.6508444  3
   4468   4467   4479   4481     1  0.0000000  0.6508444  3
   4469   4467   4466   4470     1  0.0000000  1.2552000  3
   4469   4467   4466   4473     1  0.0000000  1.2552000  3
   4469   4467   4479   4491     1  0.0000000  0.6508444  3
   4469   4467   4479   4480     1  0.0000000  0.6508444  3
   4469   4467   4479   4481     1  0.0000000  0.6508444  3
   4470   4466   4473   4474     1  0.0000000  1.2552000  3
   4470   4466   4473   4475     1  0.0000000  1.2552000  3
   4470   4482   4488   4489     1  0.0000000  0.6508444  3
   4470   4482   4488   4490     1  0.0000000  0.6508444  3
   4471   4470   4466   4473     1  0.0000000  1.2552000  3
   4471   4470   4482   4488     1  0.0000000  0.6508444  3
   4471   4470   4482   4483     1  0.0000000  0.6508444  3
   4471   4470   4482   4484     1  0.0000000  0.6508444  3
   4472   4470   4466   4473     1  0.0000000  1.2552000  3
   4472   4470   4482   4488     1  0.0000000  0.6508444  3
   4472   4470   4482   4483     1  0.0000000  0.6508444  3
   4472   4470   4482   4484     1  0.0000000  0.6508444  3
   4473   4476   4485   4486     1  0.0000000  0.6508444  3
   4473   4476   4485   4487     1  0.0000000  0.6508444  3
   4474   4473   4476   4485     1  0.0000000  0.6508444  3
   4474   4473   4476   4477     1  0.0000000  0.6508444  3
   4474   4473   4476   4478     1  0.0000000  0.6508444  3
   4475   4473   4476   4485     1  0.0000000  0.6508444  3
   4475   4473   4476   4477     1  0.0000000  0.6508444  3
   4475   4473   4476   4478     1  0.0000000  0.6508444  3
   4477   4476   4485   4494     1  0.0000000  1.0460000  1
   4477   4476   4485   4494     1  0.0000000  0.0000000  3
   4477   4476   4485   4486     1  0.0000000  0.6508444  3
   4477   4476   4485   4487     1  0.0000000  0.6508444  3
   4478   4476   4485   4494     1  0.0000000  1.0460000  1
   4478   4476   4485   4494     1  0.0000000  0.0000000  3
   4478   4476   4485   4486     1  0.0000000  0.6508444  3
   4478   4476   4485   4487     1  0.0000000  0.6508444  3
   4480   4479   4491   9047     1  0.0000000  1.0460000  1
   4480   4479   4491   9047     1  0.0000000  0.0000000  3
   4480   4479   4491   4492     1  0.0000000  0.6508444  3
   4480   4479   4491   4493     1  0.0000000  0.6508444  3
   4481   4479   4491   9047     1  0.0000000  1.0460000  1
   4481   4479   4491   9047     1  0.0000000  0.0000000  3
   4481   4479   4491   4492     1  0.0000000  0.6508444  3
   4481   4479   4491   4493     1  0.0000000  0.6508444  3
   4483   4482   4488   9018     1  0.0000000  1.0460000  1
   4483   4482   4488   9018     1  0.0000000  0.0000000  3
   4483   4482   4488   4489     1  0.0000000  0.6508444  3
   4483   4482   4488   4490     1  0.0000000  0.6508444  3
   4484   4482   4488   9018     1  0.0000000  1.0460000  1
   4484   4482   4488   9018     1  0.0000000  0.0000000  3
   4484   4482   4488   4489     1  0.0000000  0.6508444  3
   4484   4482   4488   4490     1  0.0000000  0.6508444  3
   4488   9018   9009   9010     1  0.0000000  1.6038667  3
   4488   9018   9009   9011     1  0.0000000  1.6038667  3
   4489   4488   9018   9009     1  0.0000000  1.6038667  3
   4490   4488   9018   9009     1  0.0000000  1.6038667  3
   4491   9047   9038   9039     1  0.0000000  1.6038667  3
   4491   9047   9038   9040     1  0.0000000  1.6038667  3
   4492   4491   9047   9038     1  0.0000000  1.6038667  3
   4493   4491   9047   9038     1  0.0000000  1.6038667  3
   4495   4496   4508   4509     1  0.0000000  0.6508444  3
   4495   4496   4508   4510     1  0.0000000  0.6508444  3
   4495   4499   4511   4512     1  0.0000000  0.6508444  3
   4495   4499   4511   4513     1  0.0000000  0.6508444  3
   4495   4502   4505   4506     1  0.0000000  0.6508444  3
   4495   4502   4505   4507     1  0.0000000  0.6508444  3
   4496   4495   4499   4500     1  0.0000000  1.2552000  3
   4496   4495   4499   4501     1  0.0000000  1.2552000  3
   4496   4495   4502   4503     1  0.0000000  1.2552000  3
   4496   4495   4502   4504     1  0.0000000  1.2552000  3
   4496   4508   4520   4521     1  0.0000000  0.6508444  3
   4496   4508   4520   4522     1  0.0000000  0.6508444  3
   4497   4496   4495   4499     1  0.0000000  1.2552000  3
   4497   4496   4495   4502     1  0.0000000  1.2552000  3
   4497   4496   4508   4520     1  0.0000000  0.6508444  3
   4497   4496   4508   4509     1  0.0000000  0.6508444  3
   4497   4496   4508   4510     1  0.0000000  0.6508444  3
   4498   4496   4495   4499     1  0.0000000  1.2552000  3
   4498   4496   4495   4502     1  0.0000000  1.2552000  3
   4498   4496   4508   4520     1  0.0000000  0.6508444  3
   4498   4496   4508   4509     1  0.0000000  0.6508444  3
   4498   4496   4508   4510     1  0.0000000  0.6508444  3
   4499   4495   4502   4503     1  0.0000000  1.2552000  3
   4499   4495   4502   4504     1  0.0000000  1.2552000  3
   4499   4511   4517   4518     1  0.0000000  0.6508444  3
   4499   4511   4517   4519     1  0.0000000  0.6508444  3
   4500   4499   4495   4502     1  0.0000000  1.2552000  3
   4500   4499   4511   4517     1  0.0000000  0.6508444  3
   4500   4499   4511   4512     1  0.0000000  0.6508444  3
   4500   4499   4511   4513     1  0.0000000  0.6508444  3
   4501   4499   4495   4502     1  0.0000000  1.2552000  3
   4501   4499   4511   4517     1  0.0000000  0.6508444  3
   4501   4499   4511   4512     1  0.0000000  0.6508444  3
   4501   4499   4511   4513     1  0.0000000  0.6508444  3
   4502   4505   4514   4515     1  0.0000000  0.6508444  3
   4502   4505   4514   4516     1  0.0000000  0.6508444  3
   4503   4502   4505   4514     1  0.0000000  0.6508444  3
   4503   4502   4505   4506     1  0.0000000  0.6508444  3
   4503   4502   4505   4507     1  0.0000000  0.6508444  3
   4504   4502   4505   4514     1  0.0000000  0.6508444  3
   4504   4502   4505   4506     1  0.0000000  0.6508444  3
   4504   4502   4505   4507     1  0.0000000  0.6508444  3
   4506   4505   4514   4523     1  0.0000000  1.0460000  1
   4506   4505   4514   4523     1  0.0000000  0.0000000  3
   4506   4505   4514   4515     1  0.0000000  0.6508444  3
   4506   4505   4514   4516     1  0.0000000  0.6508444  3
   4507   4505   4514   4523     1  0.0000000  1.0460000  1
   4507   4505   4514   4523     1  0.0000000  0.0000000  3
   4507   4505   4514   4515     1  0.0000000  0.6508444  3
   4507   4505   4514   4516     1  0.0000000  0.6508444  3
   4509   4508   4520   9105     1  0.0000000  1.0460000  1
   4509   4508   4520   9105     1  0.0000000  0.0000000  3
   4509   4508   4520   4521     1  0.0000000  0.6508444  3
   4509   4508   4520   4522     1  0.0000000  0.6508444  3
   4510   4508   4520   9105     1  0.0000000  1.0460000  1
   4510   4508   4520   9105     1  0.0000000  0.0000000  3
   4510   4508   4520   4521     1  0.0000000  0.6508444  3
   4510   4508   4520   4522     1  0.0000000  0.6508444  3
   4512   4511   4517   9076     1  0.0000000  1.0460000  1
   4512   4511   4517   9076     1  0.0000000  0.0000000  3
   4512   4511   4517   4518     1  0.0000000  0.6508444  3
   4512   4511   4517   4519     1  0.0000000  0.6508444  3
   4513   4511   4517   9076     1  0.0000000  1.0460000  1
   4513   4511   4517   9076     1  0.0000000  0.0000000  3
   4513   4511   4517   4518     1  0.0000000  0.6508444  3
   4513   4511   4517   4519     1  0.0000000  0.6508444  3
   4517   9076   9067   9068     1  0.0000000  1.6038667  3
   4517   9076   9067   9069     1  0.0000000  1.6038667  3
   4518   4517   9076   9067     1  0.0000000  1.6038667  3
   4519   4517   9076   9067     1  0.0000000  1.6038667  3
   4520   9105   9096   9097     1  0.0000000  1.6038667  3
   4520   9105   9096   9098     1  0.0000000  1.6038667  3
   4521   4520   9105   9096     1  0.0000000  1.6038667  3
   4522   4520   9105   9096     1  0.0000000  1.6038667  3
   4524   4525   4537   4538     1  0.0000000  0.6508444  3
   4524   4525   4537   4539     1  0.0000000  0.6508444  3
   4524   4528   4540   4541     1  0.0000000  0.6508444  3
   4524   4528   4540   4542     1  0.0000000  0.6508444  3
   4524   4531   4534   4535     1  0.0000000  0.6508444  3
   4524   4531   4534   4536     1  0.0000000  0.6508444  3
   4525   4524   4528   4529     1  0.0000000  1.2552000  3
   4525   4524   4528   4530     1  0.0000000  1.2552000  3
   4525   4524   4531   4532     1  0.0000000  1.2552000  3
   4525   4524   4531   4533     1  0.0000000  1.2552000  3
   4525   4537   4549   4550     1  0.0000000  0.6508444  3
   4525   4537   4549   4551     1  0.0000000  0.6508444  3
   4526   4525   4524   4528     1  0.0000000  1.2552000  3
   4526   4525   4524   4531     1  0.0000000  1.2552000  3
   4526   4525   4537   4549     1  0.0000000  0.6508444  3
   4526   4525   4537   4538     1  0.0000000  0.6508444  3
   4526   4525   4537   4539     1  0.0000000  0.6508444  3
   4527   4525   4524   4528     1  0.0000000  1.2552000  3
   4527   4525   4524   4531     1  0.0000000  1.2552000  3
   4527   4525   4537   4549     1  0.0000000  0.6508444  3
   4527   4525   4537   4538     1  0.0000000  0.6508444  3
   4527   4525   4537   4539     1  0.0000000  0.6508444  3
   4528   4524   4531   4532     1  0.0000000  1.2552000  3
   4528   4524   4531   4533     1  0.0000000  1.2552000  3
   4528   4540   4546   4547     1  0.0000000  0.6508444  3
   4528   4540   4546   4548     1  0.0000000  0.6508444  3
   4529   4528   4524   4531     1  0.0000000  1.2552000  3
   4529   4528   4540   4546     1  0.0000000  0.6508444  3
   4529   4528   4540   4541     1  0.0000000  0.6508444  3
   4529   4528   4540   4542     1  0.0000000  0.6508444  3
   4530   4528   4524   4531     1  0.0000000  1.2552000  3
   4530   4528   4540   4546     1  0.0000000  0.6508444  3
   4530   4528   4540   4541     1  0.0000000  0.6508444  3
   4530   4528   4540   4542     1  0.0000000  0.6508444  3
   4531   4534   4543   4544     1  0.0000000  0.6508444  3
   4531   4534   4543   4545     1  0.0000000  0.6508444  3
   4532   4531   4534   4543     1  0.0000000  0.6508444  3
   4532   4531   4534   4535     1  0.0000000  0.6508444  3
   4532   4531   4534   4536     1  0.0000000  0.6508444  3
   4533   4531   4534   4543     1  0.0000000  0.6508444  3
   4533   4531   4534   4535     1  0.0000000  0.6508444  3
   4533   4531   4534   4536     1  0.0000000  0.6508444  3
   4535   4534   4543   4552     1  0.0000000  1.0460000  1
   4535   4534   4543   4552     1  0.0000000  0.0000000  3
   4535   4534   4543   4544     1  0.0000000  0.6508444  3
   4535   4534   4543   4545     1  0.0000000  0.6508444  3
   4536   4534   4543   4552     1  0.0000000  1.0460000  1
   4536   4534   4543   4552     1  0.0000000  0.0000000  3
   4536   4534   4543   4544     1  0.0000000  0.6508444  3
   4536   4534   4543   4545     1  0.0000000  0.6508444  3
   4538   4537   4549   9163     1  0.0000000  1.0460000  1
   4538   4537   4549   9163     1  0.0000000  0.0000000  3
   4538   4537   4549   4550     1  0.0000000  0.6508444  3
   4538   4537   4549   4551     1  0.0000000  0.6508444  3
   4539   4537   4549   9163     1  0.0000000  1.0460000  1
   4539   4537   4549   9163     1  0.0000000  0.0000000  3
   4539   4537   4549   4550     1  0.0000000  0.6508444  3
   4539   4537   4549   4551     1  0.0000000  0.6508444  3
   4541   4540   4546   9134     1  0.0000000  1.0460000  1
   4541   4540   4546   9134     1  0.0000000  0.0000000  3
   4541   4540   4546   4547     1  0.0000000  0.6508444  3
   4541   4540   4546   4548     1  0.0000000  0.6508444  3
   4542   4540   4546   9134     1  0.0000000  1.0460000  1
   4542   4540   4546   9134     1  0.0000000  0.0000000  3
   4542   4540   4546   4547     1  0.0000000  0.6508444  3
   4542   4540   4546   4548     1  0.0000000  0.6508444  3
   4546   9134   9125   9126     1  0.0000000  1.6038667  3
   4546   9134   9125   9127     1  0.0000000  1.6038667  3
   4547   4546   9134   9125     1  0.0000000  1.6038667  3
   4548   4546   9134   9125     1  0.0000000  1.6038667  3
   4549   9163   9154   9155     1  0.0000000  1.6038667  3
   4549   9163   9154   9156     1  0.0000000  1.6038667  3
   4550   4549   9163   9154     1  0.0000000  1.6038667  3
   4551   4549   9163   9154     1  0.0000000  1.6038667  3
   4553   4554   4566   4567     1  0.0000000  0.6508444  3
   4553   4554   4566   4568     1  0.0000000  0.6508444  3
   4553   4557   4569   4570     1  0.0000000  0.6508444  3
   4553   4557   4569   4571     1  0.0000000  0.6508444  3
   4553   4560   4563   4564     1  0.0000000  0.6508444  3
   4553   4560   4563   4565     1  0.0000000  0.6508444  3
   4554   4553   4557   4558     1  0.0000000  1.2552000  3
   4554   4553   4557   4559     1  0.0000000  1.2552000  3
   4554   4553   4560   4561     1  0.0000000  1.2552000  3
   4554   4553   4560   4562     1  0.0000000  1.2552000  3
   4554   4566   4578   4579     1  0.0000000  0.6508444  3
   4554   4566   4578   4580     1  0.0000000  0.6508444  3
   4555   4554   4553   4557     1  0.0000000  1.2552000  3
   4555   4554   4553   4560     1  0.0000000  1.2552000  3
   4555   4554   4566   4578     1  0.0000000  0.6508444  3
   4555   4554   4566   4567     1  0.0000000  0.6508444  3
   4555   4554   4566   4568     1  0.0000000  0.6508444  3
   4556   4554   4553   4557     1  0.0000000  1.2552000  3
   4556   4554   4553   4560     1  0.0000000  1.2552000  3
   4556   4554   4566   4578     1  0.0000000  0.6508444  3
   4556   4554   4566   4567     1  0.0000000  0.6508444  3
   4556   4554   4566   4568     1  0.0000000  0.6508444  3
   4557   4553   4560   4561     1  0.0000000  1.2552000  3
   4557   4553   4560   4562     1  0.0000000  1.2552000  3
   4557   4569   4575   4576     1  0.0000000  0.6508444  3
   4557   4569   4575   4577     1  0.0000000  0.6508444  3
   4558   4557   4553   4560     1  0.0000000  1.2552000  3
   4558   4557   4569   4575     1  0.0000000  0.6508444  3
   4558   4557   4569   4570     1  0.0000000  0.6508444  3
   4558   4557   4569   4571     1  0.0000000  0.6508444  3
   4559   4557   4553   4560     1  0.0000000  1.2552000  3
   4559   4557   4569   4575     1  0.0000000  0.6508444  3
   4559   4557   4569   4570     1  0.0000000  0.6508444  3
   4559   4557   4569   4571     1  0.0000000  0.6508444  3
   4560   4563   4572   4573     1  0.0000000  0.6508444  3
   4560   4563   4572   4574     1  0.0000000  0.6508444  3
   4561   4560   4563   4572     1  0.0000000  0.6508444  3
   4561   4560   4563   4564     1  0.0000000  0.6508444  3
   4561   4560   4563   4565     1  0.0000000  0.6508444  3
   4562   4560   4563   4572     1  0.0000000  0.6508444  3
   4562   4560   4563   4564     1  0.0000000  0.6508444  3
   4562   4560   4563   4565     1  0.0000000  0.6508444  3
   4564   4563   4572   4581     1  0.0000000  1.0460000  1
   4564   4563   4572   4581     1  0.0000000  0.0000000  3
   4564   4563   4572   4573     1  0.0000000  0.6508444  3
   4564   4563   4572   4574     1  0.0000000  0.6508444  3
   4565   4563   4572   4581     1  0.0000000  1.0460000  1
   4565   4563   4572   4581     1  0.0000000  0.0000000  3
   4565   4563   4572   4573     1  0.0000000  0.6508444  3
   4565   4563   4572   4574     1  0.0000000  0.6508444  3
   4567   4566   4578   9221     1  0.0000000  1.0460000  1
   4567   4566   4578   9221     1  0.0000000  0.0000000  3
   4567   4566   4578   4579     1  0.0000000  0.6508444  3
   4567   4566   4578   4580     1  0.0000000  0.6508444  3
   4568   4566   4578   9221     1  0.0000000  1.0460000  1
   4568   4566   4578   9221     1  0.0000000  0.0000000  3
   4568   4566   4578   4579     1  0.0000000  0.6508444  3
   4568   4566   4578   4580     1  0.0000000  0.6508444  3
   4570   4569   4575   9192     1  0.0000000  1.0460000  1
   4570   4569   4575   9192     1  0.0000000  0.0000000  3
   4570   4569   4575   4576     1  0.0000000  0.6508444  3
   4570   4569   4575   4577     1  0.0000000  0.6508444  3
   4571   4569   4575   9192     1  0.0000000  1.0460000  1
   4571   4569   4575   9192     1  0.0000000  0.0000000  3
   4571   4569   4575   4576     1  0.0000000  0.6508444  3
   4571   4569   4575   4577     1  0.0000000  0.6508444  3
   4575   9192   9183   9184     1  0.0000000  1.6038667  3
   4575   9192   9183   9185     1  0.0000000  1.6038667  3
   4576   4575   9192   9183     1  0.0000000  1.6038667  3
   4577   4575   9192   9183     1  0.0000000  1.6038667  3
   4578   9221   9212   9213     1  0.0000000  1.6038667  3
   4578   9221   9212   9214     1  0.0000000  1.6038667  3
   4579   4578   9221   9212     1  0.0000000  1.6038667  3
   4580   4578   9221   9212     1  0.0000000  1.6038667  3
   4582   4583   4595   4596     1  0.0000000  0.6508444  3
   4582   4583   4595   4597     1  0.0000000  0.6508444  3
   4582   4586   4598   4599     1  0.0000000  0.6508444  3
   4582   4586   4598   4600     1  0.0000000  0.6508444  3
   4582   4589   4592   4593     1  0.0000000  0.6508444  3
   4582   4589   4592   4594     1  0.0000000  0.6508444  3
   4583   4582   4586   4587     1  0.0000000  1.2552000  3
   4583   4582   4586   4588     1  0.0000000  1.2552000  3
   4583   4582   4589   4590     1  0.0000000  1.2552000  3
   4583   4582   4589   4591     1  0.0000000  1.2552000  3
   4583   4595   4607   4608     1  0.0000000  0.6508444  3
   4583   4595   4607   4609     1  0.0000000  0.6508444  3
   4584   4583   4582   4586     1  0.0000000  1.2552000  3
   4584   4583   4582   4589     1  0.0000000  1.2552000  3
   4584   4583   4595   4607     1  0.0000000  0.6508444  3
   4584   4583   4595   4596     1  0.0000000  0.6508444  3
   4584   4583   4595   4597     1  0.0000000  0.6508444  3
   4585   4583   4582   4586     1  0.0000000  1.2552000  3
   4585   4583   4582   4589     1  0.0000000  1.2552000  3
   4585   4583   4595   4607     1  0.0000000  0.6508444  3
   4585   4583   4595   4596     1  0.0000000  0.6508444  3
   4585   4583   4595   4597     1  0.0000000  0.6508444  3
   4586   4582   4589   4590     1  0.0000000  1.2552000  3
   4586   4582   4589   4591     1  0.0000000  1.2552000  3
   4586   4598   4604   4605     1  0.0000000  0.6508444  3
   4586   4598   4604   4606     1  0.0000000  0.6508444  3
   4587   4586   4582   4589     1  0.0000000  1.2552000  3
   4587   4586   4598   4604     1  0.0000000  0.6508444  3
   4587   4586   4598   4599     1  0.0000000  0.6508444  3
   4587   4586   4598   4600     1  0.0000000  0.6508444  3
   4588   4586   4582   4589     1  0.0000000  1.2552000  3
   4588   4586   4598   4604     1  0.0000000  0.6508444  3
   4588   4586   4598   4599     1  0.0000000  0.6508444  3
   4588   4586   4598   4600     1  0.0000000  0.6508444  3
   4589   4592   4601   4602     1  0.0000000  0.6508444  3
   4589   4592   4601   4603     1  0.0000000  0.6508444  3
   4590   4589   4592   4601     1  0.0000000  0.6508444  3
   4590   4589   4592   4593     1  0.0000000  0.6508444  3
   4590   4589   4592   4594     1  0.0000000  0.6508444  3
   4591   4589   4592   4601     1  0.0000000  0.6508444  3
   4591   4589   4592   4593     1  0.0000000  0.6508444  3
   4591   4589   4592   4594     1  0.0000000  0.6508444  3
   4593   4592   4601   4610     1  0.0000000  1.0460000  1
   4593   4592   4601   4610     1  0.0000000  0.0000000  3
   4593   4592   4601   4602     1  0.0000000  0.6508444  3
   4593   4592   4601   4603     1  0.0000000  0.6508444  3
   4594   4592   4601   4610     1  0.0000000  1.0460000  1
   4594   4592   4601   4610     1  0.0000000  0.0000000  3
   4594   4592   4601   4602     1  0.0000000  0.6508444  3
   4594   4592   4601   4603     1  0.0000000  0.6508444  3
   4596   4595   4607   9279     1  0.0000000  1.0460000  1
   4596   4595   4607   9279     1  0.0000000  0.0000000  3
   4596   4595   4607   4608     1  0.0000000  0.6508444  3
   4596   4595   4607   4609     1  0.0000000  0.6508444  3
   4597   4595   4607   9279     1  0.0000000  1.0460000  1
   4597   4595   4607   9279     1  0.0000000  0.0000000  3
   4597   4595   4607   4608     1  0.0000000  0.6508444  3
   4597   4595   4607   4609     1  0.0000000  0.6508444  3
   4599   4598   4604   9250     1  0.0000000  1.0460000  1
   4599   4598   4604   9250     1  0.0000000  0.0000000  3
   4599   4598   4604   4605     1  0.0000000  0.6508444  3
   4599   4598   4604   4606     1  0.0000000  0.6508444  3
   4600   4598   4604   9250     1  0.0000000  1.0460000  1
   4600   4598   4604   9250     1  0.0000000  0.0000000  3
   4600   4598   4604   4605     1  0.0000000  0.6508444  3
   4600   4598   4604   4606     1  0.0000000  0.6508444  3
   4604   9250   9241   9242     1  0.0000000  1.6038667  3
   4604   9250   9241   9243     1  0.0000000  1.6038667  3
   4605   4604   9250   9241     1  0.0000000  1.6038667  3
   4606   4604   9250   9241     1  0.0000000  1.6038667  3
   4607   9279   9270   9271     1  0.0000000  1.6038667  3
   4607   9279   9270   9272     1  0.0000000  1.6038667  3
   4608   4607   9279   9270     1  0.0000000  1.6038667  3
   4609   4607   9279   9270     1  0.0000000  1.6038667  3
   4611   4612   4624   4625     1  0.0000000  0.6508444  3
   4611   4612   4624   4626     1  0.0000000  0.6508444  3
   4611   4615   4627   4628     1  0.0000000  0.6508444  3
   4611   4615   4627   4629     1  0.0000000  0.6508444  3
   4611   4618   4621   4622     1  0.0000000  0.6508444  3
   4611   4618   4621   4623     1  0.0000000  0.6508444  3
   4612   4611   4615   4616     1  0.0000000  1.2552000  3
   4612   4611   4615   4617     1  0.0000000  1.2552000  3
   4612   4611   4618   4619     1  0.0000000  1.2552000  3
   4612   4611   4618   4620     1  0.0000000  1.2552000  3
   4612   4624   4636   4637     1  0.0000000  0.6508444  3
   4612   4624   4636   4638     1  0.0000000  0.6508444  3
   4613   4612   4611   4615     1  0.0000000  1.2552000  3
   4613   4612   4611   4618     1  0.0000000  1.2552000  3
   4613   4612   4624   4636     1  0.0000000  0.6508444  3
   4613   4612   4624   4625     1  0.0000000  0.6508444  3
   4613   4612   4624   4626     1  0.0000000  0.6508444  3
   4614   4612   4611   4615     1  0.0000000  1.2552000  3
   4614   4612   4611   4618     1  0.0000000  1.2552000  3
   4614   4612   4624   4636     1  0.0000000  0.6508444  3
   4614   4612   4624   4625     1  0.0000000  0.6508444  3
   4614   4612   4624   4626     1  0.0000000  0.6508444  3
   4615   4611   4618   4619     1  0.0000000  1.2552000  3
   4615   4611   4618   4620     1  0.0000000  1.2552000  3
   4615   4627   4633   4634     1  0.0000000  0.6508444  3
   4615   4627   4633   4635     1  0.0000000  0.6508444  3
   4616   4615   4611   4618     1  0.0000000  1.2552000  3
   4616   4615   4627   4633     1  0.0000000  0.6508444  3
   4616   4615   4627   4628     1  0.0000000  0.6508444  3
   4616   4615   4627   4629     1  0.0000000  0.6508444  3
   4617   4615   4611   4618     1  0.0000000  1.2552000  3
   4617   4615   4627   4633     1  0.0000000  0.6508444  3
   4617   4615   4627   4628     1  0.0000000  0.6508444  3
   4617   4615   4627   4629     1  0.0000000  0.6508444  3
   4618   4621   4630   4631     1  0.0000000  0.6508444  3
   4618   4621   4630   4632     1  0.0000000  0.6508444  3
   4619   4618   4621   4630     1  0.0000000  0.6508444  3
   4619   4618   4621   4622     1  0.0000000  0.6508444  3
   4619   4618   4621   4623     1  0.0000000  0.6508444  3
   4620   4618   4621   4630     1  0.0000000  0.6508444  3
   4620   4618   4621   4622     1  0.0000000  0.6508444  3
   4620   4618   4621   4623     1  0.0000000  0.6508444  3
   4622   4621   4630   4639     1  0.0000000  1.0460000  1
   4622   4621   4630   4639     1  0.0000000  0.0000000  3
   4622   4621   4630   4631     1  0.0000000  0.6508444  3
   4622   4621   4630   4632     1  0.0000000  0.6508444  3
   4623   4621   4630   4639     1  0.0000000  1.0460000  1
   4623   4621   4630   4639     1  0.0000000  0.0000000  3
   4623   4621   4630   4631     1  0.0000000  0.6508444  3
   4623   4621   4630   4632     1  0.0000000  0.6508444  3
   4625   4624   4636   9337     1  0.0000000  1.0460000  1
   4625   4624   4636   9337     1  0.0000000  0.0000000  3
   4625   4624   4636   4637     1  0.0000000  0.6508444  3
   4625   4624   4636   4638     1  0.0000000  0.6508444  3
   4626   4624   4636   9337     1  0.0000000  1.0460000  1
   4626   4624   4636   9337     1  0.0000000  0.0000000  3
   4626   4624   4636   4637     1  0.0000000  0.6508444  3
   4626   4624   4636   4638     1  0.0000000  0.6508444  3
   4628   4627   4633   9308     1  0.0000000  1.0460000  1
   4628   4627   4633   9308     1  0.0000000  0.0000000  3
   4628   4627   4633   4634     1  0.0000000  0.6508444  3
   4628   4627   4633   4635     1  0.0000000  0.6508444  3
   4629   4627   4633   9308     1  0.0000000  1.0460000  1
   4629   4627   4633   9308     1  0.0000000  0.0000000  3
   4629   4627   4633   4634     1  0.0000000  0.6508444  3
   4629   4627   4633   4635     1  0.0000000  0.6508444  3
   4633   9308   9299   9300     1  0.0000000  1.6038667  3
   4633   9308   9299   9301     1  0.0000000  1.6038667  3
   4634   4633   9308   9299     1  0.0000000  1.6038667  3
   4635   4633   9308   9299     1  0.0000000  1.6038667  3
   4636   9337   9328   9329     1  0.0000000  1.6038667  3
   4636   9337   9328   9330     1  0.0000000  1.6038667  3
   4637   4636   9337   9328     1  0.0000000  1.6038667  3
   4638   4636   9337   9328     1  0.0000000  1.6038667  3
   4640   4641   4653   4654     1  0.0000000  0.6508444  3
   4640   4641   4653   4655     1  0.0000000  0.6508444  3
   4640   4644   4656   4657     1  0.0000000  0.6508444  3
   4640   4644   4656   4658     1  0.0000000  0.6508444  3
   4640   4647   4650   4651     1  0.0000000  0.6508444  3
   4640   4647   4650   4652     1  0.0000000  0.6508444  3
   4641   4640   4644   4645     1  0.0000000  1.2552000  3
   4641   4640   4644   4646     1  0.0000000  1.2552000  3
   4641   4640   4647   4648     1  0.0000000  1.2552000  3
   4641   4640   4647   4649     1  0.0000000  1.2552000  3
   4641   4653   4665   4666     1  0.0000000  0.6508444  3
   4641   4653   4665   4667     1  0.0000000  0.6508444  3
   4642   4641   4640   4644     1  0.0000000  1.2552000  3
   4642   4641   4640   4647     1  0.0000000  1.2552000  3
   4642   4641   4653   4665     1  0.0000000  0.6508444  3
   4642   4641   4653   4654     1  0.0000000  0.6508444  3
   4642   4641   4653   4655     1  0.0000000  0.6508444  3
   4643   4641   4640   4644     1  0.0000000  1.2552000  3
   4643   4641   4640   4647     1  0.0000000  1.2552000  3
   4643   4641   4653   4665     1  0.0000000  0.6508444  3
   4643   4641   4653   4654     1  0.0000000  0.6508444  3
   4643   4641   4653   4655     1  0.0000000  0.6508444  3
   4644   4640   4647   4648     1  0.0000000  1.2552000  3
   4644   4640   4647   4649     1  0.0000000  1.2552000  3
   4644   4656   4662   4663     1  0.0000000  0.6508444  3
   4644   4656   4662   4664     1  0.0000000  0.6508444  3
   4645   4644   4640   4647     1  0.0000000  1.2552000  3
   4645   4644   4656   4662     1  0.0000000  0.6508444  3
   4645   4644   4656   4657     1  0.0000000  0.6508444  3
   4645   4644   4656   4658     1  0.0000000  0.6508444  3
   4646   4644   4640   4647     1  0.0000000  1.2552000  3
   4646   4644   4656   4662     1  0.0000000  0.6508444  3
   4646   4644   4656   4657     1  0.0000000  0.6508444  3
   4646   4644   4656   4658     1  0.0000000  0.6508444  3
   4647   4650   4659   4660     1  0.0000000  0.6508444  3
   4647   4650   4659   4661     1  0.0000000  0.6508444  3
   4648   4647   4650   4659     1  0.0000000  0.6508444  3
   4648   4647   4650   4651     1  0.0000000  0.6508444  3
   4648   4647   4650   4652     1  0.0000000  0.6508444  3
   4649   4647   4650   4659     1  0.0000000  0.6508444  3
   4649   4647   4650   4651     1  0.0000000  0.6508444  3
   4649   4647   4650   4652     1  0.0000000  0.6508444  3
   4651   4650   4659   4668     1  0.0000000  1.0460000  1
   4651   4650   4659   4668     1  0.0000000  0.0000000  3
   4651   4650   4659   4660     1  0.0000000  0.6508444  3
   4651   4650   4659   4661     1  0.0000000  0.6508444  3
   4652   4650   4659   4668     1  0.0000000  1.0460000  1
   4652   4650   4659   4668     1  0.0000000  0.0000000  3
   4652   4650   4659   4660     1  0.0000000  0.6508444  3
   4652   4650   4659   4661     1  0.0000000  0.6508444  3
   4654   4653   4665   9395     1  0.0000000  1.0460000  1
   4654   4653   4665   9395     1  0.0000000  0.0000000  3
   4654   4653   4665   4666     1  0.0000000  0.6508444  3
   4654   4653   4665   4667     1  0.0000000  0.6508444  3
   4655   4653   4665   9395     1  0.0000000  1.0460000  1
   4655   4653   4665   9395     1  0.0000000  0.0000000  3
   4655   4653   4665   4666     1  0.0000000  0.6508444  3
   4655   4653   4665   4667     1  0.0000000  0.6508444  3
   4657   4656   4662   9366     1  0.0000000  1.0460000  1
   4657   4656   4662   9366     1  0.0000000  0.0000000  3
   4657   4656   4662   4663     1  0.0000000  0.6508444  3
   4657   4656   4662   4664     1  0.0000000  0.6508444  3
   4658   4656   4662   9366     1  0.0000000  1.0460000  1
   4658   4656   4662   9366     1  0.0000000  0.0000000  3
   4658   4656   4662   4663     1  0.0000000  0.6508444  3
   4658   4656   4662   4664     1  0.0000000  0.6508444  3
   4662   9366   9357   9358     1  0.0000000  1.6038667  3
   4662   9366   9357   9359     1  0.0000000  1.6038667  3
   4663   4662   9366   9357     1  0.0000000  1.6038667  3
   4664   4662   9366   9357     1  0.0000000  1.6038667  3
   4665   9395   9386   9387     1  0.0000000  1.6038667  3
   4665   9395   9386   9388     1  0.0000000  1.6038667  3
   4666   4665   9395   9386     1  0.0000000  1.6038667  3
   4667   4665   9395   9386     1  0.0000000  1.6038667  3
   4669   4670   4682   4683     1  0.0000000  0.6508444  3
   4669   4670   4682   4684     1  0.0000000  0.6508444  3
   4669   4673   4685   4686     1  0.0000000  0.6508444  3
   4669   4673   4685   4687     1  0.0000000  0.6508444  3
   4669   4676   4679   4680     1  0.0000000  0.6508444  3
   4669   4676   4679   4681     1  0.0000000  0.6508444  3
   4670   4669   4673   4674     1  0.0000000  1.2552000  3
   4670   4669   4673   4675     1  0.0000000  1.2552000  3
   4670   4669   4676   4677     1  0.0000000  1.2552000  3
   4670   4669   4676   4678     1  0.0000000  1.2552000  3
   4670   4682   4694   4695     1  0.0000000  0.6508444  3
   4670   4682   4694   4696     1  0.0000000  0.6508444  3
   4671   4670   4669   4673     1  0.0000000  1.2552000  3
   4671   4670   4669   4676     1  0.0000000  1.2552000  3
   4671   4670   4682   4694     1  0.0000000  0.6508444  3
   4671   4670   4682   4683     1  0.0000000  0.6508444  3
   4671   4670   4682   4684     1  0.0000000  0.6508444  3
   4672   4670   4669   4673     1  0.0000000  1.2552000  3
   4672   4670   4669   4676     1  0.0000000  1.2552000  3
   4672   4670   4682   4694     1  0.0000000  0.6508444  3
   4672   4670   4682   4683     1  0.0000000  0.6508444  3
   4672   4670   4682   4684     1  0.0000000  0.6508444  3
   4673   4669   4676   4677     1  0.0000000  1.2552000  3
   4673   4669   4676   4678     1  0.0000000  1.2552000  3
   4673   4685   4691   4692     1  0.0000000  0.6508444  3
   4673   4685   4691   4693     1  0.0000000  0.6508444  3
   4674   4673   4669   4676     1  0.0000000  1.2552000  3
   4674   4673   4685   4691     1  0.0000000  0.6508444  3
   4674   4673   4685   4686     1  0.0000000  0.6508444  3
   4674   4673   4685   4687     1  0.0000000  0.6508444  3
   4675   4673   4669   4676     1  0.0000000  1.2552000  3
   4675   4673   4685   4691     1  0.0000000  0.6508444  3
   4675   4673   4685   4686     1  0.0000000  0.6508444  3
   4675   4673   4685   4687     1  0.0000000  0.6508444  3
   4676   4679   4688   4689     1  0.0000000  0.6508444  3
   4676   4679   4688   4690     1  0.0000000  0.6508444  3
   4677   4676   4679   4688     1  0.0000000  0.6508444  3
   4677   4676   4679   4680     1  0.0000000  0.6508444  3
   4677   4676   4679   4681     1  0.0000000  0.6508444  3
   4678   4676   4679   4688     1  0.0000000  0.6508444  3
   4678   4676   4679   4680     1  0.0000000  0.6508444  3
   4678   4676   4679   4681     1  0.0000000  0.6508444  3
   4680   4679   4688   4697     1  0.0000000  1.0460000  1
   4680   4679   4688   4697     1  0.0000000  0.0000000  3
   4680   4679   4688   4689     1  0.0000000  0.6508444  3
   4680   4679   4688   4690     1  0.0000000  0.6508444  3
   4681   4679   4688   4697     1  0.0000000  1.0460000  1
   4681   4679   4688   4697     1  0.0000000  0.0000000  3
   4681   4679   4688   4689     1  0.0000000  0.6508444  3
   4681   4679   4688   4690     1  0.0000000  0.6508444  3
   4683   4682   4694   9453     1  0.0000000  1.0460000  1
   4683   4682   4694   9453     1  0.0000000  0.0000000  3
   4683   4682   4694   4695     1  0.0000000  0.6508444  3
   4683   4682   4694   4696     1  0.0000000  0.6508444  3
   4684   4682   4694   9453     1  0.0000000  1.0460000  1
   4684   4682   4694   9453     1  0.0000000  0.0000000  3
   4684   4682   4694   4695     1  0.0000000  0.6508444  3
   4684   4682   4694   4696     1  0.0000000  0.6508444  3
   4686   4685   4691   9424     1  0.0000000  1.0460000  1
   4686   4685   4691   9424     1  0.0000000  0.0000000  3
   4686   4685   4691   4692     1  0.0000000  0.6508444  3
   4686   4685   4691   4693     1  0.0000000  0.6508444  3
   4687   4685   4691   9424     1  0.0000000  1.0460000  1
   4687   4685   4691   9424     1  0.0000000  0.0000000  3
   4687   4685   4691   4692     1  0.0000000  0.6508444  3
   4687   4685   4691   4693     1  0.0000000  0.6508444  3
   4691   9424   9415   9416     1  0.0000000  1.6038667  3
   4691   9424   9415   9417     1  0.0000000  1.6038667  3
   4692   4691   9424   9415     1  0.0000000  1.6038667  3
   4693   4691   9424   9415     1  0.0000000  1.6038667  3
   4694   9453   9444   9445     1  0.0000000  1.6038667  3
   4694   9453   9444   9446     1  0.0000000  1.6038667  3
   4695   4694   9453   9444     1  0.0000000  1.6038667  3
   4696   4694   9453   9444     1  0.0000000  1.6038667  3
   4698   4699   4711   4712     1  0.0000000  0.6508444  3
   4698   4699   4711   4713     1  0.0000000  0.6508444  3
   4698   4702   4714   4715     1  0.0000000  0.6508444  3
   4698   4702   4714   4716     1  0.0000000  0.6508444  3
   4698   4705   4708   4709     1  0.0000000  0.6508444  3
   4698   4705   4708   4710     1  0.0000000  0.6508444  3
   4699   4698   4702   4703     1  0.0000000  1.2552000  3
   4699   4698   4702   4704     1  0.0000000  1.2552000  3
   4699   4698   4705   4706     1  0.0000000  1.2552000  3
   4699   4698   4705   4707     1  0.0000000  1.2552000  3
   4699   4711   4723   4724     1  0.0000000  0.6508444  3
   4699   4711   4723   4725     1  0.0000000  0.6508444  3
   4700   4699   4698   4702     1  0.0000000  1.2552000  3
   4700   4699   4698   4705     1  0.0000000  1.2552000  3
   4700   4699   4711   4723     1  0.0000000  0.6508444  3
   4700   4699   4711   4712     1  0.0000000  0.6508444  3
   4700   4699   4711   4713     1  0.0000000  0.6508444  3
   4701   4699   4698   4702     1  0.0000000  1.2552000  3
   4701   4699   4698   4705     1  0.0000000  1.2552000  3
   4701   4699   4711   4723     1  0.0000000  0.6508444  3
   4701   4699   4711   4712     1  0.0000000  0.6508444  3
   4701   4699   4711   4713     1  0.0000000  0.6508444  3
   4702   4698   4705   4706     1  0.0000000  1.2552000  3
   4702   4698   4705   4707     1  0.0000000  1.2552000  3
   4702   4714   4720   4721     1  0.0000000  0.6508444  3
   4702   4714   4720   4722     1  0.0000000  0.6508444  3
   4703   4702   4698   4705     1  0.0000000  1.2552000  3
   4703   4702   4714   4720     1  0.0000000  0.6508444  3
   4703   4702   4714   4715     1  0.0000000  0.6508444  3
   4703   4702   4714   4716     1  0.0000000  0.6508444  3
   4704   4702   4698   4705     1  0.0000000  1.2552000  3
   4704   4702   4714   4720     1  0.0000000  0.6508444  3
   4704   4702   4714   4715     1  0.0000000  0.6508444  3
   4704   4702   4714   4716     1  0.0000000  0.6508444  3
   4705   4708   4717   4718     1  0.0000000  0.6508444  3
   4705   4708   4717   4719     1  0.0000000  0.6508444  3
   4706   4705   4708   4717     1  0.0000000  0.6508444  3
   4706   4705   4708   4709     1  0.0000000  0.6508444  3
   4706   4705   4708   4710     1  0.0000000  0.6508444  3
   4707   4705   4708   4717     1  0.0000000  0.6508444  3
   4707   4705   4708   4709     1  0.0000000  0.6508444  3
   4707   4705   4708   4710     1  0.0000000  0.6508444  3
   4709   4708   4717   4726     1  0.0000000  1.0460000  1
   4709   4708   4717   4726     1  0.0000000  0.0000000  3
   4709   4708   4717   4718     1  0.0000000  0.6508444  3
   4709   4708   4717   4719     1  0.0000000  0.6508444  3
   4710   4708   4717   4726     1  0.0000000  1.0460000  1
   4710   4708   4717   4726     1  0.0000000  0.0000000  3
   4710   4708   4717   4718     1  0.0000000  0.6508444  3
   4710   4708   4717   4719     1  0.0000000  0.6508444  3
   4712   4711   4723   9511     1  0.0000000  1.0460000  1
   4712   4711   4723   9511     1  0.0000000  0.0000000  3
   4712   4711   4723   4724     1  0.0000000  0.6508444  3
   4712   4711   4723   4725     1  0.0000000  0.6508444  3
   4713   4711   4723   9511     1  0.0000000  1.0460000  1
   4713   4711   4723   9511     1  0.0000000  0.0000000  3
   4713   4711   4723   4724     1  0.0000000  0.6508444  3
   4713   4711   4723   4725     1  0.0000000  0.6508444  3
   4715   4714   4720   9482     1  0.0000000  1.0460000  1
   4715   4714   4720   9482     1  0.0000000  0.0000000  3
   4715   4714   4720   4721     1  0.0000000  0.6508444  3
   4715   4714   4720   4722     1  0.0000000  0.6508444  3
   4716   4714   4720   9482     1  0.0000000  1.0460000  1
   4716   4714   4720   9482     1  0.0000000  0.0000000  3
   4716   4714   4720   4721     1  0.0000000  0.6508444  3
   4716   4714   4720   4722     1  0.0000000  0.6508444  3
   4720   9482   9473   9474     1  0.0000000  1.6038667  3
   4720   9482   9473   9475     1  0.0000000  1.6038667  3
   4721   4720   9482   9473     1  0.0000000  1.6038667  3
   4722   4720   9482   9473     1  0.0000000  1.6038667  3
   4723   9511   9502   9503     1  0.0000000  1.6038667  3
   4723   9511   9502   9504     1  0.0000000  1.6038667  3
   4724   4723   9511   9502     1  0.0000000  1.6038667  3
   4725   4723   9511   9502     1  0.0000000  1.6038667  3
   4727   4728   4740   4741     1  0.0000000  0.6508444  3
   4727   4728   4740   4742     1  0.0000000  0.6508444  3
   4727   4731   4743   4744     1  0.0000000  0.6508444  3
   4727   4731   4743   4745     1  0.0000000  0.6508444  3
   4727   4734   4737   4738     1  0.0000000  0.6508444  3
   4727   4734   4737   4739     1  0.0000000  0.6508444  3
   4728   4727   4731   4732     1  0.0000000  1.2552000  3
   4728   4727   4731   4733     1  0.0000000  1.2552000  3
   4728   4727   4734   4735     1  0.0000000  1.2552000  3
   4728   4727   4734   4736     1  0.0000000  1.2552000  3
   4728   4740   4752   4753     1  0.0000000  0.6508444  3
   4728   4740   4752   4754     1  0.0000000  0.6508444  3
   4729   4728   4727   4731     1  0.0000000  1.2552000  3
   4729   4728   4727   4734     1  0.0000000  1.2552000  3
   4729   4728   4740   4752     1  0.0000000  0.6508444  3
   4729   4728   4740   4741     1  0.0000000  0.6508444  3
   4729   4728   4740   4742     1  0.0000000  0.6508444  3
   4730   4728   4727   4731     1  0.0000000  1.2552000  3
   4730   4728   4727   4734     1  0.0000000  1.2552000  3
   4730   4728   4740   4752     1  0.0000000  0.6508444  3
   4730   4728   4740   4741     1  0.0000000  0.6508444  3
   4730   4728   4740   4742     1  0.0000000  0.6508444  3
   4731   4727   4734   4735     1  0.0000000  1.2552000  3
   4731   4727   4734   4736     1  0.0000000  1.2552000  3
   4731   4743   4749   4750     1  0.0000000  0.6508444  3
   4731   4743   4749   4751     1  0.0000000  0.6508444  3
   4732   4731   4727   4734     1  0.0000000  1.2552000  3
   4732   4731   4743   4749     1  0.0000000  0.6508444  3
   4732   4731   4743   4744     1  0.0000000  0.6508444  3
   4732   4731   4743   4745     1  0.0000000  0.6508444  3
   4733   4731   4727   4734     1  0.0000000  1.2552000  3
   4733   4731   4743   4749     1  0.0000000  0.6508444  3
   4733   4731   4743   4744     1  0.0000000  0.6508444  3
   4733   4731   4743   4745     1  0.0000000  0.6508444  3
   4734   4737   4746   4747     1  0.0000000  0.6508444  3
   4734   4737   4746   4748     1  0.0000000  0.6508444  3
   4735   4734   4737   4746     1  0.0000000  0.6508444  3
   4735   4734   4737   4738     1  0.0000000  0.6508444  3
   4735   4734   4737   4739     1  0.0000000  0.6508444  3
   4736   4734   4737   4746     1  0.0000000  0.6508444  3
   4736   4734   4737   4738     1  0.0000000  0.6508444  3
   4736   4734   4737   4739     1  0.0000000  0.6508444  3
   4738   4737   4746   4755     1  0.0000000  1.0460000  1
   4738   4737   4746   4755     1  0.0000000  0.0000000  3
   4738   4737   4746   4747     1  0.0000000  0.6508444  3
   4738   4737   4746   4748     1  0.0000000  0.6508444  3
   4739   4737   4746   4755     1  0.0000000  1.0460000  1
   4739   4737   4746   4755     1  0.0000000  0.0000000  3
   4739   4737   4746   4747     1  0.0000000  0.6508444  3
   4739   4737   4746   4748     1  0.0000000  0.6508444  3
   4741   4740   4752   9569     1  0.0000000  1.0460000  1
   4741   4740   4752   9569     1  0.0000000  0.0000000  3
   4741   4740   4752   4753     1  0.0000000  0.6508444  3
   4741   4740   4752   4754     1  0.0000000  0.6508444  3
   4742   4740   4752   9569     1  0.0000000  1.0460000  1
   4742   4740   4752   9569     1  0.0000000  0.0000000  3
   4742   4740   4752   4753     1  0.0000000  0.6508444  3
   4742   4740   4752   4754     1  0.0000000  0.6508444  3
   4744   4743   4749   9540     1  0.0000000  1.0460000  1
   4744   4743   4749   9540     1  0.0000000  0.0000000  3
   4744   4743   4749   4750     1  0.0000000  0.6508444  3
   4744   4743   4749   4751     1  0.0000000  0.6508444  3
   4745   4743   4749   9540     1  0.0000000  1.0460000  1
   4745   4743   4749   9540     1  0.0000000  0.0000000  3
   4745   4743   4749   4750     1  0.0000000  0.6508444  3
   4745   4743   4749   4751     1  0.0000000  0.6508444  3
   4749   9540   9531   9532     1  0.0000000  1.6038667  3
   4749   9540   9531   9533     1  0.0000000  1.6038667  3
   4750   4749   9540   9531     1  0.0000000  1.6038667  3
   4751   4749   9540   9531     1  0.0000000  1.6038667  3
   4752   9569   9560   9561     1  0.0000000  1.6038667  3
   4752   9569   9560   9562     1  0.0000000  1.6038667  3
   4753   4752   9569   9560     1  0.0000000  1.6038667  3
   4754   4752   9569   9560     1  0.0000000  1.6038667  3
   4756   4757   4769   4770     1  0.0000000  0.6508444  3
   4756   4757   4769   4771     1  0.0000000  0.6508444  3
   4756   4760   4772   4773     1  0.0000000  0.6508444  3
   4756   4760   4772   4774     1  0.0000000  0.6508444  3
   4756   4763   4766   4767     1  0.0000000  0.6508444  3
   4756   4763   4766   4768     1  0.0000000  0.6508444  3
   4757   4756   4760   4761     1  0.0000000  1.2552000  3
   4757   4756   4760   4762     1  0.0000000  1.2552000  3
   4757   4756   4763   4764     1  0.0000000  1.2552000  3
   4757   4756   4763   4765     1  0.0000000  1.2552000  3
   4757   4769   4781   4782     1  0.0000000  0.6508444  3
   4757   4769   4781   4783     1  0.0000000  0.6508444  3
   4758   4757   4756   4760     1  0.0000000  1.2552000  3
   4758   4757   4756   4763     1  0.0000000  1.2552000  3
   4758   4757   4769   4781     1  0.0000000  0.6508444  3
   4758   4757   4769   4770     1  0.0000000  0.6508444  3
   4758   4757   4769   4771     1  0.0000000  0.6508444  3
   4759   4757   4756   4760     1  0.0000000  1.2552000  3
   4759   4757   4756   4763     1  0.0000000  1.2552000  3
   4759   4757   4769   4781     1  0.0000000  0.6508444  3
   4759   4757   4769   4770     1  0.0000000  0.6508444  3
   4759   4757   4769   4771     1  0.0000000  0.6508444  3
   4760   4756   4763   4764     1  0.0000000  1.2552000  3
   4760   4756   4763   4765     1  0.0000000  1.2552000  3
   4760   4772   4778   4779     1  0.0000000  0.6508444  3
   4760   4772   4778   4780     1  0.0000000  0.6508444  3
   4761   4760   4756   4763     1  0.0000000  1.2552000  3
   4761   4760   4772   4778     1  0.0000000  0.6508444  3
   4761   4760   4772   4773     1  0.0000000  0.6508444  3
   4761   4760   4772   4774     1  0.0000000  0.6508444  3
   4762   4760   4756   4763     1  0.0000000  1.2552000  3
   4762   4760   4772   4778     1  0.0000000  0.6508444  3
   4762   4760   4772   4773     1  0.0000000  0.6508444  3
   4762   4760   4772   4774     1  0.0000000  0.6508444  3
   4763   4766   4775   4776     1  0.0000000  0.6508444  3
   4763   4766   4775   4777     1  0.0000000  0.6508444  3
   4764   4763   4766   4775     1  0.0000000  0.6508444  3
   4764   4763   4766   4767     1  0.0000000  0.6508444  3
   4764   4763   4766   4768     1  0.0000000  0.6508444  3
   4765   4763   4766   4775     1  0.0000000  0.6508444  3
   4765   4763   4766   4767     1  0.0000000  0.6508444  3
   4765   4763   4766   4768     1  0.0000000  0.6508444  3
   4767   4766   4775   4784     1  0.0000000  1.0460000  1
   4767   4766   4775   4784     1  0.0000000  0.0000000  3
   4767   4766   4775   4776     1  0.0000000  0.6508444  3
   4767   4766   4775   4777     1  0.0000000  0.6508444  3
   4768   4766   4775   4784     1  0.0000000  1.0460000  1
   4768   4766   4775   4784     1  0.0000000  0.0000000  3
   4768   4766   4775   4776     1  0.0000000  0.6508444  3
   4768   4766   4775   4777     1  0.0000000  0.6508444  3
   4770   4769   4781   9627     1  0.0000000  1.0460000  1
   4770   4769   4781   9627     1  0.0000000  0.0000000  3
   4770   4769   4781   4782     1  0.0000000  0.6508444  3
   4770   4769   4781   4783     1  0.0000000  0.6508444  3
   4771   4769   4781   9627     1  0.0000000  1.0460000  1
   4771   4769   4781   9627     1  0.0000000  0.0000000  3
   4771   4769   4781   4782     1  0.0000000  0.6508444  3
   4771   4769   4781   4783     1  0.0000000  0.6508444  3
   4773   4772   4778   9598     1  0.0000000  1.0460000  1
   4773   4772   4778   9598     1  0.0000000  0.0000000  3
   4773   4772   4778   4779     1  0.0000000  0.6508444  3
   4773   4772   4778   4780     1  0.0000000  0.6508444  3
   4774   4772   4778   9598     1  0.0000000  1.0460000  1
   4774   4772   4778   9598     1  0.0000000  0.0000000  3
   4774   4772   4778   4779     1  0.0000000  0.6508444  3
   4774   4772   4778   4780     1  0.0000000  0.6508444  3
   4778   9598   9589   9590     1  0.0000000  1.6038667  3
   4778   9598   9589   9591     1  0.0000000  1.6038667  3
   4779   4778   9598   9589     1  0.0000000  1.6038667  3
   4780   4778   9598   9589     1  0.0000000  1.6038667  3
   4781   9627   9618   9619     1  0.0000000  1.6038667  3
   4781   9627   9618   9620     1  0.0000000  1.6038667  3
   4782   4781   9627   9618     1  0.0000000  1.6038667  3
   4783   4781   9627   9618     1  0.0000000  1.6038667  3
   4785   4786   4798   4799     1  0.0000000  0.6508444  3
   4785   4786   4798   4800     1  0.0000000  0.6508444  3
   4785   4789   4801   4802     1  0.0000000  0.6508444  3
   4785   4789   4801   4803     1  0.0000000  0.6508444  3
   4785   4792   4795   4796     1  0.0000000  0.6508444  3
   4785   4792   4795   4797     1  0.0000000  0.6508444  3
   4786   4785   4789   4790     1  0.0000000  1.2552000  3
   4786   4785   4789   4791     1  0.0000000  1.2552000  3
   4786   4785   4792   4793     1  0.0000000  1.2552000  3
   4786   4785   4792   4794     1  0.0000000  1.2552000  3
   4786   4798   4810   4811     1  0.0000000  0.6508444  3
   4786   4798   4810   4812     1  0.0000000  0.6508444  3
   4787   4786   4785   4789     1  0.0000000  1.2552000  3
   4787   4786   4785   4792     1  0.0000000  1.2552000  3
   4787   4786   4798   4810     1  0.0000000  0.6508444  3
   4787   4786   4798   4799     1  0.0000000  0.6508444  3
   4787   4786   4798   4800     1  0.0000000  0.6508444  3
   4788   4786   4785   4789     1  0.0000000  1.2552000  3
   4788   4786   4785   4792     1  0.0000000  1.2552000  3
   4788   4786   4798   4810     1  0.0000000  0.6508444  3
   4788   4786   4798   4799     1  0.0000000  0.6508444  3
   4788   4786   4798   4800     1  0.0000000  0.6508444  3
   4789   4785   4792   4793     1  0.0000000  1.2552000  3
   4789   4785   4792   4794     1  0.0000000  1.2552000  3
   4789   4801   4807   4808     1  0.0000000  0.6508444  3
   4789   4801   4807   4809     1  0.0000000  0.6508444  3
   4790   4789   4785   4792     1  0.0000000  1.2552000  3
   4790   4789   4801   4807     1  0.0000000  0.6508444  3
   4790   4789   4801   4802     1  0.0000000  0.6508444  3
   4790   4789   4801   4803     1  0.0000000  0.6508444  3
   4791   4789   4785   4792     1  0.0000000  1.2552000  3
   4791   4789   4801   4807     1  0.0000000  0.6508444  3
   4791   4789   4801   4802     1  0.0000000  0.6508444  3
   4791   4789   4801   4803     1  0.0000000  0.6508444  3
   4792   4795   4804   4805     1  0.0000000  0.6508444  3
   4792   4795   4804   4806     1  0.0000000  0.6508444  3
   4793   4792   4795   4804     1  0.0000000  0.6508444  3
   4793   4792   4795   4796     1  0.0000000  0.6508444  3
   4793   4792   4795   4797     1  0.0000000  0.6508444  3
   4794   4792   4795   4804     1  0.0000000  0.6508444  3
   4794   4792   4795   4796     1  0.0000000  0.6508444  3
   4794   4792   4795   4797     1  0.0000000  0.6508444  3
   4796   4795   4804   4813     1  0.0000000  1.0460000  1
   4796   4795   4804   4813     1  0.0000000  0.0000000  3
   4796   4795   4804   4805     1  0.0000000  0.6508444  3
   4796   4795   4804   4806     1  0.0000000  0.6508444  3
   4797   4795   4804   4813     1  0.0000000  1.0460000  1
   4797   4795   4804   4813     1  0.0000000  0.0000000  3
   4797   4795   4804   4805     1  0.0000000  0.6508444  3
   4797   4795   4804   4806     1  0.0000000  0.6508444  3
   4799   4798   4810   9685     1  0.0000000  1.0460000  1
   4799   4798   4810   9685     1  0.0000000  0.0000000  3
   4799   4798   4810   4811     1  0.0000000  0.6508444  3
   4799   4798   4810   4812     1  0.0000000  0.6508444  3
   4800   4798   4810   9685     1  0.0000000  1.0460000  1
   4800   4798   4810   9685     1  0.0000000  0.0000000  3
   4800   4798   4810   4811     1  0.0000000  0.6508444  3
   4800   4798   4810   4812     1  0.0000000  0.6508444  3
   4802   4801   4807   9656     1  0.0000000  1.0460000  1
   4802   4801   4807   9656     1  0.0000000  0.0000000  3
   4802   4801   4807   4808     1  0.0000000  0.6508444  3
   4802   4801   4807   4809     1  0.0000000  0.6508444  3
   4803   4801   4807   9656     1  0.0000000  1.0460000  1
   4803   4801   4807   9656     1  0.0000000  0.0000000  3
   4803   4801   4807   4808     1  0.0000000  0.6508444  3
   4803   4801   4807   4809     1  0.0000000  0.6508444  3
   4807   9656   9647   9648     1  0.0000000  1.6038667  3
   4807   9656   9647   9649     1  0.0000000  1.6038667  3
   4808   4807   9656   9647     1  0.0000000  1.6038667  3
   4809   4807   9656   9647     1  0.0000000  1.6038667  3
   4810   9685   9676   9677     1  0.0000000  1.6038667  3
   4810   9685   9676   9678     1  0.0000000  1.6038667  3
   4811   4810   9685   9676     1  0.0000000  1.6038667  3
   4812   4810   9685   9676     1  0.0000000  1.6038667  3
   4814   4815   4827   4828     1  0.0000000  0.6508444  3
   4814   4815   4827   4829     1  0.0000000  0.6508444  3
   4814   4818   4830   4831     1  0.0000000  0.6508444  3
   4814   4818   4830   4832     1  0.0000000  0.6508444  3
   4814   4821   4824   4825     1  0.0000000  0.6508444  3
   4814   4821   4824   4826     1  0.0000000  0.6508444  3
   4815   4814   4818   4819     1  0.0000000  1.2552000  3
   4815   4814   4818   4820     1  0.0000000  1.2552000  3
   4815   4814   4821   4822     1  0.0000000  1.2552000  3
   4815   4814   4821   4823     1  0.0000000  1.2552000  3
   4815   4827   4839   4840     1  0.0000000  0.6508444  3
   4815   4827   4839   4841     1  0.0000000  0.6508444  3
   4816   4815   4814   4818     1  0.0000000  1.2552000  3
   4816   4815   4814   4821     1  0.0000000  1.2552000  3
   4816   4815   4827   4839     1  0.0000000  0.6508444  3
   4816   4815   4827   4828     1  0.0000000  0.6508444  3
   4816   4815   4827   4829     1  0.0000000  0.6508444  3
   4817   4815   4814   4818     1  0.0000000  1.2552000  3
   4817   4815   4814   4821     1  0.0000000  1.2552000  3
   4817   4815   4827   4839     1  0.0000000  0.6508444  3
   4817   4815   4827   4828     1  0.0000000  0.6508444  3
   4817   4815   4827   4829     1  0.0000000  0.6508444  3
   4818   4814   4821   4822     1  0.0000000  1.2552000  3
   4818   4814   4821   4823     1  0.0000000  1.2552000  3
   4818   4830   4836   4837     1  0.0000000  0.6508444  3
   4818   4830   4836   4838     1  0.0000000  0.6508444  3
   4819   4818   4814   4821     1  0.0000000  1.2552000  3
   4819   4818   4830   4836     1  0.0000000  0.6508444  3
   4819   4818   4830   4831     1  0.0000000  0.6508444  3
   4819   4818   4830   4832     1  0.0000000  0.6508444  3
   4820   4818   4814   4821     1  0.0000000  1.2552000  3
   4820   4818   4830   4836     1  0.0000000  0.6508444  3
   4820   4818   4830   4831     1  0.0000000  0.6508444  3
   4820   4818   4830   4832     1  0.0000000  0.6508444  3
   4821   4824   4833   4834     1  0.0000000  0.6508444  3
   4821   4824   4833   4835     1  0.0000000  0.6508444  3
   4822   4821   4824   4833     1  0.0000000  0.6508444  3
   4822   4821   4824   4825     1  0.0000000  0.6508444  3
   4822   4821   4824   4826     1  0.0000000  0.6508444  3
   4823   4821   4824   4833     1  0.0000000  0.6508444  3
   4823   4821   4824   4825     1  0.0000000  0.6508444  3
   4823   4821   4824   4826     1  0.0000000  0.6508444  3
   4825   4824   4833   4842     1  0.0000000  1.0460000  1
   4825   4824   4833   4842     1  0.0000000  0.0000000  3
   4825   4824   4833   4834     1  0.0000000  0.6508444  3
   4825   4824   4833   4835     1  0.0000000  0.6508444  3
   4826   4824   4833   4842     1  0.0000000  1.0460000  1
   4826   4824   4833   4842     1  0.0000000  0.0000000  3
   4826   4824   4833   4834     1  0.0000000  0.6508444  3
   4826   4824   4833   4835     1  0.0000000  0.6508444  3
   4828   4827   4839   9743     1  0.0000000  1.0460000  1
   4828   4827   4839   9743     1  0.0000000  0.0000000  3
   4828   4827   4839   4840     1  0.0000000  0.6508444  3
   4828   4827   4839   4841     1  0.0000000  0.6508444  3
   4829   4827   4839   9743     1  0.0000000  1.0460000  1
   4829   4827   4839   9743     1  0.0000000  0.0000000  3
   4829   4827   4839   4840     1  0.0000000  0.6508444  3
   4829   4827   4839   4841     1  0.0000000  0.6508444  3
   4831   4830   4836   9714     1  0.0000000  1.0460000  1
   4831   4830   4836   9714     1  0.0000000  0.0000000  3
   4831   4830   4836   4837     1  0.0000000  0.6508444  3
   4831   4830   4836   4838     1  0.0000000  0.6508444  3
   4832   4830   4836   9714     1  0.0000000  1.0460000  1
   4832   4830   4836   9714     1  0.0000000  0.0000000  3
   4832   4830   4836   4837     1  0.0000000  0.6508444  3
   4832   4830   4836   4838     1  0.0000000  0.6508444  3
   4836   9714   9705   9706     1  0.0000000  1.6038667  3
   4836   9714   9705   9707     1  0.0000000  1.6038667  3
   4837   4836   9714   9705     1  0.0000000  1.6038667  3
   4838   4836   9714   9705     1  0.0000000  1.6038667  3
   4839   9743   9734   9735     1  0.0000000  1.6038667  3
   4839   9743   9734   9736     1  0.0000000  1.6038667  3
   4840   4839   9743   9734     1  0.0000000  1.6038667  3
   4841   4839   9743   9734     1  0.0000000  1.6038667  3
   4843   4844   4856   4857     1  0.0000000  0.6508444  3
   4843   4844   4856   4858     1  0.0000000  0.6508444  3
   4843   4847   4859   4860     1  0.0000000  0.6508444  3
   4843   4847   4859   4861     1  0.0000000  0.6508444  3
   4843   4850   4853   4854     1  0.0000000  0.6508444  3
   4843   4850   4853   4855     1  0.0000000  0.6508444  3
   4844   4843   4847   4848     1  0.0000000  1.2552000  3
   4844   4843   4847   4849     1  0.0000000  1.2552000  3
   4844   4843   4850   4851     1  0.0000000  1.2552000  3
   4844   4843   4850   4852     1  0.0000000  1.2552000  3
   4844   4856   4868   4869     1  0.0000000  0.6508444  3
   4844   4856   4868   4870     1  0.0000000  0.6508444  3
   4845   4844   4843   4847     1  0.0000000  1.2552000  3
   4845   4844   4843   4850     1  0.0000000  1.2552000  3
   4845   4844   4856   4868     1  0.0000000  0.6508444  3
   4845   4844   4856   4857     1  0.0000000  0.6508444  3
   4845   4844   4856   4858     1  0.0000000  0.6508444  3
   4846   4844   4843   4847     1  0.0000000  1.2552000  3
   4846   4844   4843   4850     1  0.0000000  1.2552000  3
   4846   4844   4856   4868     1  0.0000000  0.6508444  3
   4846   4844   4856   4857     1  0.0000000  0.6508444  3
   4846   4844   4856   4858     1  0.0000000  0.6508444  3
   4847   4843   4850   4851     1  0.0000000  1.2552000  3
   4847   4843   4850   4852     1  0.0000000  1.2552000  3
   4847   4859   4865   4866     1  0.0000000  0.6508444  3
   4847   4859   4865   4867     1  0.0000000  0.6508444  3
   4848   4847   4843   4850     1  0.0000000  1.2552000  3
   4848   4847   4859   4865     1  0.0000000  0.6508444  3
   4848   4847   4859   4860     1  0.0000000  0.6508444  3
   4848   4847   4859   4861     1  0.0000000  0.6508444  3
   4849   4847   4843   4850     1  0.0000000  1.2552000  3
   4849   4847   4859   4865     1  0.0000000  0.6508444  3
   4849   4847   4859   4860     1  0.0000000  0.6508444  3
   4849   4847   4859   4861     1  0.0000000  0.6508444  3
   4850   4853   4862   4863     1  0.0000000  0.6508444  3
   4850   4853   4862   4864     1  0.0000000  0.6508444  3
   4851   4850   4853   4862     1  0.0000000  0.6508444  3
   4851   4850   4853   4854     1  0.0000000  0.6508444  3
   4851   4850   4853   4855     1  0.0000000  0.6508444  3
   4852   4850   4853   4862     1  0.0000000  0.6508444  3
   4852   4850   4853   4854     1  0.0000000  0.6508444  3
   4852   4850   4853   4855     1  0.0000000  0.6508444  3
   4854   4853   4862   4871     1  0.0000000  1.0460000  1
   4854   4853   4862   4871     1  0.0000000  0.0000000  3
   4854   4853   4862   4863     1  0.0000000  0.6508444  3
   4854   4853   4862   4864     1  0.0000000  0.6508444  3
   4855   4853   4862   4871     1  0.0000000  1.0460000  1
   4855   4853   4862   4871     1  0.0000000  0.0000000  3
   4855   4853   4862   4863     1  0.0000000  0.6508444  3
   4855   4853   4862   4864     1  0.0000000  0.6508444  3
   4857   4856   4868   9801     1  0.0000000  1.0460000  1
   4857   4856   4868   9801     1  0.0000000  0.0000000  3
   4857   4856   4868   4869     1  0.0000000  0.6508444  3
   4857   4856   4868   4870     1  0.0000000  0.6508444  3
   4858   4856   4868   9801     1  0.0000000  1.0460000  1
   4858   4856   4868   9801     1  0.0000000  0.0000000  3
   4858   4856   4868   4869     1  0.0000000  0.6508444  3
   4858   4856   4868   4870     1  0.0000000  0.6508444  3
   4860   4859   4865   9772     1  0.0000000  1.0460000  1
   4860   4859   4865   9772     1  0.0000000  0.0000000  3
   4860   4859   4865   4866     1  0.0000000  0.6508444  3
   4860   4859   4865   4867     1  0.0000000  0.6508444  3
   4861   4859   4865   9772     1  0.0000000  1.0460000  1
   4861   4859   4865   9772     1  0.0000000  0.0000000  3
   4861   4859   4865   4866     1  0.0000000  0.6508444  3
   4861   4859   4865   4867     1  0.0000000  0.6508444  3
   4865   9772   9763   9764     1  0.0000000  1.6038667  3
   4865   9772   9763   9765     1  0.0000000  1.6038667  3
   4866   4865   9772   9763     1  0.0000000  1.6038667  3
   4867   4865   9772   9763     1  0.0000000  1.6038667  3
   4868   9801   9792   9793     1  0.0000000  1.6038667  3
   4868   9801   9792   9794     1  0.0000000  1.6038667  3
   4869   4868   9801   9792     1  0.0000000  1.6038667  3
   4870   4868   9801   9792     1  0.0000000  1.6038667  3
   4872   4873   4885   4886     1  0.0000000  0.6508444  3
   4872   4873   4885   4887     1  0.0000000  0.6508444  3
   4872   4876   4888   4889     1  0.0000000  0.6508444  3
   4872   4876   4888   4890     1  0.0000000  0.6508444  3
   4872   4879   4882   4883     1  0.0000000  0.6508444  3
   4872   4879   4882   4884     1  0.0000000  0.6508444  3
   4873   4872   4876   4877     1  0.0000000  1.2552000  3
   4873   4872   4876   4878     1  0.0000000  1.2552000  3
   4873   4872   4879   4880     1  0.0000000  1.2552000  3
   4873   4872   4879   4881     1  0.0000000  1.2552000  3
   4873   4885   4897   4898     1  0.0000000  0.6508444  3
   4873   4885   4897   4899     1  0.0000000  0.6508444  3
   4874   4873   4872   4876     1  0.0000000  1.2552000  3
   4874   4873   4872   4879     1  0.0000000  1.2552000  3
   4874   4873   4885   4897     1  0.0000000  0.6508444  3
   4874   4873   4885   4886     1  0.0000000  0.6508444  3
   4874   4873   4885   4887     1  0.0000000  0.6508444  3
   4875   4873   4872   4876     1  0.0000000  1.2552000  3
   4875   4873   4872   4879     1  0.0000000  1.2552000  3
   4875   4873   4885   4897     1  0.0000000  0.6508444  3
   4875   4873   4885   4886     1  0.0000000  0.6508444  3
   4875   4873   4885   4887     1  0.0000000  0.6508444  3
   4876   4872   4879   4880     1  0.0000000  1.2552000  3
   4876   4872   4879   4881     1  0.0000000  1.2552000  3
   4876   4888   4894   4895     1  0.0000000  0.6508444  3
   4876   4888   4894   4896     1  0.0000000  0.6508444  3
   4877   4876   4872   4879     1  0.0000000  1.2552000  3
   4877   4876   4888   4894     1  0.0000000  0.6508444  3
   4877   4876   4888   4889     1  0.0000000  0.6508444  3
   4877   4876   4888   4890     1  0.0000000  0.6508444  3
   4878   4876   4872   4879     1  0.0000000  1.2552000  3
   4878   4876   4888   4894     1  0.0000000  0.6508444  3
   4878   4876   4888   4889     1  0.0000000  0.6508444  3
   4878   4876   4888   4890     1  0.0000000  0.6508444  3
   4879   4882   4891   4892     1  0.0000000  0.6508444  3
   4879   4882   4891   4893     1  0.0000000  0.6508444  3
   4880   4879   4882   4891     1  0.0000000  0.6508444  3
   4880   4879   4882   4883     1  0.0000000  0.6508444  3
   4880   4879   4882   4884     1  0.0000000  0.6508444  3
   4881   4879   4882   4891     1  0.0000000  0.6508444  3
   4881   4879   4882   4883     1  0.0000000  0.6508444  3
   4881   4879   4882   4884     1  0.0000000  0.6508444  3
   4883   4882   4891   4900     1  0.0000000  1.0460000  1
   4883   4882   4891   4900     1  0.0000000  0.0000000  3
   4883   4882   4891   4892     1  0.0000000  0.6508444  3
   4883   4882   4891   4893     1  0.0000000  0.6508444  3
   4884   4882   4891   4900     1  0.0000000  1.0460000  1
   4884   4882   4891   4900     1  0.0000000  0.0000000  3
   4884   4882   4891   4892     1  0.0000000  0.6508444  3
   4884   4882   4891   4893     1  0.0000000  0.6508444  3
   4886   4885   4897   9859     1  0.0000000  1.0460000  1
   4886   4885   4897   9859     1  0.0000000  0.0000000  3
   4886   4885   4897   4898     1  0.0000000  0.6508444  3
   4886   4885   4897   4899     1  0.0000000  0.6508444  3
   4887   4885   4897   9859     1  0.0000000  1.0460000  1
   4887   4885   4897   9859     1  0.0000000  0.0000000  3
   4887   4885   4897   4898     1  0.0000000  0.6508444  3
   4887   4885   4897   4899     1  0.0000000  0.6508444  3
   4889   4888   4894   9830     1  0.0000000  1.0460000  1
   4889   4888   4894   9830     1  0.0000000  0.0000000  3
   4889   4888   4894   4895     1  0.0000000  0.6508444  3
   4889   4888   4894   4896     1  0.0000000  0.6508444  3
   4890   4888   4894   9830     1  0.0000000  1.0460000  1
   4890   4888   4894   9830     1  0.0000000  0.0000000  3
   4890   4888   4894   4895     1  0.0000000  0.6508444  3
   4890   4888   4894   4896     1  0.0000000  0.6508444  3
   4894   9830   9821   9822     1  0.0000000  1.6038667  3
   4894   9830   9821   9823     1  0.0000000  1.6038667  3
   4895   4894   9830   9821     1  0.0000000  1.6038667  3
   4896   4894   9830   9821     1  0.0000000  1.6038667  3
   4897   9859   9850   9851     1  0.0000000  1.6038667  3
   4897   9859   9850   9852     1  0.0000000  1.6038667  3
   4898   4897   9859   9850     1  0.0000000  1.6038667  3
   4899   4897   9859   9850     1  0.0000000  1.6038667  3
   4901   4902   4914   4915     1  0.0000000  0.6508444  3
   4901   4902   4914   4916     1  0.0000000  0.6508444  3
   4901   4905   4917   4918     1  0.0000000  0.6508444  3
   4901   4905   4917   4919     1  0.0000000  0.6508444  3
   4901   4908   4911   4912     1  0.0000000  0.6508444  3
   4901   4908   4911   4913     1  0.0000000  0.6508444  3
   4902   4901   4905   4906     1  0.0000000  1.2552000  3
   4902   4901   4905   4907     1  0.0000000  1.2552000  3
   4902   4901   4908   4909     1  0.0000000  1.2552000  3
   4902   4901   4908   4910     1  0.0000000  1.2552000  3
   4902   4914   4926   4927     1  0.0000000  0.6508444  3
   4902   4914   4926   4928     1  0.0000000  0.6508444  3
   4903   4902   4901   4905     1  0.0000000  1.2552000  3
   4903   4902   4901   4908     1  0.0000000  1.2552000  3
   4903   4902   4914   4926     1  0.0000000  0.6508444  3
   4903   4902   4914   4915     1  0.0000000  0.6508444  3
   4903   4902   4914   4916     1  0.0000000  0.6508444  3
   4904   4902   4901   4905     1  0.0000000  1.2552000  3
   4904   4902   4901   4908     1  0.0000000  1.2552000  3
   4904   4902   4914   4926     1  0.0000000  0.6508444  3
   4904   4902   4914   4915     1  0.0000000  0.6508444  3
   4904   4902   4914   4916     1  0.0000000  0.6508444  3
   4905   4901   4908   4909     1  0.0000000  1.2552000  3
   4905   4901   4908   4910     1  0.0000000  1.2552000  3
   4905   4917   4923   4924     1  0.0000000  0.6508444  3
   4905   4917   4923   4925     1  0.0000000  0.6508444  3
   4906   4905   4901   4908     1  0.0000000  1.2552000  3
   4906   4905   4917   4923     1  0.0000000  0.6508444  3
   4906   4905   4917   4918     1  0.0000000  0.6508444  3
   4906   4905   4917   4919     1  0.0000000  0.6508444  3
   4907   4905   4901   4908     1  0.0000000  1.2552000  3
   4907   4905   4917   4923     1  0.0000000  0.6508444  3
   4907   4905   4917   4918     1  0.0000000  0.6508444  3
   4907   4905   4917   4919     1  0.0000000  0.6508444  3
   4908   4911   4920   4921     1  0.0000000  0.6508444  3
   4908   4911   4920   4922     1  0.0000000  0.6508444  3
   4909   4908   4911   4920     1  0.0000000  0.6508444  3
   4909   4908   4911   4912     1  0.0000000  0.6508444  3
   4909   4908   4911   4913     1  0.0000000  0.6508444  3
   4910   4908   4911   4920     1  0.0000000  0.6508444  3
   4910   4908   4911   4912     1  0.0000000  0.6508444  3
   4910   4908   4911   4913     1  0.0000000  0.6508444  3
   4912   4911   4920   4929     1  0.0000000  1.0460000  1
   4912   4911   4920   4929     1  0.0000000  0.0000000  3
   4912   4911   4920   4921     1  0.0000000  0.6508444  3
   4912   4911   4920   4922     1  0.0000000  0.6508444  3
   4913   4911   4920   4929     1  0.0000000  1.0460000  1
   4913   4911   4920   4929     1  0.0000000  0.0000000  3
   4913   4911   4920   4921     1  0.0000000  0.6508444  3
   4913   4911   4920   4922     1  0.0000000  0.6508444  3
   4915   4914   4926   9917     1  0.0000000  1.0460000  1
   4915   4914   4926   9917     1  0.0000000  0.0000000  3
   4915   4914   4926   4927     1  0.0000000  0.6508444  3
   4915   4914   4926   4928     1  0.0000000  0.6508444  3
   4916   4914   4926   9917     1  0.0000000  1.0460000  1
   4916   4914   4926   9917     1  0.0000000  0.0000000  3
   4916   4914   4926   4927     1  0.0000000  0.6508444  3
   4916   4914   4926   4928     1  0.0000000  0.6508444  3
   4918   4917   4923   9888     1  0.0000000  1.0460000  1
   4918   4917   4923   9888     1  0.0000000  0.0000000  3
   4918   4917   4923   4924     1  0.0000000  0.6508444  3
   4918   4917   4923   4925     1  0.0000000  0.6508444  3
   4919   4917   4923   9888     1  0.0000000  1.0460000  1
   4919   4917   4923   9888     1  0.0000000  0.0000000  3
   4919   4917   4923   4924     1  0.0000000  0.6508444  3
   4919   4917   4923   4925     1  0.0000000  0.6508444  3
   4923   9888   9879   9880     1  0.0000000  1.6038667  3
   4923   9888   9879   9881     1  0.0000000  1.6038667  3
   4924   4923   9888   9879     1  0.0000000  1.6038667  3
   4925   4923   9888   9879     1  0.0000000  1.6038667  3
   4926   9917   9908   9909     1  0.0000000  1.6038667  3
   4926   9917   9908   9910     1  0.0000000  1.6038667  3
   4927   4926   9917   9908     1  0.0000000  1.6038667  3
   4928   4926   9917   9908     1  0.0000000  1.6038667  3
   4930   4931   4943   4944     1  0.0000000  0.6508444  3
   4930   4931   4943   4945     1  0.0000000  0.6508444  3
   4930   4934   4946   4947     1  0.0000000  0.6508444  3
   4930   4934   4946   4948     1  0.0000000  0.6508444  3
   4930   4937   4940   4941     1  0.0000000  0.6508444  3
   4930   4937   4940   4942     1  0.0000000  0.6508444  3
   4931   4930   4934   4935     1  0.0000000  1.2552000  3
   4931   4930   4934   4936     1  0.0000000  1.2552000  3
   4931   4930   4937   4938     1  0.0000000  1.2552000  3
   4931   4930   4937   4939     1  0.0000000  1.2552000  3
   4931   4943   4955   4956     1  0.0000000  0.6508444  3
   4931   4943   4955   4957     1  0.0000000  0.6508444  3
   4932   4931   4930   4934     1  0.0000000  1.2552000  3
   4932   4931   4930   4937     1  0.0000000  1.2552000  3
   4932   4931   4943   4955     1  0.0000000  0.6508444  3
   4932   4931   4943   4944     1  0.0000000  0.6508444  3
   4932   4931   4943   4945     1  0.0000000  0.6508444  3
   4933   4931   4930   4934     1  0.0000000  1.2552000  3
   4933   4931   4930   4937     1  0.0000000  1.2552000  3
   4933   4931   4943   4955     1  0.0000000  0.6508444  3
   4933   4931   4943   4944     1  0.0000000  0.6508444  3
   4933   4931   4943   4945     1  0.0000000  0.6508444  3
   4934   4930   4937   4938     1  0.0000000  1.2552000  3
   4934   4930   4937   4939     1  0.0000000  1.2552000  3
   4934   4946   4952   4953     1  0.0000000  0.6508444  3
   4934   4946   4952   4954     1  0.0000000  0.6508444  3
   4935   4934   4930   4937     1  0.0000000  1.2552000  3
   4935   4934   4946   4952     1  0.0000000  0.6508444  3
   4935   4934   4946   4947     1  0.0000000  0.6508444  3
   4935   4934   4946   4948     1  0.0000000  0.6508444  3
   4936   4934   4930   4937     1  0.0000000  1.2552000  3
   4936   4934   4946   4952     1  0.0000000  0.6508444  3
   4936   4934   4946   4947     1  0.0000000  0.6508444  3
   4936   4934   4946   4948     1  0.0000000  0.6508444  3
   4937   4940   4949   4950     1  0.0000000  0.6508444  3
   4937   4940   4949   4951     1  0.0000000  0.6508444  3
   4938   4937   4940   4949     1  0.0000000  0.6508444  3
   4938   4937   4940   4941     1  0.0000000  0.6508444  3
   4938   4937   4940   4942     1  0.0000000  0.6508444  3
   4939   4937   4940   4949     1  0.0000000  0.6508444  3
   4939   4937   4940   4941     1  0.0000000  0.6508444  3
   4939   4937   4940   4942     1  0.0000000  0.6508444  3
   4941   4940   4949   4958     1  0.0000000  1.0460000  1
   4941   4940   4949   4958     1  0.0000000  0.0000000  3
   4941   4940   4949   4950     1  0.0000000  0.6508444  3
   4941   4940   4949   4951     1  0.0000000  0.6508444  3
   4942   4940   4949   4958     1  0.0000000  1.0460000  1
   4942   4940   4949   4958     1  0.0000000  0.0000000  3
   4942   4940   4949   4950     1  0.0000000  0.6508444  3
   4942   4940   4949   4951     1  0.0000000  0.6508444  3
   4944   4943   4955   9975     1  0.0000000  1.0460000  1
   4944   4943   4955   9975     1  0.0000000  0.0000000  3
   4944   4943   4955   4956     1  0.0000000  0.6508444  3
   4944   4943   4955   4957     1  0.0000000  0.6508444  3
   4945   4943   4955   9975     1  0.0000000  1.0460000  1
   4945   4943   4955   9975     1  0.0000000  0.0000000  3
   4945   4943   4955   4956     1  0.0000000  0.6508444  3
   4945   4943   4955   4957     1  0.0000000  0.6508444  3
   4947   4946   4952   9946     1  0.0000000  1.0460000  1
   4947   4946   4952   9946     1  0.0000000  0.0000000  3
   4947   4946   4952   4953     1  0.0000000  0.6508444  3
   4947   4946   4952   4954     1  0.0000000  0.6508444  3
   4948   4946   4952   9946     1  0.0000000  1.0460000  1
   4948   4946   4952   9946     1  0.0000000  0.0000000  3
   4948   4946   4952   4953     1  0.0000000  0.6508444  3
   4948   4946   4952   4954     1  0.0000000  0.6508444  3
   4952   9946   9937   9938     1  0.0000000  1.6038667  3
   4952   9946   9937   9939     1  0.0000000  1.6038667  3
   4953   4952   9946   9937     1  0.0000000  1.6038667  3
   4954   4952   9946   9937     1  0.0000000  1.6038667  3
   4955   9975   9966   9967     1  0.0000000  1.6038667  3
   4955   9975   9966   9968     1  0.0000000  1.6038667  3
   4956   4955   9975   9966     1  0.0000000  1.6038667  3
   4957   4955   9975   9966     1  0.0000000  1.6038667  3
   4959   4960   4972   4973     1  0.0000000  0.6508444  3
   4959   4960   4972   4974     1  0.0000000  0.6508444  3
   4959   4963   4975   4976     1  0.0000000  0.6508444  3
   4959   4963   4975   4977     1  0.0000000  0.6508444  3
   4959   4966   4969   4970     1  0.0000000  0.6508444  3
   4959   4966   4969   4971     1  0.0000000  0.6508444  3
   4960   4959   4963   4964     1  0.0000000  1.2552000  3
   4960   4959   4963   4965     1  0.0000000  1.2552000  3
   4960   4959   4966   4967     1  0.0000000  1.2552000  3
   4960   4959   4966   4968     1  0.0000000  1.2552000  3
   4960   4972   4984   4985     1  0.0000000  0.6508444  3
   4960   4972   4984   4986     1  0.0000000  0.6508444  3
   4961   4960   4959   4963     1  0.0000000  1.2552000  3
   4961   4960   4959   4966     1  0.0000000  1.2552000  3
   4961   4960   4972   4984     1  0.0000000  0.6508444  3
   4961   4960   4972   4973     1  0.0000000  0.6508444  3
   4961   4960   4972   4974     1  0.0000000  0.6508444  3
   4962   4960   4959   4963     1  0.0000000  1.2552000  3
   4962   4960   4959   4966     1  0.0000000  1.2552000  3
   4962   4960   4972   4984     1  0.0000000  0.6508444  3
   4962   4960   4972   4973     1  0.0000000  0.6508444  3
   4962   4960   4972   4974     1  0.0000000  0.6508444  3
   4963   4959   4966   4967     1  0.0000000  1.2552000  3
   4963   4959   4966   4968     1  0.0000000  1.2552000  3
   4963   4975   4981   4982     1  0.0000000  0.6508444  3
   4963   4975   4981   4983     1  0.0000000  0.6508444  3
   4964   4963   4959   4966     1  0.0000000  1.2552000  3
   4964   4963   4975   4981     1  0.0000000  0.6508444  3
   4964   4963   4975   4976     1  0.0000000  0.6508444  3
   4964   4963   4975   4977     1  0.0000000  0.6508444  3
   4965   4963   4959   4966     1  0.0000000  1.2552000  3
   4965   4963   4975   4981     1  0.0000000  0.6508444  3
   4965   4963   4975   4976     1  0.0000000  0.6508444  3
   4965   4963   4975   4977     1  0.0000000  0.6508444  3
   4966   4969   4978   4979     1  0.0000000  0.6508444  3
   4966   4969   4978   4980     1  0.0000000  0.6508444  3
   4967   4966   4969   4978     1  0.0000000  0.6508444  3
   4967   4966   4969   4970     1  0.0000000  0.6508444  3
   4967   4966   4969   4971     1  0.0000000  0.6508444  3
   4968   4966   4969   4978     1  0.0000000  0.6508444  3
   4968   4966   4969   4970     1  0.0000000  0.6508444  3
   4968   4966   4969   4971     1  0.0000000  0.6508444  3
   4970   4969   4978   4987     1  0.0000000  1.0460000  1
   4970   4969   4978   4987     1  0.0000000  0.0000000  3
   4970   4969   4978   4979     1  0.0000000  0.6508444  3
   4970   4969   4978   4980     1  0.0000000  0.6508444  3
   4971   4969   4978   4987     1  0.0000000  1.0460000  1
   4971   4969   4978   4987     1  0.0000000  0.0000000  3
   4971   4969   4978   4979     1  0.0000000  0.6508444  3
   4971   4969   4978   4980     1  0.0000000  0.6508444  3
   4973   4972   4984  10033     1  0.0000000  1.0460000  1
   4973   4972   4984  10033     1  0.0000000  0.0000000  3
   4973   4972   4984   4985     1  0.0000000  0.6508444  3
   4973   4972   4984   4986     1  0.0000000  0.6508444  3
   4974   4972   4984  10033     1  0.0000000  1.0460000  1
   4974   4972   4984  10033     1  0.0000000  0.0000000  3
   4974   4972   4984   4985     1  0.0000000  0.6508444  3
   4974   4972   4984   4986     1  0.0000000  0.6508444  3
   4976   4975   4981  10004     1  0.0000000  1.0460000  1
   4976   4975   4981  10004     1  0.0000000  0.0000000  3
   4976   4975   4981   4982     1  0.0000000  0.6508444  3
   4976   4975   4981   4983     1  0.0000000  0.6508444  3
   4977   4975   4981  10004     1  0.0000000  1.0460000  1
   4977   4975   4981  10004     1  0.0000000  0.0000000  3
   4977   4975   4981   4982     1  0.0000000  0.6508444  3
   4977   4975   4981   4983     1  0.0000000  0.6508444  3
   4981  10004   9995   9996     1  0.0000000  1.6038667  3
   4981  10004   9995   9997     1  0.0000000  1.6038667  3
   4982   4981  10004   9995     1  0.0000000  1.6038667  3
   4983   4981  10004   9995     1  0.0000000  1.6038667  3
   4984  10033  10024  10025     1  0.0000000  1.6038667  3
   4984  10033  10024  10026     1  0.0000000  1.6038667  3
   4985   4984  10033  10024     1  0.0000000  1.6038667  3
   4986   4984  10033  10024     1  0.0000000  1.6038667  3
   4988   4989   5001   5002     1  0.0000000  0.6508444  3
   4988   4989   5001   5003     1  0.0000000  0.6508444  3
   4988   4992   5004   5005     1  0.0000000  0.6508444  3
   4988   4992   5004   5006     1  0.0000000  0.6508444  3
   4988   4995   4998   4999     1  0.0000000  0.6508444  3
   4988   4995   4998   5000     1  0.0000000  0.6508444  3
   4989   4988   4992   4993     1  0.0000000  1.2552000  3
   4989   4988   4992   4994     1  0.0000000  1.2552000  3
   4989   4988   4995   4996     1  0.0000000  1.2552000  3
   4989   4988   4995   4997     1  0.0000000  1.2552000  3
   4989   5001   5013   5014     1  0.0000000  0.6508444  3
   4989   5001   5013   5015     1  0.0000000  0.6508444  3
   4990   4989   4988   4992     1  0.0000000  1.2552000  3
   4990   4989   4988   4995     1  0.0000000  1.2552000  3
   4990   4989   5001   5013     1  0.0000000  0.6508444  3
   4990   4989   5001   5002     1  0.0000000  0.6508444  3
   4990   4989   5001   5003     1  0.0000000  0.6508444  3
   4991   4989   4988   4992     1  0.0000000  1.2552000  3
   4991   4989   4988   4995     1  0.0000000  1.2552000  3
   4991   4989   5001   5013     1  0.0000000  0.6508444  3
   4991   4989   5001   5002     1  0.0000000  0.6508444  3
   4991   4989   5001   5003     1  0.0000000  0.6508444  3
   4992   4988   4995   4996     1  0.0000000  1.2552000  3
   4992   4988   4995   4997     1  0.0000000  1.2552000  3
   4992   5004   5010   5011     1  0.0000000  0.6508444  3
   4992   5004   5010   5012     1  0.0000000  0.6508444  3
   4993   4992   4988   4995     1  0.0000000  1.2552000  3
   4993   4992   5004   5010     1  0.0000000  0.6508444  3
   4993   4992   5004   5005     1  0.0000000  0.6508444  3
   4993   4992   5004   5006     1  0.0000000  0.6508444  3
   4994   4992   4988   4995     1  0.0000000  1.2552000  3
   4994   4992   5004   5010     1  0.0000000  0.6508444  3
   4994   4992   5004   5005     1  0.0000000  0.6508444  3
   4994   4992   5004   5006     1  0.0000000  0.6508444  3
   4995   4998   5007   5008     1  0.0000000  0.6508444  3
   4995   4998   5007   5009     1  0.0000000  0.6508444  3
   4996   4995   4998   5007     1  0.0000000  0.6508444  3
   4996   4995   4998   4999     1  0.0000000  0.6508444  3
   4996   4995   4998   5000     1  0.0000000  0.6508444  3
   4997   4995   4998   5007     1  0.0000000  0.6508444  3
   4997   4995   4998   4999     1  0.0000000  0.6508444  3
   4997   4995   4998   5000     1  0.0000000  0.6508444  3
   4999   4998   5007   5016     1  0.0000000  1.0460000  1
   4999   4998   5007   5016     1  0.0000000  0.0000000  3
   4999   4998   5007   5008     1  0.0000000  0.6508444  3
   4999   4998   5007   5009     1  0.0000000  0.6508444  3
   5000   4998   5007   5016     1  0.0000000  1.0460000  1
   5000   4998   5007   5016     1  0.0000000  0.0000000  3
   5000   4998   5007   5008     1  0.0000000  0.6508444  3
   5000   4998   5007   5009     1  0.0000000  0.6508444  3
   5002   5001   5013  10091     1  0.0000000  1.0460000  1
   5002   5001   5013  10091     1  0.0000000  0.0000000  3
   5002   5001   5013   5014     1  0.0000000  0.6508444  3
   5002   5001   5013   5015     1  0.0000000  0.6508444  3
   5003   5001   5013  10091     1  0.0000000  1.0460000  1
   5003   5001   5013  10091     1  0.0000000  0.0000000  3
   5003   5001   5013   5014     1  0.0000000  0.6508444  3
   5003   5001   5013   5015     1  0.0000000  0.6508444  3
   5005   5004   5010  10062     1  0.0000000  1.0460000  1
   5005   5004   5010  10062     1  0.0000000  0.0000000  3
   5005   5004   5010   5011     1  0.0000000  0.6508444  3
   5005   5004   5010   5012     1  0.0000000  0.6508444  3
   5006   5004   5010  10062     1  0.0000000  1.0460000  1
   5006   5004   5010  10062     1  0.0000000  0.0000000  3
   5006   5004   5010   5011     1  0.0000000  0.6508444  3
   5006   5004   5010   5012     1  0.0000000  0.6508444  3
   5010  10062  10053  10054     1  0.0000000  1.6038667  3
   5010  10062  10053  10055     1  0.0000000  1.6038667  3
   5011   5010  10062  10053     1  0.0000000  1.6038667  3
   5012   5010  10062  10053     1  0.0000000  1.6038667  3
   5013  10091  10082  10083     1  0.0000000  1.6038667  3
   5013  10091  10082  10084     1  0.0000000  1.6038667  3
   5014   5013  10091  10082     1  0.0000000  1.6038667  3
   5015   5013  10091  10082     1  0.0000000  1.6038667  3
   5017   5018   5030   5031     1  0.0000000  0.6508444  3
   5017   5018   5030   5032     1  0.0000000  0.6508444  3
   5017   5021   5033   5034     1  0.0000000  0.6508444  3
   5017   5021   5033   5035     1  0.0000000  0.6508444  3
   5017   5024   5027   5028     1  0.0000000  0.6508444  3
   5017   5024   5027   5029     1  0.0000000  0.6508444  3
   5018   5017   5021   5022     1  0.0000000  1.2552000  3
   5018   5017   5021   5023     1  0.0000000  1.2552000  3
   5018   5017   5024   5025     1  0.0000000  1.2552000  3
   5018   5017   5024   5026     1  0.0000000  1.2552000  3
   5018   5030   5042   5043     1  0.0000000  0.6508444  3
   5018   5030   5042   5044     1  0.0000000  0.6508444  3
   5019   5018   5017   5021     1  0.0000000  1.2552000  3
   5019   5018   5017   5024     1  0.0000000  1.2552000  3
   5019   5018   5030   5042     1  0.0000000  0.6508444  3
   5019   5018   5030   5031     1  0.0000000  0.6508444  3
   5019   5018   5030   5032     1  0.0000000  0.6508444  3
   5020   5018   5017   5021     1  0.0000000  1.2552000  3
   5020   5018   5017   5024     1  0.0000000  1.2552000  3
   5020   5018   5030   5042     1  0.0000000  0.6508444  3
   5020   5018   5030   5031     1  0.0000000  0.6508444  3
   5020   5018   5030   5032     1  0.0000000  0.6508444  3
   5021   5017   5024   5025     1  0.0000000  1.2552000  3
   5021   5017   5024   5026     1  0.0000000  1.2552000  3
   5021   5033   5039   5040     1  0.0000000  0.6508444  3
   5021   5033   5039   5041     1  0.0000000  0.6508444  3
   5022   5021   5017   5024     1  0.0000000  1.2552000  3
   5022   5021   5033   5039     1  0.0000000  0.6508444  3
   5022   5021   5033   5034     1  0.0000000  0.6508444  3
   5022   5021   5033   5035     1  0.0000000  0.6508444  3
   5023   5021   5017   5024     1  0.0000000  1.2552000  3
   5023   5021   5033   5039     1  0.0000000  0.6508444  3
   5023   5021   5033   5034     1  0.0000000  0.6508444  3
   5023   5021   5033   5035     1  0.0000000  0.6508444  3
   5024   5027   5036   5037     1  0.0000000  0.6508444  3
   5024   5027   5036   5038     1  0.0000000  0.6508444  3
   5025   5024   5027   5036     1  0.0000000  0.6508444  3
   5025   5024   5027   5028     1  0.0000000  0.6508444  3
   5025   5024   5027   5029     1  0.0000000  0.6508444  3
   5026   5024   5027   5036     1  0.0000000  0.6508444  3
   5026   5024   5027   5028     1  0.0000000  0.6508444  3
   5026   5024   5027   5029     1  0.0000000  0.6508444  3
   5028   5027   5036   5045     1  0.0000000  1.0460000  1
   5028   5027   5036   5045     1  0.0000000  0.0000000  3
   5028   5027   5036   5037     1  0.0000000  0.6508444  3
   5028   5027   5036   5038     1  0.0000000  0.6508444  3
   5029   5027   5036   5045     1  0.0000000  1.0460000  1
   5029   5027   5036   5045     1  0.0000000  0.0000000  3
   5029   5027   5036   5037     1  0.0000000  0.6508444  3
   5029   5027   5036   5038     1  0.0000000  0.6508444  3
   5031   5030   5042  10149     1  0.0000000  1.0460000  1
   5031   5030   5042  10149     1  0.0000000  0.0000000  3
   5031   5030   5042   5043     1  0.0000000  0.6508444  3
   5031   5030   5042   5044     1  0.0000000  0.6508444  3
   5032   5030   5042  10149     1  0.0000000  1.0460000  1
   5032   5030   5042  10149     1  0.0000000  0.0000000  3
   5032   5030   5042   5043     1  0.0000000  0.6508444  3
   5032   5030   5042   5044     1  0.0000000  0.6508444  3
   5034   5033   5039  10120     1  0.0000000  1.0460000  1
   5034   5033   5039  10120     1  0.0000000  0.0000000  3
   5034   5033   5039   5040     1  0.0000000  0.6508444  3
   5034   5033   5039   5041     1  0.0000000  0.6508444  3
   5035   5033   5039  10120     1  0.0000000  1.0460000  1
   5035   5033   5039  10120     1  0.0000000  0.0000000  3
   5035   5033   5039   5040     1  0.0000000  0.6508444  3
   5035   5033   5039   5041     1  0.0000000  0.6508444  3
   5039  10120  10111  10112     1  0.0000000  1.6038667  3
   5039  10120  10111  10113     1  0.0000000  1.6038667  3
   5040   5039  10120  10111     1  0.0000000  1.6038667  3
   5041   5039  10120  10111     1  0.0000000  1.6038667  3
   5042  10149  10140  10141     1  0.0000000  1.6038667  3
   5042  10149  10140  10142     1  0.0000000  1.6038667  3
   5043   5042  10149  10140     1  0.0000000  1.6038667  3
   5044   5042  10149  10140     1  0.0000000  1.6038667  3
   5046   5047   5059   5060     1  0.0000000  0.6508444  3
   5046   5047   5059   5061     1  0.0000000  0.6508444  3
   5046   5050   5062   5063     1  0.0000000  0.6508444  3
   5046   5050   5062   5064     1  0.0000000  0.6508444  3
   5046   5053   5056   5057     1  0.0000000  0.6508444  3
   5046   5053   5056   5058     1  0.0000000  0.6508444  3
   5047   5046   5050   5051     1  0.0000000  1.2552000  3
   5047   5046   5050   5052     1  0.0000000  1.2552000  3
   5047   5046   5053   5054     1  0.0000000  1.2552000  3
   5047   5046   5053   5055     1  0.0000000  1.2552000  3
   5047   5059   5071   5072     1  0.0000000  0.6508444  3
   5047   5059   5071   5073     1  0.0000000  0.6508444  3
   5048   5047   5046   5050     1  0.0000000  1.2552000  3
   5048   5047   5046   5053     1  0.0000000  1.2552000  3
   5048   5047   5059   5071     1  0.0000000  0.6508444  3
   5048   5047   5059   5060     1  0.0000000  0.6508444  3
   5048   5047   5059   5061     1  0.0000000  0.6508444  3
   5049   5047   5046   5050     1  0.0000000  1.2552000  3
   5049   5047   5046   5053     1  0.0000000  1.2552000  3
   5049   5047   5059   5071     1  0.0000000  0.6508444  3
   5049   5047   5059   5060     1  0.0000000  0.6508444  3
   5049   5047   5059   5061     1  0.0000000  0.6508444  3
   5050   5046   5053   5054     1  0.0000000  1.2552000  3
   5050   5046   5053   5055     1  0.0000000  1.2552000  3
   5050   5062   5068   5069     1  0.0000000  0.6508444  3
   5050   5062   5068   5070     1  0.0000000  0.6508444  3
   5051   5050   5046   5053     1  0.0000000  1.2552000  3
   5051   5050   5062   5068     1  0.0000000  0.6508444  3
   5051   5050   5062   5063     1  0.0000000  0.6508444  3
   5051   5050   5062   5064     1  0.0000000  0.6508444  3
   5052   5050   5046   5053     1  0.0000000  1.2552000  3
   5052   5050   5062   5068     1  0.0000000  0.6508444  3
   5052   5050   5062   5063     1  0.0000000  0.6508444  3
   5052   5050   5062   5064     1  0.0000000  0.6508444  3
   5053   5056   5065   5066     1  0.0000000  0.6508444  3
   5053   5056   5065   5067     1  0.0000000  0.6508444  3
   5054   5053   5056   5065     1  0.0000000  0.6508444  3
   5054   5053   5056   5057     1  0.0000000  0.6508444  3
   5054   5053   5056   5058     1  0.0000000  0.6508444  3
   5055   5053   5056   5065     1  0.0000000  0.6508444  3
   5055   5053   5056   5057     1  0.0000000  0.6508444  3
   5055   5053   5056   5058     1  0.0000000  0.6508444  3
   5057   5056   5065   5074     1  0.0000000  1.0460000  1
   5057   5056   5065   5074     1  0.0000000  0.0000000  3
   5057   5056   5065   5066     1  0.0000000  0.6508444  3
   5057   5056   5065   5067     1  0.0000000  0.6508444  3
   5058   5056   5065   5074     1  0.0000000  1.0460000  1
   5058   5056   5065   5074     1  0.0000000  0.0000000  3
   5058   5056   5065   5066     1  0.0000000  0.6508444  3
   5058   5056   5065   5067     1  0.0000000  0.6508444  3
   5060   5059   5071  10207     1  0.0000000  1.0460000  1
   5060   5059   5071  10207     1  0.0000000  0.0000000  3
   5060   5059   5071   5072     1  0.0000000  0.6508444  3
   5060   5059   5071   5073     1  0.0000000  0.6508444  3
   5061   5059   5071  10207     1  0.0000000  1.0460000  1
   5061   5059   5071  10207     1  0.0000000  0.0000000  3
   5061   5059   5071   5072     1  0.0000000  0.6508444  3
   5061   5059   5071   5073     1  0.0000000  0.6508444  3
   5063   5062   5068  10178     1  0.0000000  1.0460000  1
   5063   5062   5068  10178     1  0.0000000  0.0000000  3
   5063   5062   5068   5069     1  0.0000000  0.6508444  3
   5063   5062   5068   5070     1  0.0000000  0.6508444  3
   5064   5062   5068  10178     1  0.0000000  1.0460000  1
   5064   5062   5068  10178     1  0.0000000  0.0000000  3
   5064   5062   5068   5069     1  0.0000000  0.6508444  3
   5064   5062   5068   5070     1  0.0000000  0.6508444  3
   5068  10178  10169  10170     1  0.0000000  1.6038667  3
   5068  10178  10169  10171     1  0.0000000  1.6038667  3
   5069   5068  10178  10169     1  0.0000000  1.6038667  3
   5070   5068  10178  10169     1  0.0000000  1.6038667  3
   5071  10207  10198  10199     1  0.0000000  1.6038667  3
   5071  10207  10198  10200     1  0.0000000  1.6038667  3
   5072   5071  10207  10198     1  0.0000000  1.6038667  3
   5073   5071  10207  10198     1  0.0000000  1.6038667  3
   5075   5076   5088   5089     1  0.0000000  0.6508444  3
   5075   5076   5088   5090     1  0.0000000  0.6508444  3
   5075   5079   5091   5092     1  0.0000000  0.6508444  3
   5075   5079   5091   5093     1  0.0000000  0.6508444  3
   5075   5082   5085   5086     1  0.0000000  0.6508444  3
   5075   5082   5085   5087     1  0.0000000  0.6508444  3
   5076   5075   5079   5080     1  0.0000000  1.2552000  3
   5076   5075   5079   5081     1  0.0000000  1.2552000  3
   5076   5075   5082   5083     1  0.0000000  1.2552000  3
   5076   5075   5082   5084     1  0.0000000  1.2552000  3
   5076   5088   5100   5101     1  0.0000000  0.6508444  3
   5076   5088   5100   5102     1  0.0000000  0.6508444  3
   5077   5076   5075   5079     1  0.0000000  1.2552000  3
   5077   5076   5075   5082     1  0.0000000  1.2552000  3
   5077   5076   5088   5100     1  0.0000000  0.6508444  3
   5077   5076   5088   5089     1  0.0000000  0.6508444  3
   5077   5076   5088   5090     1  0.0000000  0.6508444  3
   5078   5076   5075   5079     1  0.0000000  1.2552000  3
   5078   5076   5075   5082     1  0.0000000  1.2552000  3
   5078   5076   5088   5100     1  0.0000000  0.6508444  3
   5078   5076   5088   5089     1  0.0000000  0.6508444  3
   5078   5076   5088   5090     1  0.0000000  0.6508444  3
   5079   5075   5082   5083     1  0.0000000  1.2552000  3
   5079   5075   5082   5084     1  0.0000000  1.2552000  3
   5079   5091   5097   5098     1  0.0000000  0.6508444  3
   5079   5091   5097   5099     1  0.0000000  0.6508444  3
   5080   5079   5075   5082     1  0.0000000  1.2552000  3
   5080   5079   5091   5097     1  0.0000000  0.6508444  3
   5080   5079   5091   5092     1  0.0000000  0.6508444  3
   5080   5079   5091   5093     1  0.0000000  0.6508444  3
   5081   5079   5075   5082     1  0.0000000  1.2552000  3
   5081   5079   5091   5097     1  0.0000000  0.6508444  3
   5081   5079   5091   5092     1  0.0000000  0.6508444  3
   5081   5079   5091   5093     1  0.0000000  0.6508444  3
   5082   5085   5094   5095     1  0.0000000  0.6508444  3
   5082   5085   5094   5096     1  0.0000000  0.6508444  3
   5083   5082   5085   5094     1  0.0000000  0.6508444  3
   5083   5082   5085   5086     1  0.0000000  0.6508444  3
   5083   5082   5085   5087     1  0.0000000  0.6508444  3
   5084   5082   5085   5094     1  0.0000000  0.6508444  3
   5084   5082   5085   5086     1  0.0000000  0.6508444  3
   5084   5082   5085   5087     1  0.0000000  0.6508444  3
   5086   5085   5094   5103     1  0.0000000  1.0460000  1
   5086   5085   5094   5103     1  0.0000000  0.0000000  3
   5086   5085   5094   5095     1  0.0000000  0.6508444  3
   5086   5085   5094   5096     1  0.0000000  0.6508444  3
   5087   5085   5094   5103     1  0.0000000  1.0460000  1
   5087   5085   5094   5103     1  0.0000000  0.0000000  3
   5087   5085   5094   5095     1  0.0000000  0.6508444  3
   5087   5085   5094   5096     1  0.0000000  0.6508444  3
   5089   5088   5100  10265     1  0.0000000  1.0460000  1
   5089   5088   5100  10265     1  0.0000000  0.0000000  3
   5089   5088   5100   5101     1  0.0000000  0.6508444  3
   5089   5088   5100   5102     1  0.0000000  0.6508444  3
   5090   5088   5100  10265     1  0.0000000  1.0460000  1
   5090   5088   5100  10265     1  0.0000000  0.0000000  3
   5090   5088   5100   5101     1  0.0000000  0.6508444  3
   5090   5088   5100   5102     1  0.0000000  0.6508444  3
   5092   5091   5097  10236     1  0.0000000  1.0460000  1
   5092   5091   5097  10236     1  0.0000000  0.0000000  3
   5092   5091   5097   5098     1  0.0000000  0.6508444  3
   5092   5091   5097   5099     1  0.0000000  0.6508444  3
   5093   5091   5097  10236     1  0.0000000  1.0460000  1
   5093   5091   5097  10236     1  0.0000000  0.0000000  3
   5093   5091   5097   5098     1  0.0000000  0.6508444  3
   5093   5091   5097   5099     1  0.0000000  0.6508444  3
   5097  10236  10227  10228     1  0.0000000  1.6038667  3
   5097  10236  10227  10229     1  0.0000000  1.6038667  3
   5098   5097  10236  10227     1  0.0000000  1.6038667  3
   5099   5097  10236  10227     1  0.0000000  1.6038667  3
   5100  10265  10256  10257     1  0.0000000  1.6038667  3
   5100  10265  10256  10258     1  0.0000000  1.6038667  3
   5101   5100  10265  10256     1  0.0000000  1.6038667  3
   5102   5100  10265  10256     1  0.0000000  1.6038667  3
   5104   5105   5117   5118     1  0.0000000  0.6508444  3
   5104   5105   5117   5119     1  0.0000000  0.6508444  3
   5104   5108   5120   5121     1  0.0000000  0.6508444  3
   5104   5108   5120   5122     1  0.0000000  0.6508444  3
   5104   5111   5114   5115     1  0.0000000  0.6508444  3
   5104   5111   5114   5116     1  0.0000000  0.6508444  3
   5105   5104   5108   5109     1  0.0000000  1.2552000  3
   5105   5104   5108   5110     1  0.0000000  1.2552000  3
   5105   5104   5111   5112     1  0.0000000  1.2552000  3
   5105   5104   5111   5113     1  0.0000000  1.2552000  3
   5105   5117   5129   5130     1  0.0000000  0.6508444  3
   5105   5117   5129   5131     1  0.0000000  0.6508444  3
   5106   5105   5104   5108     1  0.0000000  1.2552000  3
   5106   5105   5104   5111     1  0.0000000  1.2552000  3
   5106   5105   5117   5129     1  0.0000000  0.6508444  3
   5106   5105   5117   5118     1  0.0000000  0.6508444  3
   5106   5105   5117   5119     1  0.0000000  0.6508444  3
   5107   5105   5104   5108     1  0.0000000  1.2552000  3
   5107   5105   5104   5111     1  0.0000000  1.2552000  3
   5107   5105   5117   5129     1  0.0000000  0.6508444  3
   5107   5105   5117   5118     1  0.0000000  0.6508444  3
   5107   5105   5117   5119     1  0.0000000  0.6508444  3
   5108   5104   5111   5112     1  0.0000000  1.2552000  3
   5108   5104   5111   5113     1  0.0000000  1.2552000  3
   5108   5120   5126   5127     1  0.0000000  0.6508444  3
   5108   5120   5126   5128     1  0.0000000  0.6508444  3
   5109   5108   5104   5111     1  0.0000000  1.2552000  3
   5109   5108   5120   5126     1  0.0000000  0.6508444  3
   5109   5108   5120   5121     1  0.0000000  0.6508444  3
   5109   5108   5120   5122     1  0.0000000  0.6508444  3
   5110   5108   5104   5111     1  0.0000000  1.2552000  3
   5110   5108   5120   5126     1  0.0000000  0.6508444  3
   5110   5108   5120   5121     1  0.0000000  0.6508444  3
   5110   5108   5120   5122     1  0.0000000  0.6508444  3
   5111   5114   5123   5124     1  0.0000000  0.6508444  3
   5111   5114   5123   5125     1  0.0000000  0.6508444  3
   5112   5111   5114   5123     1  0.0000000  0.6508444  3
   5112   5111   5114   5115     1  0.0000000  0.6508444  3
   5112   5111   5114   5116     1  0.0000000  0.6508444  3
   5113   5111   5114   5123     1  0.0000000  0.6508444  3
   5113   5111   5114   5115     1  0.0000000  0.6508444  3
   5113   5111   5114   5116     1  0.0000000  0.6508444  3
   5115   5114   5123   5132     1  0.0000000  1.0460000  1
   5115   5114   5123   5132     1  0.0000000  0.0000000  3
   5115   5114   5123   5124     1  0.0000000  0.6508444  3
   5115   5114   5123   5125     1  0.0000000  0.6508444  3
   5116   5114   5123   5132     1  0.0000000  1.0460000  1
   5116   5114   5123   5132     1  0.0000000  0.0000000  3
   5116   5114   5123   5124     1  0.0000000  0.6508444  3
   5116   5114   5123   5125     1  0.0000000  0.6508444  3
   5118   5117   5129  10323     1  0.0000000  1.0460000  1
   5118   5117   5129  10323     1  0.0000000  0.0000000  3
   5118   5117   5129   5130     1  0.0000000  0.6508444  3
   5118   5117   5129   5131     1  0.0000000  0.6508444  3
   5119   5117   5129  10323     1  0.0000000  1.0460000  1
   5119   5117   5129  10323     1  0.0000000  0.0000000  3
   5119   5117   5129   5130     1  0.0000000  0.6508444  3
   5119   5117   5129   5131     1  0.0000000  0.6508444  3
   5121   5120   5126  10294     1  0.0000000  1.0460000  1
   5121   5120   5126  10294     1  0.0000000  0.0000000  3
   5121   5120   5126   5127     1  0.0000000  0.6508444  3
   5121   5120   5126   5128     1  0.0000000  0.6508444  3
   5122   5120   5126  10294     1  0.0000000  1.0460000  1
   5122   5120   5126  10294     1  0.0000000  0.0000000  3
   5122   5120   5126   5127     1  0.0000000  0.6508444  3
   5122   5120   5126   5128     1  0.0000000  0.6508444  3
   5126  10294  10285  10286     1  0.0000000  1.6038667  3
   5126  10294  10285  10287     1  0.0000000  1.6038667  3
   5127   5126  10294  10285     1  0.0000000  1.6038667  3
   5128   5126  10294  10285     1  0.0000000  1.6038667  3
   5129  10323  10314  10315     1  0.0000000  1.6038667  3
   5129  10323  10314  10316     1  0.0000000  1.6038667  3
   5130   5129  10323  10314     1  0.0000000  1.6038667  3
   5131   5129  10323  10314     1  0.0000000  1.6038667  3
   5133   5134   5146   5147     1  0.0000000  0.6508444  3
   5133   5134   5146   5148     1  0.0000000  0.6508444  3
   5133   5137   5149   5150     1  0.0000000  0.6508444  3
   5133   5137   5149   5151     1  0.0000000  0.6508444  3
   5133   5140   5143   5144     1  0.0000000  0.6508444  3
   5133   5140   5143   5145     1  0.0000000  0.6508444  3
   5134   5133   5137   5138     1  0.0000000  1.2552000  3
   5134   5133   5137   5139     1  0.0000000  1.2552000  3
   5134   5133   5140   5141     1  0.0000000  1.2552000  3
   5134   5133   5140   5142     1  0.0000000  1.2552000  3
   5134   5146   5158   5159     1  0.0000000  0.6508444  3
   5134   5146   5158   5160     1  0.0000000  0.6508444  3
   5135   5134   5133   5137     1  0.0000000  1.2552000  3
   5135   5134   5133   5140     1  0.0000000  1.2552000  3
   5135   5134   5146   5158     1  0.0000000  0.6508444  3
   5135   5134   5146   5147     1  0.0000000  0.6508444  3
   5135   5134   5146   5148     1  0.0000000  0.6508444  3
   5136   5134   5133   5137     1  0.0000000  1.2552000  3
   5136   5134   5133   5140     1  0.0000000  1.2552000  3
   5136   5134   5146   5158     1  0.0000000  0.6508444  3
   5136   5134   5146   5147     1  0.0000000  0.6508444  3
   5136   5134   5146   5148     1  0.0000000  0.6508444  3
   5137   5133   5140   5141     1  0.0000000  1.2552000  3
   5137   5133   5140   5142     1  0.0000000  1.2552000  3
   5137   5149   5155   5156     1  0.0000000  0.6508444  3
   5137   5149   5155   5157     1  0.0000000  0.6508444  3
   5138   5137   5133   5140     1  0.0000000  1.2552000  3
   5138   5137   5149   5155     1  0.0000000  0.6508444  3
   5138   5137   5149   5150     1  0.0000000  0.6508444  3
   5138   5137   5149   5151     1  0.0000000  0.6508444  3
   5139   5137   5133   5140     1  0.0000000  1.2552000  3
   5139   5137   5149   5155     1  0.0000000  0.6508444  3
   5139   5137   5149   5150     1  0.0000000  0.6508444  3
   5139   5137   5149   5151     1  0.0000000  0.6508444  3
   5140   5143   5152   5153     1  0.0000000  0.6508444  3
   5140   5143   5152   5154     1  0.0000000  0.6508444  3
   5141   5140   5143   5152     1  0.0000000  0.6508444  3
   5141   5140   5143   5144     1  0.0000000  0.6508444  3
   5141   5140   5143   5145     1  0.0000000  0.6508444  3
   5142   5140   5143   5152     1  0.0000000  0.6508444  3
   5142   5140   5143   5144     1  0.0000000  0.6508444  3
   5142   5140   5143   5145     1  0.0000000  0.6508444  3
   5144   5143   5152   5161     1  0.0000000  1.0460000  1
   5144   5143   5152   5161     1  0.0000000  0.0000000  3
   5144   5143   5152   5153     1  0.0000000  0.6508444  3
   5144   5143   5152   5154     1  0.0000000  0.6508444  3
   5145   5143   5152   5161     1  0.0000000  1.0460000  1
   5145   5143   5152   5161     1  0.0000000  0.0000000  3
   5145   5143   5152   5153     1  0.0000000  0.6508444  3
   5145   5143   5152   5154     1  0.0000000  0.6508444  3
   5147   5146   5158  10381     1  0.0000000  1.0460000  1
   5147   5146   5158  10381     1  0.0000000  0.0000000  3
   5147   5146   5158   5159     1  0.0000000  0.6508444  3
   5147   5146   5158   5160     1  0.0000000  0.6508444  3
   5148   5146   5158  10381     1  0.0000000  1.0460000  1
   5148   5146   5158  10381     1  0.0000000  0.0000000  3
   5148   5146   5158   5159     1  0.0000000  0.6508444  3
   5148   5146   5158   5160     1  0.0000000  0.6508444  3
   5150   5149   5155  10352     1  0.0000000  1.0460000  1
   5150   5149   5155  10352     1  0.0000000  0.0000000  3
   5150   5149   5155   5156     1  0.0000000  0.6508444  3
   5150   5149   5155   5157     1  0.0000000  0.6508444  3
   5151   5149   5155  10352     1  0.0000000  1.0460000  1
   5151   5149   5155  10352     1  0.0000000  0.0000000  3
   5151   5149   5155   5156     1  0.0000000  0.6508444  3
   5151   5149   5155   5157     1  0.0000000  0.6508444  3
   5155  10352  10343  10344     1  0.0000000  1.6038667  3
   5155  10352  10343  10345     1  0.0000000  1.6038667  3
   5156   5155  10352  10343     1  0.0000000  1.6038667  3
   5157   5155  10352  10343     1  0.0000000  1.6038667  3
   5158  10381  10372  10373     1  0.0000000  1.6038667  3
   5158  10381  10372  10374     1  0.0000000  1.6038667  3
   5159   5158  10381  10372     1  0.0000000  1.6038667  3
   5160   5158  10381  10372     1  0.0000000  1.6038667  3
   5162   5163   5175   5176     1  0.0000000  0.6508444  3
   5162   5163   5175   5177     1  0.0000000  0.6508444  3
   5162   5166   5178   5179     1  0.0000000  0.6508444  3
   5162   5166   5178   5180     1  0.0000000  0.6508444  3
   5162   5169   5172   5173     1  0.0000000  0.6508444  3
   5162   5169   5172   5174     1  0.0000000  0.6508444  3
   5163   5162   5166   5167     1  0.0000000  1.2552000  3
   5163   5162   5166   5168     1  0.0000000  1.2552000  3
   5163   5162   5169   5170     1  0.0000000  1.2552000  3
   5163   5162   5169   5171     1  0.0000000  1.2552000  3
   5163   5175   5187   5188     1  0.0000000  0.6508444  3
   5163   5175   5187   5189     1  0.0000000  0.6508444  3
   5164   5163   5162   5166     1  0.0000000  1.2552000  3
   5164   5163   5162   5169     1  0.0000000  1.2552000  3
   5164   5163   5175   5187     1  0.0000000  0.6508444  3
   5164   5163   5175   5176     1  0.0000000  0.6508444  3
   5164   5163   5175   5177     1  0.0000000  0.6508444  3
   5165   5163   5162   5166     1  0.0000000  1.2552000  3
   5165   5163   5162   5169     1  0.0000000  1.2552000  3
   5165   5163   5175   5187     1  0.0000000  0.6508444  3
   5165   5163   5175   5176     1  0.0000000  0.6508444  3
   5165   5163   5175   5177     1  0.0000000  0.6508444  3
   5166   5162   5169   5170     1  0.0000000  1.2552000  3
   5166   5162   5169   5171     1  0.0000000  1.2552000  3
   5166   5178   5184   5185     1  0.0000000  0.6508444  3
   5166   5178   5184   5186     1  0.0000000  0.6508444  3
   5167   5166   5162   5169     1  0.0000000  1.2552000  3
   5167   5166   5178   5184     1  0.0000000  0.6508444  3
   5167   5166   5178   5179     1  0.0000000  0.6508444  3
   5167   5166   5178   5180     1  0.0000000  0.6508444  3
   5168   5166   5162   5169     1  0.0000000  1.2552000  3
   5168   5166   5178   5184     1  0.0000000  0.6508444  3
   5168   5166   5178   5179     1  0.0000000  0.6508444  3
   5168   5166   5178   5180     1  0.0000000  0.6508444  3
   5169   5172   5181   5182     1  0.0000000  0.6508444  3
   5169   5172   5181   5183     1  0.0000000  0.6508444  3
   5170   5169   5172   5181     1  0.0000000  0.6508444  3
   5170   5169   5172   5173     1  0.0000000  0.6508444  3
   5170   5169   5172   5174     1  0.0000000  0.6508444  3
   5171   5169   5172   5181     1  0.0000000  0.6508444  3
   5171   5169   5172   5173     1  0.0000000  0.6508444  3
   5171   5169   5172   5174     1  0.0000000  0.6508444  3
   5173   5172   5181   5190     1  0.0000000  1.0460000  1
   5173   5172   5181   5190     1  0.0000000  0.0000000  3
   5173   5172   5181   5182     1  0.0000000  0.6508444  3
   5173   5172   5181   5183     1  0.0000000  0.6508444  3
   5174   5172   5181   5190     1  0.0000000  1.0460000  1
   5174   5172   5181   5190     1  0.0000000  0.0000000  3
   5174   5172   5181   5182     1  0.0000000  0.6508444  3
   5174   5172   5181   5183     1  0.0000000  0.6508444  3
   5176   5175   5187  10439     1  0.0000000  1.0460000  1
   5176   5175   5187  10439     1  0.0000000  0.0000000  3
   5176   5175   5187   5188     1  0.0000000  0.6508444  3
   5176   5175   5187   5189     1  0.0000000  0.6508444  3
   5177   5175   5187  10439     1  0.0000000  1.0460000  1
   5177   5175   5187  10439     1  0.0000000  0.0000000  3
   5177   5175   5187   5188     1  0.0000000  0.6508444  3
   5177   5175   5187   5189     1  0.0000000  0.6508444  3
   5179   5178   5184  10410     1  0.0000000  1.0460000  1
   5179   5178   5184  10410     1  0.0000000  0.0000000  3
   5179   5178   5184   5185     1  0.0000000  0.6508444  3
   5179   5178   5184   5186     1  0.0000000  0.6508444  3
   5180   5178   5184  10410     1  0.0000000  1.0460000  1
   5180   5178   5184  10410     1  0.0000000  0.0000000  3
   5180   5178   5184   5185     1  0.0000000  0.6508444  3
   5180   5178   5184   5186     1  0.0000000  0.6508444  3
   5184  10410  10401  10402     1  0.0000000  1.6038667  3
   5184  10410  10401  10403     1  0.0000000  1.6038667  3
   5185   5184  10410  10401     1  0.0000000  1.6038667  3
   5186   5184  10410  10401     1  0.0000000  1.6038667  3
   5187  10439  10430  10431     1  0.0000000  1.6038667  3
   5187  10439  10430  10432     1  0.0000000  1.6038667  3
   5188   5187  10439  10430     1  0.0000000  1.6038667  3
   5189   5187  10439  10430     1  0.0000000  1.6038667  3
   5191   5192   5204   5205     1  0.0000000  0.6508444  3
   5191   5192   5204   5206     1  0.0000000  0.6508444  3
   5191   5195   5207   5208     1  0.0000000  0.6508444  3
   5191   5195   5207   5209     1  0.0000000  0.6508444  3
   5191   5198   5201   5202     1  0.0000000  0.6508444  3
   5191   5198   5201   5203     1  0.0000000  0.6508444  3
   5192   5191   5195   5196     1  0.0000000  1.2552000  3
   5192   5191   5195   5197     1  0.0000000  1.2552000  3
   5192   5191   5198   5199     1  0.0000000  1.2552000  3
   5192   5191   5198   5200     1  0.0000000  1.2552000  3
   5192   5204   5216   5217     1  0.0000000  0.6508444  3
   5192   5204   5216   5218     1  0.0000000  0.6508444  3
   5193   5192   5191   5195     1  0.0000000  1.2552000  3
   5193   5192   5191   5198     1  0.0000000  1.2552000  3
   5193   5192   5204   5216     1  0.0000000  0.6508444  3
   5193   5192   5204   5205     1  0.0000000  0.6508444  3
   5193   5192   5204   5206     1  0.0000000  0.6508444  3
   5194   5192   5191   5195     1  0.0000000  1.2552000  3
   5194   5192   5191   5198     1  0.0000000  1.2552000  3
   5194   5192   5204   5216     1  0.0000000  0.6508444  3
   5194   5192   5204   5205     1  0.0000000  0.6508444  3
   5194   5192   5204   5206     1  0.0000000  0.6508444  3
   5195   5191   5198   5199     1  0.0000000  1.2552000  3
   5195   5191   5198   5200     1  0.0000000  1.2552000  3
   5195   5207   5213   5214     1  0.0000000  0.6508444  3
   5195   5207   5213   5215     1  0.0000000  0.6508444  3
   5196   5195   5191   5198     1  0.0000000  1.2552000  3
   5196   5195   5207   5213     1  0.0000000  0.6508444  3
   5196   5195   5207   5208     1  0.0000000  0.6508444  3
   5196   5195   5207   5209     1  0.0000000  0.6508444  3
   5197   5195   5191   5198     1  0.0000000  1.2552000  3
   5197   5195   5207   5213     1  0.0000000  0.6508444  3
   5197   5195   5207   5208     1  0.0000000  0.6508444  3
   5197   5195   5207   5209     1  0.0000000  0.6508444  3
   5198   5201   5210   5211     1  0.0000000  0.6508444  3
   5198   5201   5210   5212     1  0.0000000  0.6508444  3
   5199   5198   5201   5210     1  0.0000000  0.6508444  3
   5199   5198   5201   5202     1  0.0000000  0.6508444  3
   5199   5198   5201   5203     1  0.0000000  0.6508444  3
   5200   5198   5201   5210     1  0.0000000  0.6508444  3
   5200   5198   5201   5202     1  0.0000000  0.6508444  3
   5200   5198   5201   5203     1  0.0000000  0.6508444  3
   5202   5201   5210   5219     1  0.0000000  1.0460000  1
   5202   5201   5210   5219     1  0.0000000  0.0000000  3
   5202   5201   5210   5211     1  0.0000000  0.6508444  3
   5202   5201   5210   5212     1  0.0000000  0.6508444  3
   5203   5201   5210   5219     1  0.0000000  1.0460000  1
   5203   5201   5210   5219     1  0.0000000  0.0000000  3
   5203   5201   5210   5211     1  0.0000000  0.6508444  3
   5203   5201   5210   5212     1  0.0000000  0.6508444  3
   5205   5204   5216  10497     1  0.0000000  1.0460000  1
   5205   5204   5216  10497     1  0.0000000  0.0000000  3
   5205   5204   5216   5217     1  0.0000000  0.6508444  3
   5205   5204   5216   5218     1  0.0000000  0.6508444  3
   5206   5204   5216  10497     1  0.0000000  1.0460000  1
   5206   5204   5216  10497     1  0.0000000  0.0000000  3
   5206   5204   5216   5217     1  0.0000000  0.6508444  3
   5206   5204   5216   5218     1  0.0000000  0.6508444  3
   5208   5207   5213  10468     1  0.0000000  1.0460000  1
   5208   5207   5213  10468     1  0.0000000  0.0000000  3
   5208   5207   5213   5214     1  0.0000000  0.6508444  3
   5208   5207   5213   5215     1  0.0000000  0.6508444  3
   5209   5207   5213  10468     1  0.0000000  1.0460000  1
   5209   5207   5213  10468     1  0.0000000  0.0000000  3
   5209   5207   5213   5214     1  0.0000000  0.6508444  3
   5209   5207   5213   5215     1  0.0000000  0.6508444  3
   5213  10468  10459  10460     1  0.0000000  1.6038667  3
   5213  10468  10459  10461     1  0.0000000  1.6038667  3
   5214   5213  10468  10459     1  0.0000000  1.6038667  3
   5215   5213  10468  10459     1  0.0000000  1.6038667  3
   5216  10497  10488  10489     1  0.0000000  1.6038667  3
   5216  10497  10488  10490     1  0.0000000  1.6038667  3
   5217   5216  10497  10488     1  0.0000000  1.6038667  3
   5218   5216  10497  10488     1  0.0000000  1.6038667  3
   5220   5221   5233   5234     1  0.0000000  0.6508444  3
   5220   5221   5233   5235     1  0.0000000  0.6508444  3
   5220   5224   5236   5237     1  0.0000000  0.6508444  3
   5220   5224   5236   5238     1  0.0000000  0.6508444  3
   5220   5227   5230   5231     1  0.0000000  0.6508444  3
   5220   5227   5230   5232     1  0.0000000  0.6508444  3
   5221   5220   5224   5225     1  0.0000000  1.2552000  3
   5221   5220   5224   5226     1  0.0000000  1.2552000  3
   5221   5220   5227   5228     1  0.0000000  1.2552000  3
   5221   5220   5227   5229     1  0.0000000  1.2552000  3
   5221   5233   5245   5246     1  0.0000000  0.6508444  3
   5221   5233   5245   5247     1  0.0000000  0.6508444  3
   5222   5221   5220   5224     1  0.0000000  1.2552000  3
   5222   5221   5220   5227     1  0.0000000  1.2552000  3
   5222   5221   5233   5245     1  0.0000000  0.6508444  3
   5222   5221   5233   5234     1  0.0000000  0.6508444  3
   5222   5221   5233   5235     1  0.0000000  0.6508444  3
   5223   5221   5220   5224     1  0.0000000  1.2552000  3
   5223   5221   5220   5227     1  0.0000000  1.2552000  3
   5223   5221   5233   5245     1  0.0000000  0.6508444  3
   5223   5221   5233   5234     1  0.0000000  0.6508444  3
   5223   5221   5233   5235     1  0.0000000  0.6508444  3
   5224   5220   5227   5228     1  0.0000000  1.2552000  3
   5224   5220   5227   5229     1  0.0000000  1.2552000  3
   5224   5236   5242   5243     1  0.0000000  0.6508444  3
   5224   5236   5242   5244     1  0.0000000  0.6508444  3
   5225   5224   5220   5227     1  0.0000000  1.2552000  3
   5225   5224   5236   5242     1  0.0000000  0.6508444  3
   5225   5224   5236   5237     1  0.0000000  0.6508444  3
   5225   5224   5236   5238     1  0.0000000  0.6508444  3
   5226   5224   5220   5227     1  0.0000000  1.2552000  3
   5226   5224   5236   5242     1  0.0000000  0.6508444  3
   5226   5224   5236   5237     1  0.0000000  0.6508444  3
   5226   5224   5236   5238     1  0.0000000  0.6508444  3
   5227   5230   5239   5240     1  0.0000000  0.6508444  3
   5227   5230   5239   5241     1  0.0000000  0.6508444  3
   5228   5227   5230   5239     1  0.0000000  0.6508444  3
   5228   5227   5230   5231     1  0.0000000  0.6508444  3
   5228   5227   5230   5232     1  0.0000000  0.6508444  3
   5229   5227   5230   5239     1  0.0000000  0.6508444  3
   5229   5227   5230   5231     1  0.0000000  0.6508444  3
   5229   5227   5230   5232     1  0.0000000  0.6508444  3
   5231   5230   5239   5248     1  0.0000000  1.0460000  1
   5231   5230   5239   5248     1  0.0000000  0.0000000  3
   5231   5230   5239   5240     1  0.0000000  0.6508444  3
   5231   5230   5239   5241     1  0.0000000  0.6508444  3
   5232   5230   5239   5248     1  0.0000000  1.0460000  1
   5232   5230   5239   5248     1  0.0000000  0.0000000  3
   5232   5230   5239   5240     1  0.0000000  0.6508444  3
   5232   5230   5239   5241     1  0.0000000  0.6508444  3
   5234   5233   5245  10555     1  0.0000000  1.0460000  1
   5234   5233   5245  10555     1  0.0000000  0.0000000  3
   5234   5233   5245   5246     1  0.0000000  0.6508444  3
   5234   5233   5245   5247     1  0.0000000  0.6508444  3
   5235   5233   5245  10555     1  0.0000000  1.0460000  1
   5235   5233   5245  10555     1  0.0000000  0.0000000  3
   5235   5233   5245   5246     1  0.0000000  0.6508444  3
   5235   5233   5245   5247     1  0.0000000  0.6508444  3
   5237   5236   5242  10526     1  0.0000000  1.0460000  1
   5237   5236   5242  10526     1  0.0000000  0.0000000  3
   5237   5236   5242   5243     1  0.0000000  0.6508444  3
   5237   5236   5242   5244     1  0.0000000  0.6508444  3
   5238   5236   5242  10526     1  0.0000000  1.0460000  1
   5238   5236   5242  10526     1  0.0000000  0.0000000  3
   5238   5236   5242   5243     1  0.0000000  0.6508444  3
   5238   5236   5242   5244     1  0.0000000  0.6508444  3
   5242  10526  10517  10518     1  0.0000000  1.6038667  3
   5242  10526  10517  10519     1  0.0000000  1.6038667  3
   5243   5242  10526  10517     1  0.0000000  1.6038667  3
   5244   5242  10526  10517     1  0.0000000  1.6038667  3
   5245  10555  10546  10547     1  0.0000000  1.6038667  3
   5245  10555  10546  10548     1  0.0000000  1.6038667  3
   5246   5245  10555  10546     1  0.0000000  1.6038667  3
   5247   5245  10555  10546     1  0.0000000  1.6038667  3
   5249   5250   5262   5263     1  0.0000000  0.6508444  3
   5249   5250   5262   5264     1  0.0000000  0.6508444  3
   5249   5253   5265   5266     1  0.0000000  0.6508444  3
   5249   5253   5265   5267     1  0.0000000  0.6508444  3
   5249   5256   5259   5260     1  0.0000000  0.6508444  3
   5249   5256   5259   5261     1  0.0000000  0.6508444  3
   5250   5249   5253   5254     1  0.0000000  1.2552000  3
   5250   5249   5253   5255     1  0.0000000  1.2552000  3
   5250   5249   5256   5257     1  0.0000000  1.2552000  3
   5250   5249   5256   5258     1  0.0000000  1.2552000  3
   5250   5262   5274   5275     1  0.0000000  0.6508444  3
   5250   5262   5274   5276     1  0.0000000  0.6508444  3
   5251   5250   5249   5253     1  0.0000000  1.2552000  3
   5251   5250   5249   5256     1  0.0000000  1.2552000  3
   5251   5250   5262   5274     1  0.0000000  0.6508444  3
   5251   5250   5262   5263     1  0.0000000  0.6508444  3
   5251   5250   5262   5264     1  0.0000000  0.6508444  3
   5252   5250   5249   5253     1  0.0000000  1.2552000  3
   5252   5250   5249   5256     1  0.0000000  1.2552000  3
   5252   5250   5262   5274     1  0.0000000  0.6508444  3
   5252   5250   5262   5263     1  0.0000000  0.6508444  3
   5252   5250   5262   5264     1  0.0000000  0.6508444  3
   5253   5249   5256   5257     1  0.0000000  1.2552000  3
   5253   5249   5256   5258     1  0.0000000  1.2552000  3
   5253   5265   5271   5272     1  0.0000000  0.6508444  3
   5253   5265   5271   5273     1  0.0000000  0.6508444  3
   5254   5253   5249   5256     1  0.0000000  1.2552000  3
   5254   5253   5265   5271     1  0.0000000  0.6508444  3
   5254   5253   5265   5266     1  0.0000000  0.6508444  3
   5254   5253   5265   5267     1  0.0000000  0.6508444  3
   5255   5253   5249   5256     1  0.0000000  1.2552000  3
   5255   5253   5265   5271     1  0.0000000  0.6508444  3
   5255   5253   5265   5266     1  0.0000000  0.6508444  3
   5255   5253   5265   5267     1  0.0000000  0.6508444  3
   5256   5259   5268   5269     1  0.0000000  0.6508444  3
   5256   5259   5268   5270     1  0.0000000  0.6508444  3
   5257   5256   5259   5268     1  0.0000000  0.6508444  3
   5257   5256   5259   5260     1  0.0000000  0.6508444  3
   5257   5256   5259   5261     1  0.0000000  0.6508444  3
   5258   5256   5259   5268     1  0.0000000  0.6508444  3
   5258   5256   5259   5260     1  0.0000000  0.6508444  3
   5258   5256   5259   5261     1  0.0000000  0.6508444  3
   5260   5259   5268   5277     1  0.0000000  1.0460000  1
   5260   5259   5268   5277     1  0.0000000  0.0000000  3
   5260   5259   5268   5269     1  0.0000000  0.6508444  3
   5260   5259   5268   5270     1  0.0000000  0.6508444  3
   5261   5259   5268   5277     1  0.0000000  1.0460000  1
   5261   5259   5268   5277     1  0.0000000  0.0000000  3
   5261   5259   5268   5269     1  0.0000000  0.6508444  3
   5261   5259   5268   5270     1  0.0000000  0.6508444  3
   5263   5262   5274  10613     1  0.0000000  1.0460000  1
   5263   5262   5274  10613     1  0.0000000  0.0000000  3
   5263   5262   5274   5275     1  0.0000000  0.6508444  3
   5263   5262   5274   5276     1  0.0000000  0.6508444  3
   5264   5262   5274  10613     1  0.0000000  1.0460000  1
   5264   5262   5274  10613     1  0.0000000  0.0000000  3
   5264   5262   5274   5275     1  0.0000000  0.6508444  3
   5264   5262   5274   5276     1  0.0000000  0.6508444  3
   5266   5265   5271  10584     1  0.0000000  1.0460000  1
   5266   5265   5271  10584     1  0.0000000  0.0000000  3
   5266   5265   5271   5272     1  0.0000000  0.6508444  3
   5266   5265   5271   5273     1  0.0000000  0.6508444  3
   5267   5265   5271  10584     1  0.0000000  1.0460000  1
   5267   5265   5271  10584     1  0.0000000  0.0000000  3
   5267   5265   5271   5272     1  0.0000000  0.6508444  3
   5267   5265   5271   5273     1  0.0000000  0.6508444  3
   5271  10584  10575  10576     1  0.0000000  1.6038667  3
   5271  10584  10575  10577     1  0.0000000  1.6038667  3
   5272   5271  10584  10575     1  0.0000000  1.6038667  3
   5273   5271  10584  10575     1  0.0000000  1.6038667  3
   5274  10613  10604  10605     1  0.0000000  1.6038667  3
   5274  10613  10604  10606     1  0.0000000  1.6038667  3
   5275   5274  10613  10604     1  0.0000000  1.6038667  3
   5276   5274  10613  10604     1  0.0000000  1.6038667  3
   5278   5279   5291   5292     1  0.0000000  0.6508444  3
   5278   5279   5291   5293     1  0.0000000  0.6508444  3
   5278   5282   5294   5295     1  0.0000000  0.6508444  3
   5278   5282   5294   5296     1  0.0000000  0.6508444  3
   5278   5285   5288   5289     1  0.0000000  0.6508444  3
   5278   5285   5288   5290     1  0.0000000  0.6508444  3
   5279   5278   5282   5283     1  0.0000000  1.2552000  3
   5279   5278   5282   5284     1  0.0000000  1.2552000  3
   5279   5278   5285   5286     1  0.0000000  1.2552000  3
   5279   5278   5285   5287     1  0.0000000  1.2552000  3
   5279   5291   5303   5304     1  0.0000000  0.6508444  3
   5279   5291   5303   5305     1  0.0000000  0.6508444  3
   5280   5279   5278   5282     1  0.0000000  1.2552000  3
   5280   5279   5278   5285     1  0.0000000  1.2552000  3
   5280   5279   5291   5303     1  0.0000000  0.6508444  3
   5280   5279   5291   5292     1  0.0000000  0.6508444  3
   5280   5279   5291   5293     1  0.0000000  0.6508444  3
   5281   5279   5278   5282     1  0.0000000  1.2552000  3
   5281   5279   5278   5285     1  0.0000000  1.2552000  3
   5281   5279   5291   5303     1  0.0000000  0.6508444  3
   5281   5279   5291   5292     1  0.0000000  0.6508444  3
   5281   5279   5291   5293     1  0.0000000  0.6508444  3
   5282   5278   5285   5286     1  0.0000000  1.2552000  3
   5282   5278   5285   5287     1  0.0000000  1.2552000  3
   5282   5294   5300   5301     1  0.0000000  0.6508444  3
   5282   5294   5300   5302     1  0.0000000  0.6508444  3
   5283   5282   5278   5285     1  0.0000000  1.2552000  3
   5283   5282   5294   5300     1  0.0000000  0.6508444  3
   5283   5282   5294   5295     1  0.0000000  0.6508444  3
   5283   5282   5294   5296     1  0.0000000  0.6508444  3
   5284   5282   5278   5285     1  0.0000000  1.2552000  3
   5284   5282   5294   5300     1  0.0000000  0.6508444  3
   5284   5282   5294   5295     1  0.0000000  0.6508444  3
   5284   5282   5294   5296     1  0.0000000  0.6508444  3
   5285   5288   5297   5298     1  0.0000000  0.6508444  3
   5285   5288   5297   5299     1  0.0000000  0.6508444  3
   5286   5285   5288   5297     1  0.0000000  0.6508444  3
   5286   5285   5288   5289     1  0.0000000  0.6508444  3
   5286   5285   5288   5290     1  0.0000000  0.6508444  3
   5287   5285   5288   5297     1  0.0000000  0.6508444  3
   5287   5285   5288   5289     1  0.0000000  0.6508444  3
   5287   5285   5288   5290     1  0.0000000  0.6508444  3
   5289   5288   5297   5306     1  0.0000000  1.0460000  1
   5289   5288   5297   5306     1  0.0000000  0.0000000  3
   5289   5288   5297   5298     1  0.0000000  0.6508444  3
   5289   5288   5297   5299     1  0.0000000  0.6508444  3
   5290   5288   5297   5306     1  0.0000000  1.0460000  1
   5290   5288   5297   5306     1  0.0000000  0.0000000  3
   5290   5288   5297   5298     1  0.0000000  0.6508444  3
   5290   5288   5297   5299     1  0.0000000  0.6508444  3
   5292   5291   5303  10671     1  0.0000000  1.0460000  1
   5292   5291   5303  10671     1  0.0000000  0.0000000  3
   5292   5291   5303   5304     1  0.0000000  0.6508444  3
   5292   5291   5303   5305     1  0.0000000  0.6508444  3
   5293   5291   5303  10671     1  0.0000000  1.0460000  1
   5293   5291   5303  10671     1  0.0000000  0.0000000  3
   5293   5291   5303   5304     1  0.0000000  0.6508444  3
   5293   5291   5303   5305     1  0.0000000  0.6508444  3
   5295   5294   5300  10642     1  0.0000000  1.0460000  1
   5295   5294   5300  10642     1  0.0000000  0.0000000  3
   5295   5294   5300   5301     1  0.0000000  0.6508444  3
   5295   5294   5300   5302     1  0.0000000  0.6508444  3
   5296   5294   5300  10642     1  0.0000000  1.0460000  1
   5296   5294   5300  10642     1  0.0000000  0.0000000  3
   5296   5294   5300   5301     1  0.0000000  0.6508444  3
   5296   5294   5300   5302     1  0.0000000  0.6508444  3
   5300  10642  10633  10634     1  0.0000000  1.6038667  3
   5300  10642  10633  10635     1  0.0000000  1.6038667  3
   5301   5300  10642  10633     1  0.0000000  1.6038667  3
   5302   5300  10642  10633     1  0.0000000  1.6038667  3
   5303  10671  10662  10663     1  0.0000000  1.6038667  3
   5303  10671  10662  10664     1  0.0000000  1.6038667  3
   5304   5303  10671  10662     1  0.0000000  1.6038667  3
   5305   5303  10671  10662     1  0.0000000  1.6038667  3
   5307   5308   5320   5321     1  0.0000000  0.6508444  3
   5307   5308   5320   5322     1  0.0000000  0.6508444  3
   5307   5311   5323   5324     1  0.0000000  0.6508444  3
   5307   5311   5323   5325     1  0.0000000  0.6508444  3
   5307   5314   5317   5318     1  0.0000000  0.6508444  3
   5307   5314   5317   5319     1  0.0000000  0.6508444  3
   5308   5307   5311   5312     1  0.0000000  1.2552000  3
   5308   5307   5311   5313     1  0.0000000  1.2552000  3
   5308   5307   5314   5315     1  0.0000000  1.2552000  3
   5308   5307   5314   5316     1  0.0000000  1.2552000  3
   5308   5320   5332   5333     1  0.0000000  0.6508444  3
   5308   5320   5332   5334     1  0.0000000  0.6508444  3
   5309   5308   5307   5311     1  0.0000000  1.2552000  3
   5309   5308   5307   5314     1  0.0000000  1.2552000  3
   5309   5308   5320   5332     1  0.0000000  0.6508444  3
   5309   5308   5320   5321     1  0.0000000  0.6508444  3
   5309   5308   5320   5322     1  0.0000000  0.6508444  3
   5310   5308   5307   5311     1  0.0000000  1.2552000  3
   5310   5308   5307   5314     1  0.0000000  1.2552000  3
   5310   5308   5320   5332     1  0.0000000  0.6508444  3
   5310   5308   5320   5321     1  0.0000000  0.6508444  3
   5310   5308   5320   5322     1  0.0000000  0.6508444  3
   5311   5307   5314   5315     1  0.0000000  1.2552000  3
   5311   5307   5314   5316     1  0.0000000  1.2552000  3
   5311   5323   5329   5330     1  0.0000000  0.6508444  3
   5311   5323   5329   5331     1  0.0000000  0.6508444  3
   5312   5311   5307   5314     1  0.0000000  1.2552000  3
   5312   5311   5323   5329     1  0.0000000  0.6508444  3
   5312   5311   5323   5324     1  0.0000000  0.6508444  3
   5312   5311   5323   5325     1  0.0000000  0.6508444  3
   5313   5311   5307   5314     1  0.0000000  1.2552000  3
   5313   5311   5323   5329     1  0.0000000  0.6508444  3
   5313   5311   5323   5324     1  0.0000000  0.6508444  3
   5313   5311   5323   5325     1  0.0000000  0.6508444  3
   5314   5317   5326   5327     1  0.0000000  0.6508444  3
   5314   5317   5326   5328     1  0.0000000  0.6508444  3
   5315   5314   5317   5326     1  0.0000000  0.6508444  3
   5315   5314   5317   5318     1  0.0000000  0.6508444  3
   5315   5314   5317   5319     1  0.0000000  0.6508444  3
   5316   5314   5317   5326     1  0.0000000  0.6508444  3
   5316   5314   5317   5318     1  0.0000000  0.6508444  3
   5316   5314   5317   5319     1  0.0000000  0.6508444  3
   5318   5317   5326   5335     1  0.0000000  1.0460000  1
   5318   5317   5326   5335     1  0.0000000  0.0000000  3
   5318   5317   5326   5327     1  0.0000000  0.6508444  3
   5318   5317   5326   5328     1  0.0000000  0.6508444  3
   5319   5317   5326   5335     1  0.0000000  1.0460000  1
   5319   5317   5326   5335     1  0.0000000  0.0000000  3
   5319   5317   5326   5327     1  0.0000000  0.6508444  3
   5319   5317   5326   5328     1  0.0000000  0.6508444  3
   5321   5320   5332  10729     1  0.0000000  1.0460000  1
   5321   5320   5332  10729     1  0.0000000  0.0000000  3
   5321   5320   5332   5333     1  0.0000000  0.6508444  3
   5321   5320   5332   5334     1  0.0000000  0.6508444  3
   5322   5320   5332  10729     1  0.0000000  1.0460000  1
   5322   5320   5332  10729     1  0.0000000  0.0000000  3
   5322   5320   5332   5333     1  0.0000000  0.6508444  3
   5322   5320   5332   5334     1  0.0000000  0.6508444  3
   5324   5323   5329  10700     1  0.0000000  1.0460000  1
   5324   5323   5329  10700     1  0.0000000  0.0000000  3
   5324   5323   5329   5330     1  0.0000000  0.6508444  3
   5324   5323   5329   5331     1  0.0000000  0.6508444  3
   5325   5323   5329  10700     1  0.0000000  1.0460000  1
   5325   5323   5329  10700     1  0.0000000  0.0000000  3
   5325   5323   5329   5330     1  0.0000000  0.6508444  3
   5325   5323   5329   5331     1  0.0000000  0.6508444  3
   5329  10700  10691  10692     1  0.0000000  1.6038667  3
   5329  10700  10691  10693     1  0.0000000  1.6038667  3
   5330   5329  10700  10691     1  0.0000000  1.6038667  3
   5331   5329  10700  10691     1  0.0000000  1.6038667  3
   5332  10729  10720  10721     1  0.0000000  1.6038667  3
   5332  10729  10720  10722     1  0.0000000  1.6038667  3
   5333   5332  10729  10720     1  0.0000000  1.6038667  3
   5334   5332  10729  10720     1  0.0000000  1.6038667  3
   5336   5337   5349   5350     1  0.0000000  0.6508444  3
   5336   5337   5349   5351     1  0.0000000  0.6508444  3
   5336   5340   5352   5353     1  0.0000000  0.6508444  3
   5336   5340   5352   5354     1  0.0000000  0.6508444  3
   5336   5343   5346   5347     1  0.0000000  0.6508444  3
   5336   5343   5346   5348     1  0.0000000  0.6508444  3
   5337   5336   5340   5341     1  0.0000000  1.2552000  3
   5337   5336   5340   5342     1  0.0000000  1.2552000  3
   5337   5336   5343   5344     1  0.0000000  1.2552000  3
   5337   5336   5343   5345     1  0.0000000  1.2552000  3
   5337   5349   5361   5362     1  0.0000000  0.6508444  3
   5337   5349   5361   5363     1  0.0000000  0.6508444  3
   5338   5337   5336   5340     1  0.0000000  1.2552000  3
   5338   5337   5336   5343     1  0.0000000  1.2552000  3
   5338   5337   5349   5361     1  0.0000000  0.6508444  3
   5338   5337   5349   5350     1  0.0000000  0.6508444  3
   5338   5337   5349   5351     1  0.0000000  0.6508444  3
   5339   5337   5336   5340     1  0.0000000  1.2552000  3
   5339   5337   5336   5343     1  0.0000000  1.2552000  3
   5339   5337   5349   5361     1  0.0000000  0.6508444  3
   5339   5337   5349   5350     1  0.0000000  0.6508444  3
   5339   5337   5349   5351     1  0.0000000  0.6508444  3
   5340   5336   5343   5344     1  0.0000000  1.2552000  3
   5340   5336   5343   5345     1  0.0000000  1.2552000  3
   5340   5352   5358   5359     1  0.0000000  0.6508444  3
   5340   5352   5358   5360     1  0.0000000  0.6508444  3
   5341   5340   5336   5343     1  0.0000000  1.2552000  3
   5341   5340   5352   5358     1  0.0000000  0.6508444  3
   5341   5340   5352   5353     1  0.0000000  0.6508444  3
   5341   5340   5352   5354     1  0.0000000  0.6508444  3
   5342   5340   5336   5343     1  0.0000000  1.2552000  3
   5342   5340   5352   5358     1  0.0000000  0.6508444  3
   5342   5340   5352   5353     1  0.0000000  0.6508444  3
   5342   5340   5352   5354     1  0.0000000  0.6508444  3
   5343   5346   5355   5356     1  0.0000000  0.6508444  3
   5343   5346   5355   5357     1  0.0000000  0.6508444  3
   5344   5343   5346   5355     1  0.0000000  0.6508444  3
   5344   5343   5346   5347     1  0.0000000  0.6508444  3
   5344   5343   5346   5348     1  0.0000000  0.6508444  3
   5345   5343   5346   5355     1  0.0000000  0.6508444  3
   5345   5343   5346   5347     1  0.0000000  0.6508444  3
   5345   5343   5346   5348     1  0.0000000  0.6508444  3
   5347   5346   5355   5364     1  0.0000000  1.0460000  1
   5347   5346   5355   5364     1  0.0000000  0.0000000  3
   5347   5346   5355   5356     1  0.0000000  0.6508444  3
   5347   5346   5355   5357     1  0.0000000  0.6508444  3
   5348   5346   5355   5364     1  0.0000000  1.0460000  1
   5348   5346   5355   5364     1  0.0000000  0.0000000  3
   5348   5346   5355   5356     1  0.0000000  0.6508444  3
   5348   5346   5355   5357     1  0.0000000  0.6508444  3
   5350   5349   5361  10787     1  0.0000000  1.0460000  1
   5350   5349   5361  10787     1  0.0000000  0.0000000  3
   5350   5349   5361   5362     1  0.0000000  0.6508444  3
   5350   5349   5361   5363     1  0.0000000  0.6508444  3
   5351   5349   5361  10787     1  0.0000000  1.0460000  1
   5351   5349   5361  10787     1  0.0000000  0.0000000  3
   5351   5349   5361   5362     1  0.0000000  0.6508444  3
   5351   5349   5361   5363     1  0.0000000  0.6508444  3
   5353   5352   5358  10758     1  0.0000000  1.0460000  1
   5353   5352   5358  10758     1  0.0000000  0.0000000  3
   5353   5352   5358   5359     1  0.0000000  0.6508444  3
   5353   5352   5358   5360     1  0.0000000  0.6508444  3
   5354   5352   5358  10758     1  0.0000000  1.0460000  1
   5354   5352   5358  10758     1  0.0000000  0.0000000  3
   5354   5352   5358   5359     1  0.0000000  0.6508444  3
   5354   5352   5358   5360     1  0.0000000  0.6508444  3
   5358  10758  10749  10750     1  0.0000000  1.6038667  3
   5358  10758  10749  10751     1  0.0000000  1.6038667  3
   5359   5358  10758  10749     1  0.0000000  1.6038667  3
   5360   5358  10758  10749     1  0.0000000  1.6038667  3
   5361  10787  10778  10779     1  0.0000000  1.6038667  3
   5361  10787  10778  10780     1  0.0000000  1.6038667  3
   5362   5361  10787  10778     1  0.0000000  1.6038667  3
   5363   5361  10787  10778     1  0.0000000  1.6038667  3
   5365   5366   5378   5379     1  0.0000000  0.6508444  3
   5365   5366   5378   5380     1  0.0000000  0.6508444  3
   5365   5369   5381   5382     1  0.0000000  0.6508444  3
   5365   5369   5381   5383     1  0.0000000  0.6508444  3
   5365   5372   5375   5376     1  0.0000000  0.6508444  3
   5365   5372   5375   5377     1  0.0000000  0.6508444  3
   5366   5365   5369   5370     1  0.0000000  1.2552000  3
   5366   5365   5369   5371     1  0.0000000  1.2552000  3
   5366   5365   5372   5373     1  0.0000000  1.2552000  3
   5366   5365   5372   5374     1  0.0000000  1.2552000  3
   5366   5378   5390   5391     1  0.0000000  0.6508444  3
   5366   5378   5390   5392     1  0.0000000  0.6508444  3
   5367   5366   5365   5369     1  0.0000000  1.2552000  3
   5367   5366   5365   5372     1  0.0000000  1.2552000  3
   5367   5366   5378   5390     1  0.0000000  0.6508444  3
   5367   5366   5378   5379     1  0.0000000  0.6508444  3
   5367   5366   5378   5380     1  0.0000000  0.6508444  3
   5368   5366   5365   5369     1  0.0000000  1.2552000  3
   5368   5366   5365   5372     1  0.0000000  1.2552000  3
   5368   5366   5378   5390     1  0.0000000  0.6508444  3
   5368   5366   5378   5379     1  0.0000000  0.6508444  3
   5368   5366   5378   5380     1  0.0000000  0.6508444  3
   5369   5365   5372   5373     1  0.0000000  1.2552000  3
   5369   5365   5372   5374     1  0.0000000  1.2552000  3
   5369   5381   5387   5388     1  0.0000000  0.6508444  3
   5369   5381   5387   5389     1  0.0000000  0.6508444  3
   5370   5369   5365   5372     1  0.0000000  1.2552000  3
   5370   5369   5381   5387     1  0.0000000  0.6508444  3
   5370   5369   5381   5382     1  0.0000000  0.6508444  3
   5370   5369   5381   5383     1  0.0000000  0.6508444  3
   5371   5369   5365   5372     1  0.0000000  1.2552000  3
   5371   5369   5381   5387     1  0.0000000  0.6508444  3
   5371   5369   5381   5382     1  0.0000000  0.6508444  3
   5371   5369   5381   5383     1  0.0000000  0.6508444  3
   5372   5375   5384   5385     1  0.0000000  0.6508444  3
   5372   5375   5384   5386     1  0.0000000  0.6508444  3
   5373   5372   5375   5384     1  0.0000000  0.6508444  3
   5373   5372   5375   5376     1  0.0000000  0.6508444  3
   5373   5372   5375   5377     1  0.0000000  0.6508444  3
   5374   5372   5375   5384     1  0.0000000  0.6508444  3
   5374   5372   5375   5376     1  0.0000000  0.6508444  3
   5374   5372   5375   5377     1  0.0000000  0.6508444  3
   5376   5375   5384   5393     1  0.0000000  1.0460000  1
   5376   5375   5384   5393     1  0.0000000  0.0000000  3
   5376   5375   5384   5385     1  0.0000000  0.6508444  3
   5376   5375   5384   5386     1  0.0000000  0.6508444  3
   5377   5375   5384   5393     1  0.0000000  1.0460000  1
   5377   5375   5384   5393     1  0.0000000  0.0000000  3
   5377   5375   5384   5385     1  0.0000000  0.6508444  3
   5377   5375   5384   5386     1  0.0000000  0.6508444  3
   5379   5378   5390  10845     1  0.0000000  1.0460000  1
   5379   5378   5390  10845     1  0.0000000  0.0000000  3
   5379   5378   5390   5391     1  0.0000000  0.6508444  3
   5379   5378   5390   5392     1  0.0000000  0.6508444  3
   5380   5378   5390  10845     1  0.0000000  1.0460000  1
   5380   5378   5390  10845     1  0.0000000  0.0000000  3
   5380   5378   5390   5391     1  0.0000000  0.6508444  3
   5380   5378   5390   5392     1  0.0000000  0.6508444  3
   5382   5381   5387  10816     1  0.0000000  1.0460000  1
   5382   5381   5387  10816     1  0.0000000  0.0000000  3
   5382   5381   5387   5388     1  0.0000000  0.6508444  3
   5382   5381   5387   5389     1  0.0000000  0.6508444  3
   5383   5381   5387  10816     1  0.0000000  1.0460000  1
   5383   5381   5387  10816     1  0.0000000  0.0000000  3
   5383   5381   5387   5388     1  0.0000000  0.6508444  3
   5383   5381   5387   5389     1  0.0000000  0.6508444  3
   5387  10816  10807  10808     1  0.0000000  1.6038667  3
   5387  10816  10807  10809     1  0.0000000  1.6038667  3
   5388   5387  10816  10807     1  0.0000000  1.6038667  3
   5389   5387  10816  10807     1  0.0000000  1.6038667  3
   5390  10845  10836  10837     1  0.0000000  1.6038667  3
   5390  10845  10836  10838     1  0.0000000  1.6038667  3
   5391   5390  10845  10836     1  0.0000000  1.6038667  3
   5392   5390  10845  10836     1  0.0000000  1.6038667  3
   5394   5395   5407   5408     1  0.0000000  0.6508444  3
   5394   5395   5407   5409     1  0.0000000  0.6508444  3
   5394   5398   5410   5411     1  0.0000000  0.6508444  3
   5394   5398   5410   5412     1  0.0000000  0.6508444  3
   5394   5401   5404   5405     1  0.0000000  0.6508444  3
   5394   5401   5404   5406     1  0.0000000  0.6508444  3
   5395   5394   5398   5399     1  0.0000000  1.2552000  3
   5395   5394   5398   5400     1  0.0000000  1.2552000  3
   5395   5394   5401   5402     1  0.0000000  1.2552000  3
   5395   5394   5401   5403     1  0.0000000  1.2552000  3
   5395   5407   5419   5420     1  0.0000000  0.6508444  3
   5395   5407   5419   5421     1  0.0000000  0.6508444  3
   5396   5395   5394   5398     1  0.0000000  1.2552000  3
   5396   5395   5394   5401     1  0.0000000  1.2552000  3
   5396   5395   5407   5419     1  0.0000000  0.6508444  3
   5396   5395   5407   5408     1  0.0000000  0.6508444  3
   5396   5395   5407   5409     1  0.0000000  0.6508444  3
   5397   5395   5394   5398     1  0.0000000  1.2552000  3
   5397   5395   5394   5401     1  0.0000000  1.2552000  3
   5397   5395   5407   5419     1  0.0000000  0.6508444  3
   5397   5395   5407   5408     1  0.0000000  0.6508444  3
   5397   5395   5407   5409     1  0.0000000  0.6508444  3
   5398   5394   5401   5402     1  0.0000000  1.2552000  3
   5398   5394   5401   5403     1  0.0000000  1.2552000  3
   5398   5410   5416   5417     1  0.0000000  0.6508444  3
   5398   5410   5416   5418     1  0.0000000  0.6508444  3
   5399   5398   5394   5401     1  0.0000000  1.2552000  3
   5399   5398   5410   5416     1  0.0000000  0.6508444  3
   5399   5398   5410   5411     1  0.0000000  0.6508444  3
   5399   5398   5410   5412     1  0.0000000  0.6508444  3
   5400   5398   5394   5401     1  0.0000000  1.2552000  3
   5400   5398   5410   5416     1  0.0000000  0.6508444  3
   5400   5398   5410   5411     1  0.0000000  0.6508444  3
   5400   5398   5410   5412     1  0.0000000  0.6508444  3
   5401   5404   5413   5414     1  0.0000000  0.6508444  3
   5401   5404   5413   5415     1  0.0000000  0.6508444  3
   5402   5401   5404   5413     1  0.0000000  0.6508444  3
   5402   5401   5404   5405     1  0.0000000  0.6508444  3
   5402   5401   5404   5406     1  0.0000000  0.6508444  3
   5403   5401   5404   5413     1  0.0000000  0.6508444  3
   5403   5401   5404   5405     1  0.0000000  0.6508444  3
   5403   5401   5404   5406     1  0.0000000  0.6508444  3
   5405   5404   5413   5422     1  0.0000000  1.0460000  1
   5405   5404   5413   5422     1  0.0000000  0.0000000  3
   5405   5404   5413   5414     1  0.0000000  0.6508444  3
   5405   5404   5413   5415     1  0.0000000  0.6508444  3
   5406   5404   5413   5422     1  0.0000000  1.0460000  1
   5406   5404   5413   5422     1  0.0000000  0.0000000  3
   5406   5404   5413   5414     1  0.0000000  0.6508444  3
   5406   5404   5413   5415     1  0.0000000  0.6508444  3
   5408   5407   5419  10903     1  0.0000000  1.0460000  1
   5408   5407   5419  10903     1  0.0000000  0.0000000  3
   5408   5407   5419   5420     1  0.0000000  0.6508444  3
   5408   5407   5419   5421     1  0.0000000  0.6508444  3
   5409   5407   5419  10903     1  0.0000000  1.0460000  1
   5409   5407   5419  10903     1  0.0000000  0.0000000  3
   5409   5407   5419   5420     1  0.0000000  0.6508444  3
   5409   5407   5419   5421     1  0.0000000  0.6508444  3
   5411   5410   5416  10874     1  0.0000000  1.0460000  1
   5411   5410   5416  10874     1  0.0000000  0.0000000  3
   5411   5410   5416   5417     1  0.0000000  0.6508444  3
   5411   5410   5416   5418     1  0.0000000  0.6508444  3
   5412   5410   5416  10874     1  0.0000000  1.0460000  1
   5412   5410   5416  10874     1  0.0000000  0.0000000  3
   5412   5410   5416   5417     1  0.0000000  0.6508444  3
   5412   5410   5416   5418     1  0.0000000  0.6508444  3
   5416  10874  10865  10866     1  0.0000000  1.6038667  3
   5416  10874  10865  10867     1  0.0000000  1.6038667  3
   5417   5416  10874  10865     1  0.0000000  1.6038667  3
   5418   5416  10874  10865     1  0.0000000  1.6038667  3
   5419  10903  10894  10895     1  0.0000000  1.6038667  3
   5419  10903  10894  10896     1  0.0000000  1.6038667  3
   5420   5419  10903  10894     1  0.0000000  1.6038667  3
   5421   5419  10903  10894     1  0.0000000  1.6038667  3
   5423   5424   5436   5437     1  0.0000000  0.6508444  3
   5423   5424   5436   5438     1  0.0000000  0.6508444  3
   5423   5427   5439   5440     1  0.0000000  0.6508444  3
   5423   5427   5439   5441     1  0.0000000  0.6508444  3
   5423   5430   5433   5434     1  0.0000000  0.6508444  3
   5423   5430   5433   5435     1  0.0000000  0.6508444  3
   5424   5423   5427   5428     1  0.0000000  1.2552000  3
   5424   5423   5427   5429     1  0.0000000  1.2552000  3
   5424   5423   5430   5431     1  0.0000000  1.2552000  3
   5424   5423   5430   5432     1  0.0000000  1.2552000  3
   5424   5436   5448   5449     1  0.0000000  0.6508444  3
   5424   5436   5448   5450     1  0.0000000  0.6508444  3
   5425   5424   5423   5427     1  0.0000000  1.2552000  3
   5425   5424   5423   5430     1  0.0000000  1.2552000  3
   5425   5424   5436   5448     1  0.0000000  0.6508444  3
   5425   5424   5436   5437     1  0.0000000  0.6508444  3
   5425   5424   5436   5438     1  0.0000000  0.6508444  3
   5426   5424   5423   5427     1  0.0000000  1.2552000  3
   5426   5424   5423   5430     1  0.0000000  1.2552000  3
   5426   5424   5436   5448     1  0.0000000  0.6508444  3
   5426   5424   5436   5437     1  0.0000000  0.6508444  3
   5426   5424   5436   5438     1  0.0000000  0.6508444  3
   5427   5423   5430   5431     1  0.0000000  1.2552000  3
   5427   5423   5430   5432     1  0.0000000  1.2552000  3
   5427   5439   5445   5446     1  0.0000000  0.6508444  3
   5427   5439   5445   5447     1  0.0000000  0.6508444  3
   5428   5427   5423   5430     1  0.0000000  1.2552000  3
   5428   5427   5439   5445     1  0.0000000  0.6508444  3
   5428   5427   5439   5440     1  0.0000000  0.6508444  3
   5428   5427   5439   5441     1  0.0000000  0.6508444  3
   5429   5427   5423   5430     1  0.0000000  1.2552000  3
   5429   5427   5439   5445     1  0.0000000  0.6508444  3
   5429   5427   5439   5440     1  0.0000000  0.6508444  3
   5429   5427   5439   5441     1  0.0000000  0.6508444  3
   5430   5433   5442   5443     1  0.0000000  0.6508444  3
   5430   5433   5442   5444     1  0.0000000  0.6508444  3
   5431   5430   5433   5442     1  0.0000000  0.6508444  3
   5431   5430   5433   5434     1  0.0000000  0.6508444  3
   5431   5430   5433   5435     1  0.0000000  0.6508444  3
   5432   5430   5433   5442     1  0.0000000  0.6508444  3
   5432   5430   5433   5434     1  0.0000000  0.6508444  3
   5432   5430   5433   5435     1  0.0000000  0.6508444  3
   5434   5433   5442   5451     1  0.0000000  1.0460000  1
   5434   5433   5442   5451     1  0.0000000  0.0000000  3
   5434   5433   5442   5443     1  0.0000000  0.6508444  3
   5434   5433   5442   5444     1  0.0000000  0.6508444  3
   5435   5433   5442   5451     1  0.0000000  1.0460000  1
   5435   5433   5442   5451     1  0.0000000  0.0000000  3
   5435   5433   5442   5443     1  0.0000000  0.6508444  3
   5435   5433   5442   5444     1  0.0000000  0.6508444  3
   5437   5436   5448  10961     1  0.0000000  1.0460000  1
   5437   5436   5448  10961     1  0.0000000  0.0000000  3
   5437   5436   5448   5449     1  0.0000000  0.6508444  3
   5437   5436   5448   5450     1  0.0000000  0.6508444  3
   5438   5436   5448  10961     1  0.0000000  1.0460000  1
   5438   5436   5448  10961     1  0.0000000  0.0000000  3
   5438   5436   5448   5449     1  0.0000000  0.6508444  3
   5438   5436   5448   5450     1  0.0000000  0.6508444  3
   5440   5439   5445  10932     1  0.0000000  1.0460000  1
   5440   5439   5445  10932     1  0.0000000  0.0000000  3
   5440   5439   5445   5446     1  0.0000000  0.6508444  3
   5440   5439   5445   5447     1  0.0000000  0.6508444  3
   5441   5439   5445  10932     1  0.0000000  1.0460000  1
   5441   5439   5445  10932     1  0.0000000  0.0000000  3
   5441   5439   5445   5446     1  0.0000000  0.6508444  3
   5441   5439   5445   5447     1  0.0000000  0.6508444  3
   5445  10932  10923  10924     1  0.0000000  1.6038667  3
   5445  10932  10923  10925     1  0.0000000  1.6038667  3
   5446   5445  10932  10923     1  0.0000000  1.6038667  3
   5447   5445  10932  10923     1  0.0000000  1.6038667  3
   5448  10961  10952  10953     1  0.0000000  1.6038667  3
   5448  10961  10952  10954     1  0.0000000  1.6038667  3
   5449   5448  10961  10952     1  0.0000000  1.6038667  3
   5450   5448  10961  10952     1  0.0000000  1.6038667  3
   5452   5453   5465   5466     1  0.0000000  0.6508444  3
   5452   5453   5465   5467     1  0.0000000  0.6508444  3
   5452   5456   5468   5469     1  0.0000000  0.6508444  3
   5452   5456   5468   5470     1  0.0000000  0.6508444  3
   5452   5459   5462   5463     1  0.0000000  0.6508444  3
   5452   5459   5462   5464     1  0.0000000  0.6508444  3
   5453   5452   5456   5457     1  0.0000000  1.2552000  3
   5453   5452   5456   5458     1  0.0000000  1.2552000  3
   5453   5452   5459   5460     1  0.0000000  1.2552000  3
   5453   5452   5459   5461     1  0.0000000  1.2552000  3
   5453   5465   5477   5478     1  0.0000000  0.6508444  3
   5453   5465   5477   5479     1  0.0000000  0.6508444  3
   5454   5453   5452   5456     1  0.0000000  1.2552000  3
   5454   5453   5452   5459     1  0.0000000  1.2552000  3
   5454   5453   5465   5477     1  0.0000000  0.6508444  3
   5454   5453   5465   5466     1  0.0000000  0.6508444  3
   5454   5453   5465   5467     1  0.0000000  0.6508444  3
   5455   5453   5452   5456     1  0.0000000  1.2552000  3
   5455   5453   5452   5459     1  0.0000000  1.2552000  3
   5455   5453   5465   5477     1  0.0000000  0.6508444  3
   5455   5453   5465   5466     1  0.0000000  0.6508444  3
   5455   5453   5465   5467     1  0.0000000  0.6508444  3
   5456   5452   5459   5460     1  0.0000000  1.2552000  3
   5456   5452   5459   5461     1  0.0000000  1.2552000  3
   5456   5468   5474   5475     1  0.0000000  0.6508444  3
   5456   5468   5474   5476     1  0.0000000  0.6508444  3
   5457   5456   5452   5459     1  0.0000000  1.2552000  3
   5457   5456   5468   5474     1  0.0000000  0.6508444  3
   5457   5456   5468   5469     1  0.0000000  0.6508444  3
   5457   5456   5468   5470     1  0.0000000  0.6508444  3
   5458   5456   5452   5459     1  0.0000000  1.2552000  3
   5458   5456   5468   5474     1  0.0000000  0.6508444  3
   5458   5456   5468   5469     1  0.0000000  0.6508444  3
   5458   5456   5468   5470     1  0.0000000  0.6508444  3
   5459   5462   5471   5472     1  0.0000000  0.6508444  3
   5459   5462   5471   5473     1  0.0000000  0.6508444  3
   5460   5459   5462   5471     1  0.0000000  0.6508444  3
   5460   5459   5462   5463     1  0.0000000  0.6508444  3
   5460   5459   5462   5464     1  0.0000000  0.6508444  3
   5461   5459   5462   5471     1  0.0000000  0.6508444  3
   5461   5459   5462   5463     1  0.0000000  0.6508444  3
   5461   5459   5462   5464     1  0.0000000  0.6508444  3
   5463   5462   5471   5480     1  0.0000000  1.0460000  1
   5463   5462   5471   5480     1  0.0000000  0.0000000  3
   5463   5462   5471   5472     1  0.0000000  0.6508444  3
   5463   5462   5471   5473     1  0.0000000  0.6508444  3
   5464   5462   5471   5480     1  0.0000000  1.0460000  1
   5464   5462   5471   5480     1  0.0000000  0.0000000  3
   5464   5462   5471   5472     1  0.0000000  0.6508444  3
   5464   5462   5471   5473     1  0.0000000  0.6508444  3
   5466   5465   5477  11019     1  0.0000000  1.0460000  1
   5466   5465   5477  11019     1  0.0000000  0.0000000  3
   5466   5465   5477   5478     1  0.0000000  0.6508444  3
   5466   5465   5477   5479     1  0.0000000  0.6508444  3
   5467   5465   5477  11019     1  0.0000000  1.0460000  1
   5467   5465   5477  11019     1  0.0000000  0.0000000  3
   5467   5465   5477   5478     1  0.0000000  0.6508444  3
   5467   5465   5477   5479     1  0.0000000  0.6508444  3
   5469   5468   5474  10990     1  0.0000000  1.0460000  1
   5469   5468   5474  10990     1  0.0000000  0.0000000  3
   5469   5468   5474   5475     1  0.0000000  0.6508444  3
   5469   5468   5474   5476     1  0.0000000  0.6508444  3
   5470   5468   5474  10990     1  0.0000000  1.0460000  1
   5470   5468   5474  10990     1  0.0000000  0.0000000  3
   5470   5468   5474   5475     1  0.0000000  0.6508444  3
   5470   5468   5474   5476     1  0.0000000  0.6508444  3
   5474  10990  10981  10982     1  0.0000000  1.6038667  3
   5474  10990  10981  10983     1  0.0000000  1.6038667  3
   5475   5474  10990  10981     1  0.0000000  1.6038667  3
   5476   5474  10990  10981     1  0.0000000  1.6038667  3
   5477  11019  11010  11011     1  0.0000000  1.6038667  3
   5477  11019  11010  11012     1  0.0000000  1.6038667  3
   5478   5477  11019  11010     1  0.0000000  1.6038667  3
   5479   5477  11019  11010     1  0.0000000  1.6038667  3
   5481   5482   5494   5495     1  0.0000000  0.6508444  3
   5481   5482   5494   5496     1  0.0000000  0.6508444  3
   5481   5485   5497   5498     1  0.0000000  0.6508444  3
   5481   5485   5497   5499     1  0.0000000  0.6508444  3
   5481   5488   5491   5492     1  0.0000000  0.6508444  3
   5481   5488   5491   5493     1  0.0000000  0.6508444  3
   5482   5481   5485   5486     1  0.0000000  1.2552000  3
   5482   5481   5485   5487     1  0.0000000  1.2552000  3
   5482   5481   5488   5489     1  0.0000000  1.2552000  3
   5482   5481   5488   5490     1  0.0000000  1.2552000  3
   5482   5494   5506   5507     1  0.0000000  0.6508444  3
   5482   5494   5506   5508     1  0.0000000  0.6508444  3
   5483   5482   5481   5485     1  0.0000000  1.2552000  3
   5483   5482   5481   5488     1  0.0000000  1.2552000  3
   5483   5482   5494   5506     1  0.0000000  0.6508444  3
   5483   5482   5494   5495     1  0.0000000  0.6508444  3
   5483   5482   5494   5496     1  0.0000000  0.6508444  3
   5484   5482   5481   5485     1  0.0000000  1.2552000  3
   5484   5482   5481   5488     1  0.0000000  1.2552000  3
   5484   5482   5494   5506     1  0.0000000  0.6508444  3
   5484   5482   5494   5495     1  0.0000000  0.6508444  3
   5484   5482   5494   5496     1  0.0000000  0.6508444  3
   5485   5481   5488   5489     1  0.0000000  1.2552000  3
   5485   5481   5488   5490     1  0.0000000  1.2552000  3
   5485   5497   5503   5504     1  0.0000000  0.6508444  3
   5485   5497   5503   5505     1  0.0000000  0.6508444  3
   5486   5485   5481   5488     1  0.0000000  1.2552000  3
   5486   5485   5497   5503     1  0.0000000  0.6508444  3
   5486   5485   5497   5498     1  0.0000000  0.6508444  3
   5486   5485   5497   5499     1  0.0000000  0.6508444  3
   5487   5485   5481   5488     1  0.0000000  1.2552000  3
   5487   5485   5497   5503     1  0.0000000  0.6508444  3
   5487   5485   5497   5498     1  0.0000000  0.6508444  3
   5487   5485   5497   5499     1  0.0000000  0.6508444  3
   5488   5491   5500   5501     1  0.0000000  0.6508444  3
   5488   5491   5500   5502     1  0.0000000  0.6508444  3
   5489   5488   5491   5500     1  0.0000000  0.6508444  3
   5489   5488   5491   5492     1  0.0000000  0.6508444  3
   5489   5488   5491   5493     1  0.0000000  0.6508444  3
   5490   5488   5491   5500     1  0.0000000  0.6508444  3
   5490   5488   5491   5492     1  0.0000000  0.6508444  3
   5490   5488   5491   5493     1  0.0000000  0.6508444  3
   5492   5491   5500   5509     1  0.0000000  1.0460000  1
   5492   5491   5500   5509     1  0.0000000  0.0000000  3
   5492   5491   5500   5501     1  0.0000000  0.6508444  3
   5492   5491   5500   5502     1  0.0000000  0.6508444  3
   5493   5491   5500   5509     1  0.0000000  1.0460000  1
   5493   5491   5500   5509     1  0.0000000  0.0000000  3
   5493   5491   5500   5501     1  0.0000000  0.6508444  3
   5493   5491   5500   5502     1  0.0000000  0.6508444  3
   5495   5494   5506  11077     1  0.0000000  1.0460000  1
   5495   5494   5506  11077     1  0.0000000  0.0000000  3
   5495   5494   5506   5507     1  0.0000000  0.6508444  3
   5495   5494   5506   5508     1  0.0000000  0.6508444  3
   5496   5494   5506  11077     1  0.0000000  1.0460000  1
   5496   5494   5506  11077     1  0.0000000  0.0000000  3
   5496   5494   5506   5507     1  0.0000000  0.6508444  3
   5496   5494   5506   5508     1  0.0000000  0.6508444  3
   5498   5497   5503  11048     1  0.0000000  1.0460000  1
   5498   5497   5503  11048     1  0.0000000  0.0000000  3
   5498   5497   5503   5504     1  0.0000000  0.6508444  3
   5498   5497   5503   5505     1  0.0000000  0.6508444  3
   5499   5497   5503  11048     1  0.0000000  1.0460000  1
   5499   5497   5503  11048     1  0.0000000  0.0000000  3
   5499   5497   5503   5504     1  0.0000000  0.6508444  3
   5499   5497   5503   5505     1  0.0000000  0.6508444  3
   5503  11048  11039  11040     1  0.0000000  1.6038667  3
   5503  11048  11039  11041     1  0.0000000  1.6038667  3
   5504   5503  11048  11039     1  0.0000000  1.6038667  3
   5505   5503  11048  11039     1  0.0000000  1.6038667  3
   5506  11077  11068  11069     1  0.0000000  1.6038667  3
   5506  11077  11068  11070     1  0.0000000  1.6038667  3
   5507   5506  11077  11068     1  0.0000000  1.6038667  3
   5508   5506  11077  11068     1  0.0000000  1.6038667  3
   5510   5511   5523   5524     1  0.0000000  0.6508444  3
   5510   5511   5523   5525     1  0.0000000  0.6508444  3
   5510   5514   5526   5527     1  0.0000000  0.6508444  3
   5510   5514   5526   5528     1  0.0000000  0.6508444  3
   5510   5517   5520   5521     1  0.0000000  0.6508444  3
   5510   5517   5520   5522     1  0.0000000  0.6508444  3
   5511   5510   5514   5515     1  0.0000000  1.2552000  3
   5511   5510   5514   5516     1  0.0000000  1.2552000  3
   5511   5510   5517   5518     1  0.0000000  1.2552000  3
   5511   5510   5517   5519     1  0.0000000  1.2552000  3
   5511   5523   5535   5536     1  0.0000000  0.6508444  3
   5511   5523   5535   5537     1  0.0000000  0.6508444  3
   5512   5511   5510   5514     1  0.0000000  1.2552000  3
   5512   5511   5510   5517     1  0.0000000  1.2552000  3
   5512   5511   5523   5535     1  0.0000000  0.6508444  3
   5512   5511   5523   5524     1  0.0000000  0.6508444  3
   5512   5511   5523   5525     1  0.0000000  0.6508444  3
   5513   5511   5510   5514     1  0.0000000  1.2552000  3
   5513   5511   5510   5517     1  0.0000000  1.2552000  3
   5513   5511   5523   5535     1  0.0000000  0.6508444  3
   5513   5511   5523   5524     1  0.0000000  0.6508444  3
   5513   5511   5523   5525     1  0.0000000  0.6508444  3
   5514   5510   5517   5518     1  0.0000000  1.2552000  3
   5514   5510   5517   5519     1  0.0000000  1.2552000  3
   5514   5526   5532   5533     1  0.0000000  0.6508444  3
   5514   5526   5532   5534     1  0.0000000  0.6508444  3
   5515   5514   5510   5517     1  0.0000000  1.2552000  3
   5515   5514   5526   5532     1  0.0000000  0.6508444  3
   5515   5514   5526   5527     1  0.0000000  0.6508444  3
   5515   5514   5526   5528     1  0.0000000  0.6508444  3
   5516   5514   5510   5517     1  0.0000000  1.2552000  3
   5516   5514   5526   5532     1  0.0000000  0.6508444  3
   5516   5514   5526   5527     1  0.0000000  0.6508444  3
   5516   5514   5526   5528     1  0.0000000  0.6508444  3
   5517   5520   5529   5530     1  0.0000000  0.6508444  3
   5517   5520   5529   5531     1  0.0000000  0.6508444  3
   5518   5517   5520   5529     1  0.0000000  0.6508444  3
   5518   5517   5520   5521     1  0.0000000  0.6508444  3
   5518   5517   5520   5522     1  0.0000000  0.6508444  3
   5519   5517   5520   5529     1  0.0000000  0.6508444  3
   5519   5517   5520   5521     1  0.0000000  0.6508444  3
   5519   5517   5520   5522     1  0.0000000  0.6508444  3
   5521   5520   5529   5538     1  0.0000000  1.0460000  1
   5521   5520   5529   5538     1  0.0000000  0.0000000  3
   5521   5520   5529   5530     1  0.0000000  0.6508444  3
   5521   5520   5529   5531     1  0.0000000  0.6508444  3
   5522   5520   5529   5538     1  0.0000000  1.0460000  1
   5522   5520   5529   5538     1  0.0000000  0.0000000  3
   5522   5520   5529   5530     1  0.0000000  0.6508444  3
   5522   5520   5529   5531     1  0.0000000  0.6508444  3
   5524   5523   5535  11111     1  0.0000000  1.0460000  1
   5524   5523   5535  11111     1  0.0000000  0.0000000  3
   5524   5523   5535   5536     1  0.0000000  0.6508444  3
   5524   5523   5535   5537     1  0.0000000  0.6508444  3
   5525   5523   5535  11111     1  0.0000000  1.0460000  1
   5525   5523   5535  11111     1  0.0000000  0.0000000  3
   5525   5523   5535   5536     1  0.0000000  0.6508444  3
   5525   5523   5535   5537     1  0.0000000  0.6508444  3
   5527   5526   5532  11088     1  0.0000000  1.0460000  1
   5527   5526   5532  11088     1  0.0000000  0.0000000  3
   5527   5526   5532   5533     1  0.0000000  0.6508444  3
   5527   5526   5532   5534     1  0.0000000  0.6508444  3
   5528   5526   5532  11088     1  0.0000000  1.0460000  1
   5528   5526   5532  11088     1  0.0000000  0.0000000  3
   5528   5526   5532   5533     1  0.0000000  0.6508444  3
   5528   5526   5532   5534     1  0.0000000  0.6508444  3
   5532  11088  11084  11087     1  0.0000000  1.6038667  3
   5533   5532  11088  11084     1  0.0000000  1.6038667  3
   5534   5532  11088  11084     1  0.0000000  1.6038667  3
   5535  11111  11107  11110     1  0.0000000  1.6038667  3
   5536   5535  11111  11107     1  0.0000000  1.6038667  3
   5537   5535  11111  11107     1  0.0000000  1.6038667  3
   5539   5540   5552   5553     1  0.0000000  0.6508444  3
   5539   5540   5552   5554     1  0.0000000  0.6508444  3
   5539   5543   5555   5556     1  0.0000000  0.6508444  3
   5539   5543   5555   5557     1  0.0000000  0.6508444  3
   5539   5546   5549   5550     1  0.0000000  0.6508444  3
   5539   5546   5549   5551     1  0.0000000  0.6508444  3
   5540   5539   5543   5544     1  0.0000000  1.2552000  3
   5540   5539   5543   5545     1  0.0000000  1.2552000  3
   5540   5539   5546   5547     1  0.0000000  1.2552000  3
   5540   5539   5546   5548     1  0.0000000  1.2552000  3
   5540   5552   5564   5565     1  0.0000000  0.6508444  3
   5540   5552   5564   5566     1  0.0000000  0.6508444  3
   5541   5540   5539   5543     1  0.0000000  1.2552000  3
   5541   5540   5539   5546     1  0.0000000  1.2552000  3
   5541   5540   5552   5564     1  0.0000000  0.6508444  3
   5541   5540   5552   5553     1  0.0000000  0.6508444  3
   5541   5540   5552   5554     1  0.0000000  0.6508444  3
   5542   5540   5539   5543     1  0.0000000  1.2552000  3
   5542   5540   5539   5546     1  0.0000000  1.2552000  3
   5542   5540   5552   5564     1  0.0000000  0.6508444  3
   5542   5540   5552   5553     1  0.0000000  0.6508444  3
   5542   5540   5552   5554     1  0.0000000  0.6508444  3
   5543   5539   5546   5547     1  0.0000000  1.2552000  3
   5543   5539   5546   5548     1  0.0000000  1.2552000  3
   5543   5555   5561   5562     1  0.0000000  0.6508444  3
   5543   5555   5561   5563     1  0.0000000  0.6508444  3
   5544   5543   5539   5546     1  0.0000000  1.2552000  3
   5544   5543   5555   5561     1  0.0000000  0.6508444  3
   5544   5543   5555   5556     1  0.0000000  0.6508444  3
   5544   5543   5555   5557     1  0.0000000  0.6508444  3
   5545   5543   5539   5546     1  0.0000000  1.2552000  3
   5545   5543   5555   5561     1  0.0000000  0.6508444  3
   5545   5543   5555   5556     1  0.0000000  0.6508444  3
   5545   5543   5555   5557     1  0.0000000  0.6508444  3
   5546   5549   5558   5559     1  0.0000000  0.6508444  3
   5546   5549   5558   5560     1  0.0000000  0.6508444  3
   5547   5546   5549   5558     1  0.0000000  0.6508444  3
   5547   5546   5549   5550     1  0.0000000  0.6508444  3
   5547   5546   5549   5551     1  0.0000000  0.6508444  3
   5548   5546   5549   5558     1  0.0000000  0.6508444  3
   5548   5546   5549   5550     1  0.0000000  0.6508444  3
   5548   5546   5549   5551     1  0.0000000  0.6508444  3
   5550   5549   5558   5567     1  0.0000000  1.0460000  1
   5550   5549   5558   5567     1  0.0000000  0.0000000  3
   5550   5549   5558   5559     1  0.0000000  0.6508444  3
   5550   5549   5558   5560     1  0.0000000  0.6508444  3
   5551   5549   5558   5567     1  0.0000000  1.0460000  1
   5551   5549   5558   5567     1  0.0000000  0.0000000  3
   5551   5549   5558   5559     1  0.0000000  0.6508444  3
   5551   5549   5558   5560     1  0.0000000  0.6508444  3
   5553   5552   5564  11157     1  0.0000000  1.0460000  1
   5553   5552   5564  11157     1  0.0000000  0.0000000  3
   5553   5552   5564   5565     1  0.0000000  0.6508444  3
   5553   5552   5564   5566     1  0.0000000  0.6508444  3
   5554   5552   5564  11157     1  0.0000000  1.0460000  1
   5554   5552   5564  11157     1  0.0000000  0.0000000  3
   5554   5552   5564   5565     1  0.0000000  0.6508444  3
   5554   5552   5564   5566     1  0.0000000  0.6508444  3
   5556   5555   5561  11134     1  0.0000000  1.0460000  1
   5556   5555   5561  11134     1  0.0000000  0.0000000  3
   5556   5555   5561   5562     1  0.0000000  0.6508444  3
   5556   5555   5561   5563     1  0.0000000  0.6508444  3
   5557   5555   5561  11134     1  0.0000000  1.0460000  1
   5557   5555   5561  11134     1  0.0000000  0.0000000  3
   5557   5555   5561   5562     1  0.0000000  0.6508444  3
   5557   5555   5561   5563     1  0.0000000  0.6508444  3
   5561  11134  11130  11133     1  0.0000000  1.6038667  3
   5562   5561  11134  11130     1  0.0000000  1.6038667  3
   5563   5561  11134  11130     1  0.0000000  1.6038667  3
   5564  11157  11153  11156     1  0.0000000  1.6038667  3
   5565   5564  11157  11153     1  0.0000000  1.6038667  3
   5566   5564  11157  11153     1  0.0000000  1.6038667  3
   5568   5569   5581   5582     1  0.0000000  0.6508444  3
   5568   5569   5581   5583     1  0.0000000  0.6508444  3
   5568   5572   5584   5585     1  0.0000000  0.6508444  3
   5568   5572   5584   5586     1  0.0000000  0.6508444  3
   5568   5575   5578   5579     1  0.0000000  0.6508444  3
   5568   5575   5578   5580     1  0.0000000  0.6508444  3
   5569   5568   5572   5573     1  0.0000000  1.2552000  3
   5569   5568   5572   5574     1  0.0000000  1.2552000  3
   5569   5568   5575   5576     1  0.0000000  1.2552000  3
   5569   5568   5575   5577     1  0.0000000  1.2552000  3
   5569   5581   5593   5594     1  0.0000000  0.6508444  3
   5569   5581   5593   5595     1  0.0000000  0.6508444  3
   5570   5569   5568   5572     1  0.0000000  1.2552000  3
   5570   5569   5568   5575     1  0.0000000  1.2552000  3
   5570   5569   5581   5593     1  0.0000000  0.6508444  3
   5570   5569   5581   5582     1  0.0000000  0.6508444  3
   5570   5569   5581   5583     1  0.0000000  0.6508444  3
   5571   5569   5568   5572     1  0.0000000  1.2552000  3
   5571   5569   5568   5575     1  0.0000000  1.2552000  3
   5571   5569   5581   5593     1  0.0000000  0.6508444  3
   5571   5569   5581   5582     1  0.0000000  0.6508444  3
   5571   5569   5581   5583     1  0.0000000  0.6508444  3
   5572   5568   5575   5576     1  0.0000000  1.2552000  3
   5572   5568   5575   5577     1  0.0000000  1.2552000  3
   5572   5584   5590   5591     1  0.0000000  0.6508444  3
   5572   5584   5590   5592     1  0.0000000  0.6508444  3
   5573   5572   5568   5575     1  0.0000000  1.2552000  3
   5573   5572   5584   5590     1  0.0000000  0.6508444  3
   5573   5572   5584   5585     1  0.0000000  0.6508444  3
   5573   5572   5584   5586     1  0.0000000  0.6508444  3
   5574   5572   5568   5575     1  0.0000000  1.2552000  3
   5574   5572   5584   5590     1  0.0000000  0.6508444  3
   5574   5572   5584   5585     1  0.0000000  0.6508444  3
   5574   5572   5584   5586     1  0.0000000  0.6508444  3
   5575   5578   5587   5588     1  0.0000000  0.6508444  3
   5575   5578   5587   5589     1  0.0000000  0.6508444  3
   5576   5575   5578   5587     1  0.0000000  0.6508444  3
   5576   5575   5578   5579     1  0.0000000  0.6508444  3
   5576   5575   5578   5580     1  0.0000000  0.6508444  3
   5577   5575   5578   5587     1  0.0000000  0.6508444  3
   5577   5575   5578   5579     1  0.0000000  0.6508444  3
   5577   5575   5578   5580     1  0.0000000  0.6508444  3
   5579   5578   5587   5596     1  0.0000000  1.0460000  1
   5579   5578   5587   5596     1  0.0000000  0.0000000  3
   5579   5578   5587   5588     1  0.0000000  0.6508444  3
   5579   5578   5587   5589     1  0.0000000  0.6508444  3
   5580   5578   5587   5596     1  0.0000000  1.0460000  1
   5580   5578   5587   5596     1  0.0000000  0.0000000  3
   5580   5578   5587   5588     1  0.0000000  0.6508444  3
   5580   5578   5587   5589     1  0.0000000  0.6508444  3
   5582   5581   5593  11203     1  0.0000000  1.0460000  1
   5582   5581   5593  11203     1  0.0000000  0.0000000  3
   5582   5581   5593   5594     1  0.0000000  0.6508444  3
   5582   5581   5593   5595     1  0.0000000  0.6508444  3
   5583   5581   5593  11203     1  0.0000000  1.0460000  1
   5583   5581   5593  11203     1  0.0000000  0.0000000  3
   5583   5581   5593   5594     1  0.0000000  0.6508444  3
   5583   5581   5593   5595     1  0.0000000  0.6508444  3
   5585   5584   5590  11180     1  0.0000000  1.0460000  1
   5585   5584   5590  11180     1  0.0000000  0.0000000  3
   5585   5584   5590   5591     1  0.0000000  0.6508444  3
   5585   5584   5590   5592     1  0.0000000  0.6508444  3
   5586   5584   5590  11180     1  0.0000000  1.0460000  1
   5586   5584   5590  11180     1  0.0000000  0.0000000  3
   5586   5584   5590   5591     1  0.0000000  0.6508444  3
   5586   5584   5590   5592     1  0.0000000  0.6508444  3
   5590  11180  11176  11179     1  0.0000000  1.6038667  3
   5591   5590  11180  11176     1  0.0000000  1.6038667  3
   5592   5590  11180  11176     1  0.0000000  1.6038667  3
   5593  11203  11199  11202     1  0.0000000  1.6038667  3
   5594   5593  11203  11199     1  0.0000000  1.6038667  3
   5595   5593  11203  11199     1  0.0000000  1.6038667  3
   5597   5598   5610   5611     1  0.0000000  0.6508444  3
   5597   5598   5610   5612     1  0.0000000  0.6508444  3
   5597   5601   5613   5614     1  0.0000000  0.6508444  3
   5597   5601   5613   5615     1  0.0000000  0.6508444  3
   5597   5604   5607   5608     1  0.0000000  0.6508444  3
   5597   5604   5607   5609     1  0.0000000  0.6508444  3
   5598   5597   5601   5602     1  0.0000000  1.2552000  3
   5598   5597   5601   5603     1  0.0000000  1.2552000  3
   5598   5597   5604   5605     1  0.0000000  1.2552000  3
   5598   5597   5604   5606     1  0.0000000  1.2552000  3
   5598   5610   5622   5623     1  0.0000000  0.6508444  3
   5598   5610   5622   5624     1  0.0000000  0.6508444  3
   5599   5598   5597   5601     1  0.0000000  1.2552000  3
   5599   5598   5597   5604     1  0.0000000  1.2552000  3
   5599   5598   5610   5622     1  0.0000000  0.6508444  3
   5599   5598   5610   5611     1  0.0000000  0.6508444  3
   5599   5598   5610   5612     1  0.0000000  0.6508444  3
   5600   5598   5597   5601     1  0.0000000  1.2552000  3
   5600   5598   5597   5604     1  0.0000000  1.2552000  3
   5600   5598   5610   5622     1  0.0000000  0.6508444  3
   5600   5598   5610   5611     1  0.0000000  0.6508444  3
   5600   5598   5610   5612     1  0.0000000  0.6508444  3
   5601   5597   5604   5605     1  0.0000000  1.2552000  3
   5601   5597   5604   5606     1  0.0000000  1.2552000  3
   5601   5613   5619   5620     1  0.0000000  0.6508444  3
   5601   5613   5619   5621     1  0.0000000  0.6508444  3
   5602   5601   5597   5604     1  0.0000000  1.2552000  3
   5602   5601   5613   5619     1  0.0000000  0.6508444  3
   5602   5601   5613   5614     1  0.0000000  0.6508444  3
   5602   5601   5613   5615     1  0.0000000  0.6508444  3
   5603   5601   5597   5604     1  0.0000000  1.2552000  3
   5603   5601   5613   5619     1  0.0000000  0.6508444  3
   5603   5601   5613   5614     1  0.0000000  0.6508444  3
   5603   5601   5613   5615     1  0.0000000  0.6508444  3
   5604   5607   5616   5617     1  0.0000000  0.6508444  3
   5604   5607   5616   5618     1  0.0000000  0.6508444  3
   5605   5604   5607   5616     1  0.0000000  0.6508444  3
   5605   5604   5607   5608     1  0.0000000  0.6508444  3
   5605   5604   5607   5609     1  0.0000000  0.6508444  3
   5606   5604   5607   5616     1  0.0000000  0.6508444  3
   5606   5604   5607   5608     1  0.0000000  0.6508444  3
   5606   5604   5607   5609     1  0.0000000  0.6508444  3
   5608   5607   5616   5625     1  0.0000000  1.0460000  1
   5608   5607   5616   5625     1  0.0000000  0.0000000  3
   5608   5607   5616   5617     1  0.0000000  0.6508444  3
   5608   5607   5616   5618     1  0.0000000  0.6508444  3
   5609   5607   5616   5625     1  0.0000000  1.0460000  1
   5609   5607   5616   5625     1  0.0000000  0.0000000  3
   5609   5607   5616   5617     1  0.0000000  0.6508444  3
   5609   5607   5616   5618     1  0.0000000  0.6508444  3
   5611   5610   5622  11249     1  0.0000000  1.0460000  1
   5611   5610   5622  11249     1  0.0000000  0.0000000  3
   5611   5610   5622   5623     1  0.0000000  0.6508444  3
   5611   5610   5622   5624     1  0.0000000  0.6508444  3
   5612   5610   5622  11249     1  0.0000000  1.0460000  1
   5612   5610   5622  11249     1  0.0000000  0.0000000  3
   5612   5610   5622   5623     1  0.0000000  0.6508444  3
   5612   5610   5622   5624     1  0.0000000  0.6508444  3
   5614   5613   5619  11226     1  0.0000000  1.0460000  1
   5614   5613   5619  11226     1  0.0000000  0.0000000  3
   5614   5613   5619   5620     1  0.0000000  0.6508444  3
   5614   5613   5619   5621     1  0.0000000  0.6508444  3
   5615   5613   5619  11226     1  0.0000000  1.0460000  1
   5615   5613   5619  11226     1  0.0000000  0.0000000  3
   5615   5613   5619   5620     1  0.0000000  0.6508444  3
   5615   5613   5619   5621     1  0.0000000  0.6508444  3
   5619  11226  11222  11225     1  0.0000000  1.6038667  3
   5620   5619  11226  11222     1  0.0000000  1.6038667  3
   5621   5619  11226  11222     1  0.0000000  1.6038667  3
   5622  11249  11245  11248     1  0.0000000  1.6038667  3
   5623   5622  11249  11245     1  0.0000000  1.6038667  3
   5624   5622  11249  11245     1  0.0000000  1.6038667  3
   5626   5627   5639   5640     1  0.0000000  0.6508444  3
   5626   5627   5639   5641     1  0.0000000  0.6508444  3
   5626   5630   5642   5643     1  0.0000000  0.6508444  3
   5626   5630   5642   5644     1  0.0000000  0.6508444  3
   5626   5633   5636   5637     1  0.0000000  0.6508444  3
   5626   5633   5636   5638     1  0.0000000  0.6508444  3
   5627   5626   5630   5631     1  0.0000000  1.2552000  3
   5627   5626   5630   5632     1  0.0000000  1.2552000  3
   5627   5626   5633   5634     1  0.0000000  1.2552000  3
   5627   5626   5633   5635     1  0.0000000  1.2552000  3
   5627   5639   5651   5652     1  0.0000000  0.6508444  3
   5627   5639   5651   5653     1  0.0000000  0.6508444  3
   5628   5627   5626   5630     1  0.0000000  1.2552000  3
   5628   5627   5626   5633     1  0.0000000  1.2552000  3
   5628   5627   5639   5651     1  0.0000000  0.6508444  3
   5628   5627   5639   5640     1  0.0000000  0.6508444  3
   5628   5627   5639   5641     1  0.0000000  0.6508444  3
   5629   5627   5626   5630     1  0.0000000  1.2552000  3
   5629   5627   5626   5633     1  0.0000000  1.2552000  3
   5629   5627   5639   5651     1  0.0000000  0.6508444  3
   5629   5627   5639   5640     1  0.0000000  0.6508444  3
   5629   5627   5639   5641     1  0.0000000  0.6508444  3
   5630   5626   5633   5634     1  0.0000000  1.2552000  3
   5630   5626   5633   5635     1  0.0000000  1.2552000  3
   5630   5642   5648   5649     1  0.0000000  0.6508444  3
   5630   5642   5648   5650     1  0.0000000  0.6508444  3
   5631   5630   5626   5633     1  0.0000000  1.2552000  3
   5631   5630   5642   5648     1  0.0000000  0.6508444  3
   5631   5630   5642   5643     1  0.0000000  0.6508444  3
   5631   5630   5642   5644     1  0.0000000  0.6508444  3
   5632   5630   5626   5633     1  0.0000000  1.2552000  3
   5632   5630   5642   5648     1  0.0000000  0.6508444  3
   5632   5630   5642   5643     1  0.0000000  0.6508444  3
   5632   5630   5642   5644     1  0.0000000  0.6508444  3
   5633   5636   5645   5646     1  0.0000000  0.6508444  3
   5633   5636   5645   5647     1  0.0000000  0.6508444  3
   5634   5633   5636   5645     1  0.0000000  0.6508444  3
   5634   5633   5636   5637     1  0.0000000  0.6508444  3
   5634   5633   5636   5638     1  0.0000000  0.6508444  3
   5635   5633   5636   5645     1  0.0000000  0.6508444  3
   5635   5633   5636   5637     1  0.0000000  0.6508444  3
   5635   5633   5636   5638     1  0.0000000  0.6508444  3
   5637   5636   5645   5654     1  0.0000000  1.0460000  1
   5637   5636   5645   5654     1  0.0000000  0.0000000  3
   5637   5636   5645   5646     1  0.0000000  0.6508444  3
   5637   5636   5645   5647     1  0.0000000  0.6508444  3
   5638   5636   5645   5654     1  0.0000000  1.0460000  1
   5638   5636   5645   5654     1  0.0000000  0.0000000  3
   5638   5636   5645   5646     1  0.0000000  0.6508444  3
   5638   5636   5645   5647     1  0.0000000  0.6508444  3
   5640   5639   5651  11295     1  0.0000000  1.0460000  1
   5640   5639   5651  11295     1  0.0000000  0.0000000  3
   5640   5639   5651   5652     1  0.0000000  0.6508444  3
   5640   5639   5651   5653     1  0.0000000  0.6508444  3
   5641   5639   5651  11295     1  0.0000000  1.0460000  1
   5641   5639   5651  11295     1  0.0000000  0.0000000  3
   5641   5639   5651   5652     1  0.0000000  0.6508444  3
   5641   5639   5651   5653     1  0.0000000  0.6508444  3
   5643   5642   5648  11272     1  0.0000000  1.0460000  1
   5643   5642   5648  11272     1  0.0000000  0.0000000  3
   5643   5642   5648   5649     1  0.0000000  0.6508444  3
   5643   5642   5648   5650     1  0.0000000  0.6508444  3
   5644   5642   5648  11272     1  0.0000000  1.0460000  1
   5644   5642   5648  11272     1  0.0000000  0.0000000  3
   5644   5642   5648   5649     1  0.0000000  0.6508444  3
   5644   5642   5648   5650     1  0.0000000  0.6508444  3
   5648  11272  11268  11271     1  0.0000000  1.6038667  3
   5649   5648  11272  11268     1  0.0000000  1.6038667  3
   5650   5648  11272  11268     1  0.0000000  1.6038667  3
   5651  11295  11291  11294     1  0.0000000  1.6038667  3
   5652   5651  11295  11291     1  0.0000000  1.6038667  3
   5653   5651  11295  11291     1  0.0000000  1.6038667  3
   5655   5656   5668   5669     1  0.0000000  0.6508444  3
   5655   5656   5668   5670     1  0.0000000  0.6508444  3
   5655   5659   5671   5672     1  0.0000000  0.6508444  3
   5655   5659   5671   5673     1  0.0000000  0.6508444  3
   5655   5662   5665   5666     1  0.0000000  0.6508444  3
   5655   5662   5665   5667     1  0.0000000  0.6508444  3
   5656   5655   5659   5660     1  0.0000000  1.2552000  3
   5656   5655   5659   5661     1  0.0000000  1.2552000  3
   5656   5655   5662   5663     1  0.0000000  1.2552000  3
   5656   5655   5662   5664     1  0.0000000  1.2552000  3
   5656   5668   5680   5681     1  0.0000000  0.6508444  3
   5656   5668   5680   5682     1  0.0000000  0.6508444  3
   5657   5656   5655   5659     1  0.0000000  1.2552000  3
   5657   5656   5655   5662     1  0.0000000  1.2552000  3
   5657   5656   5668   5680     1  0.0000000  0.6508444  3
   5657   5656   5668   5669     1  0.0000000  0.6508444  3
   5657   5656   5668   5670     1  0.0000000  0.6508444  3
   5658   5656   5655   5659     1  0.0000000  1.2552000  3
   5658   5656   5655   5662     1  0.0000000  1.2552000  3
   5658   5656   5668   5680     1  0.0000000  0.6508444  3
   5658   5656   5668   5669     1  0.0000000  0.6508444  3
   5658   5656   5668   5670     1  0.0000000  0.6508444  3
   5659   5655   5662   5663     1  0.0000000  1.2552000  3
   5659   5655   5662   5664     1  0.0000000  1.2552000  3
   5659   5671   5677   5678     1  0.0000000  0.6508444  3
   5659   5671   5677   5679     1  0.0000000  0.6508444  3
   5660   5659   5655   5662     1  0.0000000  1.2552000  3
   5660   5659   5671   5677     1  0.0000000  0.6508444  3
   5660   5659   5671   5672     1  0.0000000  0.6508444  3
   5660   5659   5671   5673     1  0.0000000  0.6508444  3
   5661   5659   5655   5662     1  0.0000000  1.2552000  3
   5661   5659   5671   5677     1  0.0000000  0.6508444  3
   5661   5659   5671   5672     1  0.0000000  0.6508444  3
   5661   5659   5671   5673     1  0.0000000  0.6508444  3
   5662   5665   5674   5675     1  0.0000000  0.6508444  3
   5662   5665   5674   5676     1  0.0000000  0.6508444  3
   5663   5662   5665   5674     1  0.0000000  0.6508444  3
   5663   5662   5665   5666     1  0.0000000  0.6508444  3
   5663   5662   5665   5667     1  0.0000000  0.6508444  3
   5664   5662   5665   5674     1  0.0000000  0.6508444  3
   5664   5662   5665   5666     1  0.0000000  0.6508444  3
   5664   5662   5665   5667     1  0.0000000  0.6508444  3
   5666   5665   5674   5683     1  0.0000000  1.0460000  1
   5666   5665   5674   5683     1  0.0000000  0.0000000  3
   5666   5665   5674   5675     1  0.0000000  0.6508444  3
   5666   5665   5674   5676     1  0.0000000  0.6508444  3
   5667   5665   5674   5683     1  0.0000000  1.0460000  1
   5667   5665   5674   5683     1  0.0000000  0.0000000  3
   5667   5665   5674   5675     1  0.0000000  0.6508444  3
   5667   5665   5674   5676     1  0.0000000  0.6508444  3
   5669   5668   5680  11341     1  0.0000000  1.0460000  1
   5669   5668   5680  11341     1  0.0000000  0.0000000  3
   5669   5668   5680   5681     1  0.0000000  0.6508444  3
   5669   5668   5680   5682     1  0.0000000  0.6508444  3
   5670   5668   5680  11341     1  0.0000000  1.0460000  1
   5670   5668   5680  11341     1  0.0000000  0.0000000  3
   5670   5668   5680   5681     1  0.0000000  0.6508444  3
   5670   5668   5680   5682     1  0.0000000  0.6508444  3
   5672   5671   5677  11318     1  0.0000000  1.0460000  1
   5672   5671   5677  11318     1  0.0000000  0.0000000  3
   5672   5671   5677   5678     1  0.0000000  0.6508444  3
   5672   5671   5677   5679     1  0.0000000  0.6508444  3
   5673   5671   5677  11318     1  0.0000000  1.0460000  1
   5673   5671   5677  11318     1  0.0000000  0.0000000  3
   5673   5671   5677   5678     1  0.0000000  0.6508444  3
   5673   5671   5677   5679     1  0.0000000  0.6508444  3
   5677  11318  11314  11317     1  0.0000000  1.6038667  3
   5678   5677  11318  11314     1  0.0000000  1.6038667  3
   5679   5677  11318  11314     1  0.0000000  1.6038667  3
   5680  11341  11337  11340     1  0.0000000  1.6038667  3
   5681   5680  11341  11337     1  0.0000000  1.6038667  3
   5682   5680  11341  11337     1  0.0000000  1.6038667  3
   5684   5685   5697   5698     1  0.0000000  0.6508444  3
   5684   5685   5697   5699     1  0.0000000  0.6508444  3
   5684   5688   5700   5701     1  0.0000000  0.6508444  3
   5684   5688   5700   5702     1  0.0000000  0.6508444  3
   5684   5691   5694   5695     1  0.0000000  0.6508444  3
   5684   5691   5694   5696     1  0.0000000  0.6508444  3
   5685   5684   5688   5689     1  0.0000000  1.2552000  3
   5685   5684   5688   5690     1  0.0000000  1.2552000  3
   5685   5684   5691   5692     1  0.0000000  1.2552000  3
   5685   5684   5691   5693     1  0.0000000  1.2552000  3
   5685   5697   5709   5710     1  0.0000000  0.6508444  3
   5685   5697   5709   5711     1  0.0000000  0.6508444  3
   5686   5685   5684   5688     1  0.0000000  1.2552000  3
   5686   5685   5684   5691     1  0.0000000  1.2552000  3
   5686   5685   5697   5709     1  0.0000000  0.6508444  3
   5686   5685   5697   5698     1  0.0000000  0.6508444  3
   5686   5685   5697   5699     1  0.0000000  0.6508444  3
   5687   5685   5684   5688     1  0.0000000  1.2552000  3
   5687   5685   5684   5691     1  0.0000000  1.2552000  3
   5687   5685   5697   5709     1  0.0000000  0.6508444  3
   5687   5685   5697   5698     1  0.0000000  0.6508444  3
   5687   5685   5697   5699     1  0.0000000  0.6508444  3
   5688   5684   5691   5692     1  0.0000000  1.2552000  3
   5688   5684   5691   5693     1  0.0000000  1.2552000  3
   5688   5700   5706   5707     1  0.0000000  0.6508444  3
   5688   5700   5706   5708     1  0.0000000  0.6508444  3
   5689   5688   5684   5691     1  0.0000000  1.2552000  3
   5689   5688   5700   5706     1  0.0000000  0.6508444  3
   5689   5688   5700   5701     1  0.0000000  0.6508444  3
   5689   5688   5700   5702     1  0.0000000  0.6508444  3
   5690   5688   5684   5691     1  0.0000000  1.2552000  3
   5690   5688   5700   5706     1  0.0000000  0.6508444  3
   5690   5688   5700   5701     1  0.0000000  0.6508444  3
   5690   5688   5700   5702     1  0.0000000  0.6508444  3
   5691   5694   5703   5704     1  0.0000000  0.6508444  3
   5691   5694   5703   5705     1  0.0000000  0.6508444  3
   5692   5691   5694   5703     1  0.0000000  0.6508444  3
   5692   5691   5694   5695     1  0.0000000  0.6508444  3
   5692   5691   5694   5696     1  0.0000000  0.6508444  3
   5693   5691   5694   5703     1  0.0000000  0.6508444  3
   5693   5691   5694   5695     1  0.0000000  0.6508444  3
   5693   5691   5694   5696     1  0.0000000  0.6508444  3
   5695   5694   5703   5712     1  0.0000000  1.0460000  1
   5695   5694   5703   5712     1  0.0000000  0.0000000  3
   5695   5694   5703   5704     1  0.0000000  0.6508444  3
   5695   5694   5703   5705     1  0.0000000  0.6508444  3
   5696   5694   5703   5712     1  0.0000000  1.0460000  1
   5696   5694   5703   5712     1  0.0000000  0.0000000  3
   5696   5694   5703   5704     1  0.0000000  0.6508444  3
   5696   5694   5703   5705     1  0.0000000  0.6508444  3
   5698   5697   5709  11387     1  0.0000000  1.0460000  1
   5698   5697   5709  11387     1  0.0000000  0.0000000  3
   5698   5697   5709   5710     1  0.0000000  0.6508444  3
   5698   5697   5709   5711     1  0.0000000  0.6508444  3
   5699   5697   5709  11387     1  0.0000000  1.0460000  1
   5699   5697   5709  11387     1  0.0000000  0.0000000  3
   5699   5697   5709   5710     1  0.0000000  0.6508444  3
   5699   5697   5709   5711     1  0.0000000  0.6508444  3
   5701   5700   5706  11364     1  0.0000000  1.0460000  1
   5701   5700   5706  11364     1  0.0000000  0.0000000  3
   5701   5700   5706   5707     1  0.0000000  0.6508444  3
   5701   5700   5706   5708     1  0.0000000  0.6508444  3
   5702   5700   5706  11364     1  0.0000000  1.0460000  1
   5702   5700   5706  11364     1  0.0000000  0.0000000  3
   5702   5700   5706   5707     1  0.0000000  0.6508444  3
   5702   5700   5706   5708     1  0.0000000  0.6508444  3
   5706  11364  11360  11363     1  0.0000000  1.6038667  3
   5707   5706  11364  11360     1  0.0000000  1.6038667  3
   5708   5706  11364  11360     1  0.0000000  1.6038667  3
   5709  11387  11383  11386     1  0.0000000  1.6038667  3
   5710   5709  11387  11383     1  0.0000000  1.6038667  3
   5711   5709  11387  11383     1  0.0000000  1.6038667  3
   5713   5714   5726   5727     1  0.0000000  0.6508444  3
   5713   5714   5726   5728     1  0.0000000  0.6508444  3
   5713   5717   5729   5730     1  0.0000000  0.6508444  3
   5713   5717   5729   5731     1  0.0000000  0.6508444  3
   5713   5720   5723   5724     1  0.0000000  0.6508444  3
   5713   5720   5723   5725     1  0.0000000  0.6508444  3
   5714   5713   5717   5718     1  0.0000000  1.2552000  3
   5714   5713   5717   5719     1  0.0000000  1.2552000  3
   5714   5713   5720   5721     1  0.0000000  1.2552000  3
   5714   5713   5720   5722     1  0.0000000  1.2552000  3
   5714   5726   5738   5739     1  0.0000000  0.6508444  3
   5714   5726   5738   5740     1  0.0000000  0.6508444  3
   5715   5714   5713   5717     1  0.0000000  1.2552000  3
   5715   5714   5713   5720     1  0.0000000  1.2552000  3
   5715   5714   5726   5738     1  0.0000000  0.6508444  3
   5715   5714   5726   5727     1  0.0000000  0.6508444  3
   5715   5714   5726   5728     1  0.0000000  0.6508444  3
   5716   5714   5713   5717     1  0.0000000  1.2552000  3
   5716   5714   5713   5720     1  0.0000000  1.2552000  3
   5716   5714   5726   5738     1  0.0000000  0.6508444  3
   5716   5714   5726   5727     1  0.0000000  0.6508444  3
   5716   5714   5726   5728     1  0.0000000  0.6508444  3
   5717   5713   5720   5721     1  0.0000000  1.2552000  3
   5717   5713   5720   5722     1  0.0000000  1.2552000  3
   5717   5729   5735   5736     1  0.0000000  0.6508444  3
   5717   5729   5735   5737     1  0.0000000  0.6508444  3
   5718   5717   5713   5720     1  0.0000000  1.2552000  3
   5718   5717   5729   5735     1  0.0000000  0.6508444  3
   5718   5717   5729   5730     1  0.0000000  0.6508444  3
   5718   5717   5729   5731     1  0.0000000  0.6508444  3
   5719   5717   5713   5720     1  0.0000000  1.2552000  3
   5719   5717   5729   5735     1  0.0000000  0.6508444  3
   5719   5717   5729   5730     1  0.0000000  0.6508444  3
   5719   5717   5729   5731     1  0.0000000  0.6508444  3
   5720   5723   5732   5733     1  0.0000000  0.6508444  3
   5720   5723   5732   5734     1  0.0000000  0.6508444  3
   5721   5720   5723   5732     1  0.0000000  0.6508444  3
   5721   5720   5723   5724     1  0.0000000  0.6508444  3
   5721   5720   5723   5725     1  0.0000000  0.6508444  3
   5722   5720   5723   5732     1  0.0000000  0.6508444  3
   5722   5720   5723   5724     1  0.0000000  0.6508444  3
   5722   5720   5723   5725     1  0.0000000  0.6508444  3
   5724   5723   5732   5741     1  0.0000000  1.0460000  1
   5724   5723   5732   5741     1  0.0000000  0.0000000  3
   5724   5723   5732   5733     1  0.0000000  0.6508444  3
   5724   5723   5732   5734     1  0.0000000  0.6508444  3
   5725   5723   5732   5741     1  0.0000000  1.0460000  1
   5725   5723   5732   5741     1  0.0000000  0.0000000  3
   5725   5723   5732   5733     1  0.0000000  0.6508444  3
   5725   5723   5732   5734     1  0.0000000  0.6508444  3
   5727   5726   5738  11433     1  0.0000000  1.0460000  1
   5727   5726   5738  11433     1  0.0000000  0.0000000  3
   5727   5726   5738   5739     1  0.0000000  0.6508444  3
   5727   5726   5738   5740     1  0.0000000  0.6508444  3
   5728   5726   5738  11433     1  0.0000000  1.0460000  1
   5728   5726   5738  11433     1  0.0000000  0.0000000  3
   5728   5726   5738   5739     1  0.0000000  0.6508444  3
   5728   5726   5738   5740     1  0.0000000  0.6508444  3
   5730   5729   5735  11410     1  0.0000000  1.0460000  1
   5730   5729   5735  11410     1  0.0000000  0.0000000  3
   5730   5729   5735   5736     1  0.0000000  0.6508444  3
   5730   5729   5735   5737     1  0.0000000  0.6508444  3
   5731   5729   5735  11410     1  0.0000000  1.0460000  1
   5731   5729   5735  11410     1  0.0000000  0.0000000  3
   5731   5729   5735   5736     1  0.0000000  0.6508444  3
   5731   5729   5735   5737     1  0.0000000  0.6508444  3
   5735  11410  11406  11409     1  0.0000000  1.6038667  3
   5736   5735  11410  11406     1  0.0000000  1.6038667  3
   5737   5735  11410  11406     1  0.0000000  1.6038667  3
   5738  11433  11429  11432     1  0.0000000  1.6038667  3
   5739   5738  11433  11429     1  0.0000000  1.6038667  3
   5740   5738  11433  11429     1  0.0000000  1.6038667  3
   5742   5743   5755   5756     1  0.0000000  0.6508444  3
   5742   5743   5755   5757     1  0.0000000  0.6508444  3
   5742   5746   5758   5759     1  0.0000000  0.6508444  3
   5742   5746   5758   5760     1  0.0000000  0.6508444  3
   5742   5749   5752   5753     1  0.0000000  0.6508444  3
   5742   5749   5752   5754     1  0.0000000  0.6508444  3
   5743   5742   5746   5747     1  0.0000000  1.2552000  3
   5743   5742   5746   5748     1  0.0000000  1.2552000  3
   5743   5742   5749   5750     1  0.0000000  1.2552000  3
   5743   5742   5749   5751     1  0.0000000  1.2552000  3
   5743   5755   5767   5768     1  0.0000000  0.6508444  3
   5743   5755   5767   5769     1  0.0000000  0.6508444  3
   5744   5743   5742   5746     1  0.0000000  1.2552000  3
   5744   5743   5742   5749     1  0.0000000  1.2552000  3
   5744   5743   5755   5767     1  0.0000000  0.6508444  3
   5744   5743   5755   5756     1  0.0000000  0.6508444  3
   5744   5743   5755   5757     1  0.0000000  0.6508444  3
   5745   5743   5742   5746     1  0.0000000  1.2552000  3
   5745   5743   5742   5749     1  0.0000000  1.2552000  3
   5745   5743   5755   5767     1  0.0000000  0.6508444  3
   5745   5743   5755   5756     1  0.0000000  0.6508444  3
   5745   5743   5755   5757     1  0.0000000  0.6508444  3
   5746   5742   5749   5750     1  0.0000000  1.2552000  3
   5746   5742   5749   5751     1  0.0000000  1.2552000  3
   5746   5758   5764   5765     1  0.0000000  0.6508444  3
   5746   5758   5764   5766     1  0.0000000  0.6508444  3
   5747   5746   5742   5749     1  0.0000000  1.2552000  3
   5747   5746   5758   5764     1  0.0000000  0.6508444  3
   5747   5746   5758   5759     1  0.0000000  0.6508444  3
   5747   5746   5758   5760     1  0.0000000  0.6508444  3
   5748   5746   5742   5749     1  0.0000000  1.2552000  3
   5748   5746   5758   5764     1  0.0000000  0.6508444  3
   5748   5746   5758   5759     1  0.0000000  0.6508444  3
   5748   5746   5758   5760     1  0.0000000  0.6508444  3
   5749   5752   5761   5762     1  0.0000000  0.6508444  3
   5749   5752   5761   5763     1  0.0000000  0.6508444  3
   5750   5749   5752   5761     1  0.0000000  0.6508444  3
   5750   5749   5752   5753     1  0.0000000  0.6508444  3
   5750   5749   5752   5754     1  0.0000000  0.6508444  3
   5751   5749   5752   5761     1  0.0000000  0.6508444  3
   5751   5749   5752   5753     1  0.0000000  0.6508444  3
   5751   5749   5752   5754     1  0.0000000  0.6508444  3
   5753   5752   5761   5770     1  0.0000000  1.0460000  1
   5753   5752   5761   5770     1  0.0000000  0.0000000  3
   5753   5752   5761   5762     1  0.0000000  0.6508444  3
   5753   5752   5761   5763     1  0.0000000  0.6508444  3
   5754   5752   5761   5770     1  0.0000000  1.0460000  1
   5754   5752   5761   5770     1  0.0000000  0.0000000  3
   5754   5752   5761   5762     1  0.0000000  0.6508444  3
   5754   5752   5761   5763     1  0.0000000  0.6508444  3
   5756   5755   5767  11479     1  0.0000000  1.0460000  1
   5756   5755   5767  11479     1  0.0000000  0.0000000  3
   5756   5755   5767   5768     1  0.0000000  0.6508444  3
   5756   5755   5767   5769     1  0.0000000  0.6508444  3
   5757   5755   5767  11479     1  0.0000000  1.0460000  1
   5757   5755   5767  11479     1  0.0000000  0.0000000  3
   5757   5755   5767   5768     1  0.0000000  0.6508444  3
   5757   5755   5767   5769     1  0.0000000  0.6508444  3
   5759   5758   5764  11456     1  0.0000000  1.0460000  1
   5759   5758   5764  11456     1  0.0000000  0.0000000  3
   5759   5758   5764   5765     1  0.0000000  0.6508444  3
   5759   5758   5764   5766     1  0.0000000  0.6508444  3
   5760   5758   5764  11456     1  0.0000000  1.0460000  1
   5760   5758   5764  11456     1  0.0000000  0.0000000  3
   5760   5758   5764   5765     1  0.0000000  0.6508444  3
   5760   5758   5764   5766     1  0.0000000  0.6508444  3
   5764  11456  11452  11455     1  0.0000000  1.6038667  3
   5765   5764  11456  11452     1  0.0000000  1.6038667  3
   5766   5764  11456  11452     1  0.0000000  1.6038667  3
   5767  11479  11475  11478     1  0.0000000  1.6038667  3
   5768   5767  11479  11475     1  0.0000000  1.6038667  3
   5769   5767  11479  11475     1  0.0000000  1.6038667  3
   5771   5772   5784   5785     1  0.0000000  0.6508444  3
   5771   5772   5784   5786     1  0.0000000  0.6508444  3
   5771   5775   5787   5788     1  0.0000000  0.6508444  3
   5771   5775   5787   5789     1  0.0000000  0.6508444  3
   5771   5778   5781   5782     1  0.0000000  0.6508444  3
   5771   5778   5781   5783     1  0.0000000  0.6508444  3
   5772   5771   5775   5776     1  0.0000000  1.2552000  3
   5772   5771   5775   5777     1  0.0000000  1.2552000  3
   5772   5771   5778   5779     1  0.0000000  1.2552000  3
   5772   5771   5778   5780     1  0.0000000  1.2552000  3
   5772   5784   5796   5797     1  0.0000000  0.6508444  3
   5772   5784   5796   5798     1  0.0000000  0.6508444  3
   5773   5772   5771   5775     1  0.0000000  1.2552000  3
   5773   5772   5771   5778     1  0.0000000  1.2552000  3
   5773   5772   5784   5796     1  0.0000000  0.6508444  3
   5773   5772   5784   5785     1  0.0000000  0.6508444  3
   5773   5772   5784   5786     1  0.0000000  0.6508444  3
   5774   5772   5771   5775     1  0.0000000  1.2552000  3
   5774   5772   5771   5778     1  0.0000000  1.2552000  3
   5774   5772   5784   5796     1  0.0000000  0.6508444  3
   5774   5772   5784   5785     1  0.0000000  0.6508444  3
   5774   5772   5784   5786     1  0.0000000  0.6508444  3
   5775   5771   5778   5779     1  0.0000000  1.2552000  3
   5775   5771   5778   5780     1  0.0000000  1.2552000  3
   5775   5787   5793   5794     1  0.0000000  0.6508444  3
   5775   5787   5793   5795     1  0.0000000  0.6508444  3
   5776   5775   5771   5778     1  0.0000000  1.2552000  3
   5776   5775   5787   5793     1  0.0000000  0.6508444  3
   5776   5775   5787   5788     1  0.0000000  0.6508444  3
   5776   5775   5787   5789     1  0.0000000  0.6508444  3
   5777   5775   5771   5778     1  0.0000000  1.2552000  3
   5777   5775   5787   5793     1  0.0000000  0.6508444  3
   5777   5775   5787   5788     1  0.0000000  0.6508444  3
   5777   5775   5787   5789     1  0.0000000  0.6508444  3
   5778   5781   5790   5791     1  0.0000000  0.6508444  3
   5778   5781   5790   5792     1  0.0000000  0.6508444  3
   5779   5778   5781   5790     1  0.0000000  0.6508444  3
   5779   5778   5781   5782     1  0.0000000  0.6508444  3
   5779   5778   5781   5783     1  0.0000000  0.6508444  3
   5780   5778   5781   5790     1  0.0000000  0.6508444  3
   5780   5778   5781   5782     1  0.0000000  0.6508444  3
   5780   5778   5781   5783     1  0.0000000  0.6508444  3
   5782   5781   5790   5799     1  0.0000000  1.0460000  1
   5782   5781   5790   5799     1  0.0000000  0.0000000  3
   5782   5781   5790   5791     1  0.0000000  0.6508444  3
   5782   5781   5790   5792     1  0.0000000  0.6508444  3
   5783   5781   5790   5799     1  0.0000000  1.0460000  1
   5783   5781   5790   5799     1  0.0000000  0.0000000  3
   5783   5781   5790   5791     1  0.0000000  0.6508444  3
   5783   5781   5790   5792     1  0.0000000  0.6508444  3
   5785   5784   5796  11525     1  0.0000000  1.0460000  1
   5785   5784   5796  11525     1  0.0000000  0.0000000  3
   5785   5784   5796   5797     1  0.0000000  0.6508444  3
   5785   5784   5796   5798     1  0.0000000  0.6508444  3
   5786   5784   5796  11525     1  0.0000000  1.0460000  1
   5786   5784   5796  11525     1  0.0000000  0.0000000  3
   5786   5784   5796   5797     1  0.0000000  0.6508444  3
   5786   5784   5796   5798     1  0.0000000  0.6508444  3
   5788   5787   5793  11502     1  0.0000000  1.0460000  1
   5788   5787   5793  11502     1  0.0000000  0.0000000  3
   5788   5787   5793   5794     1  0.0000000  0.6508444  3
   5788   5787   5793   5795     1  0.0000000  0.6508444  3
   5789   5787   5793  11502     1  0.0000000  1.0460000  1
   5789   5787   5793  11502     1  0.0000000  0.0000000  3
   5789   5787   5793   5794     1  0.0000000  0.6508444  3
   5789   5787   5793   5795     1  0.0000000  0.6508444  3
   5793  11502  11498  11501     1  0.0000000  1.6038667  3
   5794   5793  11502  11498     1  0.0000000  1.6038667  3
   5795   5793  11502  11498     1  0.0000000  1.6038667  3
   5796  11525  11521  11524     1  0.0000000  1.6038667  3
   5797   5796  11525  11521     1  0.0000000  1.6038667  3
   5798   5796  11525  11521     1  0.0000000  1.6038667  3
   5800   5801   5813   5814     1  0.0000000  0.6508444  3
   5800   5801   5813   5815     1  0.0000000  0.6508444  3
   5800   5804   5816   5817     1  0.0000000  0.6508444  3
   5800   5804   5816   5818     1  0.0000000  0.6508444  3
   5800   5807   5810   5811     1  0.0000000  0.6508444  3
   5800   5807   5810   5812     1  0.0000000  0.6508444  3
   5801   5800   5804   5805     1  0.0000000  1.2552000  3
   5801   5800   5804   5806     1  0.0000000  1.2552000  3
   5801   5800   5807   5808     1  0.0000000  1.2552000  3
   5801   5800   5807   5809     1  0.0000000  1.2552000  3
   5801   5813   5825   5826     1  0.0000000  0.6508444  3
   5801   5813   5825   5827     1  0.0000000  0.6508444  3
   5802   5801   5800   5804     1  0.0000000  1.2552000  3
   5802   5801   5800   5807     1  0.0000000  1.2552000  3
   5802   5801   5813   5825     1  0.0000000  0.6508444  3
   5802   5801   5813   5814     1  0.0000000  0.6508444  3
   5802   5801   5813   5815     1  0.0000000  0.6508444  3
   5803   5801   5800   5804     1  0.0000000  1.2552000  3
   5803   5801   5800   5807     1  0.0000000  1.2552000  3
   5803   5801   5813   5825     1  0.0000000  0.6508444  3
   5803   5801   5813   5814     1  0.0000000  0.6508444  3
   5803   5801   5813   5815     1  0.0000000  0.6508444  3
   5804   5800   5807   5808     1  0.0000000  1.2552000  3
   5804   5800   5807   5809     1  0.0000000  1.2552000  3
   5804   5816   5822   5823     1  0.0000000  0.6508444  3
   5804   5816   5822   5824     1  0.0000000  0.6508444  3
   5805   5804   5800   5807     1  0.0000000  1.2552000  3
   5805   5804   5816   5822     1  0.0000000  0.6508444  3
   5805   5804   5816   5817     1  0.0000000  0.6508444  3
   5805   5804   5816   5818     1  0.0000000  0.6508444  3
   5806   5804   5800   5807     1  0.0000000  1.2552000  3
   5806   5804   5816   5822     1  0.0000000  0.6508444  3
   5806   5804   5816   5817     1  0.0000000  0.6508444  3
   5806   5804   5816   5818     1  0.0000000  0.6508444  3
   5807   5810   5819   5820     1  0.0000000  0.6508444  3
   5807   5810   5819   5821     1  0.0000000  0.6508444  3
   5808   5807   5810   5819     1  0.0000000  0.6508444  3
   5808   5807   5810   5811     1  0.0000000  0.6508444  3
   5808   5807   5810   5812     1  0.0000000  0.6508444  3
   5809   5807   5810   5819     1  0.0000000  0.6508444  3
   5809   5807   5810   5811     1  0.0000000  0.6508444  3
   5809   5807   5810   5812     1  0.0000000  0.6508444  3
   5811   5810   5819   5828     1  0.0000000  1.0460000  1
   5811   5810   5819   5828     1  0.0000000  0.0000000  3
   5811   5810   5819   5820     1  0.0000000  0.6508444  3
   5811   5810   5819   5821     1  0.0000000  0.6508444  3
   5812   5810   5819   5828     1  0.0000000  1.0460000  1
   5812   5810   5819   5828     1  0.0000000  0.0000000  3
   5812   5810   5819   5820     1  0.0000000  0.6508444  3
   5812   5810   5819   5821     1  0.0000000  0.6508444  3
   5814   5813   5825  11571     1  0.0000000  1.0460000  1
   5814   5813   5825  11571     1  0.0000000  0.0000000  3
   5814   5813   5825   5826     1  0.0000000  0.6508444  3
   5814   5813   5825   5827     1  0.0000000  0.6508444  3
   5815   5813   5825  11571     1  0.0000000  1.0460000  1
   5815   5813   5825  11571     1  0.0000000  0.0000000  3
   5815   5813   5825   5826     1  0.0000000  0.6508444  3
   5815   5813   5825   5827     1  0.0000000  0.6508444  3
   5817   5816   5822  11548     1  0.0000000  1.0460000  1
   5817   5816   5822  11548     1  0.0000000  0.0000000  3
   5817   5816   5822   5823     1  0.0000000  0.6508444  3
   5817   5816   5822   5824     1  0.0000000  0.6508444  3
   5818   5816   5822  11548     1  0.0000000  1.0460000  1
   5818   5816   5822  11548     1  0.0000000  0.0000000  3
   5818   5816   5822   5823     1  0.0000000  0.6508444  3
   5818   5816   5822   5824     1  0.0000000  0.6508444  3
   5822  11548  11544  11547     1  0.0000000  1.6038667  3
   5823   5822  11548  11544     1  0.0000000  1.6038667  3
   5824   5822  11548  11544     1  0.0000000  1.6038667  3
   5825  11571  11567  11570     1  0.0000000  1.6038667  3
   5826   5825  11571  11567     1  0.0000000  1.6038667  3
   5827   5825  11571  11567     1  0.0000000  1.6038667  3
   5829   5830   5842   5843     1  0.0000000  0.6508444  3
   5829   5830   5842   5844     1  0.0000000  0.6508444  3
   5829   5833   5845   5846     1  0.0000000  0.6508444  3
   5829   5833   5845   5847     1  0.0000000  0.6508444  3
   5829   5836   5839   5840     1  0.0000000  0.6508444  3
   5829   5836   5839   5841     1  0.0000000  0.6508444  3
   5830   5829   5833   5834     1  0.0000000  1.2552000  3
   5830   5829   5833   5835     1  0.0000000  1.2552000  3
   5830   5829   5836   5837     1  0.0000000  1.2552000  3
   5830   5829   5836   5838     1  0.0000000  1.2552000  3
   5830   5842   5854   5855     1  0.0000000  0.6508444  3
   5830   5842   5854   5856     1  0.0000000  0.6508444  3
   5831   5830   5829   5833     1  0.0000000  1.2552000  3
   5831   5830   5829   5836     1  0.0000000  1.2552000  3
   5831   5830   5842   5854     1  0.0000000  0.6508444  3
   5831   5830   5842   5843     1  0.0000000  0.6508444  3
   5831   5830   5842   5844     1  0.0000000  0.6508444  3
   5832   5830   5829   5833     1  0.0000000  1.2552000  3
   5832   5830   5829   5836     1  0.0000000  1.2552000  3
   5832   5830   5842   5854     1  0.0000000  0.6508444  3
   5832   5830   5842   5843     1  0.0000000  0.6508444  3
   5832   5830   5842   5844     1  0.0000000  0.6508444  3
   5833   5829   5836   5837     1  0.0000000  1.2552000  3
   5833   5829   5836   5838     1  0.0000000  1.2552000  3
   5833   5845   5851   5852     1  0.0000000  0.6508444  3
   5833   5845   5851   5853     1  0.0000000  0.6508444  3
   5834   5833   5829   5836     1  0.0000000  1.2552000  3
   5834   5833   5845   5851     1  0.0000000  0.6508444  3
   5834   5833   5845   5846     1  0.0000000  0.6508444  3
   5834   5833   5845   5847     1  0.0000000  0.6508444  3
   5835   5833   5829   5836     1  0.0000000  1.2552000  3
   5835   5833   5845   5851     1  0.0000000  0.6508444  3
   5835   5833   5845   5846     1  0.0000000  0.6508444  3
   5835   5833   5845   5847     1  0.0000000  0.6508444  3
   5836   5839   5848   5849     1  0.0000000  0.6508444  3
   5836   5839   5848   5850     1  0.0000000  0.6508444  3
   5837   5836   5839   5848     1  0.0000000  0.6508444  3
   5837   5836   5839   5840     1  0.0000000  0.6508444  3
   5837   5836   5839   5841     1  0.0000000  0.6508444  3
   5838   5836   5839   5848     1  0.0000000  0.6508444  3
   5838   5836   5839   5840     1  0.0000000  0.6508444  3
   5838   5836   5839   5841     1  0.0000000  0.6508444  3
   5840   5839   5848   5857     1  0.0000000  1.0460000  1
   5840   5839   5848   5857     1  0.0000000  0.0000000  3
   5840   5839   5848   5849     1  0.0000000  0.6508444  3
   5840   5839   5848   5850     1  0.0000000  0.6508444  3
   5841   5839   5848   5857     1  0.0000000  1.0460000  1
   5841   5839   5848   5857     1  0.0000000  0.0000000  3
   5841   5839   5848   5849     1  0.0000000  0.6508444  3
   5841   5839   5848   5850     1  0.0000000  0.6508444  3
   5843   5842   5854  11617     1  0.0000000  1.0460000  1
   5843   5842   5854  11617     1  0.0000000  0.0000000  3
   5843   5842   5854   5855     1  0.0000000  0.6508444  3
   5843   5842   5854   5856     1  0.0000000  0.6508444  3
   5844   5842   5854  11617     1  0.0000000  1.0460000  1
   5844   5842   5854  11617     1  0.0000000  0.0000000  3
   5844   5842   5854   5855     1  0.0000000  0.6508444  3
   5844   5842   5854   5856     1  0.0000000  0.6508444  3
   5846   5845   5851  11594     1  0.0000000  1.0460000  1
   5846   5845   5851  11594     1  0.0000000  0.0000000  3
   5846   5845   5851   5852     1  0.0000000  0.6508444  3
   5846   5845   5851   5853     1  0.0000000  0.6508444  3
   5847   5845   5851  11594     1  0.0000000  1.0460000  1
   5847   5845   5851  11594     1  0.0000000  0.0000000  3
   5847   5845   5851   5852     1  0.0000000  0.6508444  3
   5847   5845   5851   5853     1  0.0000000  0.6508444  3
   5851  11594  11590  11593     1  0.0000000  1.6038667  3
   5852   5851  11594  11590     1  0.0000000  1.6038667  3
   5853   5851  11594  11590     1  0.0000000  1.6038667  3
   5854  11617  11613  11616     1  0.0000000  1.6038667  3
   5855   5854  11617  11613     1  0.0000000  1.6038667  3
   5856   5854  11617  11613     1  0.0000000  1.6038667  3
   5858   5859   5871   5872     1  0.0000000  0.6508444  3
   5858   5859   5871   5873     1  0.0000000  0.6508444  3
   5858   5862   5874   5875     1  0.0000000  0.6508444  3
   5858   5862   5874   5876     1  0.0000000  0.6508444  3
   5858   5865   5868   5869     1  0.0000000  0.6508444  3
   5858   5865   5868   5870     1  0.0000000  0.6508444  3
   5859   5858   5862   5863     1  0.0000000  1.2552000  3
   5859   5858   5862   5864     1  0.0000000  1.2552000  3
   5859   5858   5865   5866     1  0.0000000  1.2552000  3
   5859   5858   5865   5867     1  0.0000000  1.2552000  3
   5859   5871   5883   5884     1  0.0000000  0.6508444  3
   5859   5871   5883   5885     1  0.0000000  0.6508444  3
   5860   5859   5858   5862     1  0.0000000  1.2552000  3
   5860   5859   5858   5865     1  0.0000000  1.2552000  3
   5860   5859   5871   5883     1  0.0000000  0.6508444  3
   5860   5859   5871   5872     1  0.0000000  0.6508444  3
   5860   5859   5871   5873     1  0.0000000  0.6508444  3
   5861   5859   5858   5862     1  0.0000000  1.2552000  3
   5861   5859   5858   5865     1  0.0000000  1.2552000  3
   5861   5859   5871   5883     1  0.0000000  0.6508444  3
   5861   5859   5871   5872     1  0.0000000  0.6508444  3
   5861   5859   5871   5873     1  0.0000000  0.6508444  3
   5862   5858   5865   5866     1  0.0000000  1.2552000  3
   5862   5858   5865   5867     1  0.0000000  1.2552000  3
   5862   5874   5880   5881     1  0.0000000  0.6508444  3
   5862   5874   5880   5882     1  0.0000000  0.6508444  3
   5863   5862   5858   5865     1  0.0000000  1.2552000  3
   5863   5862   5874   5880     1  0.0000000  0.6508444  3
   5863   5862   5874   5875     1  0.0000000  0.6508444  3
   5863   5862   5874   5876     1  0.0000000  0.6508444  3
   5864   5862   5858   5865     1  0.0000000  1.2552000  3
   5864   5862   5874   5880     1  0.0000000  0.6508444  3
   5864   5862   5874   5875     1  0.0000000  0.6508444  3
   5864   5862   5874   5876     1  0.0000000  0.6508444  3
   5865   5868   5877   5878     1  0.0000000  0.6508444  3
   5865   5868   5877   5879     1  0.0000000  0.6508444  3
   5866   5865   5868   5877     1  0.0000000  0.6508444  3
   5866   5865   5868   5869     1  0.0000000  0.6508444  3
   5866   5865   5868   5870     1  0.0000000  0.6508444  3
   5867   5865   5868   5877     1  0.0000000  0.6508444  3
   5867   5865   5868   5869     1  0.0000000  0.6508444  3
   5867   5865   5868   5870     1  0.0000000  0.6508444  3
   5869   5868   5877   5886     1  0.0000000  1.0460000  1
   5869   5868   5877   5886     1  0.0000000  0.0000000  3
   5869   5868   5877   5878     1  0.0000000  0.6508444  3
   5869   5868   5877   5879     1  0.0000000  0.6508444  3
   5870   5868   5877   5886     1  0.0000000  1.0460000  1
   5870   5868   5877   5886     1  0.0000000  0.0000000  3
   5870   5868   5877   5878     1  0.0000000  0.6508444  3
   5870   5868   5877   5879     1  0.0000000  0.6508444  3
   5872   5871   5883  11663     1  0.0000000  1.0460000  1
   5872   5871   5883  11663     1  0.0000000  0.0000000  3
   5872   5871   5883   5884     1  0.0000000  0.6508444  3
   5872   5871   5883   5885     1  0.0000000  0.6508444  3
   5873   5871   5883  11663     1  0.0000000  1.0460000  1
   5873   5871   5883  11663     1  0.0000000  0.0000000  3
   5873   5871   5883   5884     1  0.0000000  0.6508444  3
   5873   5871   5883   5885     1  0.0000000  0.6508444  3
   5875   5874   5880  11640     1  0.0000000  1.0460000  1
   5875   5874   5880  11640     1  0.0000000  0.0000000  3
   5875   5874   5880   5881     1  0.0000000  0.6508444  3
   5875   5874   5880   5882     1  0.0000000  0.6508444  3
   5876   5874   5880  11640     1  0.0000000  1.0460000  1
   5876   5874   5880  11640     1  0.0000000  0.0000000  3
   5876   5874   5880   5881     1  0.0000000  0.6508444  3
   5876   5874   5880   5882     1  0.0000000  0.6508444  3
   5880  11640  11636  11639     1  0.0000000  1.6038667  3
   5881   5880  11640  11636     1  0.0000000  1.6038667  3
   5882   5880  11640  11636     1  0.0000000  1.6038667  3
   5883  11663  11659  11662     1  0.0000000  1.6038667  3
   5884   5883  11663  11659     1  0.0000000  1.6038667  3
   5885   5883  11663  11659     1  0.0000000  1.6038667  3
   5887   5888   5900   5901     1  0.0000000  0.6508444  3
   5887   5888   5900   5902     1  0.0000000  0.6508444  3
   5887   5891   5903   5904     1  0.0000000  0.6508444  3
   5887   5891   5903   5905     1  0.0000000  0.6508444  3
   5887   5894   5897   5898     1  0.0000000  0.6508444  3
   5887   5894   5897   5899     1  0.0000000  0.6508444  3
   5888   5887   5891   5892     1  0.0000000  1.2552000  3
   5888   5887   5891   5893     1  0.0000000  1.2552000  3
   5888   5887   5894   5895     1  0.0000000  1.2552000  3
   5888   5887   5894   5896     1  0.0000000  1.2552000  3
   5888   5900   5912   5913     1  0.0000000  0.6508444  3
   5888   5900   5912   5914     1  0.0000000  0.6508444  3
   5889   5888   5887   5891     1  0.0000000  1.2552000  3
   5889   5888   5887   5894     1  0.0000000  1.2552000  3
   5889   5888   5900   5912     1  0.0000000  0.6508444  3
   5889   5888   5900   5901     1  0.0000000  0.6508444  3
   5889   5888   5900   5902     1  0.0000000  0.6508444  3
   5890   5888   5887   5891     1  0.0000000  1.2552000  3
   5890   5888   5887   5894     1  0.0000000  1.2552000  3
   5890   5888   5900   5912     1  0.0000000  0.6508444  3
   5890   5888   5900   5901     1  0.0000000  0.6508444  3
   5890   5888   5900   5902     1  0.0000000  0.6508444  3
   5891   5887   5894   5895     1  0.0000000  1.2552000  3
   5891   5887   5894   5896     1  0.0000000  1.2552000  3
   5891   5903   5909   5910     1  0.0000000  0.6508444  3
   5891   5903   5909   5911     1  0.0000000  0.6508444  3
   5892   5891   5887   5894     1  0.0000000  1.2552000  3
   5892   5891   5903   5909     1  0.0000000  0.6508444  3
   5892   5891   5903   5904     1  0.0000000  0.6508444  3
   5892   5891   5903   5905     1  0.0000000  0.6508444  3
   5893   5891   5887   5894     1  0.0000000  1.2552000  3
   5893   5891   5903   5909     1  0.0000000  0.6508444  3
   5893   5891   5903   5904     1  0.0000000  0.6508444  3
   5893   5891   5903   5905     1  0.0000000  0.6508444  3
   5894   5897   5906   5907     1  0.0000000  0.6508444  3
   5894   5897   5906   5908     1  0.0000000  0.6508444  3
   5895   5894   5897   5906     1  0.0000000  0.6508444  3
   5895   5894   5897   5898     1  0.0000000  0.6508444  3
   5895   5894   5897   5899     1  0.0000000  0.6508444  3
   5896   5894   5897   5906     1  0.0000000  0.6508444  3
   5896   5894   5897   5898     1  0.0000000  0.6508444  3
   5896   5894   5897   5899     1  0.0000000  0.6508444  3
   5898   5897   5906   5915     1  0.0000000  1.0460000  1
   5898   5897   5906   5915     1  0.0000000  0.0000000  3
   5898   5897   5906   5907     1  0.0000000  0.6508444  3
   5898   5897   5906   5908     1  0.0000000  0.6508444  3
   5899   5897   5906   5915     1  0.0000000  1.0460000  1
   5899   5897   5906   5915     1  0.0000000  0.0000000  3
   5899   5897   5906   5907     1  0.0000000  0.6508444  3
   5899   5897   5906   5908     1  0.0000000  0.6508444  3
   5901   5900   5912  11709     1  0.0000000  1.0460000  1
   5901   5900   5912  11709     1  0.0000000  0.0000000  3
   5901   5900   5912   5913     1  0.0000000  0.6508444  3
   5901   5900   5912   5914     1  0.0000000  0.6508444  3
   5902   5900   5912  11709     1  0.0000000  1.0460000  1
   5902   5900   5912  11709     1  0.0000000  0.0000000  3
   5902   5900   5912   5913     1  0.0000000  0.6508444  3
   5902   5900   5912   5914     1  0.0000000  0.6508444  3
   5904   5903   5909  11686     1  0.0000000  1.0460000  1
   5904   5903   5909  11686     1  0.0000000  0.0000000  3
   5904   5903   5909   5910     1  0.0000000  0.6508444  3
   5904   5903   5909   5911     1  0.0000000  0.6508444  3
   5905   5903   5909  11686     1  0.0000000  1.0460000  1
   5905   5903   5909  11686     1  0.0000000  0.0000000  3
   5905   5903   5909   5910     1  0.0000000  0.6508444  3
   5905   5903   5909   5911     1  0.0000000  0.6508444  3
   5909  11686  11682  11685     1  0.0000000  1.6038667  3
   5910   5909  11686  11682     1  0.0000000  1.6038667  3
   5911   5909  11686  11682     1  0.0000000  1.6038667  3
   5912  11709  11705  11708     1  0.0000000  1.6038667  3
   5913   5912  11709  11705     1  0.0000000  1.6038667  3
   5914   5912  11709  11705     1  0.0000000  1.6038667  3
   5916   5917   5929   5930     1  0.0000000  0.6508444  3
   5916   5917   5929   5931     1  0.0000000  0.6508444  3
   5916   5920   5932   5933     1  0.0000000  0.6508444  3
   5916   5920   5932   5934     1  0.0000000  0.6508444  3
   5916   5923   5926   5927     1  0.0000000  0.6508444  3
   5916   5923   5926   5928     1  0.0000000  0.6508444  3
   5917   5916   5920   5921     1  0.0000000  1.2552000  3
   5917   5916   5920   5922     1  0.0000000  1.2552000  3
   5917   5916   5923   5924     1  0.0000000  1.2552000  3
   5917   5916   5923   5925     1  0.0000000  1.2552000  3
   5917   5929   5941   5942     1  0.0000000  0.6508444  3
   5917   5929   5941   5943     1  0.0000000  0.6508444  3
   5918   5917   5916   5920     1  0.0000000  1.2552000  3
   5918   5917   5916   5923     1  0.0000000  1.2552000  3
   5918   5917   5929   5941     1  0.0000000  0.6508444  3
   5918   5917   5929   5930     1  0.0000000  0.6508444  3
   5918   5917   5929   5931     1  0.0000000  0.6508444  3
   5919   5917   5916   5920     1  0.0000000  1.2552000  3
   5919   5917   5916   5923     1  0.0000000  1.2552000  3
   5919   5917   5929   5941     1  0.0000000  0.6508444  3
   5919   5917   5929   5930     1  0.0000000  0.6508444  3
   5919   5917   5929   5931     1  0.0000000  0.6508444  3
   5920   5916   5923   5924     1  0.0000000  1.2552000  3
   5920   5916   5923   5925     1  0.0000000  1.2552000  3
   5920   5932   5938   5939     1  0.0000000  0.6508444  3
   5920   5932   5938   5940     1  0.0000000  0.6508444  3
   5921   5920   5916   5923     1  0.0000000  1.2552000  3
   5921   5920   5932   5938     1  0.0000000  0.6508444  3
   5921   5920   5932   5933     1  0.0000000  0.6508444  3
   5921   5920   5932   5934     1  0.0000000  0.6508444  3
   5922   5920   5916   5923     1  0.0000000  1.2552000  3
   5922   5920   5932   5938     1  0.0000000  0.6508444  3
   5922   5920   5932   5933     1  0.0000000  0.6508444  3
   5922   5920   5932   5934     1  0.0000000  0.6508444  3
   5923   5926   5935   5936     1  0.0000000  0.6508444  3
   5923   5926   5935   5937     1  0.0000000  0.6508444  3
   5924   5923   5926   5935     1  0.0000000  0.6508444  3
   5924   5923   5926   5927     1  0.0000000  0.6508444  3
   5924   5923   5926   5928     1  0.0000000  0.6508444  3
   5925   5923   5926   5935     1  0.0000000  0.6508444  3
   5925   5923   5926   5927     1  0.0000000  0.6508444  3
   5925   5923   5926   5928     1  0.0000000  0.6508444  3
   5927   5926   5935   5944     1  0.0000000  1.0460000  1
   5927   5926   5935   5944     1  0.0000000  0.0000000  3
   5927   5926   5935   5936     1  0.0000000  0.6508444  3
   5927   5926   5935   5937     1  0.0000000  0.6508444  3
   5928   5926   5935   5944     1  0.0000000  1.0460000  1
   5928   5926   5935   5944     1  0.0000000  0.0000000  3
   5928   5926   5935   5936     1  0.0000000  0.6508444  3
   5928   5926   5935   5937     1  0.0000000  0.6508444  3
   5930   5929   5941  11755     1  0.0000000  1.0460000  1
   5930   5929   5941  11755     1  0.0000000  0.0000000  3
   5930   5929   5941   5942     1  0.0000000  0.6508444  3
   5930   5929   5941   5943     1  0.0000000  0.6508444  3
   5931   5929   5941  11755     1  0.0000000  1.0460000  1
   5931   5929   5941  11755     1  0.0000000  0.0000000  3
   5931   5929   5941   5942     1  0.0000000  0.6508444  3
   5931   5929   5941   5943     1  0.0000000  0.6508444  3
   5933   5932   5938  11732     1  0.0000000  1.0460000  1
   5933   5932   5938  11732     1  0.0000000  0.0000000  3
   5933   5932   5938   5939     1  0.0000000  0.6508444  3
   5933   5932   5938   5940     1  0.0000000  0.6508444  3
   5934   5932   5938  11732     1  0.0000000  1.0460000  1
   5934   5932   5938  11732     1  0.0000000  0.0000000  3
   5934   5932   5938   5939     1  0.0000000  0.6508444  3
   5934   5932   5938   5940     1  0.0000000  0.6508444  3
   5938  11732  11728  11731     1  0.0000000  1.6038667  3
   5939   5938  11732  11728     1  0.0000000  1.6038667  3
   5940   5938  11732  11728     1  0.0000000  1.6038667  3
   5941  11755  11751  11754     1  0.0000000  1.6038667  3
   5942   5941  11755  11751     1  0.0000000  1.6038667  3
   5943   5941  11755  11751     1  0.0000000  1.6038667  3
   5945   5946   5958   5959     1  0.0000000  0.6508444  3
   5945   5946   5958   5960     1  0.0000000  0.6508444  3
   5945   5949   5961   5962     1  0.0000000  0.6508444  3
   5945   5949   5961   5963     1  0.0000000  0.6508444  3
   5945   5952   5955   5956     1  0.0000000  0.6508444  3
   5945   5952   5955   5957     1  0.0000000  0.6508444  3
   5946   5945   5949   5950     1  0.0000000  1.2552000  3
   5946   5945   5949   5951     1  0.0000000  1.2552000  3
   5946   5945   5952   5953     1  0.0000000  1.2552000  3
   5946   5945   5952   5954     1  0.0000000  1.2552000  3
   5946   5958   5970   5971     1  0.0000000  0.6508444  3
   5946   5958   5970   5972     1  0.0000000  0.6508444  3
   5947   5946   5945   5949     1  0.0000000  1.2552000  3
   5947   5946   5945   5952     1  0.0000000  1.2552000  3
   5947   5946   5958   5970     1  0.0000000  0.6508444  3
   5947   5946   5958   5959     1  0.0000000  0.6508444  3
   5947   5946   5958   5960     1  0.0000000  0.6508444  3
   5948   5946   5945   5949     1  0.0000000  1.2552000  3
   5948   5946   5945   5952     1  0.0000000  1.2552000  3
   5948   5946   5958   5970     1  0.0000000  0.6508444  3
   5948   5946   5958   5959     1  0.0000000  0.6508444  3
   5948   5946   5958   5960     1  0.0000000  0.6508444  3
   5949   5945   5952   5953     1  0.0000000  1.2552000  3
   5949   5945   5952   5954     1  0.0000000  1.2552000  3
   5949   5961   5967   5968     1  0.0000000  0.6508444  3
   5949   5961   5967   5969     1  0.0000000  0.6508444  3
   5950   5949   5945   5952     1  0.0000000  1.2552000  3
   5950   5949   5961   5967     1  0.0000000  0.6508444  3
   5950   5949   5961   5962     1  0.0000000  0.6508444  3
   5950   5949   5961   5963     1  0.0000000  0.6508444  3
   5951   5949   5945   5952     1  0.0000000  1.2552000  3
   5951   5949   5961   5967     1  0.0000000  0.6508444  3
   5951   5949   5961   5962     1  0.0000000  0.6508444  3
   5951   5949   5961   5963     1  0.0000000  0.6508444  3
   5952   5955   5964   5965     1  0.0000000  0.6508444  3
   5952   5955   5964   5966     1  0.0000000  0.6508444  3
   5953   5952   5955   5964     1  0.0000000  0.6508444  3
   5953   5952   5955   5956     1  0.0000000  0.6508444  3
   5953   5952   5955   5957     1  0.0000000  0.6508444  3
   5954   5952   5955   5964     1  0.0000000  0.6508444  3
   5954   5952   5955   5956     1  0.0000000  0.6508444  3
   5954   5952   5955   5957     1  0.0000000  0.6508444  3
   5956   5955   5964   5973     1  0.0000000  1.0460000  1
   5956   5955   5964   5973     1  0.0000000  0.0000000  3
   5956   5955   5964   5965     1  0.0000000  0.6508444  3
   5956   5955   5964   5966     1  0.0000000  0.6508444  3
   5957   5955   5964   5973     1  0.0000000  1.0460000  1
   5957   5955   5964   5973     1  0.0000000  0.0000000  3
   5957   5955   5964   5965     1  0.0000000  0.6508444  3
   5957   5955   5964   5966     1  0.0000000  0.6508444  3
   5959   5958   5970  11801     1  0.0000000  1.0460000  1
   5959   5958   5970  11801     1  0.0000000  0.0000000  3
   5959   5958   5970   5971     1  0.0000000  0.6508444  3
   5959   5958   5970   5972     1  0.0000000  0.6508444  3
   5960   5958   5970  11801     1  0.0000000  1.0460000  1
   5960   5958   5970  11801     1  0.0000000  0.0000000  3
   5960   5958   5970   5971     1  0.0000000  0.6508444  3
   5960   5958   5970   5972     1  0.0000000  0.6508444  3
   5962   5961   5967  11778     1  0.0000000  1.0460000  1
   5962   5961   5967  11778     1  0.0000000  0.0000000  3
   5962   5961   5967   5968     1  0.0000000  0.6508444  3
   5962   5961   5967   5969     1  0.0000000  0.6508444  3
   5963   5961   5967  11778     1  0.0000000  1.0460000  1
   5963   5961   5967  11778     1  0.0000000  0.0000000  3
   5963   5961   5967   5968     1  0.0000000  0.6508444  3
   5963   5961   5967   5969     1  0.0000000  0.6508444  3
   5967  11778  11774  11777     1  0.0000000  1.6038667  3
   5968   5967  11778  11774     1  0.0000000  1.6038667  3
   5969   5967  11778  11774     1  0.0000000  1.6038667  3
   5970  11801  11797  11800     1  0.0000000  1.6038667  3
   5971   5970  11801  11797     1  0.0000000  1.6038667  3
   5972   5970  11801  11797     1  0.0000000  1.6038667  3
   5974   5975   5987   5988     1  0.0000000  0.6508444  3
   5974   5975   5987   5989     1  0.0000000  0.6508444  3
   5974   5978   5990   5991     1  0.0000000  0.6508444  3
   5974   5978   5990   5992     1  0.0000000  0.6508444  3
   5974   5981   5984   5985     1  0.0000000  0.6508444  3
   5974   5981   5984   5986     1  0.0000000  0.6508444  3
   5975   5974   5978   5979     1  0.0000000  1.2552000  3
   5975   5974   5978   5980     1  0.0000000  1.2552000  3
   5975   5974   5981   5982     1  0.0000000  1.2552000  3
   5975   5974   5981   5983     1  0.0000000  1.2552000  3
   5975   5987   5999   6000     1  0.0000000  0.6508444  3
   5975   5987   5999   6001     1  0.0000000  0.6508444  3
   5976   5975   5974   5978     1  0.0000000  1.2552000  3
   5976   5975   5974   5981     1  0.0000000  1.2552000  3
   5976   5975   5987   5999     1  0.0000000  0.6508444  3
   5976   5975   5987   5988     1  0.0000000  0.6508444  3
   5976   5975   5987   5989     1  0.0000000  0.6508444  3
   5977   5975   5974   5978     1  0.0000000  1.2552000  3
   5977   5975   5974   5981     1  0.0000000  1.2552000  3
   5977   5975   5987   5999     1  0.0000000  0.6508444  3
   5977   5975   5987   5988     1  0.0000000  0.6508444  3
   5977   5975   5987   5989     1  0.0000000  0.6508444  3
   5978   5974   5981   5982     1  0.0000000  1.2552000  3
   5978   5974   5981   5983     1  0.0000000  1.2552000  3
   5978   5990   5996   5997     1  0.0000000  0.6508444  3
   5978   5990   5996   5998     1  0.0000000  0.6508444  3
   5979   5978   5974   5981     1  0.0000000  1.2552000  3
   5979   5978   5990   5996     1  0.0000000  0.6508444  3
   5979   5978   5990   5991     1  0.0000000  0.6508444  3
   5979   5978   5990   5992     1  0.0000000  0.6508444  3
   5980   5978   5974   5981     1  0.0000000  1.2552000  3
   5980   5978   5990   5996     1  0.0000000  0.6508444  3
   5980   5978   5990   5991     1  0.0000000  0.6508444  3
   5980   5978   5990   5992     1  0.0000000  0.6508444  3
   5981   5984   5993   5994     1  0.0000000  0.6508444  3
   5981   5984   5993   5995     1  0.0000000  0.6508444  3
   5982   5981   5984   5993     1  0.0000000  0.6508444  3
   5982   5981   5984   5985     1  0.0000000  0.6508444  3
   5982   5981   5984   5986     1  0.0000000  0.6508444  3
   5983   5981   5984   5993     1  0.0000000  0.6508444  3
   5983   5981   5984   5985     1  0.0000000  0.6508444  3
   5983   5981   5984   5986     1  0.0000000  0.6508444  3
   5985   5984   5993   6002     1  0.0000000  1.0460000  1
   5985   5984   5993   6002     1  0.0000000  0.0000000  3
   5985   5984   5993   5994     1  0.0000000  0.6508444  3
   5985   5984   5993   5995     1  0.0000000  0.6508444  3
   5986   5984   5993   6002     1  0.0000000  1.0460000  1
   5986   5984   5993   6002     1  0.0000000  0.0000000  3
   5986   5984   5993   5994     1  0.0000000  0.6508444  3
   5986   5984   5993   5995     1  0.0000000  0.6508444  3
   5988   5987   5999  11847     1  0.0000000  1.0460000  1
   5988   5987   5999  11847     1  0.0000000  0.0000000  3
   5988   5987   5999   6000     1  0.0000000  0.6508444  3
   5988   5987   5999   6001     1  0.0000000  0.6508444  3
   5989   5987   5999  11847     1  0.0000000  1.0460000  1
   5989   5987   5999  11847     1  0.0000000  0.0000000  3
   5989   5987   5999   6000     1  0.0000000  0.6508444  3
   5989   5987   5999   6001     1  0.0000000  0.6508444  3
   5991   5990   5996  11824     1  0.0000000  1.0460000  1
   5991   5990   5996  11824     1  0.0000000  0.0000000  3
   5991   5990   5996   5997     1  0.0000000  0.6508444  3
   5991   5990   5996   5998     1  0.0000000  0.6508444  3
   5992   5990   5996  11824     1  0.0000000  1.0460000  1
   5992   5990   5996  11824     1  0.0000000  0.0000000  3
   5992   5990   5996   5997     1  0.0000000  0.6508444  3
   5992   5990   5996   5998     1  0.0000000  0.6508444  3
   5996  11824  11820  11823     1  0.0000000  1.6038667  3
   5997   5996  11824  11820     1  0.0000000  1.6038667  3
   5998   5996  11824  11820     1  0.0000000  1.6038667  3
   5999  11847  11843  11846     1  0.0000000  1.6038667  3
   6000   5999  11847  11843     1  0.0000000  1.6038667  3
   6001   5999  11847  11843     1  0.0000000  1.6038667  3
   6003   6004   6016   6017     1  0.0000000  0.6508444  3
   6003   6004   6016   6018     1  0.0000000  0.6508444  3
   6003   6007   6019   6020     1  0.0000000  0.6508444  3
   6003   6007   6019   6021     1  0.0000000  0.6508444  3
   6003   6010   6013   6014     1  0.0000000  0.6508444  3
   6003   6010   6013   6015     1  0.0000000  0.6508444  3
   6004   6003   6007   6008     1  0.0000000  1.2552000  3
   6004   6003   6007   6009     1  0.0000000  1.2552000  3
   6004   6003   6010   6011     1  0.0000000  1.2552000  3
   6004   6003   6010   6012     1  0.0000000  1.2552000  3
   6004   6016   6028   6029     1  0.0000000  0.6508444  3
   6004   6016   6028   6030     1  0.0000000  0.6508444  3
   6005   6004   6003   6007     1  0.0000000  1.2552000  3
   6005   6004   6003   6010     1  0.0000000  1.2552000  3
   6005   6004   6016   6028     1  0.0000000  0.6508444  3
   6005   6004   6016   6017     1  0.0000000  0.6508444  3
   6005   6004   6016   6018     1  0.0000000  0.6508444  3
   6006   6004   6003   6007     1  0.0000000  1.2552000  3
   6006   6004   6003   6010     1  0.0000000  1.2552000  3
   6006   6004   6016   6028     1  0.0000000  0.6508444  3
   6006   6004   6016   6017     1  0.0000000  0.6508444  3
   6006   6004   6016   6018     1  0.0000000  0.6508444  3
   6007   6003   6010   6011     1  0.0000000  1.2552000  3
   6007   6003   6010   6012     1  0.0000000  1.2552000  3
   6007   6019   6025   6026     1  0.0000000  0.6508444  3
   6007   6019   6025   6027     1  0.0000000  0.6508444  3
   6008   6007   6003   6010     1  0.0000000  1.2552000  3
   6008   6007   6019   6025     1  0.0000000  0.6508444  3
   6008   6007   6019   6020     1  0.0000000  0.6508444  3
   6008   6007   6019   6021     1  0.0000000  0.6508444  3
   6009   6007   6003   6010     1  0.0000000  1.2552000  3
   6009   6007   6019   6025     1  0.0000000  0.6508444  3
   6009   6007   6019   6020     1  0.0000000  0.6508444  3
   6009   6007   6019   6021     1  0.0000000  0.6508444  3
   6010   6013   6022   6023     1  0.0000000  0.6508444  3
   6010   6013   6022   6024     1  0.0000000  0.6508444  3
   6011   6010   6013   6022     1  0.0000000  0.6508444  3
   6011   6010   6013   6014     1  0.0000000  0.6508444  3
   6011   6010   6013   6015     1  0.0000000  0.6508444  3
   6012   6010   6013   6022     1  0.0000000  0.6508444  3
   6012   6010   6013   6014     1  0.0000000  0.6508444  3
   6012   6010   6013   6015     1  0.0000000  0.6508444  3
   6014   6013   6022   6031     1  0.0000000  1.0460000  1
   6014   6013   6022   6031     1  0.0000000  0.0000000  3
   6014   6013   6022   6023     1  0.0000000  0.6508444  3
   6014   6013   6022   6024     1  0.0000000  0.6508444  3
   6015   6013   6022   6031     1  0.0000000  1.0460000  1
   6015   6013   6022   6031     1  0.0000000  0.0000000  3
   6015   6013   6022   6023     1  0.0000000  0.6508444  3
   6015   6013   6022   6024     1  0.0000000  0.6508444  3
   6017   6016   6028  11893     1  0.0000000  1.0460000  1
   6017   6016   6028  11893     1  0.0000000  0.0000000  3
   6017   6016   6028   6029     1  0.0000000  0.6508444  3
   6017   6016   6028   6030     1  0.0000000  0.6508444  3
   6018   6016   6028  11893     1  0.0000000  1.0460000  1
   6018   6016   6028  11893     1  0.0000000  0.0000000  3
   6018   6016   6028   6029     1  0.0000000  0.6508444  3
   6018   6016   6028   6030     1  0.0000000  0.6508444  3
   6020   6019   6025  11870     1  0.0000000  1.0460000  1
   6020   6019   6025  11870     1  0.0000000  0.0000000  3
   6020   6019   6025   6026     1  0.0000000  0.6508444  3
   6020   6019   6025   6027     1  0.0000000  0.6508444  3
   6021   6019   6025  11870     1  0.0000000  1.0460000  1
   6021   6019   6025  11870     1  0.0000000  0.0000000  3
   6021   6019   6025   6026     1  0.0000000  0.6508444  3
   6021   6019   6025   6027     1  0.0000000  0.6508444  3
   6025  11870  11866  11869     1  0.0000000  1.6038667  3
   6026   6025  11870  11866     1  0.0000000  1.6038667  3
   6027   6025  11870  11866     1  0.0000000  1.6038667  3
   6028  11893  11889  11892     1  0.0000000  1.6038667  3
   6029   6028  11893  11889     1  0.0000000  1.6038667  3
   6030   6028  11893  11889     1  0.0000000  1.6038667  3
   6032   6033   6045   6046     1  0.0000000  0.6508444  3
   6032   6033   6045   6047     1  0.0000000  0.6508444  3
   6032   6036   6048   6049     1  0.0000000  0.6508444  3
   6032   6036   6048   6050     1  0.0000000  0.6508444  3
   6032   6039   6042   6043     1  0.0000000  0.6508444  3
   6032   6039   6042   6044     1  0.0000000  0.6508444  3
   6033   6032   6036   6037     1  0.0000000  1.2552000  3
   6033   6032   6036   6038     1  0.0000000  1.2552000  3
   6033   6032   6039   6040     1  0.0000000  1.2552000  3
   6033   6032   6039   6041     1  0.0000000  1.2552000  3
   6033   6045   6057   6058     1  0.0000000  0.6508444  3
   6033   6045   6057   6059     1  0.0000000  0.6508444  3
   6034   6033   6032   6036     1  0.0000000  1.2552000  3
   6034   6033   6032   6039     1  0.0000000  1.2552000  3
   6034   6033   6045   6057     1  0.0000000  0.6508444  3
   6034   6033   6045   6046     1  0.0000000  0.6508444  3
   6034   6033   6045   6047     1  0.0000000  0.6508444  3
   6035   6033   6032   6036     1  0.0000000  1.2552000  3
   6035   6033   6032   6039     1  0.0000000  1.2552000  3
   6035   6033   6045   6057     1  0.0000000  0.6508444  3
   6035   6033   6045   6046     1  0.0000000  0.6508444  3
   6035   6033   6045   6047     1  0.0000000  0.6508444  3
   6036   6032   6039   6040     1  0.0000000  1.2552000  3
   6036   6032   6039   6041     1  0.0000000  1.2552000  3
   6036   6048   6054   6055     1  0.0000000  0.6508444  3
   6036   6048   6054   6056     1  0.0000000  0.6508444  3
   6037   6036   6032   6039     1  0.0000000  1.2552000  3
   6037   6036   6048   6054     1  0.0000000  0.6508444  3
   6037   6036   6048   6049     1  0.0000000  0.6508444  3
   6037   6036   6048   6050     1  0.0000000  0.6508444  3
   6038   6036   6032   6039     1  0.0000000  1.2552000  3
   6038   6036   6048   6054     1  0.0000000  0.6508444  3
   6038   6036   6048   6049     1  0.0000000  0.6508444  3
   6038   6036   6048   6050     1  0.0000000  0.6508444  3
   6039   6042   6051   6052     1  0.0000000  0.6508444  3
   6039   6042   6051   6053     1  0.0000000  0.6508444  3
   6040   6039   6042   6051     1  0.0000000  0.6508444  3
   6040   6039   6042   6043     1  0.0000000  0.6508444  3
   6040   6039   6042   6044     1  0.0000000  0.6508444  3
   6041   6039   6042   6051     1  0.0000000  0.6508444  3
   6041   6039   6042   6043     1  0.0000000  0.6508444  3
   6041   6039   6042   6044     1  0.0000000  0.6508444  3
   6043   6042   6051   6060     1  0.0000000  1.0460000  1
   6043   6042   6051   6060     1  0.0000000  0.0000000  3
   6043   6042   6051   6052     1  0.0000000  0.6508444  3
   6043   6042   6051   6053     1  0.0000000  0.6508444  3
   6044   6042   6051   6060     1  0.0000000  1.0460000  1
   6044   6042   6051   6060     1  0.0000000  0.0000000  3
   6044   6042   6051   6052     1  0.0000000  0.6508444  3
   6044   6042   6051   6053     1  0.0000000  0.6508444  3
   6046   6045   6057  11939     1  0.0000000  1.0460000  1
   6046   6045   6057  11939     1  0.0000000  0.0000000  3
   6046   6045   6057   6058     1  0.0000000  0.6508444  3
   6046   6045   6057   6059     1  0.0000000  0.6508444  3
   6047   6045   6057  11939     1  0.0000000  1.0460000  1
   6047   6045   6057  11939     1  0.0000000  0.0000000  3
   6047   6045   6057   6058     1  0.0000000  0.6508444  3
   6047   6045   6057   6059     1  0.0000000  0.6508444  3
   6049   6048   6054  11916     1  0.0000000  1.0460000  1
   6049   6048   6054  11916     1  0.0000000  0.0000000  3
   6049   6048   6054   6055     1  0.0000000  0.6508444  3
   6049   6048   6054   6056     1  0.0000000  0.6508444  3
   6050   6048   6054  11916     1  0.0000000  1.0460000  1
   6050   6048   6054  11916     1  0.0000000  0.0000000  3
   6050   6048   6054   6055     1  0.0000000  0.6508444  3
   6050   6048   6054   6056     1  0.0000000  0.6508444  3
   6054  11916  11912  11915     1  0.0000000  1.6038667  3
   6055   6054  11916  11912     1  0.0000000  1.6038667  3
   6056   6054  11916  11912     1  0.0000000  1.6038667  3
   6057  11939  11935  11938     1  0.0000000  1.6038667  3
   6058   6057  11939  11935     1  0.0000000  1.6038667  3
   6059   6057  11939  11935     1  0.0000000  1.6038667  3
   6061   6062   6074   6075     1  0.0000000  0.6508444  3
   6061   6062   6074   6076     1  0.0000000  0.6508444  3
   6061   6065   6077   6078     1  0.0000000  0.6508444  3
   6061   6065   6077   6079     1  0.0000000  0.6508444  3
   6061   6068   6071   6072     1  0.0000000  0.6508444  3
   6061   6068   6071   6073     1  0.0000000  0.6508444  3
   6062   6061   6065   6066     1  0.0000000  1.2552000  3
   6062   6061   6065   6067     1  0.0000000  1.2552000  3
   6062   6061   6068   6069     1  0.0000000  1.2552000  3
   6062   6061   6068   6070     1  0.0000000  1.2552000  3
   6062   6074   6086   6087     1  0.0000000  0.6508444  3
   6062   6074   6086   6088     1  0.0000000  0.6508444  3
   6063   6062   6061   6065     1  0.0000000  1.2552000  3
   6063   6062   6061   6068     1  0.0000000  1.2552000  3
   6063   6062   6074   6086     1  0.0000000  0.6508444  3
   6063   6062   6074   6075     1  0.0000000  0.6508444  3
   6063   6062   6074   6076     1  0.0000000  0.6508444  3
   6064   6062   6061   6065     1  0.0000000  1.2552000  3
   6064   6062   6061   6068     1  0.0000000  1.2552000  3
   6064   6062   6074   6086     1  0.0000000  0.6508444  3
   6064   6062   6074   6075     1  0.0000000  0.6508444  3
   6064   6062   6074   6076     1  0.0000000  0.6508444  3
   6065   6061   6068   6069     1  0.0000000  1.2552000  3
   6065   6061   6068   6070     1  0.0000000  1.2552000  3
   6065   6077   6083   6084     1  0.0000000  0.6508444  3
   6065   6077   6083   6085     1  0.0000000  0.6508444  3
   6066   6065   6061   6068     1  0.0000000  1.2552000  3
   6066   6065   6077   6083     1  0.0000000  0.6508444  3
   6066   6065   6077   6078     1  0.0000000  0.6508444  3
   6066   6065   6077   6079     1  0.0000000  0.6508444  3
   6067   6065   6061   6068     1  0.0000000  1.2552000  3
   6067   6065   6077   6083     1  0.0000000  0.6508444  3
   6067   6065   6077   6078     1  0.0000000  0.6508444  3
   6067   6065   6077   6079     1  0.0000000  0.6508444  3
   6068   6071   6080   6081     1  0.0000000  0.6508444  3
   6068   6071   6080   6082     1  0.0000000  0.6508444  3
   6069   6068   6071   6080     1  0.0000000  0.6508444  3
   6069   6068   6071   6072     1  0.0000000  0.6508444  3
   6069   6068   6071   6073     1  0.0000000  0.6508444  3
   6070   6068   6071   6080     1  0.0000000  0.6508444  3
   6070   6068   6071   6072     1  0.0000000  0.6508444  3
   6070   6068   6071   6073     1  0.0000000  0.6508444  3
   6072   6071   6080   6089     1  0.0000000  1.0460000  1
   6072   6071   6080   6089     1  0.0000000  0.0000000  3
   6072   6071   6080   6081     1  0.0000000  0.6508444  3
   6072   6071   6080   6082     1  0.0000000  0.6508444  3
   6073   6071   6080   6089     1  0.0000000  1.0460000  1
   6073   6071   6080   6089     1  0.0000000  0.0000000  3
   6073   6071   6080   6081     1  0.0000000  0.6508444  3
   6073   6071   6080   6082     1  0.0000000  0.6508444  3
   6075   6074   6086  11985     1  0.0000000  1.0460000  1
   6075   6074   6086  11985     1  0.0000000  0.0000000  3
   6075   6074   6086   6087     1  0.0000000  0.6508444  3
   6075   6074   6086   6088     1  0.0000000  0.6508444  3
   6076   6074   6086  11985     1  0.0000000  1.0460000  1
   6076   6074   6086  11985     1  0.0000000  0.0000000  3
   6076   6074   6086   6087     1  0.0000000  0.6508444  3
   6076   6074   6086   6088     1  0.0000000  0.6508444  3
   6078   6077   6083  11962     1  0.0000000  1.0460000  1
   6078   6077   6083  11962     1  0.0000000  0.0000000  3
   6078   6077   6083   6084     1  0.0000000  0.6508444  3
   6078   6077   6083   6085     1  0.0000000  0.6508444  3
   6079   6077   6083  11962     1  0.0000000  1.0460000  1
   6079   6077   6083  11962     1  0.0000000  0.0000000  3
   6079   6077   6083   6084     1  0.0000000  0.6508444  3
   6079   6077   6083   6085     1  0.0000000  0.6508444  3
   6083  11962  11958  11961     1  0.0000000  1.6038667  3
   6084   6083  11962  11958     1  0.0000000  1.6038667  3
   6085   6083  11962  11958     1  0.0000000  1.6038667  3
   6086  11985  11981  11984     1  0.0000000  1.6038667  3
   6087   6086  11985  11981     1  0.0000000  1.6038667  3
   6088   6086  11985  11981     1  0.0000000  1.6038667  3
   6090   6091   6103   6104     1  0.0000000  0.6508444  3
   6090   6091   6103   6105     1  0.0000000  0.6508444  3
   6090   6094   6106   6107     1  0.0000000  0.6508444  3
   6090   6094   6106   6108     1  0.0000000  0.6508444  3
   6090   6097   6100   6101     1  0.0000000  0.6508444  3
   6090   6097   6100   6102     1  0.0000000  0.6508444  3
   6091   6090   6094   6095     1  0.0000000  1.2552000  3
   6091   6090   6094   6096     1  0.0000000  1.2552000  3
   6091   6090   6097   6098     1  0.0000000  1.2552000  3
   6091   6090   6097   6099     1  0.0000000  1.2552000  3
   6091   6103   6115   6116     1  0.0000000  0.6508444  3
   6091   6103   6115   6117     1  0.0000000  0.6508444  3
   6092   6091   6090   6094     1  0.0000000  1.2552000  3
   6092   6091   6090   6097     1  0.0000000  1.2552000  3
   6092   6091   6103   6115     1  0.0000000  0.6508444  3
   6092   6091   6103   6104     1  0.0000000  0.6508444  3
   6092   6091   6103   6105     1  0.0000000  0.6508444  3
   6093   6091   6090   6094     1  0.0000000  1.2552000  3
   6093   6091   6090   6097     1  0.0000000  1.2552000  3
   6093   6091   6103   6115     1  0.0000000  0.6508444  3
   6093   6091   6103   6104     1  0.0000000  0.6508444  3
   6093   6091   6103   6105     1  0.0000000  0.6508444  3
   6094   6090   6097   6098     1  0.0000000  1.2552000  3
   6094   6090   6097   6099     1  0.0000000  1.2552000  3
   6094   6106   6112   6113     1  0.0000000  0.6508444  3
   6094   6106   6112   6114     1  0.0000000  0.6508444  3
   6095   6094   6090   6097     1  0.0000000  1.2552000  3
   6095   6094   6106   6112     1  0.0000000  0.6508444  3
   6095   6094   6106   6107     1  0.0000000  0.6508444  3
   6095   6094   6106   6108     1  0.0000000  0.6508444  3
   6096   6094   6090   6097     1  0.0000000  1.2552000  3
   6096   6094   6106   6112     1  0.0000000  0.6508444  3
   6096   6094   6106   6107     1  0.0000000  0.6508444  3
   6096   6094   6106   6108     1  0.0000000  0.6508444  3
   6097   6100   6109   6110     1  0.0000000  0.6508444  3
   6097   6100   6109   6111     1  0.0000000  0.6508444  3
   6098   6097   6100   6109     1  0.0000000  0.6508444  3
   6098   6097   6100   6101     1  0.0000000  0.6508444  3
   6098   6097   6100   6102     1  0.0000000  0.6508444  3
   6099   6097   6100   6109     1  0.0000000  0.6508444  3
   6099   6097   6100   6101     1  0.0000000  0.6508444  3
   6099   6097   6100   6102     1  0.0000000  0.6508444  3
   6101   6100   6109   6118     1  0.0000000  1.0460000  1
   6101   6100   6109   6118     1  0.0000000  0.0000000  3
   6101   6100   6109   6110     1  0.0000000  0.6508444  3
   6101   6100   6109   6111     1  0.0000000  0.6508444  3
   6102   6100   6109   6118     1  0.0000000  1.0460000  1
   6102   6100   6109   6118     1  0.0000000  0.0000000  3
   6102   6100   6109   6110     1  0.0000000  0.6508444  3
   6102   6100   6109   6111     1  0.0000000  0.6508444  3
   6104   6103   6115  12031     1  0.0000000  1.0460000  1
   6104   6103   6115  12031     1  0.0000000  0.0000000  3
   6104   6103   6115   6116     1  0.0000000  0.6508444  3
   6104   6103   6115   6117     1  0.0000000  0.6508444  3
   6105   6103   6115  12031     1  0.0000000  1.0460000  1
   6105   6103   6115  12031     1  0.0000000  0.0000000  3
   6105   6103   6115   6116     1  0.0000000  0.6508444  3
   6105   6103   6115   6117     1  0.0000000  0.6508444  3
   6107   6106   6112  12008     1  0.0000000  1.0460000  1
   6107   6106   6112  12008     1  0.0000000  0.0000000  3
   6107   6106   6112   6113     1  0.0000000  0.6508444  3
   6107   6106   6112   6114     1  0.0000000  0.6508444  3
   6108   6106   6112  12008     1  0.0000000  1.0460000  1
   6108   6106   6112  12008     1  0.0000000  0.0000000  3
   6108   6106   6112   6113     1  0.0000000  0.6508444  3
   6108   6106   6112   6114     1  0.0000000  0.6508444  3
   6112  12008  12004  12007     1  0.0000000  1.6038667  3
   6113   6112  12008  12004     1  0.0000000  1.6038667  3
   6114   6112  12008  12004     1  0.0000000  1.6038667  3
   6115  12031  12027  12030     1  0.0000000  1.6038667  3
   6116   6115  12031  12027     1  0.0000000  1.6038667  3
   6117   6115  12031  12027     1  0.0000000  1.6038667  3
   6119   6120   6132   6133     1  0.0000000  0.6508444  3
   6119   6120   6132   6134     1  0.0000000  0.6508444  3
   6119   6123   6135   6136     1  0.0000000  0.6508444  3
   6119   6123   6135   6137     1  0.0000000  0.6508444  3
   6119   6126   6129   6130     1  0.0000000  0.6508444  3
   6119   6126   6129   6131     1  0.0000000  0.6508444  3
   6120   6119   6123   6124     1  0.0000000  1.2552000  3
   6120   6119   6123   6125     1  0.0000000  1.2552000  3
   6120   6119   6126   6127     1  0.0000000  1.2552000  3
   6120   6119   6126   6128     1  0.0000000  1.2552000  3
   6120   6132   6144   6145     1  0.0000000  0.6508444  3
   6120   6132   6144   6146     1  0.0000000  0.6508444  3
   6121   6120   6119   6123     1  0.0000000  1.2552000  3
   6121   6120   6119   6126     1  0.0000000  1.2552000  3
   6121   6120   6132   6144     1  0.0000000  0.6508444  3
   6121   6120   6132   6133     1  0.0000000  0.6508444  3
   6121   6120   6132   6134     1  0.0000000  0.6508444  3
   6122   6120   6119   6123     1  0.0000000  1.2552000  3
   6122   6120   6119   6126     1  0.0000000  1.2552000  3
   6122   6120   6132   6144     1  0.0000000  0.6508444  3
   6122   6120   6132   6133     1  0.0000000  0.6508444  3
   6122   6120   6132   6134     1  0.0000000  0.6508444  3
   6123   6119   6126   6127     1  0.0000000  1.2552000  3
   6123   6119   6126   6128     1  0.0000000  1.2552000  3
   6123   6135   6141   6142     1  0.0000000  0.6508444  3
   6123   6135   6141   6143     1  0.0000000  0.6508444  3
   6124   6123   6119   6126     1  0.0000000  1.2552000  3
   6124   6123   6135   6141     1  0.0000000  0.6508444  3
   6124   6123   6135   6136     1  0.0000000  0.6508444  3
   6124   6123   6135   6137     1  0.0000000  0.6508444  3
   6125   6123   6119   6126     1  0.0000000  1.2552000  3
   6125   6123   6135   6141     1  0.0000000  0.6508444  3
   6125   6123   6135   6136     1  0.0000000  0.6508444  3
   6125   6123   6135   6137     1  0.0000000  0.6508444  3
   6126   6129   6138   6139     1  0.0000000  0.6508444  3
   6126   6129   6138   6140     1  0.0000000  0.6508444  3
   6127   6126   6129   6138     1  0.0000000  0.6508444  3
   6127   6126   6129   6130     1  0.0000000  0.6508444  3
   6127   6126   6129   6131     1  0.0000000  0.6508444  3
   6128   6126   6129   6138     1  0.0000000  0.6508444  3
   6128   6126   6129   6130     1  0.0000000  0.6508444  3
   6128   6126   6129   6131     1  0.0000000  0.6508444  3
   6130   6129   6138   6147     1  0.0000000  1.0460000  1
   6130   6129   6138   6147     1  0.0000000  0.0000000  3
   6130   6129   6138   6139     1  0.0000000  0.6508444  3
   6130   6129   6138   6140     1  0.0000000  0.6508444  3
   6131   6129   6138   6147     1  0.0000000  1.0460000  1
   6131   6129   6138   6147     1  0.0000000  0.0000000  3
   6131   6129   6138   6139     1  0.0000000  0.6508444  3
   6131   6129   6138   6140     1  0.0000000  0.6508444  3
   6133   6132   6144  12077     1  0.0000000  1.0460000  1
   6133   6132   6144  12077     1  0.0000000  0.0000000  3
   6133   6132   6144   6145     1  0.0000000  0.6508444  3
   6133   6132   6144   6146     1  0.0000000  0.6508444  3
   6134   6132   6144  12077     1  0.0000000  1.0460000  1
   6134   6132   6144  12077     1  0.0000000  0.0000000  3
   6134   6132   6144   6145     1  0.0000000  0.6508444  3
   6134   6132   6144   6146     1  0.0000000  0.6508444  3
   6136   6135   6141  12054     1  0.0000000  1.0460000  1
   6136   6135   6141  12054     1  0.0000000  0.0000000  3
   6136   6135   6141   6142     1  0.0000000  0.6508444  3
   6136   6135   6141   6143     1  0.0000000  0.6508444  3
   6137   6135   6141  12054     1  0.0000000  1.0460000  1
   6137   6135   6141  12054     1  0.0000000  0.0000000  3
   6137   6135   6141   6142     1  0.0000000  0.6508444  3
   6137   6135   6141   6143     1  0.0000000  0.6508444  3
   6141  12054  12050  12053     1  0.0000000  1.6038667  3
   6142   6141  12054  12050     1  0.0000000  1.6038667  3
   6143   6141  12054  12050     1  0.0000000  1.6038667  3
   6144  12077  12073  12076     1  0.0000000  1.6038667  3
   6145   6144  12077  12073     1  0.0000000  1.6038667  3
   6146   6144  12077  12073     1  0.0000000  1.6038667  3
   6148   6149   6161   6162     1  0.0000000  0.6508444  3
   6148   6149   6161   6163     1  0.0000000  0.6508444  3
   6148   6152   6164   6165     1  0.0000000  0.6508444  3
   6148   6152   6164   6166     1  0.0000000  0.6508444  3
   6148   6155   6158   6159     1  0.0000000  0.6508444  3
   6148   6155   6158   6160     1  0.0000000  0.6508444  3
   6149   6148   6152   6153     1  0.0000000  1.2552000  3
   6149   6148   6152   6154     1  0.0000000  1.2552000  3
   6149   6148   6155   6156     1  0.0000000  1.2552000  3
   6149   6148   6155   6157     1  0.0000000  1.2552000  3
   6149   6161   6173   6174     1  0.0000000  0.6508444  3
   6149   6161   6173   6175     1  0.0000000  0.6508444  3
   6150   6149   6148   6152     1  0.0000000  1.2552000  3
   6150   6149   6148   6155     1  0.0000000  1.2552000  3
   6150   6149   6161   6173     1  0.0000000  0.6508444  3
   6150   6149   6161   6162     1  0.0000000  0.6508444  3
   6150   6149   6161   6163     1  0.0000000  0.6508444  3
   6151   6149   6148   6152     1  0.0000000  1.2552000  3
   6151   6149   6148   6155     1  0.0000000  1.2552000  3
   6151   6149   6161   6173     1  0.0000000  0.6508444  3
   6151   6149   6161   6162     1  0.0000000  0.6508444  3
   6151   6149   6161   6163     1  0.0000000  0.6508444  3
   6152   6148   6155   6156     1  0.0000000  1.2552000  3
   6152   6148   6155   6157     1  0.0000000  1.2552000  3
   6152   6164   6170   6171     1  0.0000000  0.6508444  3
   6152   6164   6170   6172     1  0.0000000  0.6508444  3
   6153   6152   6148   6155     1  0.0000000  1.2552000  3
   6153   6152   6164   6170     1  0.0000000  0.6508444  3
   6153   6152   6164   6165     1  0.0000000  0.6508444  3
   6153   6152   6164   6166     1  0.0000000  0.6508444  3
   6154   6152   6148   6155     1  0.0000000  1.2552000  3
   6154   6152   6164   6170     1  0.0000000  0.6508444  3
   6154   6152   6164   6165     1  0.0000000  0.6508444  3
   6154   6152   6164   6166     1  0.0000000  0.6508444  3
   6155   6158   6167   6168     1  0.0000000  0.6508444  3
   6155   6158   6167   6169     1  0.0000000  0.6508444  3
   6156   6155   6158   6167     1  0.0000000  0.6508444  3
   6156   6155   6158   6159     1  0.0000000  0.6508444  3
   6156   6155   6158   6160     1  0.0000000  0.6508444  3
   6157   6155   6158   6167     1  0.0000000  0.6508444  3
   6157   6155   6158   6159     1  0.0000000  0.6508444  3
   6157   6155   6158   6160     1  0.0000000  0.6508444  3
   6159   6158   6167   6176     1  0.0000000  1.0460000  1
   6159   6158   6167   6176     1  0.0000000  0.0000000  3
   6159   6158   6167   6168     1  0.0000000  0.6508444  3
   6159   6158   6167   6169     1  0.0000000  0.6508444  3
   6160   6158   6167   6176     1  0.0000000  1.0460000  1
   6160   6158   6167   6176     1  0.0000000  0.0000000  3
   6160   6158   6167   6168     1  0.0000000  0.6508444  3
   6160   6158   6167   6169     1  0.0000000  0.6508444  3
   6162   6161   6173  12123     1  0.0000000  1.0460000  1
   6162   6161   6173  12123     1  0.0000000  0.0000000  3
   6162   6161   6173   6174     1  0.0000000  0.6508444  3
   6162   6161   6173   6175     1  0.0000000  0.6508444  3
   6163   6161   6173  12123     1  0.0000000  1.0460000  1
   6163   6161   6173  12123     1  0.0000000  0.0000000  3
   6163   6161   6173   6174     1  0.0000000  0.6508444  3
   6163   6161   6173   6175     1  0.0000000  0.6508444  3
   6165   6164   6170  12100     1  0.0000000  1.0460000  1
   6165   6164   6170  12100     1  0.0000000  0.0000000  3
   6165   6164   6170   6171     1  0.0000000  0.6508444  3
   6165   6164   6170   6172     1  0.0000000  0.6508444  3
   6166   6164   6170  12100     1  0.0000000  1.0460000  1
   6166   6164   6170  12100     1  0.0000000  0.0000000  3
   6166   6164   6170   6171     1  0.0000000  0.6508444  3
   6166   6164   6170   6172     1  0.0000000  0.6508444  3
   6170  12100  12096  12099     1  0.0000000  1.6038667  3
   6171   6170  12100  12096     1  0.0000000  1.6038667  3
   6172   6170  12100  12096     1  0.0000000  1.6038667  3
   6173  12123  12119  12122     1  0.0000000  1.6038667  3
   6174   6173  12123  12119     1  0.0000000  1.6038667  3
   6175   6173  12123  12119     1  0.0000000  1.6038667  3
   6177   6178   6190   6191     1  0.0000000  0.6508444  3
   6177   6178   6190   6192     1  0.0000000  0.6508444  3
   6177   6181   6193   6194     1  0.0000000  0.6508444  3
   6177   6181   6193   6195     1  0.0000000  0.6508444  3
   6177   6184   6187   6188     1  0.0000000  0.6508444  3
   6177   6184   6187   6189     1  0.0000000  0.6508444  3
   6178   6177   6181   6182     1  0.0000000  1.2552000  3
   6178   6177   6181   6183     1  0.0000000  1.2552000  3
   6178   6177   6184   6185     1  0.0000000  1.2552000  3
   6178   6177   6184   6186     1  0.0000000  1.2552000  3
   6178   6190   6202   6203     1  0.0000000  0.6508444  3
   6178   6190   6202   6204     1  0.0000000  0.6508444  3
   6179   6178   6177   6181     1  0.0000000  1.2552000  3
   6179   6178   6177   6184     1  0.0000000  1.2552000  3
   6179   6178   6190   6202     1  0.0000000  0.6508444  3
   6179   6178   6190   6191     1  0.0000000  0.6508444  3
   6179   6178   6190   6192     1  0.0000000  0.6508444  3
   6180   6178   6177   6181     1  0.0000000  1.2552000  3
   6180   6178   6177   6184     1  0.0000000  1.2552000  3
   6180   6178   6190   6202     1  0.0000000  0.6508444  3
   6180   6178   6190   6191     1  0.0000000  0.6508444  3
   6180   6178   6190   6192     1  0.0000000  0.6508444  3
   6181   6177   6184   6185     1  0.0000000  1.2552000  3
   6181   6177   6184   6186     1  0.0000000  1.2552000  3
   6181   6193   6199   6200     1  0.0000000  0.6508444  3
   6181   6193   6199   6201     1  0.0000000  0.6508444  3
   6182   6181   6177   6184     1  0.0000000  1.2552000  3
   6182   6181   6193   6199     1  0.0000000  0.6508444  3
   6182   6181   6193   6194     1  0.0000000  0.6508444  3
   6182   6181   6193   6195     1  0.0000000  0.6508444  3
   6183   6181   6177   6184     1  0.0000000  1.2552000  3
   6183   6181   6193   6199     1  0.0000000  0.6508444  3
   6183   6181   6193   6194     1  0.0000000  0.6508444  3
   6183   6181   6193   6195     1  0.0000000  0.6508444  3
   6184   6187   6196   6197     1  0.0000000  0.6508444  3
   6184   6187   6196   6198     1  0.0000000  0.6508444  3
   6185   6184   6187   6196     1  0.0000000  0.6508444  3
   6185   6184   6187   6188     1  0.0000000  0.6508444  3
   6185   6184   6187   6189     1  0.0000000  0.6508444  3
   6186   6184   6187   6196     1  0.0000000  0.6508444  3
   6186   6184   6187   6188     1  0.0000000  0.6508444  3
   6186   6184   6187   6189     1  0.0000000  0.6508444  3
   6188   6187   6196   6205     1  0.0000000  1.0460000  1
   6188   6187   6196   6205     1  0.0000000  0.0000000  3
   6188   6187   6196   6197     1  0.0000000  0.6508444  3
   6188   6187   6196   6198     1  0.0000000  0.6508444  3
   6189   6187   6196   6205     1  0.0000000  1.0460000  1
   6189   6187   6196   6205     1  0.0000000  0.0000000  3
   6189   6187   6196   6197     1  0.0000000  0.6508444  3
   6189   6187   6196   6198     1  0.0000000  0.6508444  3
   6191   6190   6202  12169     1  0.0000000  1.0460000  1
   6191   6190   6202  12169     1  0.0000000  0.0000000  3
   6191   6190   6202   6203     1  0.0000000  0.6508444  3
   6191   6190   6202   6204     1  0.0000000  0.6508444  3
   6192   6190   6202  12169     1  0.0000000  1.0460000  1
   6192   6190   6202  12169     1  0.0000000  0.0000000  3
   6192   6190   6202   6203     1  0.0000000  0.6508444  3
   6192   6190   6202   6204     1  0.0000000  0.6508444  3
   6194   6193   6199  12146     1  0.0000000  1.0460000  1
   6194   6193   6199  12146     1  0.0000000  0.0000000  3
   6194   6193   6199   6200     1  0.0000000  0.6508444  3
   6194   6193   6199   6201     1  0.0000000  0.6508444  3
   6195   6193   6199  12146     1  0.0000000  1.0460000  1
   6195   6193   6199  12146     1  0.0000000  0.0000000  3
   6195   6193   6199   6200     1  0.0000000  0.6508444  3
   6195   6193   6199   6201     1  0.0000000  0.6508444  3
   6199  12146  12142  12145     1  0.0000000  1.6038667  3
   6200   6199  12146  12142     1  0.0000000  1.6038667  3
   6201   6199  12146  12142     1  0.0000000  1.6038667  3
   6202  12169  12165  12168     1  0.0000000  1.6038667  3
   6203   6202  12169  12165     1  0.0000000  1.6038667  3
   6204   6202  12169  12165     1  0.0000000  1.6038667  3
   6206   6207   6219   6220     1  0.0000000  0.6508444  3
   6206   6207   6219   6221     1  0.0000000  0.6508444  3
   6206   6210   6222   6223     1  0.0000000  0.6508444  3
   6206   6210   6222   6224     1  0.0000000  0.6508444  3
   6206   6213   6216   6217     1  0.0000000  0.6508444  3
   6206   6213   6216   6218     1  0.0000000  0.6508444  3
   6207   6206   6210   6211     1  0.0000000  1.2552000  3
   6207   6206   6210   6212     1  0.0000000  1.2552000  3
   6207   6206   6213   6214     1  0.0000000  1.2552000  3
   6207   6206   6213   6215     1  0.0000000  1.2552000  3
   6207   6219   6231   6232     1  0.0000000  0.6508444  3
   6207   6219   6231   6233     1  0.0000000  0.6508444  3
   6208   6207   6206   6210     1  0.0000000  1.2552000  3
   6208   6207   6206   6213     1  0.0000000  1.2552000  3
   6208   6207   6219   6231     1  0.0000000  0.6508444  3
   6208   6207   6219   6220     1  0.0000000  0.6508444  3
   6208   6207   6219   6221     1  0.0000000  0.6508444  3
   6209   6207   6206   6210     1  0.0000000  1.2552000  3
   6209   6207   6206   6213     1  0.0000000  1.2552000  3
   6209   6207   6219   6231     1  0.0000000  0.6508444  3
   6209   6207   6219   6220     1  0.0000000  0.6508444  3
   6209   6207   6219   6221     1  0.0000000  0.6508444  3
   6210   6206   6213   6214     1  0.0000000  1.2552000  3
   6210   6206   6213   6215     1  0.0000000  1.2552000  3
   6210   6222   6228   6229     1  0.0000000  0.6508444  3
   6210   6222   6228   6230     1  0.0000000  0.6508444  3
   6211   6210   6206   6213     1  0.0000000  1.2552000  3
   6211   6210   6222   6228     1  0.0000000  0.6508444  3
   6211   6210   6222   6223     1  0.0000000  0.6508444  3
   6211   6210   6222   6224     1  0.0000000  0.6508444  3
   6212   6210   6206   6213     1  0.0000000  1.2552000  3
   6212   6210   6222   6228     1  0.0000000  0.6508444  3
   6212   6210   6222   6223     1  0.0000000  0.6508444  3
   6212   6210   6222   6224     1  0.0000000  0.6508444  3
   6213   6216   6225   6226     1  0.0000000  0.6508444  3
   6213   6216   6225   6227     1  0.0000000  0.6508444  3
   6214   6213   6216   6225     1  0.0000000  0.6508444  3
   6214   6213   6216   6217     1  0.0000000  0.6508444  3
   6214   6213   6216   6218     1  0.0000000  0.6508444  3
   6215   6213   6216   6225     1  0.0000000  0.6508444  3
   6215   6213   6216   6217     1  0.0000000  0.6508444  3
   6215   6213   6216   6218     1  0.0000000  0.6508444  3
   6217   6216   6225   6234     1  0.0000000  1.0460000  1
   6217   6216   6225   6234     1  0.0000000  0.0000000  3
   6217   6216   6225   6226     1  0.0000000  0.6508444  3
   6217   6216   6225   6227     1  0.0000000  0.6508444  3
   6218   6216   6225   6234     1  0.0000000  1.0460000  1
   6218   6216   6225   6234     1  0.0000000  0.0000000  3
   6218   6216   6225   6226     1  0.0000000  0.6508444  3
   6218   6216   6225   6227     1  0.0000000  0.6508444  3
   6220   6219   6231  12215     1  0.0000000  1.0460000  1
   6220   6219   6231  12215     1  0.0000000  0.0000000  3
   6220   6219   6231   6232     1  0.0000000  0.6508444  3
   6220   6219   6231   6233     1  0.0000000  0.6508444  3
   6221   6219   6231  12215     1  0.0000000  1.0460000  1
   6221   6219   6231  12215     1  0.0000000  0.0000000  3
   6221   6219   6231   6232     1  0.0000000  0.6508444  3
   6221   6219   6231   6233     1  0.0000000  0.6508444  3
   6223   6222   6228  12192     1  0.0000000  1.0460000  1
   6223   6222   6228  12192     1  0.0000000  0.0000000  3
   6223   6222   6228   6229     1  0.0000000  0.6508444  3
   6223   6222   6228   6230     1  0.0000000  0.6508444  3
   6224   6222   6228  12192     1  0.0000000  1.0460000  1
   6224   6222   6228  12192     1  0.0000000  0.0000000  3
   6224   6222   6228   6229     1  0.0000000  0.6508444  3
   6224   6222   6228   6230     1  0.0000000  0.6508444  3
   6228  12192  12188  12191     1  0.0000000  1.6038667  3
   6229   6228  12192  12188     1  0.0000000  1.6038667  3
   6230   6228  12192  12188     1  0.0000000  1.6038667  3
   6231  12215  12211  12214     1  0.0000000  1.6038667  3
   6232   6231  12215  12211     1  0.0000000  1.6038667  3
   6233   6231  12215  12211     1  0.0000000  1.6038667  3
   6235   6236   6248   6249     1  0.0000000  0.6508444  3
   6235   6236   6248   6250     1  0.0000000  0.6508444  3
   6235   6239   6251   6252     1  0.0000000  0.6508444  3
   6235   6239   6251   6253     1  0.0000000  0.6508444  3
   6235   6242   6245   6246     1  0.0000000  0.6508444  3
   6235   6242   6245   6247     1  0.0000000  0.6508444  3
   6236   6235   6239   6240     1  0.0000000  1.2552000  3
   6236   6235   6239   6241     1  0.0000000  1.2552000  3
   6236   6235   6242   6243     1  0.0000000  1.2552000  3
   6236   6235   6242   6244     1  0.0000000  1.2552000  3
   6236   6248   6260   6261     1  0.0000000  0.6508444  3
   6236   6248   6260   6262     1  0.0000000  0.6508444  3
   6237   6236   6235   6239     1  0.0000000  1.2552000  3
   6237   6236   6235   6242     1  0.0000000  1.2552000  3
   6237   6236   6248   6260     1  0.0000000  0.6508444  3
   6237   6236   6248   6249     1  0.0000000  0.6508444  3
   6237   6236   6248   6250     1  0.0000000  0.6508444  3
   6238   6236   6235   6239     1  0.0000000  1.2552000  3
   6238   6236   6235   6242     1  0.0000000  1.2552000  3
   6238   6236   6248   6260     1  0.0000000  0.6508444  3
   6238   6236   6248   6249     1  0.0000000  0.6508444  3
   6238   6236   6248   6250     1  0.0000000  0.6508444  3
   6239   6235   6242   6243     1  0.0000000  1.2552000  3
   6239   6235   6242   6244     1  0.0000000  1.2552000  3
   6239   6251   6257   6258     1  0.0000000  0.6508444  3
   6239   6251   6257   6259     1  0.0000000  0.6508444  3
   6240   6239   6235   6242     1  0.0000000  1.2552000  3
   6240   6239   6251   6257     1  0.0000000  0.6508444  3
   6240   6239   6251   6252     1  0.0000000  0.6508444  3
   6240   6239   6251   6253     1  0.0000000  0.6508444  3
   6241   6239   6235   6242     1  0.0000000  1.2552000  3
   6241   6239   6251   6257     1  0.0000000  0.6508444  3
   6241   6239   6251   6252     1  0.0000000  0.6508444  3
   6241   6239   6251   6253     1  0.0000000  0.6508444  3
   6242   6245   6254   6255     1  0.0000000  0.6508444  3
   6242   6245   6254   6256     1  0.0000000  0.6508444  3
   6243   6242   6245   6254     1  0.0000000  0.6508444  3
   6243   6242   6245   6246     1  0.0000000  0.6508444  3
   6243   6242   6245   6247     1  0.0000000  0.6508444  3
   6244   6242   6245   6254     1  0.0000000  0.6508444  3
   6244   6242   6245   6246     1  0.0000000  0.6508444  3
   6244   6242   6245   6247     1  0.0000000  0.6508444  3
   6246   6245   6254   6263     1  0.0000000  1.0460000  1
   6246   6245   6254   6263     1  0.0000000  0.0000000  3
   6246   6245   6254   6255     1  0.0000000  0.6508444  3
   6246   6245   6254   6256     1  0.0000000  0.6508444  3
   6247   6245   6254   6263     1  0.0000000  1.0460000  1
   6247   6245   6254   6263     1  0.0000000  0.0000000  3
   6247   6245   6254   6255     1  0.0000000  0.6508444  3
   6247   6245   6254   6256     1  0.0000000  0.6508444  3
   6249   6248   6260  12261     1  0.0000000  1.0460000  1
   6249   6248   6260  12261     1  0.0000000  0.0000000  3
   6249   6248   6260   6261     1  0.0000000  0.6508444  3
   6249   6248   6260   6262     1  0.0000000  0.6508444  3
   6250   6248   6260  12261     1  0.0000000  1.0460000  1
   6250   6248   6260  12261     1  0.0000000  0.0000000  3
   6250   6248   6260   6261     1  0.0000000  0.6508444  3
   6250   6248   6260   6262     1  0.0000000  0.6508444  3
   6252   6251   6257  12238     1  0.0000000  1.0460000  1
   6252   6251   6257  12238     1  0.0000000  0.0000000  3
   6252   6251   6257   6258     1  0.0000000  0.6508444  3
   6252   6251   6257   6259     1  0.0000000  0.6508444  3
   6253   6251   6257  12238     1  0.0000000  1.0460000  1
   6253   6251   6257  12238     1  0.0000000  0.0000000  3
   6253   6251   6257   6258     1  0.0000000  0.6508444  3
   6253   6251   6257   6259     1  0.0000000  0.6508444  3
   6257  12238  12234  12237     1  0.0000000  1.6038667  3
   6258   6257  12238  12234     1  0.0000000  1.6038667  3
   6259   6257  12238  12234     1  0.0000000  1.6038667  3
   6260  12261  12257  12260     1  0.0000000  1.6038667  3
   6261   6260  12261  12257     1  0.0000000  1.6038667  3
   6262   6260  12261  12257     1  0.0000000  1.6038667  3
   6264   6265   6277   6278     1  0.0000000  0.6508444  3
   6264   6265   6277   6279     1  0.0000000  0.6508444  3
   6264   6268   6280   6281     1  0.0000000  0.6508444  3
   6264   6268   6280   6282     1  0.0000000  0.6508444  3
   6264   6271   6274   6275     1  0.0000000  0.6508444  3
   6264   6271   6274   6276     1  0.0000000  0.6508444  3
   6265   6264   6268   6269     1  0.0000000  1.2552000  3
   6265   6264   6268   6270     1  0.0000000  1.2552000  3
   6265   6264   6271   6272     1  0.0000000  1.2552000  3
   6265   6264   6271   6273     1  0.0000000  1.2552000  3
   6265   6277   6289   6290     1  0.0000000  0.6508444  3
   6265   6277   6289   6291     1  0.0000000  0.6508444  3
   6266   6265   6264   6268     1  0.0000000  1.2552000  3
   6266   6265   6264   6271     1  0.0000000  1.2552000  3
   6266   6265   6277   6289     1  0.0000000  0.6508444  3
   6266   6265   6277   6278     1  0.0000000  0.6508444  3
   6266   6265   6277   6279     1  0.0000000  0.6508444  3
   6267   6265   6264   6268     1  0.0000000  1.2552000  3
   6267   6265   6264   6271     1  0.0000000  1.2552000  3
   6267   6265   6277   6289     1  0.0000000  0.6508444  3
   6267   6265   6277   6278     1  0.0000000  0.6508444  3
   6267   6265   6277   6279     1  0.0000000  0.6508444  3
   6268   6264   6271   6272     1  0.0000000  1.2552000  3
   6268   6264   6271   6273     1  0.0000000  1.2552000  3
   6268   6280   6286   6287     1  0.0000000  0.6508444  3
   6268   6280   6286   6288     1  0.0000000  0.6508444  3
   6269   6268   6264   6271     1  0.0000000  1.2552000  3
   6269   6268   6280   6286     1  0.0000000  0.6508444  3
   6269   6268   6280   6281     1  0.0000000  0.6508444  3
   6269   6268   6280   6282     1  0.0000000  0.6508444  3
   6270   6268   6264   6271     1  0.0000000  1.2552000  3
   6270   6268   6280   6286     1  0.0000000  0.6508444  3
   6270   6268   6280   6281     1  0.0000000  0.6508444  3
   6270   6268   6280   6282     1  0.0000000  0.6508444  3
   6271   6274   6283   6284     1  0.0000000  0.6508444  3
   6271   6274   6283   6285     1  0.0000000  0.6508444  3
   6272   6271   6274   6283     1  0.0000000  0.6508444  3
   6272   6271   6274   6275     1  0.0000000  0.6508444  3
   6272   6271   6274   6276     1  0.0000000  0.6508444  3
   6273   6271   6274   6283     1  0.0000000  0.6508444  3
   6273   6271   6274   6275     1  0.0000000  0.6508444  3
   6273   6271   6274   6276     1  0.0000000  0.6508444  3
   6275   6274   6283   6292     1  0.0000000  1.0460000  1
   6275   6274   6283   6292     1  0.0000000  0.0000000  3
   6275   6274   6283   6284     1  0.0000000  0.6508444  3
   6275   6274   6283   6285     1  0.0000000  0.6508444  3
   6276   6274   6283   6292     1  0.0000000  1.0460000  1
   6276   6274   6283   6292     1  0.0000000  0.0000000  3
   6276   6274   6283   6284     1  0.0000000  0.6508444  3
   6276   6274   6283   6285     1  0.0000000  0.6508444  3
   6278   6277   6289  12307     1  0.0000000  1.0460000  1
   6278   6277   6289  12307     1  0.0000000  0.0000000  3
   6278   6277   6289   6290     1  0.0000000  0.6508444  3
   6278   6277   6289   6291     1  0.0000000  0.6508444  3
   6279   6277   6289  12307     1  0.0000000  1.0460000  1
   6279   6277   6289  12307     1  0.0000000  0.0000000  3
   6279   6277   6289   6290     1  0.0000000  0.6508444  3
   6279   6277   6289   6291     1  0.0000000  0.6508444  3
   6281   6280   6286  12284     1  0.0000000  1.0460000  1
   6281   6280   6286  12284     1  0.0000000  0.0000000  3
   6281   6280   6286   6287     1  0.0000000  0.6508444  3
   6281   6280   6286   6288     1  0.0000000  0.6508444  3
   6282   6280   6286  12284     1  0.0000000  1.0460000  1
   6282   6280   6286  12284     1  0.0000000  0.0000000  3
   6282   6280   6286   6287     1  0.0000000  0.6508444  3
   6282   6280   6286   6288     1  0.0000000  0.6508444  3
   6286  12284  12280  12283     1  0.0000000  1.6038667  3
   6287   6286  12284  12280     1  0.0000000  1.6038667  3
   6288   6286  12284  12280     1  0.0000000  1.6038667  3
   6289  12307  12303  12306     1  0.0000000  1.6038667  3
   6290   6289  12307  12303     1  0.0000000  1.6038667  3
   6291   6289  12307  12303     1  0.0000000  1.6038667  3
   6293   6294   6306   6307     1  0.0000000  0.6508444  3
   6293   6294   6306   6308     1  0.0000000  0.6508444  3
   6293   6297   6309   6310     1  0.0000000  0.6508444  3
   6293   6297   6309   6311     1  0.0000000  0.6508444  3
   6293   6300   6303   6304     1  0.0000000  0.6508444  3
   6293   6300   6303   6305     1  0.0000000  0.6508444  3
   6294   6293   6297   6298     1  0.0000000  1.2552000  3
   6294   6293   6297   6299     1  0.0000000  1.2552000  3
   6294   6293   6300   6301     1  0.0000000  1.2552000  3
   6294   6293   6300   6302     1  0.0000000  1.2552000  3
   6294   6306   6318   6319     1  0.0000000  0.6508444  3
   6294   6306   6318   6320     1  0.0000000  0.6508444  3
   6295   6294   6293   6297     1  0.0000000  1.2552000  3
   6295   6294   6293   6300     1  0.0000000  1.2552000  3
   6295   6294   6306   6318     1  0.0000000  0.6508444  3
   6295   6294   6306   6307     1  0.0000000  0.6508444  3
   6295   6294   6306   6308     1  0.0000000  0.6508444  3
   6296   6294   6293   6297     1  0.0000000  1.2552000  3
   6296   6294   6293   6300     1  0.0000000  1.2552000  3
   6296   6294   6306   6318     1  0.0000000  0.6508444  3
   6296   6294   6306   6307     1  0.0000000  0.6508444  3
   6296   6294   6306   6308     1  0.0000000  0.6508444  3
   6297   6293   6300   6301     1  0.0000000  1.2552000  3
   6297   6293   6300   6302     1  0.0000000  1.2552000  3
   6297   6309   6315   6316     1  0.0000000  0.6508444  3
   6297   6309   6315   6317     1  0.0000000  0.6508444  3
   6298   6297   6293   6300     1  0.0000000  1.2552000  3
   6298   6297   6309   6315     1  0.0000000  0.6508444  3
   6298   6297   6309   6310     1  0.0000000  0.6508444  3
   6298   6297   6309   6311     1  0.0000000  0.6508444  3
   6299   6297   6293   6300     1  0.0000000  1.2552000  3
   6299   6297   6309   6315     1  0.0000000  0.6508444  3
   6299   6297   6309   6310     1  0.0000000  0.6508444  3
   6299   6297   6309   6311     1  0.0000000  0.6508444  3
   6300   6303   6312   6313     1  0.0000000  0.6508444  3
   6300   6303   6312   6314     1  0.0000000  0.6508444  3
   6301   6300   6303   6312     1  0.0000000  0.6508444  3
   6301   6300   6303   6304     1  0.0000000  0.6508444  3
   6301   6300   6303   6305     1  0.0000000  0.6508444  3
   6302   6300   6303   6312     1  0.0000000  0.6508444  3
   6302   6300   6303   6304     1  0.0000000  0.6508444  3
   6302   6300   6303   6305     1  0.0000000  0.6508444  3
   6304   6303   6312   6321     1  0.0000000  1.0460000  1
   6304   6303   6312   6321     1  0.0000000  0.0000000  3
   6304   6303   6312   6313     1  0.0000000  0.6508444  3
   6304   6303   6312   6314     1  0.0000000  0.6508444  3
   6305   6303   6312   6321     1  0.0000000  1.0460000  1
   6305   6303   6312   6321     1  0.0000000  0.0000000  3
   6305   6303   6312   6313     1  0.0000000  0.6508444  3
   6305   6303   6312   6314     1  0.0000000  0.6508444  3
   6307   6306   6318  12353     1  0.0000000  1.0460000  1
   6307   6306   6318  12353     1  0.0000000  0.0000000  3
   6307   6306   6318   6319     1  0.0000000  0.6508444  3
   6307   6306   6318   6320     1  0.0000000  0.6508444  3
   6308   6306   6318  12353     1  0.0000000  1.0460000  1
   6308   6306   6318  12353     1  0.0000000  0.0000000  3
   6308   6306   6318   6319     1  0.0000000  0.6508444  3
   6308   6306   6318   6320     1  0.0000000  0.6508444  3
   6310   6309   6315  12330     1  0.0000000  1.0460000  1
   6310   6309   6315  12330     1  0.0000000  0.0000000  3
   6310   6309   6315   6316     1  0.0000000  0.6508444  3
   6310   6309   6315   6317     1  0.0000000  0.6508444  3
   6311   6309   6315  12330     1  0.0000000  1.0460000  1
   6311   6309   6315  12330     1  0.0000000  0.0000000  3
   6311   6309   6315   6316     1  0.0000000  0.6508444  3
   6311   6309   6315   6317     1  0.0000000  0.6508444  3
   6315  12330  12326  12329     1  0.0000000  1.6038667  3
   6316   6315  12330  12326     1  0.0000000  1.6038667  3
   6317   6315  12330  12326     1  0.0000000  1.6038667  3
   6318  12353  12349  12352     1  0.0000000  1.6038667  3
   6319   6318  12353  12349     1  0.0000000  1.6038667  3
   6320   6318  12353  12349     1  0.0000000  1.6038667  3
   6322   6323   6335   6336     1  0.0000000  0.6508444  3
   6322   6323   6335   6337     1  0.0000000  0.6508444  3
   6322   6326   6338   6339     1  0.0000000  0.6508444  3
   6322   6326   6338   6340     1  0.0000000  0.6508444  3
   6322   6329   6332   6333     1  0.0000000  0.6508444  3
   6322   6329   6332   6334     1  0.0000000  0.6508444  3
   6323   6322   6326   6327     1  0.0000000  1.2552000  3
   6323   6322   6326   6328     1  0.0000000  1.2552000  3
   6323   6322   6329   6330     1  0.0000000  1.2552000  3
   6323   6322   6329   6331     1  0.0000000  1.2552000  3
   6323   6335   6347   6348     1  0.0000000  0.6508444  3
   6323   6335   6347   6349     1  0.0000000  0.6508444  3
   6324   6323   6322   6326     1  0.0000000  1.2552000  3
   6324   6323   6322   6329     1  0.0000000  1.2552000  3
   6324   6323   6335   6347     1  0.0000000  0.6508444  3
   6324   6323   6335   6336     1  0.0000000  0.6508444  3
   6324   6323   6335   6337     1  0.0000000  0.6508444  3
   6325   6323   6322   6326     1  0.0000000  1.2552000  3
   6325   6323   6322   6329     1  0.0000000  1.2552000  3
   6325   6323   6335   6347     1  0.0000000  0.6508444  3
   6325   6323   6335   6336     1  0.0000000  0.6508444  3
   6325   6323   6335   6337     1  0.0000000  0.6508444  3
   6326   6322   6329   6330     1  0.0000000  1.2552000  3
   6326   6322   6329   6331     1  0.0000000  1.2552000  3
   6326   6338   6344   6345     1  0.0000000  0.6508444  3
   6326   6338   6344   6346     1  0.0000000  0.6508444  3
   6327   6326   6322   6329     1  0.0000000  1.2552000  3
   6327   6326   6338   6344     1  0.0000000  0.6508444  3
   6327   6326   6338   6339     1  0.0000000  0.6508444  3
   6327   6326   6338   6340     1  0.0000000  0.6508444  3
   6328   6326   6322   6329     1  0.0000000  1.2552000  3
   6328   6326   6338   6344     1  0.0000000  0.6508444  3
   6328   6326   6338   6339     1  0.0000000  0.6508444  3
   6328   6326   6338   6340     1  0.0000000  0.6508444  3
   6329   6332   6341   6342     1  0.0000000  0.6508444  3
   6329   6332   6341   6343     1  0.0000000  0.6508444  3
   6330   6329   6332   6341     1  0.0000000  0.6508444  3
   6330   6329   6332   6333     1  0.0000000  0.6508444  3
   6330   6329   6332   6334     1  0.0000000  0.6508444  3
   6331   6329   6332   6341     1  0.0000000  0.6508444  3
   6331   6329   6332   6333     1  0.0000000  0.6508444  3
   6331   6329   6332   6334     1  0.0000000  0.6508444  3
   6333   6332   6341   6350     1  0.0000000  1.0460000  1
   6333   6332   6341   6350     1  0.0000000  0.0000000  3
   6333   6332   6341   6342     1  0.0000000  0.6508444  3
   6333   6332   6341   6343     1  0.0000000  0.6508444  3
   6334   6332   6341   6350     1  0.0000000  1.0460000  1
   6334   6332   6341   6350     1  0.0000000  0.0000000  3
   6334   6332   6341   6342     1  0.0000000  0.6508444  3
   6334   6332   6341   6343     1  0.0000000  0.6508444  3
   6336   6335   6347  12399     1  0.0000000  1.0460000  1
   6336   6335   6347  12399     1  0.0000000  0.0000000  3
   6336   6335   6347   6348     1  0.0000000  0.6508444  3
   6336   6335   6347   6349     1  0.0000000  0.6508444  3
   6337   6335   6347  12399     1  0.0000000  1.0460000  1
   6337   6335   6347  12399     1  0.0000000  0.0000000  3
   6337   6335   6347   6348     1  0.0000000  0.6508444  3
   6337   6335   6347   6349     1  0.0000000  0.6508444  3
   6339   6338   6344  12376     1  0.0000000  1.0460000  1
   6339   6338   6344  12376     1  0.0000000  0.0000000  3
   6339   6338   6344   6345     1  0.0000000  0.6508444  3
   6339   6338   6344   6346     1  0.0000000  0.6508444  3
   6340   6338   6344  12376     1  0.0000000  1.0460000  1
   6340   6338   6344  12376     1  0.0000000  0.0000000  3
   6340   6338   6344   6345     1  0.0000000  0.6508444  3
   6340   6338   6344   6346     1  0.0000000  0.6508444  3
   6344  12376  12372  12375     1  0.0000000  1.6038667  3
   6345   6344  12376  12372     1  0.0000000  1.6038667  3
   6346   6344  12376  12372     1  0.0000000  1.6038667  3
   6347  12399  12395  12398     1  0.0000000  1.6038667  3
   6348   6347  12399  12395     1  0.0000000  1.6038667  3
   6349   6347  12399  12395     1  0.0000000  1.6038667  3
   6351   6352   6364   6365     1  0.0000000  0.6508444  3
   6351   6352   6364   6366     1  0.0000000  0.6508444  3
   6351   6355   6367   6368     1  0.0000000  0.6508444  3
   6351   6355   6367   6369     1  0.0000000  0.6508444  3
   6351   6358   6361   6362     1  0.0000000  0.6508444  3
   6351   6358   6361   6363     1  0.0000000  0.6508444  3
   6352   6351   6355   6356     1  0.0000000  1.2552000  3
   6352   6351   6355   6357     1  0.0000000  1.2552000  3
   6352   6351   6358   6359     1  0.0000000  1.2552000  3
   6352   6351   6358   6360     1  0.0000000  1.2552000  3
   6352   6364   6376   6377     1  0.0000000  0.6508444  3
   6352   6364   6376   6378     1  0.0000000  0.6508444  3
   6353   6352   6351   6355     1  0.0000000  1.2552000  3
   6353   6352   6351   6358     1  0.0000000  1.2552000  3
   6353   6352   6364   6376     1  0.0000000  0.6508444  3
   6353   6352   6364   6365     1  0.0000000  0.6508444  3
   6353   6352   6364   6366     1  0.0000000  0.6508444  3
   6354   6352   6351   6355     1  0.0000000  1.2552000  3
   6354   6352   6351   6358     1  0.0000000  1.2552000  3
   6354   6352   6364   6376     1  0.0000000  0.6508444  3
   6354   6352   6364   6365     1  0.0000000  0.6508444  3
   6354   6352   6364   6366     1  0.0000000  0.6508444  3
   6355   6351   6358   6359     1  0.0000000  1.2552000  3
   6355   6351   6358   6360     1  0.0000000  1.2552000  3
   6355   6367   6373   6374     1  0.0000000  0.6508444  3
   6355   6367   6373   6375     1  0.0000000  0.6508444  3
   6356   6355   6351   6358     1  0.0000000  1.2552000  3
   6356   6355   6367   6373     1  0.0000000  0.6508444  3
   6356   6355   6367   6368     1  0.0000000  0.6508444  3
   6356   6355   6367   6369     1  0.0000000  0.6508444  3
   6357   6355   6351   6358     1  0.0000000  1.2552000  3
   6357   6355   6367   6373     1  0.0000000  0.6508444  3
   6357   6355   6367   6368     1  0.0000000  0.6508444  3
   6357   6355   6367   6369     1  0.0000000  0.6508444  3
   6358   6361   6370   6371     1  0.0000000  0.6508444  3
   6358   6361   6370   6372     1  0.0000000  0.6508444  3
   6359   6358   6361   6370     1  0.0000000  0.6508444  3
   6359   6358   6361   6362     1  0.0000000  0.6508444  3
   6359   6358   6361   6363     1  0.0000000  0.6508444  3
   6360   6358   6361   6370     1  0.0000000  0.6508444  3
   6360   6358   6361   6362     1  0.0000000  0.6508444  3
   6360   6358   6361   6363     1  0.0000000  0.6508444  3
   6362   6361   6370   6379     1  0.0000000  1.0460000  1
   6362   6361   6370   6379     1  0.0000000  0.0000000  3
   6362   6361   6370   6371     1  0.0000000  0.6508444  3
   6362   6361   6370   6372     1  0.0000000  0.6508444  3
   6363   6361   6370   6379     1  0.0000000  1.0460000  1
   6363   6361   6370   6379     1  0.0000000  0.0000000  3
   6363   6361   6370   6371     1  0.0000000  0.6508444  3
   6363   6361   6370   6372     1  0.0000000  0.6508444  3
   6365   6364   6376  12445     1  0.0000000  1.0460000  1
   6365   6364   6376  12445     1  0.0000000  0.0000000  3
   6365   6364   6376   6377     1  0.0000000  0.6508444  3
   6365   6364   6376   6378     1  0.0000000  0.6508444  3
   6366   6364   6376  12445     1  0.0000000  1.0460000  1
   6366   6364   6376  12445     1  0.0000000  0.0000000  3
   6366   6364   6376   6377     1  0.0000000  0.6508444  3
   6366   6364   6376   6378     1  0.0000000  0.6508444  3
   6368   6367   6373  12422     1  0.0000000  1.0460000  1
   6368   6367   6373  12422     1  0.0000000  0.0000000  3
   6368   6367   6373   6374     1  0.0000000  0.6508444  3
   6368   6367   6373   6375     1  0.0000000  0.6508444  3
   6369   6367   6373  12422     1  0.0000000  1.0460000  1
   6369   6367   6373  12422     1  0.0000000  0.0000000  3
   6369   6367   6373   6374     1  0.0000000  0.6508444  3
   6369   6367   6373   6375     1  0.0000000  0.6508444  3
   6373  12422  12418  12421     1  0.0000000  1.6038667  3
   6374   6373  12422  12418     1  0.0000000  1.6038667  3
   6375   6373  12422  12418     1  0.0000000  1.6038667  3
   6376  12445  12441  12444     1  0.0000000  1.6038667  3
   6377   6376  12445  12441     1  0.0000000  1.6038667  3
   6378   6376  12445  12441     1  0.0000000  1.6038667  3
   6380   6381   6393   6394     1  0.0000000  0.6508444  3
   6380   6381   6393   6395     1  0.0000000  0.6508444  3
   6380   6384   6396   6397     1  0.0000000  0.6508444  3
   6380   6384   6396   6398     1  0.0000000  0.6508444  3
   6380   6387   6390   6391     1  0.0000000  0.6508444  3
   6380   6387   6390   6392     1  0.0000000  0.6508444  3
   6381   6380   6384   6385     1  0.0000000  1.2552000  3
   6381   6380   6384   6386     1  0.0000000  1.2552000  3
   6381   6380   6387   6388     1  0.0000000  1.2552000  3
   6381   6380   6387   6389     1  0.0000000  1.2552000  3
   6381   6393   6405   6406     1  0.0000000  0.6508444  3
   6381   6393   6405   6407     1  0.0000000  0.6508444  3
   6382   6381   6380   6384     1  0.0000000  1.2552000  3
   6382   6381   6380   6387     1  0.0000000  1.2552000  3
   6382   6381   6393   6405     1  0.0000000  0.6508444  3
   6382   6381   6393   6394     1  0.0000000  0.6508444  3
   6382   6381   6393   6395     1  0.0000000  0.6508444  3
   6383   6381   6380   6384     1  0.0000000  1.2552000  3
   6383   6381   6380   6387     1  0.0000000  1.2552000  3
   6383   6381   6393   6405     1  0.0000000  0.6508444  3
   6383   6381   6393   6394     1  0.0000000  0.6508444  3
   6383   6381   6393   6395     1  0.0000000  0.6508444  3
   6384   6380   6387   6388     1  0.0000000  1.2552000  3
   6384   6380   6387   6389     1  0.0000000  1.2552000  3
   6384   6396   6402   6403     1  0.0000000  0.6508444  3
   6384   6396   6402   6404     1  0.0000000  0.6508444  3
   6385   6384   6380   6387     1  0.0000000  1.2552000  3
   6385   6384   6396   6402     1  0.0000000  0.6508444  3
   6385   6384   6396   6397     1  0.0000000  0.6508444  3
   6385   6384   6396   6398     1  0.0000000  0.6508444  3
   6386   6384   6380   6387     1  0.0000000  1.2552000  3
   6386   6384   6396   6402     1  0.0000000  0.6508444  3
   6386   6384   6396   6397     1  0.0000000  0.6508444  3
   6386   6384   6396   6398     1  0.0000000  0.6508444  3
   6387   6390   6399   6400     1  0.0000000  0.6508444  3
   6387   6390   6399   6401     1  0.0000000  0.6508444  3
   6388   6387   6390   6399     1  0.0000000  0.6508444  3
   6388   6387   6390   6391     1  0.0000000  0.6508444  3
   6388   6387   6390   6392     1  0.0000000  0.6508444  3
   6389   6387   6390   6399     1  0.0000000  0.6508444  3
   6389   6387   6390   6391     1  0.0000000  0.6508444  3
   6389   6387   6390   6392     1  0.0000000  0.6508444  3
   6391   6390   6399   6408     1  0.0000000  1.0460000  1
   6391   6390   6399   6408     1  0.0000000  0.0000000  3
   6391   6390   6399   6400     1  0.0000000  0.6508444  3
   6391   6390   6399   6401     1  0.0000000  0.6508444  3
   6392   6390   6399   6408     1  0.0000000  1.0460000  1
   6392   6390   6399   6408     1  0.0000000  0.0000000  3
   6392   6390   6399   6400     1  0.0000000  0.6508444  3
   6392   6390   6399   6401     1  0.0000000  0.6508444  3
   6394   6393   6405  12491     1  0.0000000  1.0460000  1
   6394   6393   6405  12491     1  0.0000000  0.0000000  3
   6394   6393   6405   6406     1  0.0000000  0.6508444  3
   6394   6393   6405   6407     1  0.0000000  0.6508444  3
   6395   6393   6405  12491     1  0.0000000  1.0460000  1
   6395   6393   6405  12491     1  0.0000000  0.0000000  3
   6395   6393   6405   6406     1  0.0000000  0.6508444  3
   6395   6393   6405   6407     1  0.0000000  0.6508444  3
   6397   6396   6402  12468     1  0.0000000  1.0460000  1
   6397   6396   6402  12468     1  0.0000000  0.0000000  3
   6397   6396   6402   6403     1  0.0000000  0.6508444  3
   6397   6396   6402   6404     1  0.0000000  0.6508444  3
   6398   6396   6402  12468     1  0.0000000  1.0460000  1
   6398   6396   6402  12468     1  0.0000000  0.0000000  3
   6398   6396   6402   6403     1  0.0000000  0.6508444  3
   6398   6396   6402   6404     1  0.0000000  0.6508444  3
   6402  12468  12464  12467     1  0.0000000  1.6038667  3
   6403   6402  12468  12464     1  0.0000000  1.6038667  3
   6404   6402  12468  12464     1  0.0000000  1.6038667  3
   6405  12491  12487  12490     1  0.0000000  1.6038667  3
   6406   6405  12491  12487     1  0.0000000  1.6038667  3
   6407   6405  12491  12487     1  0.0000000  1.6038667  3
   6409   6410   6422   6423     1  0.0000000  0.6508444  3
   6409   6410   6422   6424     1  0.0000000  0.6508444  3
   6409   6413   6425   6426     1  0.0000000  0.6508444  3
   6409   6413   6425   6427     1  0.0000000  0.6508444  3
   6409   6416   6419   6420     1  0.0000000  0.6508444  3
   6409   6416   6419   6421     1  0.0000000  0.6508444  3
   6410   6409   6413   6414     1  0.0000000  1.2552000  3
   6410   6409   6413   6415     1  0.0000000  1.2552000  3
   6410   6409   6416   6417     1  0.0000000  1.2552000  3
   6410   6409   6416   6418     1  0.0000000  1.2552000  3
   6410   6422   6434   6435     1  0.0000000  0.6508444  3
   6410   6422   6434   6436     1  0.0000000  0.6508444  3
   6411   6410   6409   6413     1  0.0000000  1.2552000  3
   6411   6410   6409   6416     1  0.0000000  1.2552000  3
   6411   6410   6422   6434     1  0.0000000  0.6508444  3
   6411   6410   6422   6423     1  0.0000000  0.6508444  3
   6411   6410   6422   6424     1  0.0000000  0.6508444  3
   6412   6410   6409   6413     1  0.0000000  1.2552000  3
   6412   6410   6409   6416     1  0.0000000  1.2552000  3
   6412   6410   6422   6434     1  0.0000000  0.6508444  3
   6412   6410   6422   6423     1  0.0000000  0.6508444  3
   6412   6410   6422   6424     1  0.0000000  0.6508444  3
   6413   6409   6416   6417     1  0.0000000  1.2552000  3
   6413   6409   6416   6418     1  0.0000000  1.2552000  3
   6413   6425   6431   6432     1  0.0000000  0.6508444  3
   6413   6425   6431   6433     1  0.0000000  0.6508444  3
   6414   6413   6409   6416     1  0.0000000  1.2552000  3
   6414   6413   6425   6431     1  0.0000000  0.6508444  3
   6414   6413   6425   6426     1  0.0000000  0.6508444  3
   6414   6413   6425   6427     1  0.0000000  0.6508444  3
   6415   6413   6409   6416     1  0.0000000  1.2552000  3
   6415   6413   6425   6431     1  0.0000000  0.6508444  3
   6415   6413   6425   6426     1  0.0000000  0.6508444  3
   6415   6413   6425   6427     1  0.0000000  0.6508444  3
   6416   6419   6428   6429     1  0.0000000  0.6508444  3
   6416   6419   6428   6430     1  0.0000000  0.6508444  3
   6417   6416   6419   6428     1  0.0000000  0.6508444  3
   6417   6416   6419   6420     1  0.0000000  0.6508444  3
   6417   6416   6419   6421     1  0.0000000  0.6508444  3
   6418   6416   6419   6428     1  0.0000000  0.6508444  3
   6418   6416   6419   6420     1  0.0000000  0.6508444  3
   6418   6416   6419   6421     1  0.0000000  0.6508444  3
   6420   6419   6428   6437     1  0.0000000  1.0460000  1
   6420   6419   6428   6437     1  0.0000000  0.0000000  3
   6420   6419   6428   6429     1  0.0000000  0.6508444  3
   6420   6419   6428   6430     1  0.0000000  0.6508444  3
   6421   6419   6428   6437     1  0.0000000  1.0460000  1
   6421   6419   6428   6437     1  0.0000000  0.0000000  3
   6421   6419   6428   6429     1  0.0000000  0.6508444  3
   6421   6419   6428   6430     1  0.0000000  0.6508444  3
   6423   6422   6434  12537     1  0.0000000  1.0460000  1
   6423   6422   6434  12537     1  0.0000000  0.0000000  3
   6423   6422   6434   6435     1  0.0000000  0.6508444  3
   6423   6422   6434   6436     1  0.0000000  0.6508444  3
   6424   6422   6434  12537     1  0.0000000  1.0460000  1
   6424   6422   6434  12537     1  0.0000000  0.0000000  3
   6424   6422   6434   6435     1  0.0000000  0.6508444  3
   6424   6422   6434   6436     1  0.0000000  0.6508444  3
   6426   6425   6431  12514     1  0.0000000  1.0460000  1
   6426   6425   6431  12514     1  0.0000000  0.0000000  3
   6426   6425   6431   6432     1  0.0000000  0.6508444  3
   6426   6425   6431   6433     1  0.0000000  0.6508444  3
   6427   6425   6431  12514     1  0.0000000  1.0460000  1
   6427   6425   6431  12514     1  0.0000000  0.0000000  3
   6427   6425   6431   6432     1  0.0000000  0.6508444  3
   6427   6425   6431   6433     1  0.0000000  0.6508444  3
   6431  12514  12510  12513     1  0.0000000  1.6038667  3
   6432   6431  12514  12510     1  0.0000000  1.6038667  3
   6433   6431  12514  12510     1  0.0000000  1.6038667  3
   6434  12537  12533  12536     1  0.0000000  1.6038667  3
   6435   6434  12537  12533     1  0.0000000  1.6038667  3
   6436   6434  12537  12533     1  0.0000000  1.6038667  3
   6438   6439   6451   6452     1  0.0000000  0.6508444  3
   6438   6439   6451   6453     1  0.0000000  0.6508444  3
   6438   6442   6454   6455     1  0.0000000  0.6508444  3
   6438   6442   6454   6456     1  0.0000000  0.6508444  3
   6438   6445   6448   6449     1  0.0000000  0.6508444  3
   6438   6445   6448   6450     1  0.0000000  0.6508444  3
   6439   6438   6442   6443     1  0.0000000  1.2552000  3
   6439   6438   6442   6444     1  0.0000000  1.2552000  3
   6439   6438   6445   6446     1  0.0000000  1.2552000  3
   6439   6438   6445   6447     1  0.0000000  1.2552000  3
   6439   6451   6463   6464     1  0.0000000  0.6508444  3
   6439   6451   6463   6465     1  0.0000000  0.6508444  3
   6440   6439   6438   6442     1  0.0000000  1.2552000  3
   6440   6439   6438   6445     1  0.0000000  1.2552000  3
   6440   6439   6451   6463     1  0.0000000  0.6508444  3
   6440   6439   6451   6452     1  0.0000000  0.6508444  3
   6440   6439   6451   6453     1  0.0000000  0.6508444  3
   6441   6439   6438   6442     1  0.0000000  1.2552000  3
   6441   6439   6438   6445     1  0.0000000  1.2552000  3
   6441   6439   6451   6463     1  0.0000000  0.6508444  3
   6441   6439   6451   6452     1  0.0000000  0.6508444  3
   6441   6439   6451   6453     1  0.0000000  0.6508444  3
   6442   6438   6445   6446     1  0.0000000  1.2552000  3
   6442   6438   6445   6447     1  0.0000000  1.2552000  3
   6442   6454   6460   6461     1  0.0000000  0.6508444  3
   6442   6454   6460   6462     1  0.0000000  0.6508444  3
   6443   6442   6438   6445     1  0.0000000  1.2552000  3
   6443   6442   6454   6460     1  0.0000000  0.6508444  3
   6443   6442   6454   6455     1  0.0000000  0.6508444  3
   6443   6442   6454   6456     1  0.0000000  0.6508444  3
   6444   6442   6438   6445     1  0.0000000  1.2552000  3
   6444   6442   6454   6460     1  0.0000000  0.6508444  3
   6444   6442   6454   6455     1  0.0000000  0.6508444  3
   6444   6442   6454   6456     1  0.0000000  0.6508444  3
   6445   6448   6457   6458     1  0.0000000  0.6508444  3
   6445   6448   6457   6459     1  0.0000000  0.6508444  3
   6446   6445   6448   6457     1  0.0000000  0.6508444  3
   6446   6445   6448   6449     1  0.0000000  0.6508444  3
   6446   6445   6448   6450     1  0.0000000  0.6508444  3
   6447   6445   6448   6457     1  0.0000000  0.6508444  3
   6447   6445   6448   6449     1  0.0000000  0.6508444  3
   6447   6445   6448   6450     1  0.0000000  0.6508444  3
   6449   6448   6457   6466     1  0.0000000  1.0460000  1
   6449   6448   6457   6466     1  0.0000000  0.0000000  3
   6449   6448   6457   6458     1  0.0000000  0.6508444  3
   6449   6448   6457   6459     1  0.0000000  0.6508444  3
   6450   6448   6457   6466     1  0.0000000  1.0460000  1
   6450   6448   6457   6466     1  0.0000000  0.0000000  3
   6450   6448   6457   6458     1  0.0000000  0.6508444  3
   6450   6448   6457   6459     1  0.0000000  0.6508444  3
   6452   6451   6463  12583     1  0.0000000  1.0460000  1
   6452   6451   6463  12583     1  0.0000000  0.0000000  3
   6452   6451   6463   6464     1  0.0000000  0.6508444  3
   6452   6451   6463   6465     1  0.0000000  0.6508444  3
   6453   6451   6463  12583     1  0.0000000  1.0460000  1
   6453   6451   6463  12583     1  0.0000000  0.0000000  3
   6453   6451   6463   6464     1  0.0000000  0.6508444  3
   6453   6451   6463   6465     1  0.0000000  0.6508444  3
   6455   6454   6460  12560     1  0.0000000  1.0460000  1
   6455   6454   6460  12560     1  0.0000000  0.0000000  3
   6455   6454   6460   6461     1  0.0000000  0.6508444  3
   6455   6454   6460   6462     1  0.0000000  0.6508444  3
   6456   6454   6460  12560     1  0.0000000  1.0460000  1
   6456   6454   6460  12560     1  0.0000000  0.0000000  3
   6456   6454   6460   6461     1  0.0000000  0.6508444  3
   6456   6454   6460   6462     1  0.0000000  0.6508444  3
   6460  12560  12556  12559     1  0.0000000  1.6038667  3
   6461   6460  12560  12556     1  0.0000000  1.6038667  3
   6462   6460  12560  12556     1  0.0000000  1.6038667  3
   6463  12583  12579  12582     1  0.0000000  1.6038667  3
   6464   6463  12583  12579     1  0.0000000  1.6038667  3
   6465   6463  12583  12579     1  0.0000000  1.6038667  3
   6467   6468   6480   6481     1  0.0000000  0.6508444  3
   6467   6468   6480   6482     1  0.0000000  0.6508444  3
   6467   6471   6483   6484     1  0.0000000  0.6508444  3
   6467   6471   6483   6485     1  0.0000000  0.6508444  3
   6467   6474   6477   6478     1  0.0000000  0.6508444  3
   6467   6474   6477   6479     1  0.0000000  0.6508444  3
   6468   6467   6471   6472     1  0.0000000  1.2552000  3
   6468   6467   6471   6473     1  0.0000000  1.2552000  3
   6468   6467   6474   6475     1  0.0000000  1.2552000  3
   6468   6467   6474   6476     1  0.0000000  1.2552000  3
   6468   6480   6492   6493     1  0.0000000  0.6508444  3
   6468   6480   6492   6494     1  0.0000000  0.6508444  3
   6469   6468   6467   6471     1  0.0000000  1.2552000  3
   6469   6468   6467   6474     1  0.0000000  1.2552000  3
   6469   6468   6480   6492     1  0.0000000  0.6508444  3
   6469   6468   6480   6481     1  0.0000000  0.6508444  3
   6469   6468   6480   6482     1  0.0000000  0.6508444  3
   6470   6468   6467   6471     1  0.0000000  1.2552000  3
   6470   6468   6467   6474     1  0.0000000  1.2552000  3
   6470   6468   6480   6492     1  0.0000000  0.6508444  3
   6470   6468   6480   6481     1  0.0000000  0.6508444  3
   6470   6468   6480   6482     1  0.0000000  0.6508444  3
   6471   6467   6474   6475     1  0.0000000  1.2552000  3
   6471   6467   6474   6476     1  0.0000000  1.2552000  3
   6471   6483   6489   6490     1  0.0000000  0.6508444  3
   6471   6483   6489   6491     1  0.0000000  0.6508444  3
   6472   6471   6467   6474     1  0.0000000  1.2552000  3
   6472   6471   6483   6489     1  0.0000000  0.6508444  3
   6472   6471   6483   6484     1  0.0000000  0.6508444  3
   6472   6471   6483   6485     1  0.0000000  0.6508444  3
   6473   6471   6467   6474     1  0.0000000  1.2552000  3
   6473   6471   6483   6489     1  0.0000000  0.6508444  3
   6473   6471   6483   6484     1  0.0000000  0.6508444  3
   6473   6471   6483   6485     1  0.0000000  0.6508444  3
   6474   6477   6486   6487     1  0.0000000  0.6508444  3
   6474   6477   6486   6488     1  0.0000000  0.6508444  3
   6475   6474   6477   6486     1  0.0000000  0.6508444  3
   6475   6474   6477   6478     1  0.0000000  0.6508444  3
   6475   6474   6477   6479     1  0.0000000  0.6508444  3
   6476   6474   6477   6486     1  0.0000000  0.6508444  3
   6476   6474   6477   6478     1  0.0000000  0.6508444  3
   6476   6474   6477   6479     1  0.0000000  0.6508444  3
   6478   6477   6486   6495     1  0.0000000  1.0460000  1
   6478   6477   6486   6495     1  0.0000000  0.0000000  3
   6478   6477   6486   6487     1  0.0000000  0.6508444  3
   6478   6477   6486   6488     1  0.0000000  0.6508444  3
   6479   6477   6486   6495     1  0.0000000  1.0460000  1
   6479   6477   6486   6495     1  0.0000000  0.0000000  3
   6479   6477   6486   6487     1  0.0000000  0.6508444  3
   6479   6477   6486   6488     1  0.0000000  0.6508444  3
   6481   6480   6492  12629     1  0.0000000  1.0460000  1
   6481   6480   6492  12629     1  0.0000000  0.0000000  3
   6481   6480   6492   6493     1  0.0000000  0.6508444  3
   6481   6480   6492   6494     1  0.0000000  0.6508444  3
   6482   6480   6492  12629     1  0.0000000  1.0460000  1
   6482   6480   6492  12629     1  0.0000000  0.0000000  3
   6482   6480   6492   6493     1  0.0000000  0.6508444  3
   6482   6480   6492   6494     1  0.0000000  0.6508444  3
   6484   6483   6489  12606     1  0.0000000  1.0460000  1
   6484   6483   6489  12606     1  0.0000000  0.0000000  3
   6484   6483   6489   6490     1  0.0000000  0.6508444  3
   6484   6483   6489   6491     1  0.0000000  0.6508444  3
   6485   6483   6489  12606     1  0.0000000  1.0460000  1
   6485   6483   6489  12606     1  0.0000000  0.0000000  3
   6485   6483   6489   6490     1  0.0000000  0.6508444  3
   6485   6483   6489   6491     1  0.0000000  0.6508444  3
   6489  12606  12602  12605     1  0.0000000  1.6038667  3
   6490   6489  12606  12602     1  0.0000000  1.6038667  3
   6491   6489  12606  12602     1  0.0000000  1.6038667  3
   6492  12629  12625  12628     1  0.0000000  1.6038667  3
   6493   6492  12629  12625     1  0.0000000  1.6038667  3
   6494   6492  12629  12625     1  0.0000000  1.6038667  3
   6496   6497   6509   6510     1  0.0000000  0.6508444  3
   6496   6497   6509   6511     1  0.0000000  0.6508444  3
   6496   6500   6512   6513     1  0.0000000  0.6508444  3
   6496   6500   6512   6514     1  0.0000000  0.6508444  3
   6496   6503   6506   6507     1  0.0000000  0.6508444  3
   6496   6503   6506   6508     1  0.0000000  0.6508444  3
   6497   6496   6500   6501     1  0.0000000  1.2552000  3
   6497   6496   6500   6502     1  0.0000000  1.2552000  3
   6497   6496   6503   6504     1  0.0000000  1.2552000  3
   6497   6496   6503   6505     1  0.0000000  1.2552000  3
   6497   6509   6521   6522     1  0.0000000  0.6508444  3
   6497   6509   6521   6523     1  0.0000000  0.6508444  3
   6498   6497   6496   6500     1  0.0000000  1.2552000  3
   6498   6497   6496   6503     1  0.0000000  1.2552000  3
   6498   6497   6509   6521     1  0.0000000  0.6508444  3
   6498   6497   6509   6510     1  0.0000000  0.6508444  3
   6498   6497   6509   6511     1  0.0000000  0.6508444  3
   6499   6497   6496   6500     1  0.0000000  1.2552000  3
   6499   6497   6496   6503     1  0.0000000  1.2552000  3
   6499   6497   6509   6521     1  0.0000000  0.6508444  3
   6499   6497   6509   6510     1  0.0000000  0.6508444  3
   6499   6497   6509   6511     1  0.0000000  0.6508444  3
   6500   6496   6503   6504     1  0.0000000  1.2552000  3
   6500   6496   6503   6505     1  0.0000000  1.2552000  3
   6500   6512   6518   6519     1  0.0000000  0.6508444  3
   6500   6512   6518   6520     1  0.0000000  0.6508444  3
   6501   6500   6496   6503     1  0.0000000  1.2552000  3
   6501   6500   6512   6518     1  0.0000000  0.6508444  3
   6501   6500   6512   6513     1  0.0000000  0.6508444  3
   6501   6500   6512   6514     1  0.0000000  0.6508444  3
   6502   6500   6496   6503     1  0.0000000  1.2552000  3
   6502   6500   6512   6518     1  0.0000000  0.6508444  3
   6502   6500   6512   6513     1  0.0000000  0.6508444  3
   6502   6500   6512   6514     1  0.0000000  0.6508444  3
   6503   6506   6515   6516     1  0.0000000  0.6508444  3
   6503   6506   6515   6517     1  0.0000000  0.6508444  3
   6504   6503   6506   6515     1  0.0000000  0.6508444  3
   6504   6503   6506   6507     1  0.0000000  0.6508444  3
   6504   6503   6506   6508     1  0.0000000  0.6508444  3
   6505   6503   6506   6515     1  0.0000000  0.6508444  3
   6505   6503   6506   6507     1  0.0000000  0.6508444  3
   6505   6503   6506   6508     1  0.0000000  0.6508444  3
   6507   6506   6515   6524     1  0.0000000  1.0460000  1
   6507   6506   6515   6524     1  0.0000000  0.0000000  3
   6507   6506   6515   6516     1  0.0000000  0.6508444  3
   6507   6506   6515   6517     1  0.0000000  0.6508444  3
   6508   6506   6515   6524     1  0.0000000  1.0460000  1
   6508   6506   6515   6524     1  0.0000000  0.0000000  3
   6508   6506   6515   6516     1  0.0000000  0.6508444  3
   6508   6506   6515   6517     1  0.0000000  0.6508444  3
   6510   6509   6521  12675     1  0.0000000  1.0460000  1
   6510   6509   6521  12675     1  0.0000000  0.0000000  3
   6510   6509   6521   6522     1  0.0000000  0.6508444  3
   6510   6509   6521   6523     1  0.0000000  0.6508444  3
   6511   6509   6521  12675     1  0.0000000  1.0460000  1
   6511   6509   6521  12675     1  0.0000000  0.0000000  3
   6511   6509   6521   6522     1  0.0000000  0.6508444  3
   6511   6509   6521   6523     1  0.0000000  0.6508444  3
   6513   6512   6518  12652     1  0.0000000  1.0460000  1
   6513   6512   6518  12652     1  0.0000000  0.0000000  3
   6513   6512   6518   6519     1  0.0000000  0.6508444  3
   6513   6512   6518   6520     1  0.0000000  0.6508444  3
   6514   6512   6518  12652     1  0.0000000  1.0460000  1
   6514   6512   6518  12652     1  0.0000000  0.0000000  3
   6514   6512   6518   6519     1  0.0000000  0.6508444  3
   6514   6512   6518   6520     1  0.0000000  0.6508444  3
   6518  12652  12648  12651     1  0.0000000  1.6038667  3
   6519   6518  12652  12648     1  0.0000000  1.6038667  3
   6520   6518  12652  12648     1  0.0000000  1.6038667  3
   6521  12675  12671  12674     1  0.0000000  1.6038667  3
   6522   6521  12675  12671     1  0.0000000  1.6038667  3
   6523   6521  12675  12671     1  0.0000000  1.6038667  3
   6525   6526   6538   6539     1  0.0000000  0.6508444  3
   6525   6526   6538   6540     1  0.0000000  0.6508444  3
   6525   6529   6541   6542     1  0.0000000  0.6508444  3
   6525   6529   6541   6543     1  0.0000000  0.6508444  3
   6525   6532   6535   6536     1  0.0000000  0.6508444  3
   6525   6532   6535   6537     1  0.0000000  0.6508444  3
   6526   6525   6529   6530     1  0.0000000  1.2552000  3
   6526   6525   6529   6531     1  0.0000000  1.2552000  3
   6526   6525   6532   6533     1  0.0000000  1.2552000  3
   6526   6525   6532   6534     1  0.0000000  1.2552000  3
   6526   6538   6550   6551     1  0.0000000  0.6508444  3
   6526   6538   6550   6552     1  0.0000000  0.6508444  3
   6527   6526   6525   6529     1  0.0000000  1.2552000  3
   6527   6526   6525   6532     1  0.0000000  1.2552000  3
   6527   6526   6538   6550     1  0.0000000  0.6508444  3
   6527   6526   6538   6539     1  0.0000000  0.6508444  3
   6527   6526   6538   6540     1  0.0000000  0.6508444  3
   6528   6526   6525   6529     1  0.0000000  1.2552000  3
   6528   6526   6525   6532     1  0.0000000  1.2552000  3
   6528   6526   6538   6550     1  0.0000000  0.6508444  3
   6528   6526   6538   6539     1  0.0000000  0.6508444  3
   6528   6526   6538   6540     1  0.0000000  0.6508444  3
   6529   6525   6532   6533     1  0.0000000  1.2552000  3
   6529   6525   6532   6534     1  0.0000000  1.2552000  3
   6529   6541   6547   6548     1  0.0000000  0.6508444  3
   6529   6541   6547   6549     1  0.0000000  0.6508444  3
   6530   6529   6525   6532     1  0.0000000  1.2552000  3
   6530   6529   6541   6547     1  0.0000000  0.6508444  3
   6530   6529   6541   6542     1  0.0000000  0.6508444  3
   6530   6529   6541   6543     1  0.0000000  0.6508444  3
   6531   6529   6525   6532     1  0.0000000  1.2552000  3
   6531   6529   6541   6547     1  0.0000000  0.6508444  3
   6531   6529   6541   6542     1  0.0000000  0.6508444  3
   6531   6529   6541   6543     1  0.0000000  0.6508444  3
   6532   6535   6544   6545     1  0.0000000  0.6508444  3
   6532   6535   6544   6546     1  0.0000000  0.6508444  3
   6533   6532   6535   6544     1  0.0000000  0.6508444  3
   6533   6532   6535   6536     1  0.0000000  0.6508444  3
   6533   6532   6535   6537     1  0.0000000  0.6508444  3
   6534   6532   6535   6544     1  0.0000000  0.6508444  3
   6534   6532   6535   6536     1  0.0000000  0.6508444  3
   6534   6532   6535   6537     1  0.0000000  0.6508444  3
   6536   6535   6544   6553     1  0.0000000  1.0460000  1
   6536   6535   6544   6553     1  0.0000000  0.0000000  3
   6536   6535   6544   6545     1  0.0000000  0.6508444  3
   6536   6535   6544   6546     1  0.0000000  0.6508444  3
   6537   6535   6544   6553     1  0.0000000  1.0460000  1
   6537   6535   6544   6553     1  0.0000000  0.0000000  3
   6537   6535   6544   6545     1  0.0000000  0.6508444  3
   6537   6535   6544   6546     1  0.0000000  0.6508444  3
   6539   6538   6550  12721     1  0.0000000  1.0460000  1
   6539   6538   6550  12721     1  0.0000000  0.0000000  3
   6539   6538   6550   6551     1  0.0000000  0.6508444  3
   6539   6538   6550   6552     1  0.0000000  0.6508444  3
   6540   6538   6550  12721     1  0.0000000  1.0460000  1
   6540   6538   6550  12721     1  0.0000000  0.0000000  3
   6540   6538   6550   6551     1  0.0000000  0.6508444  3
   6540   6538   6550   6552     1  0.0000000  0.6508444  3
   6542   6541   6547  12698     1  0.0000000  1.0460000  1
   6542   6541   6547  12698     1  0.0000000  0.0000000  3
   6542   6541   6547   6548     1  0.0000000  0.6508444  3
   6542   6541   6547   6549     1  0.0000000  0.6508444  3
   6543   6541   6547  12698     1  0.0000000  1.0460000  1
   6543   6541   6547  12698     1  0.0000000  0.0000000  3
   6543   6541   6547   6548     1  0.0000000  0.6508444  3
   6543   6541   6547   6549     1  0.0000000  0.6508444  3
   6547  12698  12694  12697     1  0.0000000  1.6038667  3
   6548   6547  12698  12694     1  0.0000000  1.6038667  3
   6549   6547  12698  12694     1  0.0000000  1.6038667  3
   6550  12721  12717  12720     1  0.0000000  1.6038667  3
   6551   6550  12721  12717     1  0.0000000  1.6038667  3
   6552   6550  12721  12717     1  0.0000000  1.6038667  3
   6554   6555   6567   6568     1  0.0000000  0.6508444  3
   6554   6555   6567   6569     1  0.0000000  0.6508444  3
   6554   6558   6570   6571     1  0.0000000  0.6508444  3
   6554   6558   6570   6572     1  0.0000000  0.6508444  3
   6554   6561   6564   6565     1  0.0000000  0.6508444  3
   6554   6561   6564   6566     1  0.0000000  0.6508444  3
   6555   6554   6558   6559     1  0.0000000  1.2552000  3
   6555   6554   6558   6560     1  0.0000000  1.2552000  3
   6555   6554   6561   6562     1  0.0000000  1.2552000  3
   6555   6554   6561   6563     1  0.0000000  1.2552000  3
   6555   6567   6579   6580     1  0.0000000  0.6508444  3
   6555   6567   6579   6581     1  0.0000000  0.6508444  3
   6556   6555   6554   6558     1  0.0000000  1.2552000  3
   6556   6555   6554   6561     1  0.0000000  1.2552000  3
   6556   6555   6567   6579     1  0.0000000  0.6508444  3
   6556   6555   6567   6568     1  0.0000000  0.6508444  3
   6556   6555   6567   6569     1  0.0000000  0.6508444  3
   6557   6555   6554   6558     1  0.0000000  1.2552000  3
   6557   6555   6554   6561     1  0.0000000  1.2552000  3
   6557   6555   6567   6579     1  0.0000000  0.6508444  3
   6557   6555   6567   6568     1  0.0000000  0.6508444  3
   6557   6555   6567   6569     1  0.0000000  0.6508444  3
   6558   6554   6561   6562     1  0.0000000  1.2552000  3
   6558   6554   6561   6563     1  0.0000000  1.2552000  3
   6558   6570   6576   6577     1  0.0000000  0.6508444  3
   6558   6570   6576   6578     1  0.0000000  0.6508444  3
   6559   6558   6554   6561     1  0.0000000  1.2552000  3
   6559   6558   6570   6576     1  0.0000000  0.6508444  3
   6559   6558   6570   6571     1  0.0000000  0.6508444  3
   6559   6558   6570   6572     1  0.0000000  0.6508444  3
   6560   6558   6554   6561     1  0.0000000  1.2552000  3
   6560   6558   6570   6576     1  0.0000000  0.6508444  3
   6560   6558   6570   6571     1  0.0000000  0.6508444  3
   6560   6558   6570   6572     1  0.0000000  0.6508444  3
   6561   6564   6573   6574     1  0.0000000  0.6508444  3
   6561   6564   6573   6575     1  0.0000000  0.6508444  3
   6562   6561   6564   6573     1  0.0000000  0.6508444  3
   6562   6561   6564   6565     1  0.0000000  0.6508444  3
   6562   6561   6564   6566     1  0.0000000  0.6508444  3
   6563   6561   6564   6573     1  0.0000000  0.6508444  3
   6563   6561   6564   6565     1  0.0000000  0.6508444  3
   6563   6561   6564   6566     1  0.0000000  0.6508444  3
   6565   6564   6573   6582     1  0.0000000  1.0460000  1
   6565   6564   6573   6582     1  0.0000000  0.0000000  3
   6565   6564   6573   6574     1  0.0000000  0.6508444  3
   6565   6564   6573   6575     1  0.0000000  0.6508444  3
   6566   6564   6573   6582     1  0.0000000  1.0460000  1
   6566   6564   6573   6582     1  0.0000000  0.0000000  3
   6566   6564   6573   6574     1  0.0000000  0.6508444  3
   6566   6564   6573   6575     1  0.0000000  0.6508444  3
   6568   6567   6579  12767     1  0.0000000  1.0460000  1
   6568   6567   6579  12767     1  0.0000000  0.0000000  3
   6568   6567   6579   6580     1  0.0000000  0.6508444  3
   6568   6567   6579   6581     1  0.0000000  0.6508444  3
   6569   6567   6579  12767     1  0.0000000  1.0460000  1
   6569   6567   6579  12767     1  0.0000000  0.0000000  3
   6569   6567   6579   6580     1  0.0000000  0.6508444  3
   6569   6567   6579   6581     1  0.0000000  0.6508444  3
   6571   6570   6576  12744     1  0.0000000  1.0460000  1
   6571   6570   6576  12744     1  0.0000000  0.0000000  3
   6571   6570   6576   6577     1  0.0000000  0.6508444  3
   6571   6570   6576   6578     1  0.0000000  0.6508444  3
   6572   6570   6576  12744     1  0.0000000  1.0460000  1
   6572   6570   6576  12744     1  0.0000000  0.0000000  3
   6572   6570   6576   6577     1  0.0000000  0.6508444  3
   6572   6570   6576   6578     1  0.0000000  0.6508444  3
   6576  12744  12740  12743     1  0.0000000  1.6038667  3
   6577   6576  12744  12740     1  0.0000000  1.6038667  3
   6578   6576  12744  12740     1  0.0000000  1.6038667  3
   6579  12767  12763  12766     1  0.0000000  1.6038667  3
   6580   6579  12767  12763     1  0.0000000  1.6038667  3
   6581   6579  12767  12763     1  0.0000000  1.6038667  3
   6583   6584   6596   6597     1  0.0000000  0.6508444  3
   6583   6584   6596   6598     1  0.0000000  0.6508444  3
   6583   6587   6599   6600     1  0.0000000  0.6508444  3
   6583   6587   6599   6601     1  0.0000000  0.6508444  3
   6583   6590   6593   6594     1  0.0000000  0.6508444  3
   6583   6590   6593   6595     1  0.0000000  0.6508444  3
   6584   6583   6587   6588     1  0.0000000  1.2552000  3
   6584   6583   6587   6589     1  0.0000000  1.2552000  3
   6584   6583   6590   6591     1  0.0000000  1.2552000  3
   6584   6583   6590   6592     1  0.0000000  1.2552000  3
   6584   6596   6608   6609     1  0.0000000  0.6508444  3
   6584   6596   6608   6610     1  0.0000000  0.6508444  3
   6585   6584   6583   6587     1  0.0000000  1.2552000  3
   6585   6584   6583   6590     1  0.0000000  1.2552000  3
   6585   6584   6596   6608     1  0.0000000  0.6508444  3
   6585   6584   6596   6597     1  0.0000000  0.6508444  3
   6585   6584   6596   6598     1  0.0000000  0.6508444  3
   6586   6584   6583   6587     1  0.0000000  1.2552000  3
   6586   6584   6583   6590     1  0.0000000  1.2552000  3
   6586   6584   6596   6608     1  0.0000000  0.6508444  3
   6586   6584   6596   6597     1  0.0000000  0.6508444  3
   6586   6584   6596   6598     1  0.0000000  0.6508444  3
   6587   6583   6590   6591     1  0.0000000  1.2552000  3
   6587   6583   6590   6592     1  0.0000000  1.2552000  3
   6587   6599   6605   6606     1  0.0000000  0.6508444  3
   6587   6599   6605   6607     1  0.0000000  0.6508444  3
   6588   6587   6583   6590     1  0.0000000  1.2552000  3
   6588   6587   6599   6605     1  0.0000000  0.6508444  3
   6588   6587   6599   6600     1  0.0000000  0.6508444  3
   6588   6587   6599   6601     1  0.0000000  0.6508444  3
   6589   6587   6583   6590     1  0.0000000  1.2552000  3
   6589   6587   6599   6605     1  0.0000000  0.6508444  3
   6589   6587   6599   6600     1  0.0000000  0.6508444  3
   6589   6587   6599   6601     1  0.0000000  0.6508444  3
   6590   6593   6602   6603     1  0.0000000  0.6508444  3
   6590   6593   6602   6604     1  0.0000000  0.6508444  3
   6591   6590   6593   6602     1  0.0000000  0.6508444  3
   6591   6590   6593   6594     1  0.0000000  0.6508444  3
   6591   6590   6593   6595     1  0.0000000  0.6508444  3
   6592   6590   6593   6602     1  0.0000000  0.6508444  3
   6592   6590   6593   6594     1  0.0000000  0.6508444  3
   6592   6590   6593   6595     1  0.0000000  0.6508444  3
   6594   6593   6602   6611     1  0.0000000  1.0460000  1
   6594   6593   6602   6611     1  0.0000000  0.0000000  3
   6594   6593   6602   6603     1  0.0000000  0.6508444  3
   6594   6593   6602   6604     1  0.0000000  0.6508444  3
   6595   6593   6602   6611     1  0.0000000  1.0460000  1
   6595   6593   6602   6611     1  0.0000000  0.0000000  3
   6595   6593   6602   6603     1  0.0000000  0.6508444  3
   6595   6593   6602   6604     1  0.0000000  0.6508444  3
   6597   6596   6608  12813     1  0.0000000  1.0460000  1
   6597   6596   6608  12813     1  0.0000000  0.0000000  3
   6597   6596   6608   6609     1  0.0000000  0.6508444  3
   6597   6596   6608   6610     1  0.0000000  0.6508444  3
   6598   6596   6608  12813     1  0.0000000  1.0460000  1
   6598   6596   6608  12813     1  0.0000000  0.0000000  3
   6598   6596   6608   6609     1  0.0000000  0.6508444  3
   6598   6596   6608   6610     1  0.0000000  0.6508444  3
   6600   6599   6605  12790     1  0.0000000  1.0460000  1
   6600   6599   6605  12790     1  0.0000000  0.0000000  3
   6600   6599   6605   6606     1  0.0000000  0.6508444  3
   6600   6599   6605   6607     1  0.0000000  0.6508444  3
   6601   6599   6605  12790     1  0.0000000  1.0460000  1
   6601   6599   6605  12790     1  0.0000000  0.0000000  3
   6601   6599   6605   6606     1  0.0000000  0.6508444  3
   6601   6599   6605   6607     1  0.0000000  0.6508444  3
   6605  12790  12786  12789     1  0.0000000  1.6038667  3
   6606   6605  12790  12786     1  0.0000000  1.6038667  3
   6607   6605  12790  12786     1  0.0000000  1.6038667  3
   6608  12813  12809  12812     1  0.0000000  1.6038667  3
   6609   6608  12813  12809     1  0.0000000  1.6038667  3
   6610   6608  12813  12809     1  0.0000000  1.6038667  3
   6612   6613   6625   6626     1  0.0000000  0.6508444  3
   6612   6613   6625   6627     1  0.0000000  0.6508444  3
   6612   6616   6628   6629     1  0.0000000  0.6508444  3
   6612   6616   6628   6630     1  0.0000000  0.6508444  3
   6612   6619   6622   6623     1  0.0000000  0.6508444  3
   6612   6619   6622   6624     1  0.0000000  0.6508444  3
   6613   6612   6616   6617     1  0.0000000  1.2552000  3
   6613   6612   6616   6618     1  0.0000000  1.2552000  3
   6613   6612   6619   6620     1  0.0000000  1.2552000  3
   6613   6612   6619   6621     1  0.0000000  1.2552000  3
   6613   6625   6637   6638     1  0.0000000  0.6508444  3
   6613   6625   6637   6639     1  0.0000000  0.6508444  3
   6614   6613   6612   6616     1  0.0000000  1.2552000  3
   6614   6613   6612   6619     1  0.0000000  1.2552000  3
   6614   6613   6625   6637     1  0.0000000  0.6508444  3
   6614   6613   6625   6626     1  0.0000000  0.6508444  3
   6614   6613   6625   6627     1  0.0000000  0.6508444  3
   6615   6613   6612   6616     1  0.0000000  1.2552000  3
   6615   6613   6612   6619     1  0.0000000  1.2552000  3
   6615   6613   6625   6637     1  0.0000000  0.6508444  3
   6615   6613   6625   6626     1  0.0000000  0.6508444  3
   6615   6613   6625   6627     1  0.0000000  0.6508444  3
   6616   6612   6619   6620     1  0.0000000  1.2552000  3
   6616   6612   6619   6621     1  0.0000000  1.2552000  3
   6616   6628   6634   6635     1  0.0000000  0.6508444  3
   6616   6628   6634   6636     1  0.0000000  0.6508444  3
   6617   6616   6612   6619     1  0.0000000  1.2552000  3
   6617   6616   6628   6634     1  0.0000000  0.6508444  3
   6617   6616   6628   6629     1  0.0000000  0.6508444  3
   6617   6616   6628   6630     1  0.0000000  0.6508444  3
   6618   6616   6612   6619     1  0.0000000  1.2552000  3
   6618   6616   6628   6634     1  0.0000000  0.6508444  3
   6618   6616   6628   6629     1  0.0000000  0.6508444  3
   6618   6616   6628   6630     1  0.0000000  0.6508444  3
   6619   6622   6631   6632     1  0.0000000  0.6508444  3
   6619   6622   6631   6633     1  0.0000000  0.6508444  3
   6620   6619   6622   6631     1  0.0000000  0.6508444  3
   6620   6619   6622   6623     1  0.0000000  0.6508444  3
   6620   6619   6622   6624     1  0.0000000  0.6508444  3
   6621   6619   6622   6631     1  0.0000000  0.6508444  3
   6621   6619   6622   6623     1  0.0000000  0.6508444  3
   6621   6619   6622   6624     1  0.0000000  0.6508444  3
   6623   6622   6631   6640     1  0.0000000  1.0460000  1
   6623   6622   6631   6640     1  0.0000000  0.0000000  3
   6623   6622   6631   6632     1  0.0000000  0.6508444  3
   6623   6622   6631   6633     1  0.0000000  0.6508444  3
   6624   6622   6631   6640     1  0.0000000  1.0460000  1
   6624   6622   6631   6640     1  0.0000000  0.0000000  3
   6624   6622   6631   6632     1  0.0000000  0.6508444  3
   6624   6622   6631   6633     1  0.0000000  0.6508444  3
   6626   6625   6637  12859     1  0.0000000  1.0460000  1
   6626   6625   6637  12859     1  0.0000000  0.0000000  3
   6626   6625   6637   6638     1  0.0000000  0.6508444  3
   6626   6625   6637   6639     1  0.0000000  0.6508444  3
   6627   6625   6637  12859     1  0.0000000  1.0460000  1
   6627   6625   6637  12859     1  0.0000000  0.0000000  3
   6627   6625   6637   6638     1  0.0000000  0.6508444  3
   6627   6625   6637   6639     1  0.0000000  0.6508444  3
   6629   6628   6634  12836     1  0.0000000  1.0460000  1
   6629   6628   6634  12836     1  0.0000000  0.0000000  3
   6629   6628   6634   6635     1  0.0000000  0.6508444  3
   6629   6628   6634   6636     1  0.0000000  0.6508444  3
   6630   6628   6634  12836     1  0.0000000  1.0460000  1
   6630   6628   6634  12836     1  0.0000000  0.0000000  3
   6630   6628   6634   6635     1  0.0000000  0.6508444  3
   6630   6628   6634   6636     1  0.0000000  0.6508444  3
   6634  12836  12832  12835     1  0.0000000  1.6038667  3
   6635   6634  12836  12832     1  0.0000000  1.6038667  3
   6636   6634  12836  12832     1  0.0000000  1.6038667  3
   6637  12859  12855  12858     1  0.0000000  1.6038667  3
   6638   6637  12859  12855     1  0.0000000  1.6038667  3
   6639   6637  12859  12855     1  0.0000000  1.6038667  3
   6641   6642   6654   6655     1  0.0000000  0.6508444  3
   6641   6642   6654   6656     1  0.0000000  0.6508444  3
   6641   6645   6657   6658     1  0.0000000  0.6508444  3
   6641   6645   6657   6659     1  0.0000000  0.6508444  3
   6641   6648   6651   6652     1  0.0000000  0.6508444  3
   6641   6648   6651   6653     1  0.0000000  0.6508444  3
   6642   6641   6645   6646     1  0.0000000  1.2552000  3
   6642   6641   6645   6647     1  0.0000000  1.2552000  3
   6642   6641   6648   6649     1  0.0000000  1.2552000  3
   6642   6641   6648   6650     1  0.0000000  1.2552000  3
   6642   6654   6666   6667     1  0.0000000  0.6508444  3
   6642   6654   6666   6668     1  0.0000000  0.6508444  3
   6643   6642   6641   6645     1  0.0000000  1.2552000  3
   6643   6642   6641   6648     1  0.0000000  1.2552000  3
   6643   6642   6654   6666     1  0.0000000  0.6508444  3
   6643   6642   6654   6655     1  0.0000000  0.6508444  3
   6643   6642   6654   6656     1  0.0000000  0.6508444  3
   6644   6642   6641   6645     1  0.0000000  1.2552000  3
   6644   6642   6641   6648     1  0.0000000  1.2552000  3
   6644   6642   6654   6666     1  0.0000000  0.6508444  3
   6644   6642   6654   6655     1  0.0000000  0.6508444  3
   6644   6642   6654   6656     1  0.0000000  0.6508444  3
   6645   6641   6648   6649     1  0.0000000  1.2552000  3
   6645   6641   6648   6650     1  0.0000000  1.2552000  3
   6645   6657   6663   6664     1  0.0000000  0.6508444  3
   6645   6657   6663   6665     1  0.0000000  0.6508444  3
   6646   6645   6641   6648     1  0.0000000  1.2552000  3
   6646   6645   6657   6663     1  0.0000000  0.6508444  3
   6646   6645   6657   6658     1  0.0000000  0.6508444  3
   6646   6645   6657   6659     1  0.0000000  0.6508444  3
   6647   6645   6641   6648     1  0.0000000  1.2552000  3
   6647   6645   6657   6663     1  0.0000000  0.6508444  3
   6647   6645   6657   6658     1  0.0000000  0.6508444  3
   6647   6645   6657   6659     1  0.0000000  0.6508444  3
   6648   6651   6660   6661     1  0.0000000  0.6508444  3
   6648   6651   6660   6662     1  0.0000000  0.6508444  3
   6649   6648   6651   6660     1  0.0000000  0.6508444  3
   6649   6648   6651   6652     1  0.0000000  0.6508444  3
   6649   6648   6651   6653     1  0.0000000  0.6508444  3
   6650   6648   6651   6660     1  0.0000000  0.6508444  3
   6650   6648   6651   6652     1  0.0000000  0.6508444  3
   6650   6648   6651   6653     1  0.0000000  0.6508444  3
   6652   6651   6660   6669     1  0.0000000  1.0460000  1
   6652   6651   6660   6669     1  0.0000000  0.0000000  3
   6652   6651   6660   6661     1  0.0000000  0.6508444  3
   6652   6651   6660   6662     1  0.0000000  0.6508444  3
   6653   6651   6660   6669     1  0.0000000  1.0460000  1
   6653   6651   6660   6669     1  0.0000000  0.0000000  3
   6653   6651   6660   6661     1  0.0000000  0.6508444  3
   6653   6651   6660   6662     1  0.0000000  0.6508444  3
   6655   6654   6666  12905     1  0.0000000  1.0460000  1
   6655   6654   6666  12905     1  0.0000000  0.0000000  3
   6655   6654   6666   6667     1  0.0000000  0.6508444  3
   6655   6654   6666   6668     1  0.0000000  0.6508444  3
   6656   6654   6666  12905     1  0.0000000  1.0460000  1
   6656   6654   6666  12905     1  0.0000000  0.0000000  3
   6656   6654   6666   6667     1  0.0000000  0.6508444  3
   6656   6654   6666   6668     1  0.0000000  0.6508444  3
   6658   6657   6663  12882     1  0.0000000  1.0460000  1
   6658   6657   6663  12882     1  0.0000000  0.0000000  3
   6658   6657   6663   6664     1  0.0000000  0.6508444  3
   6658   6657   6663   6665     1  0.0000000  0.6508444  3
   6659   6657   6663  12882     1  0.0000000  1.0460000  1
   6659   6657   6663  12882     1  0.0000000  0.0000000  3
   6659   6657   6663   6664     1  0.0000000  0.6508444  3
   6659   6657   6663   6665     1  0.0000000  0.6508444  3
   6663  12882  12878  12881     1  0.0000000  1.6038667  3
   6664   6663  12882  12878     1  0.0000000  1.6038667  3
   6665   6663  12882  12878     1  0.0000000  1.6038667  3
   6666  12905  12901  12904     1  0.0000000  1.6038667  3
   6667   6666  12905  12901     1  0.0000000  1.6038667  3
   6668   6666  12905  12901     1  0.0000000  1.6038667  3
   6670   6671   6683   6684     1  0.0000000  0.6508444  3
   6670   6671   6683   6685     1  0.0000000  0.6508444  3
   6670   6674   6686   6687     1  0.0000000  0.6508444  3
   6670   6674   6686   6688     1  0.0000000  0.6508444  3
   6670   6677   6680   6681     1  0.0000000  0.6508444  3
   6670   6677   6680   6682     1  0.0000000  0.6508444  3
   6671   6670   6674   6675     1  0.0000000  1.2552000  3
   6671   6670   6674   6676     1  0.0000000  1.2552000  3
   6671   6670   6677   6678     1  0.0000000  1.2552000  3
   6671   6670   6677   6679     1  0.0000000  1.2552000  3
   6671   6683   6695   6696     1  0.0000000  0.6508444  3
   6671   6683   6695   6697     1  0.0000000  0.6508444  3
   6672   6671   6670   6674     1  0.0000000  1.2552000  3
   6672   6671   6670   6677     1  0.0000000  1.2552000  3
   6672   6671   6683   6695     1  0.0000000  0.6508444  3
   6672   6671   6683   6684     1  0.0000000  0.6508444  3
   6672   6671   6683   6685     1  0.0000000  0.6508444  3
   6673   6671   6670   6674     1  0.0000000  1.2552000  3
   6673   6671   6670   6677     1  0.0000000  1.2552000  3
   6673   6671   6683   6695     1  0.0000000  0.6508444  3
   6673   6671   6683   6684     1  0.0000000  0.6508444  3
   6673   6671   6683   6685     1  0.0000000  0.6508444  3
   6674   6670   6677   6678     1  0.0000000  1.2552000  3
   6674   6670   6677   6679     1  0.0000000  1.2552000  3
   6674   6686   6692   6693     1  0.0000000  0.6508444  3
   6674   6686   6692   6694     1  0.0000000  0.6508444  3
   6675   6674   6670   6677     1  0.0000000  1.2552000  3
   6675   6674   6686   6692     1  0.0000000  0.6508444  3
   6675   6674   6686   6687     1  0.0000000  0.6508444  3
   6675   6674   6686   6688     1  0.0000000  0.6508444  3
   6676   6674   6670   6677     1  0.0000000  1.2552000  3
   6676   6674   6686   6692     1  0.0000000  0.6508444  3
   6676   6674   6686   6687     1  0.0000000  0.6508444  3
   6676   6674   6686   6688     1  0.0000000  0.6508444  3
   6677   6680   6689   6690     1  0.0000000  0.6508444  3
   6677   6680   6689   6691     1  0.0000000  0.6508444  3
   6678   6677   6680   6689     1  0.0000000  0.6508444  3
   6678   6677   6680   6681     1  0.0000000  0.6508444  3
   6678   6677   6680   6682     1  0.0000000  0.6508444  3
   6679   6677   6680   6689     1  0.0000000  0.6508444  3
   6679   6677   6680   6681     1  0.0000000  0.6508444  3
   6679   6677   6680   6682     1  0.0000000  0.6508444  3
   6681   6680   6689   6698     1  0.0000000  1.0460000  1
   6681   6680   6689   6698     1  0.0000000  0.0000000  3
   6681   6680   6689   6690     1  0.0000000  0.6508444  3
   6681   6680   6689   6691     1  0.0000000  0.6508444  3
   6682   6680   6689   6698     1  0.0000000  1.0460000  1
   6682   6680   6689   6698     1  0.0000000  0.0000000  3
   6682   6680   6689   6690     1  0.0000000  0.6508444  3
   6682   6680   6689   6691     1  0.0000000  0.6508444  3
   6684   6683   6695  12951     1  0.0000000  1.0460000  1
   6684   6683   6695  12951     1  0.0000000  0.0000000  3
   6684   6683   6695   6696     1  0.0000000  0.6508444  3
   6684   6683   6695   6697     1  0.0000000  0.6508444  3
   6685   6683   6695  12951     1  0.0000000  1.0460000  1
   6685   6683   6695  12951     1  0.0000000  0.0000000  3
   6685   6683   6695   6696     1  0.0000000  0.6508444  3
   6685   6683   6695   6697     1  0.0000000  0.6508444  3
   6687   6686   6692  12928     1  0.0000000  1.0460000  1
   6687   6686   6692  12928     1  0.0000000  0.0000000  3
   6687   6686   6692   6693     1  0.0000000  0.6508444  3
   6687   6686   6692   6694     1  0.0000000  0.6508444  3
   6688   6686   6692  12928     1  0.0000000  1.0460000  1
   6688   6686   6692  12928     1  0.0000000  0.0000000  3
   6688   6686   6692   6693     1  0.0000000  0.6508444  3
   6688   6686   6692   6694     1  0.0000000  0.6508444  3
   6692  12928  12924  12927     1  0.0000000  1.6038667  3
   6693   6692  12928  12924     1  0.0000000  1.6038667  3
   6694   6692  12928  12924     1  0.0000000  1.6038667  3
   6695  12951  12947  12950     1  0.0000000  1.6038667  3
   6696   6695  12951  12947     1  0.0000000  1.6038667  3
   6697   6695  12951  12947     1  0.0000000  1.6038667  3
   6699   6700   6712   6713     1  0.0000000  0.6508444  3
   6699   6700   6712   6714     1  0.0000000  0.6508444  3
   6699   6703   6715   6716     1  0.0000000  0.6508444  3
   6699   6703   6715   6717     1  0.0000000  0.6508444  3
   6699   6706   6709   6710     1  0.0000000  0.6508444  3
   6699   6706   6709   6711     1  0.0000000  0.6508444  3
   6700   6699   6703   6704     1  0.0000000  1.2552000  3
   6700   6699   6703   6705     1  0.0000000  1.2552000  3
   6700   6699   6706   6707     1  0.0000000  1.2552000  3
   6700   6699   6706   6708     1  0.0000000  1.2552000  3
   6700   6712   6724   6725     1  0.0000000  0.6508444  3
   6700   6712   6724   6726     1  0.0000000  0.6508444  3
   6701   6700   6699   6703     1  0.0000000  1.2552000  3
   6701   6700   6699   6706     1  0.0000000  1.2552000  3
   6701   6700   6712   6724     1  0.0000000  0.6508444  3
   6701   6700   6712   6713     1  0.0000000  0.6508444  3
   6701   6700   6712   6714     1  0.0000000  0.6508444  3
   6702   6700   6699   6703     1  0.0000000  1.2552000  3
   6702   6700   6699   6706     1  0.0000000  1.2552000  3
   6702   6700   6712   6724     1  0.0000000  0.6508444  3
   6702   6700   6712   6713     1  0.0000000  0.6508444  3
   6702   6700   6712   6714     1  0.0000000  0.6508444  3
   6703   6699   6706   6707     1  0.0000000  1.2552000  3
   6703   6699   6706   6708     1  0.0000000  1.2552000  3
   6703   6715   6721   6722     1  0.0000000  0.6508444  3
   6703   6715   6721   6723     1  0.0000000  0.6508444  3
   6704   6703   6699   6706     1  0.0000000  1.2552000  3
   6704   6703   6715   6721     1  0.0000000  0.6508444  3
   6704   6703   6715   6716     1  0.0000000  0.6508444  3
   6704   6703   6715   6717     1  0.0000000  0.6508444  3
   6705   6703   6699   6706     1  0.0000000  1.2552000  3
   6705   6703   6715   6721     1  0.0000000  0.6508444  3
   6705   6703   6715   6716     1  0.0000000  0.6508444  3
   6705   6703   6715   6717     1  0.0000000  0.6508444  3
   6706   6709   6718   6719     1  0.0000000  0.6508444  3
   6706   6709   6718   6720     1  0.0000000  0.6508444  3
   6707   6706   6709   6718     1  0.0000000  0.6508444  3
   6707   6706   6709   6710     1  0.0000000  0.6508444  3
   6707   6706   6709   6711     1  0.0000000  0.6508444  3
   6708   6706   6709   6718     1  0.0000000  0.6508444  3
   6708   6706   6709   6710     1  0.0000000  0.6508444  3
   6708   6706   6709   6711     1  0.0000000  0.6508444  3
   6710   6709   6718   6727     1  0.0000000  1.0460000  1
   6710   6709   6718   6727     1  0.0000000  0.0000000  3
   6710   6709   6718   6719     1  0.0000000  0.6508444  3
   6710   6709   6718   6720     1  0.0000000  0.6508444  3
   6711   6709   6718   6727     1  0.0000000  1.0460000  1
   6711   6709   6718   6727     1  0.0000000  0.0000000  3
   6711   6709   6718   6719     1  0.0000000  0.6508444  3
   6711   6709   6718   6720     1  0.0000000  0.6508444  3
   6713   6712   6724  12997     1  0.0000000  1.0460000  1
   6713   6712   6724  12997     1  0.0000000  0.0000000  3
   6713   6712   6724   6725     1  0.0000000  0.6508444  3
   6713   6712   6724   6726     1  0.0000000  0.6508444  3
   6714   6712   6724  12997     1  0.0000000  1.0460000  1
   6714   6712   6724  12997     1  0.0000000  0.0000000  3
   6714   6712   6724   6725     1  0.0000000  0.6508444  3
   6714   6712   6724   6726     1  0.0000000  0.6508444  3
   6716   6715   6721  12974     1  0.0000000  1.0460000  1
   6716   6715   6721  12974     1  0.0000000  0.0000000  3
   6716   6715   6721   6722     1  0.0000000  0.6508444  3
   6716   6715   6721   6723     1  0.0000000  0.6508444  3
   6717   6715   6721  12974     1  0.0000000  1.0460000  1
   6717   6715   6721  12974     1  0.0000000  0.0000000  3
   6717   6715   6721   6722     1  0.0000000  0.6508444  3
   6717   6715   6721   6723     1  0.0000000  0.6508444  3
   6721  12974  12970  12973     1  0.0000000  1.6038667  3
   6722   6721  12974  12970     1  0.0000000  1.6038667  3
   6723   6721  12974  12970     1  0.0000000  1.6038667  3
   6724  12997  12993  12996     1  0.0000000  1.6038667  3
   6725   6724  12997  12993     1  0.0000000  1.6038667  3
   6726   6724  12997  12993     1  0.0000000  1.6038667  3
   6728   6729   6741   6742     1  0.0000000  0.6508444  3
   6728   6729   6741   6743     1  0.0000000  0.6508444  3
   6728   6732   6744   6745     1  0.0000000  0.6508444  3
   6728   6732   6744   6746     1  0.0000000  0.6508444  3
   6728   6735   6738   6739     1  0.0000000  0.6508444  3
   6728   6735   6738   6740     1  0.0000000  0.6508444  3
   6729   6728   6732   6733     1  0.0000000  1.2552000  3
   6729   6728   6732   6734     1  0.0000000  1.2552000  3
   6729   6728   6735   6736     1  0.0000000  1.2552000  3
   6729   6728   6735   6737     1  0.0000000  1.2552000  3
   6729   6741   6753   6754     1  0.0000000  0.6508444  3
   6729   6741   6753   6755     1  0.0000000  0.6508444  3
   6730   6729   6728   6732     1  0.0000000  1.2552000  3
   6730   6729   6728   6735     1  0.0000000  1.2552000  3
   6730   6729   6741   6753     1  0.0000000  0.6508444  3
   6730   6729   6741   6742     1  0.0000000  0.6508444  3
   6730   6729   6741   6743     1  0.0000000  0.6508444  3
   6731   6729   6728   6732     1  0.0000000  1.2552000  3
   6731   6729   6728   6735     1  0.0000000  1.2552000  3
   6731   6729   6741   6753     1  0.0000000  0.6508444  3
   6731   6729   6741   6742     1  0.0000000  0.6508444  3
   6731   6729   6741   6743     1  0.0000000  0.6508444  3
   6732   6728   6735   6736     1  0.0000000  1.2552000  3
   6732   6728   6735   6737     1  0.0000000  1.2552000  3
   6732   6744   6750   6751     1  0.0000000  0.6508444  3
   6732   6744   6750   6752     1  0.0000000  0.6508444  3
   6733   6732   6728   6735     1  0.0000000  1.2552000  3
   6733   6732   6744   6750     1  0.0000000  0.6508444  3
   6733   6732   6744   6745     1  0.0000000  0.6508444  3
   6733   6732   6744   6746     1  0.0000000  0.6508444  3
   6734   6732   6728   6735     1  0.0000000  1.2552000  3
   6734   6732   6744   6750     1  0.0000000  0.6508444  3
   6734   6732   6744   6745     1  0.0000000  0.6508444  3
   6734   6732   6744   6746     1  0.0000000  0.6508444  3
   6735   6738   6747   6748     1  0.0000000  0.6508444  3
   6735   6738   6747   6749     1  0.0000000  0.6508444  3
   6736   6735   6738   6747     1  0.0000000  0.6508444  3
   6736   6735   6738   6739     1  0.0000000  0.6508444  3
   6736   6735   6738   6740     1  0.0000000  0.6508444  3
   6737   6735   6738   6747     1  0.0000000  0.6508444  3
   6737   6735   6738   6739     1  0.0000000  0.6508444  3
   6737   6735   6738   6740     1  0.0000000  0.6508444  3
   6739   6738   6747   6756     1  0.0000000  1.0460000  1
   6739   6738   6747   6756     1  0.0000000  0.0000000  3
   6739   6738   6747   6748     1  0.0000000  0.6508444  3
   6739   6738   6747   6749     1  0.0000000  0.6508444  3
   6740   6738   6747   6756     1  0.0000000  1.0460000  1
   6740   6738   6747   6756     1  0.0000000  0.0000000  3
   6740   6738   6747   6748     1  0.0000000  0.6508444  3
   6740   6738   6747   6749     1  0.0000000  0.6508444  3
   6742   6741   6753  13043     1  0.0000000  1.0460000  1
   6742   6741   6753  13043     1  0.0000000  0.0000000  3
   6742   6741   6753   6754     1  0.0000000  0.6508444  3
   6742   6741   6753   6755     1  0.0000000  0.6508444  3
   6743   6741   6753  13043     1  0.0000000  1.0460000  1
   6743   6741   6753  13043     1  0.0000000  0.0000000  3
   6743   6741   6753   6754     1  0.0000000  0.6508444  3
   6743   6741   6753   6755     1  0.0000000  0.6508444  3
   6745   6744   6750  13020     1  0.0000000  1.0460000  1
   6745   6744   6750  13020     1  0.0000000  0.0000000  3
   6745   6744   6750   6751     1  0.0000000  0.6508444  3
   6745   6744   6750   6752     1  0.0000000  0.6508444  3
   6746   6744   6750  13020     1  0.0000000  1.0460000  1
   6746   6744   6750  13020     1  0.0000000  0.0000000  3
   6746   6744   6750   6751     1  0.0000000  0.6508444  3
   6746   6744   6750   6752     1  0.0000000  0.6508444  3
   6750  13020  13016  13019     1  0.0000000  1.6038667  3
   6751   6750  13020  13016     1  0.0000000  1.6038667  3
   6752   6750  13020  13016     1  0.0000000  1.6038667  3
   6753  13043  13039  13042     1  0.0000000  1.6038667  3
   6754   6753  13043  13039     1  0.0000000  1.6038667  3
   6755   6753  13043  13039     1  0.0000000  1.6038667  3
   6757   6758   6770   6771     1  0.0000000  0.6508444  3
   6757   6758   6770   6772     1  0.0000000  0.6508444  3
   6757   6761   6773   6774     1  0.0000000  0.6508444  3
   6757   6761   6773   6775     1  0.0000000  0.6508444  3
   6757   6764   6767   6768     1  0.0000000  0.6508444  3
   6757   6764   6767   6769     1  0.0000000  0.6508444  3
   6758   6757   6761   6762     1  0.0000000  1.2552000  3
   6758   6757   6761   6763     1  0.0000000  1.2552000  3
   6758   6757   6764   6765     1  0.0000000  1.2552000  3
   6758   6757   6764   6766     1  0.0000000  1.2552000  3
   6758   6770   6782   6783     1  0.0000000  0.6508444  3
   6758   6770   6782   6784     1  0.0000000  0.6508444  3
   6759   6758   6757   6761     1  0.0000000  1.2552000  3
   6759   6758   6757   6764     1  0.0000000  1.2552000  3
   6759   6758   6770   6782     1  0.0000000  0.6508444  3
   6759   6758   6770   6771     1  0.0000000  0.6508444  3
   6759   6758   6770   6772     1  0.0000000  0.6508444  3
   6760   6758   6757   6761     1  0.0000000  1.2552000  3
   6760   6758   6757   6764     1  0.0000000  1.2552000  3
   6760   6758   6770   6782     1  0.0000000  0.6508444  3
   6760   6758   6770   6771     1  0.0000000  0.6508444  3
   6760   6758   6770   6772     1  0.0000000  0.6508444  3
   6761   6757   6764   6765     1  0.0000000  1.2552000  3
   6761   6757   6764   6766     1  0.0000000  1.2552000  3
   6761   6773   6779   6780     1  0.0000000  0.6508444  3
   6761   6773   6779   6781     1  0.0000000  0.6508444  3
   6762   6761   6757   6764     1  0.0000000  1.2552000  3
   6762   6761   6773   6779     1  0.0000000  0.6508444  3
   6762   6761   6773   6774     1  0.0000000  0.6508444  3
   6762   6761   6773   6775     1  0.0000000  0.6508444  3
   6763   6761   6757   6764     1  0.0000000  1.2552000  3
   6763   6761   6773   6779     1  0.0000000  0.6508444  3
   6763   6761   6773   6774     1  0.0000000  0.6508444  3
   6763   6761   6773   6775     1  0.0000000  0.6508444  3
   6764   6767   6776   6777     1  0.0000000  0.6508444  3
   6764   6767   6776   6778     1  0.0000000  0.6508444  3
   6765   6764   6767   6776     1  0.0000000  0.6508444  3
   6765   6764   6767   6768     1  0.0000000  0.6508444  3
   6765   6764   6767   6769     1  0.0000000  0.6508444  3
   6766   6764   6767   6776     1  0.0000000  0.6508444  3
   6766   6764   6767   6768     1  0.0000000  0.6508444  3
   6766   6764   6767   6769     1  0.0000000  0.6508444  3
   6768   6767   6776   6785     1  0.0000000  1.0460000  1
   6768   6767   6776   6785     1  0.0000000  0.0000000  3
   6768   6767   6776   6777     1  0.0000000  0.6508444  3
   6768   6767   6776   6778     1  0.0000000  0.6508444  3
   6769   6767   6776   6785     1  0.0000000  1.0460000  1
   6769   6767   6776   6785     1  0.0000000  0.0000000  3
   6769   6767   6776   6777     1  0.0000000  0.6508444  3
   6769   6767   6776   6778     1  0.0000000  0.6508444  3
   6771   6770   6782  13089     1  0.0000000  1.0460000  1
   6771   6770   6782  13089     1  0.0000000  0.0000000  3
   6771   6770   6782   6783     1  0.0000000  0.6508444  3
   6771   6770   6782   6784     1  0.0000000  0.6508444  3
   6772   6770   6782  13089     1  0.0000000  1.0460000  1
   6772   6770   6782  13089     1  0.0000000  0.0000000  3
   6772   6770   6782   6783     1  0.0000000  0.6508444  3
   6772   6770   6782   6784     1  0.0000000  0.6508444  3
   6774   6773   6779  13066     1  0.0000000  1.0460000  1
   6774   6773   6779  13066     1  0.0000000  0.0000000  3
   6774   6773   6779   6780     1  0.0000000  0.6508444  3
   6774   6773   6779   6781     1  0.0000000  0.6508444  3
   6775   6773   6779  13066     1  0.0000000  1.0460000  1
   6775   6773   6779  13066     1  0.0000000  0.0000000  3
   6775   6773   6779   6780     1  0.0000000  0.6508444  3
   6775   6773   6779   6781     1  0.0000000  0.6508444  3
   6779  13066  13062  13065     1  0.0000000  1.6038667  3
   6780   6779  13066  13062     1  0.0000000  1.6038667  3
   6781   6779  13066  13062     1  0.0000000  1.6038667  3
   6782  13089  13085  13088     1  0.0000000  1.6038667  3
   6783   6782  13089  13085     1  0.0000000  1.6038667  3
   6784   6782  13089  13085     1  0.0000000  1.6038667  3
   6786   6787   6799   6800     1  0.0000000  0.6508444  3
   6786   6787   6799   6801     1  0.0000000  0.6508444  3
   6786   6790   6802   6803     1  0.0000000  0.6508444  3
   6786   6790   6802   6804     1  0.0000000  0.6508444  3
   6786   6793   6796   6797     1  0.0000000  0.6508444  3
   6786   6793   6796   6798     1  0.0000000  0.6508444  3
   6787   6786   6790   6791     1  0.0000000  1.2552000  3
   6787   6786   6790   6792     1  0.0000000  1.2552000  3
   6787   6786   6793   6794     1  0.0000000  1.2552000  3
   6787   6786   6793   6795     1  0.0000000  1.2552000  3
   6787   6799   6811   6812     1  0.0000000  0.6508444  3
   6787   6799   6811   6813     1  0.0000000  0.6508444  3
   6788   6787   6786   6790     1  0.0000000  1.2552000  3
   6788   6787   6786   6793     1  0.0000000  1.2552000  3
   6788   6787   6799   6811     1  0.0000000  0.6508444  3
   6788   6787   6799   6800     1  0.0000000  0.6508444  3
   6788   6787   6799   6801     1  0.0000000  0.6508444  3
   6789   6787   6786   6790     1  0.0000000  1.2552000  3
   6789   6787   6786   6793     1  0.0000000  1.2552000  3
   6789   6787   6799   6811     1  0.0000000  0.6508444  3
   6789   6787   6799   6800     1  0.0000000  0.6508444  3
   6789   6787   6799   6801     1  0.0000000  0.6508444  3
   6790   6786   6793   6794     1  0.0000000  1.2552000  3
   6790   6786   6793   6795     1  0.0000000  1.2552000  3
   6790   6802   6808   6809     1  0.0000000  0.6508444  3
   6790   6802   6808   6810     1  0.0000000  0.6508444  3
   6791   6790   6786   6793     1  0.0000000  1.2552000  3
   6791   6790   6802   6808     1  0.0000000  0.6508444  3
   6791   6790   6802   6803     1  0.0000000  0.6508444  3
   6791   6790   6802   6804     1  0.0000000  0.6508444  3
   6792   6790   6786   6793     1  0.0000000  1.2552000  3
   6792   6790   6802   6808     1  0.0000000  0.6508444  3
   6792   6790   6802   6803     1  0.0000000  0.6508444  3
   6792   6790   6802   6804     1  0.0000000  0.6508444  3
   6793   6796   6805   6806     1  0.0000000  0.6508444  3
   6793   6796   6805   6807     1  0.0000000  0.6508444  3
   6794   6793   6796   6805     1  0.0000000  0.6508444  3
   6794   6793   6796   6797     1  0.0000000  0.6508444  3
   6794   6793   6796   6798     1  0.0000000  0.6508444  3
   6795   6793   6796   6805     1  0.0000000  0.6508444  3
   6795   6793   6796   6797     1  0.0000000  0.6508444  3
   6795   6793   6796   6798     1  0.0000000  0.6508444  3
   6797   6796   6805   6814     1  0.0000000  1.0460000  1
   6797   6796   6805   6814     1  0.0000000  0.0000000  3
   6797   6796   6805   6806     1  0.0000000  0.6508444  3
   6797   6796   6805   6807     1  0.0000000  0.6508444  3
   6798   6796   6805   6814     1  0.0000000  1.0460000  1
   6798   6796   6805   6814     1  0.0000000  0.0000000  3
   6798   6796   6805   6806     1  0.0000000  0.6508444  3
   6798   6796   6805   6807     1  0.0000000  0.6508444  3
   6800   6799   6811  13135     1  0.0000000  1.0460000  1
   6800   6799   6811  13135     1  0.0000000  0.0000000  3
   6800   6799   6811   6812     1  0.0000000  0.6508444  3
   6800   6799   6811   6813     1  0.0000000  0.6508444  3
   6801   6799   6811  13135     1  0.0000000  1.0460000  1
   6801   6799   6811  13135     1  0.0000000  0.0000000  3
   6801   6799   6811   6812     1  0.0000000  0.6508444  3
   6801   6799   6811   6813     1  0.0000000  0.6508444  3
   6803   6802   6808  13112     1  0.0000000  1.0460000  1
   6803   6802   6808  13112     1  0.0000000  0.0000000  3
   6803   6802   6808   6809     1  0.0000000  0.6508444  3
   6803   6802   6808   6810     1  0.0000000  0.6508444  3
   6804   6802   6808  13112     1  0.0000000  1.0460000  1
   6804   6802   6808  13112     1  0.0000000  0.0000000  3
   6804   6802   6808   6809     1  0.0000000  0.6508444  3
   6804   6802   6808   6810     1  0.0000000  0.6508444  3
   6808  13112  13108  13111     1  0.0000000  1.6038667  3
   6809   6808  13112  13108     1  0.0000000  1.6038667  3
   6810   6808  13112  13108     1  0.0000000  1.6038667  3
   6811  13135  13131  13134     1  0.0000000  1.6038667  3
   6812   6811  13135  13131     1  0.0000000  1.6038667  3
   6813   6811  13135  13131     1  0.0000000  1.6038667  3
   6815   6816   6828   6829     1  0.0000000  0.6508444  3
   6815   6816   6828   6830     1  0.0000000  0.6508444  3
   6815   6819   6831   6832     1  0.0000000  0.6508444  3
   6815   6819   6831   6833     1  0.0000000  0.6508444  3
   6815   6822   6825   6826     1  0.0000000  0.6508444  3
   6815   6822   6825   6827     1  0.0000000  0.6508444  3
   6816   6815   6819   6820     1  0.0000000  1.2552000  3
   6816   6815   6819   6821     1  0.0000000  1.2552000  3
   6816   6815   6822   6823     1  0.0000000  1.2552000  3
   6816   6815   6822   6824     1  0.0000000  1.2552000  3
   6816   6828   6840   6841     1  0.0000000  0.6508444  3
   6816   6828   6840   6842     1  0.0000000  0.6508444  3
   6817   6816   6815   6819     1  0.0000000  1.2552000  3
   6817   6816   6815   6822     1  0.0000000  1.2552000  3
   6817   6816   6828   6840     1  0.0000000  0.6508444  3
   6817   6816   6828   6829     1  0.0000000  0.6508444  3
   6817   6816   6828   6830     1  0.0000000  0.6508444  3
   6818   6816   6815   6819     1  0.0000000  1.2552000  3
   6818   6816   6815   6822     1  0.0000000  1.2552000  3
   6818   6816   6828   6840     1  0.0000000  0.6508444  3
   6818   6816   6828   6829     1  0.0000000  0.6508444  3
   6818   6816   6828   6830     1  0.0000000  0.6508444  3
   6819   6815   6822   6823     1  0.0000000  1.2552000  3
   6819   6815   6822   6824     1  0.0000000  1.2552000  3
   6819   6831   6837   6838     1  0.0000000  0.6508444  3
   6819   6831   6837   6839     1  0.0000000  0.6508444  3
   6820   6819   6815   6822     1  0.0000000  1.2552000  3
   6820   6819   6831   6837     1  0.0000000  0.6508444  3
   6820   6819   6831   6832     1  0.0000000  0.6508444  3
   6820   6819   6831   6833     1  0.0000000  0.6508444  3
   6821   6819   6815   6822     1  0.0000000  1.2552000  3
   6821   6819   6831   6837     1  0.0000000  0.6508444  3
   6821   6819   6831   6832     1  0.0000000  0.6508444  3
   6821   6819   6831   6833     1  0.0000000  0.6508444  3
   6822   6825   6834   6835     1  0.0000000  0.6508444  3
   6822   6825   6834   6836     1  0.0000000  0.6508444  3
   6823   6822   6825   6834     1  0.0000000  0.6508444  3
   6823   6822   6825   6826     1  0.0000000  0.6508444  3
   6823   6822   6825   6827     1  0.0000000  0.6508444  3
   6824   6822   6825   6834     1  0.0000000  0.6508444  3
   6824   6822   6825   6826     1  0.0000000  0.6508444  3
   6824   6822   6825   6827     1  0.0000000  0.6508444  3
   6826   6825   6834   6843     1  0.0000000  1.0460000  1
   6826   6825   6834   6843     1  0.0000000  0.0000000  3
   6826   6825   6834   6835     1  0.0000000  0.6508444  3
   6826   6825   6834   6836     1  0.0000000  0.6508444  3
   6827   6825   6834   6843     1  0.0000000  1.0460000  1
   6827   6825   6834   6843     1  0.0000000  0.0000000  3
   6827   6825   6834   6835     1  0.0000000  0.6508444  3
   6827   6825   6834   6836     1  0.0000000  0.6508444  3
   6829   6828   6840  13181     1  0.0000000  1.0460000  1
   6829   6828   6840  13181     1  0.0000000  0.0000000  3
   6829   6828   6840   6841     1  0.0000000  0.6508444  3
   6829   6828   6840   6842     1  0.0000000  0.6508444  3
   6830   6828   6840  13181     1  0.0000000  1.0460000  1
   6830   6828   6840  13181     1  0.0000000  0.0000000  3
   6830   6828   6840   6841     1  0.0000000  0.6508444  3
   6830   6828   6840   6842     1  0.0000000  0.6508444  3
   6832   6831   6837  13158     1  0.0000000  1.0460000  1
   6832   6831   6837  13158     1  0.0000000  0.0000000  3
   6832   6831   6837   6838     1  0.0000000  0.6508444  3
   6832   6831   6837   6839     1  0.0000000  0.6508444  3
   6833   6831   6837  13158     1  0.0000000  1.0460000  1
   6833   6831   6837  13158     1  0.0000000  0.0000000  3
   6833   6831   6837   6838     1  0.0000000  0.6508444  3
   6833   6831   6837   6839     1  0.0000000  0.6508444  3
   6837  13158  13154  13157     1  0.0000000  1.6038667  3
   6838   6837  13158  13154     1  0.0000000  1.6038667  3
   6839   6837  13158  13154     1  0.0000000  1.6038667  3
   6840  13181  13177  13180     1  0.0000000  1.6038667  3
   6841   6840  13181  13177     1  0.0000000  1.6038667  3
   6842   6840  13181  13177     1  0.0000000  1.6038667  3
   6844   6845   6857   6858     1  0.0000000  0.6508444  3
   6844   6845   6857   6859     1  0.0000000  0.6508444  3
   6844   6848   6860   6861     1  0.0000000  0.6508444  3
   6844   6848   6860   6862     1  0.0000000  0.6508444  3
   6844   6851   6854   6855     1  0.0000000  0.6508444  3
   6844   6851   6854   6856     1  0.0000000  0.6508444  3
   6845   6844   6848   6849     1  0.0000000  1.2552000  3
   6845   6844   6848   6850     1  0.0000000  1.2552000  3
   6845   6844   6851   6852     1  0.0000000  1.2552000  3
   6845   6844   6851   6853     1  0.0000000  1.2552000  3
   6845   6857   6869   6870     1  0.0000000  0.6508444  3
   6845   6857   6869   6871     1  0.0000000  0.6508444  3
   6846   6845   6844   6848     1  0.0000000  1.2552000  3
   6846   6845   6844   6851     1  0.0000000  1.2552000  3
   6846   6845   6857   6869     1  0.0000000  0.6508444  3
   6846   6845   6857   6858     1  0.0000000  0.6508444  3
   6846   6845   6857   6859     1  0.0000000  0.6508444  3
   6847   6845   6844   6848     1  0.0000000  1.2552000  3
   6847   6845   6844   6851     1  0.0000000  1.2552000  3
   6847   6845   6857   6869     1  0.0000000  0.6508444  3
   6847   6845   6857   6858     1  0.0000000  0.6508444  3
   6847   6845   6857   6859     1  0.0000000  0.6508444  3
   6848   6844   6851   6852     1  0.0000000  1.2552000  3
   6848   6844   6851   6853     1  0.0000000  1.2552000  3
   6848   6860   6866   6867     1  0.0000000  0.6508444  3
   6848   6860   6866   6868     1  0.0000000  0.6508444  3
   6849   6848   6844   6851     1  0.0000000  1.2552000  3
   6849   6848   6860   6866     1  0.0000000  0.6508444  3
   6849   6848   6860   6861     1  0.0000000  0.6508444  3
   6849   6848   6860   6862     1  0.0000000  0.6508444  3
   6850   6848   6844   6851     1  0.0000000  1.2552000  3
   6850   6848   6860   6866     1  0.0000000  0.6508444  3
   6850   6848   6860   6861     1  0.0000000  0.6508444  3
   6850   6848   6860   6862     1  0.0000000  0.6508444  3
   6851   6854   6863   6864     1  0.0000000  0.6508444  3
   6851   6854   6863   6865     1  0.0000000  0.6508444  3
   6852   6851   6854   6863     1  0.0000000  0.6508444  3
   6852   6851   6854   6855     1  0.0000000  0.6508444  3
   6852   6851   6854   6856     1  0.0000000  0.6508444  3
   6853   6851   6854   6863     1  0.0000000  0.6508444  3
   6853   6851   6854   6855     1  0.0000000  0.6508444  3
   6853   6851   6854   6856     1  0.0000000  0.6508444  3
   6855   6854   6863   6872     1  0.0000000  1.0460000  1
   6855   6854   6863   6872     1  0.0000000  0.0000000  3
   6855   6854   6863   6864     1  0.0000000  0.6508444  3
   6855   6854   6863   6865     1  0.0000000  0.6508444  3
   6856   6854   6863   6872     1  0.0000000  1.0460000  1
   6856   6854   6863   6872     1  0.0000000  0.0000000  3
   6856   6854   6863   6864     1  0.0000000  0.6508444  3
   6856   6854   6863   6865     1  0.0000000  0.6508444  3
   6858   6857   6869  13227     1  0.0000000  1.0460000  1
   6858   6857   6869  13227     1  0.0000000  0.0000000  3
   6858   6857   6869   6870     1  0.0000000  0.6508444  3
   6858   6857   6869   6871     1  0.0000000  0.6508444  3
   6859   6857   6869  13227     1  0.0000000  1.0460000  1
   6859   6857   6869  13227     1  0.0000000  0.0000000  3
   6859   6857   6869   6870     1  0.0000000  0.6508444  3
   6859   6857   6869   6871     1  0.0000000  0.6508444  3
   6861   6860   6866  13204     1  0.0000000  1.0460000  1
   6861   6860   6866  13204     1  0.0000000  0.0000000  3
   6861   6860   6866   6867     1  0.0000000  0.6508444  3
   6861   6860   6866   6868     1  0.0000000  0.6508444  3
   6862   6860   6866  13204     1  0.0000000  1.0460000  1
   6862   6860   6866  13204     1  0.0000000  0.0000000  3
   6862   6860   6866   6867     1  0.0000000  0.6508444  3
   6862   6860   6866   6868     1  0.0000000  0.6508444  3
   6866  13204  13200  13203     1  0.0000000  1.6038667  3
   6867   6866  13204  13200     1  0.0000000  1.6038667  3
   6868   6866  13204  13200     1  0.0000000  1.6038667  3
   6869  13227  13223  13226     1  0.0000000  1.6038667  3
   6870   6869  13227  13223     1  0.0000000  1.6038667  3
   6871   6869  13227  13223     1  0.0000000  1.6038667  3
   6873   6874   6886   6887     1  0.0000000  0.6508444  3
   6873   6874   6886   6888     1  0.0000000  0.6508444  3
   6873   6877   6889   6890     1  0.0000000  0.6508444  3
   6873   6877   6889   6891     1  0.0000000  0.6508444  3
   6873   6880   6883   6884     1  0.0000000  0.6508444  3
   6873   6880   6883   6885     1  0.0000000  0.6508444  3
   6874   6873   6877   6878     1  0.0000000  1.2552000  3
   6874   6873   6877   6879     1  0.0000000  1.2552000  3
   6874   6873   6880   6881     1  0.0000000  1.2552000  3
   6874   6873   6880   6882     1  0.0000000  1.2552000  3
   6874   6886   6898   6899     1  0.0000000  0.6508444  3
   6874   6886   6898   6900     1  0.0000000  0.6508444  3
   6875   6874   6873   6877     1  0.0000000  1.2552000  3
   6875   6874   6873   6880     1  0.0000000  1.2552000  3
   6875   6874   6886   6898     1  0.0000000  0.6508444  3
   6875   6874   6886   6887     1  0.0000000  0.6508444  3
   6875   6874   6886   6888     1  0.0000000  0.6508444  3
   6876   6874   6873   6877     1  0.0000000  1.2552000  3
   6876   6874   6873   6880     1  0.0000000  1.2552000  3
   6876   6874   6886   6898     1  0.0000000  0.6508444  3
   6876   6874   6886   6887     1  0.0000000  0.6508444  3
   6876   6874   6886   6888     1  0.0000000  0.6508444  3
   6877   6873   6880   6881     1  0.0000000  1.2552000  3
   6877   6873   6880   6882     1  0.0000000  1.2552000  3
   6877   6889   6895   6896     1  0.0000000  0.6508444  3
   6877   6889   6895   6897     1  0.0000000  0.6508444  3
   6878   6877   6873   6880     1  0.0000000  1.2552000  3
   6878   6877   6889   6895     1  0.0000000  0.6508444  3
   6878   6877   6889   6890     1  0.0000000  0.6508444  3
   6878   6877   6889   6891     1  0.0000000  0.6508444  3
   6879   6877   6873   6880     1  0.0000000  1.2552000  3
   6879   6877   6889   6895     1  0.0000000  0.6508444  3
   6879   6877   6889   6890     1  0.0000000  0.6508444  3
   6879   6877   6889   6891     1  0.0000000  0.6508444  3
   6880   6883   6892   6893     1  0.0000000  0.6508444  3
   6880   6883   6892   6894     1  0.0000000  0.6508444  3
   6881   6880   6883   6892     1  0.0000000  0.6508444  3
   6881   6880   6883   6884     1  0.0000000  0.6508444  3
   6881   6880   6883   6885     1  0.0000000  0.6508444  3
   6882   6880   6883   6892     1  0.0000000  0.6508444  3
   6882   6880   6883   6884     1  0.0000000  0.6508444  3
   6882   6880   6883   6885     1  0.0000000  0.6508444  3
   6884   6883   6892   6901     1  0.0000000  1.0460000  1
   6884   6883   6892   6901     1  0.0000000  0.0000000  3
   6884   6883   6892   6893     1  0.0000000  0.6508444  3
   6884   6883   6892   6894     1  0.0000000  0.6508444  3
   6885   6883   6892   6901     1  0.0000000  1.0460000  1
   6885   6883   6892   6901     1  0.0000000  0.0000000  3
   6885   6883   6892   6893     1  0.0000000  0.6508444  3
   6885   6883   6892   6894     1  0.0000000  0.6508444  3
   6887   6886   6898  13273     1  0.0000000  1.0460000  1
   6887   6886   6898  13273     1  0.0000000  0.0000000  3
   6887   6886   6898   6899     1  0.0000000  0.6508444  3
   6887   6886   6898   6900     1  0.0000000  0.6508444  3
   6888   6886   6898  13273     1  0.0000000  1.0460000  1
   6888   6886   6898  13273     1  0.0000000  0.0000000  3
   6888   6886   6898   6899     1  0.0000000  0.6508444  3
   6888   6886   6898   6900     1  0.0000000  0.6508444  3
   6890   6889   6895  13250     1  0.0000000  1.0460000  1
   6890   6889   6895  13250     1  0.0000000  0.0000000  3
   6890   6889   6895   6896     1  0.0000000  0.6508444  3
   6890   6889   6895   6897     1  0.0000000  0.6508444  3
   6891   6889   6895  13250     1  0.0000000  1.0460000  1
   6891   6889   6895  13250     1  0.0000000  0.0000000  3
   6891   6889   6895   6896     1  0.0000000  0.6508444  3
   6891   6889   6895   6897     1  0.0000000  0.6508444  3
   6895  13250  13246  13249     1  0.0000000  1.6038667  3
   6896   6895  13250  13246     1  0.0000000  1.6038667  3
   6897   6895  13250  13246     1  0.0000000  1.6038667  3
   6898  13273  13269  13272     1  0.0000000  1.6038667  3
   6899   6898  13273  13269     1  0.0000000  1.6038667  3
   6900   6898  13273  13269     1  0.0000000  1.6038667  3
   6902   6903   6915   6916     1  0.0000000  0.6508444  3
   6902   6903   6915   6917     1  0.0000000  0.6508444  3
   6902   6906   6918   6919     1  0.0000000  0.6508444  3
   6902   6906   6918   6920     1  0.0000000  0.6508444  3
   6902   6909   6912   6913     1  0.0000000  0.6508444  3
   6902   6909   6912   6914     1  0.0000000  0.6508444  3
   6903   6902   6906   6907     1  0.0000000  1.2552000  3
   6903   6902   6906   6908     1  0.0000000  1.2552000  3
   6903   6902   6909   6910     1  0.0000000  1.2552000  3
   6903   6902   6909   6911     1  0.0000000  1.2552000  3
   6903   6915   6927   6928     1  0.0000000  0.6508444  3
   6903   6915   6927   6929     1  0.0000000  0.6508444  3
   6904   6903   6902   6906     1  0.0000000  1.2552000  3
   6904   6903   6902   6909     1  0.0000000  1.2552000  3
   6904   6903   6915   6927     1  0.0000000  0.6508444  3
   6904   6903   6915   6916     1  0.0000000  0.6508444  3
   6904   6903   6915   6917     1  0.0000000  0.6508444  3
   6905   6903   6902   6906     1  0.0000000  1.2552000  3
   6905   6903   6902   6909     1  0.0000000  1.2552000  3
   6905   6903   6915   6927     1  0.0000000  0.6508444  3
   6905   6903   6915   6916     1  0.0000000  0.6508444  3
   6905   6903   6915   6917     1  0.0000000  0.6508444  3
   6906   6902   6909   6910     1  0.0000000  1.2552000  3
   6906   6902   6909   6911     1  0.0000000  1.2552000  3
   6906   6918   6924   6925     1  0.0000000  0.6508444  3
   6906   6918   6924   6926     1  0.0000000  0.6508444  3
   6907   6906   6902   6909     1  0.0000000  1.2552000  3
   6907   6906   6918   6924     1  0.0000000  0.6508444  3
   6907   6906   6918   6919     1  0.0000000  0.6508444  3
   6907   6906   6918   6920     1  0.0000000  0.6508444  3
   6908   6906   6902   6909     1  0.0000000  1.2552000  3
   6908   6906   6918   6924     1  0.0000000  0.6508444  3
   6908   6906   6918   6919     1  0.0000000  0.6508444  3
   6908   6906   6918   6920     1  0.0000000  0.6508444  3
   6909   6912   6921   6922     1  0.0000000  0.6508444  3
   6909   6912   6921   6923     1  0.0000000  0.6508444  3
   6910   6909   6912   6921     1  0.0000000  0.6508444  3
   6910   6909   6912   6913     1  0.0000000  0.6508444  3
   6910   6909   6912   6914     1  0.0000000  0.6508444  3
   6911   6909   6912   6921     1  0.0000000  0.6508444  3
   6911   6909   6912   6913     1  0.0000000  0.6508444  3
   6911   6909   6912   6914     1  0.0000000  0.6508444  3
   6913   6912   6921   6930     1  0.0000000  1.0460000  1
   6913   6912   6921   6930     1  0.0000000  0.0000000  3
   6913   6912   6921   6922     1  0.0000000  0.6508444  3
   6913   6912   6921   6923     1  0.0000000  0.6508444  3
   6914   6912   6921   6930     1  0.0000000  1.0460000  1
   6914   6912   6921   6930     1  0.0000000  0.0000000  3
   6914   6912   6921   6922     1  0.0000000  0.6508444  3
   6914   6912   6921   6923     1  0.0000000  0.6508444  3
   6916   6915   6927  13319     1  0.0000000  1.0460000  1
   6916   6915   6927  13319     1  0.0000000  0.0000000  3
   6916   6915   6927   6928     1  0.0000000  0.6508444  3
   6916   6915   6927   6929     1  0.0000000  0.6508444  3
   6917   6915   6927  13319     1  0.0000000  1.0460000  1
   6917   6915   6927  13319     1  0.0000000  0.0000000  3
   6917   6915   6927   6928     1  0.0000000  0.6508444  3
   6917   6915   6927   6929     1  0.0000000  0.6508444  3
   6919   6918   6924  13296     1  0.0000000  1.0460000  1
   6919   6918   6924  13296     1  0.0000000  0.0000000  3
   6919   6918   6924   6925     1  0.0000000  0.6508444  3
   6919   6918   6924   6926     1  0.0000000  0.6508444  3
   6920   6918   6924  13296     1  0.0000000  1.0460000  1
   6920   6918   6924  13296     1  0.0000000  0.0000000  3
   6920   6918   6924   6925     1  0.0000000  0.6508444  3
   6920   6918   6924   6926     1  0.0000000  0.6508444  3
   6924  13296  13292  13295     1  0.0000000  1.6038667  3
   6925   6924  13296  13292     1  0.0000000  1.6038667  3
   6926   6924  13296  13292     1  0.0000000  1.6038667  3
   6927  13319  13315  13318     1  0.0000000  1.6038667  3
   6928   6927  13319  13315     1  0.0000000  1.6038667  3
   6929   6927  13319  13315     1  0.0000000  1.6038667  3
   6931   6932   6944   6945     1  0.0000000  0.6508444  3
   6931   6932   6944   6946     1  0.0000000  0.6508444  3
   6931   6935   6947   6948     1  0.0000000  0.6508444  3
   6931   6935   6947   6949     1  0.0000000  0.6508444  3
   6931   6938   6941   6942     1  0.0000000  0.6508444  3
   6931   6938   6941   6943     1  0.0000000  0.6508444  3
   6932   6931   6935   6936     1  0.0000000  1.2552000  3
   6932   6931   6935   6937     1  0.0000000  1.2552000  3
   6932   6931   6938   6939     1  0.0000000  1.2552000  3
   6932   6931   6938   6940     1  0.0000000  1.2552000  3
   6932   6944   6956   6957     1  0.0000000  0.6508444  3
   6932   6944   6956   6958     1  0.0000000  0.6508444  3
   6933   6932   6931   6935     1  0.0000000  1.2552000  3
   6933   6932   6931   6938     1  0.0000000  1.2552000  3
   6933   6932   6944   6956     1  0.0000000  0.6508444  3
   6933   6932   6944   6945     1  0.0000000  0.6508444  3
   6933   6932   6944   6946     1  0.0000000  0.6508444  3
   6934   6932   6931   6935     1  0.0000000  1.2552000  3
   6934   6932   6931   6938     1  0.0000000  1.2552000  3
   6934   6932   6944   6956     1  0.0000000  0.6508444  3
   6934   6932   6944   6945     1  0.0000000  0.6508444  3
   6934   6932   6944   6946     1  0.0000000  0.6508444  3
   6935   6931   6938   6939     1  0.0000000  1.2552000  3
   6935   6931   6938   6940     1  0.0000000  1.2552000  3
   6935   6947   6953   6954     1  0.0000000  0.6508444  3
   6935   6947   6953   6955     1  0.0000000  0.6508444  3
   6936   6935   6931   6938     1  0.0000000  1.2552000  3
   6936   6935   6947   6953     1  0.0000000  0.6508444  3
   6936   6935   6947   6948     1  0.0000000  0.6508444  3
   6936   6935   6947   6949     1  0.0000000  0.6508444  3
   6937   6935   6931   6938     1  0.0000000  1.2552000  3
   6937   6935   6947   6953     1  0.0000000  0.6508444  3
   6937   6935   6947   6948     1  0.0000000  0.6508444  3
   6937   6935   6947   6949     1  0.0000000  0.6508444  3
   6938   6941   6950   6951     1  0.0000000  0.6508444  3
   6938   6941   6950   6952     1  0.0000000  0.6508444  3
   6939   6938   6941   6950     1  0.0000000  0.6508444  3
   6939   6938   6941   6942     1  0.0000000  0.6508444  3
   6939   6938   6941   6943     1  0.0000000  0.6508444  3
   6940   6938   6941   6950     1  0.0000000  0.6508444  3
   6940   6938   6941   6942     1  0.0000000  0.6508444  3
   6940   6938   6941   6943     1  0.0000000  0.6508444  3
   6942   6941   6950   6959     1  0.0000000  1.0460000  1
   6942   6941   6950   6959     1  0.0000000  0.0000000  3
   6942   6941   6950   6951     1  0.0000000  0.6508444  3
   6942   6941   6950   6952     1  0.0000000  0.6508444  3
   6943   6941   6950   6959     1  0.0000000  1.0460000  1
   6943   6941   6950   6959     1  0.0000000  0.0000000  3
   6943   6941   6950   6951     1  0.0000000  0.6508444  3
   6943   6941   6950   6952     1  0.0000000  0.6508444  3
   6945   6944   6956  13365     1  0.0000000  1.0460000  1
   6945   6944   6956  13365     1  0.0000000  0.0000000  3
   6945   6944   6956   6957     1  0.0000000  0.6508444  3
   6945   6944   6956   6958     1  0.0000000  0.6508444  3
   6946   6944   6956  13365     1  0.0000000  1.0460000  1
   6946   6944   6956  13365     1  0.0000000  0.0000000  3
   6946   6944   6956   6957     1  0.0000000  0.6508444  3
   6946   6944   6956   6958     1  0.0000000  0.6508444  3
   6948   6947   6953  13342     1  0.0000000  1.0460000  1
   6948   6947   6953  13342     1  0.0000000  0.0000000  3
   6948   6947   6953   6954     1  0.0000000  0.6508444  3
   6948   6947   6953   6955     1  0.0000000  0.6508444  3
   6949   6947   6953  13342     1  0.0000000  1.0460000  1
   6949   6947   6953  13342     1  0.0000000  0.0000000  3
   6949   6947   6953   6954     1  0.0000000  0.6508444  3
   6949   6947   6953   6955     1  0.0000000  0.6508444  3
   6953  13342  13338  13341     1  0.0000000  1.6038667  3
   6954   6953  13342  13338     1  0.0000000  1.6038667  3
   6955   6953  13342  13338     1  0.0000000  1.6038667  3
   6956  13365  13361  13364     1  0.0000000  1.6038667  3
   6957   6956  13365  13361     1  0.0000000  1.6038667  3
   6958   6956  13365  13361     1  0.0000000  1.6038667  3
   6960   6961   6973   6974     1  0.0000000  0.6508444  3
   6960   6961   6973   6975     1  0.0000000  0.6508444  3
   6960   6964   6976   6977     1  0.0000000  0.6508444  3
   6960   6964   6976   6978     1  0.0000000  0.6508444  3
   6960   6967   6970   6971     1  0.0000000  0.6508444  3
   6960   6967   6970   6972     1  0.0000000  0.6508444  3
   6961   6960   6964   6965     1  0.0000000  1.2552000  3
   6961   6960   6964   6966     1  0.0000000  1.2552000  3
   6961   6960   6967   6968     1  0.0000000  1.2552000  3
   6961   6960   6967   6969     1  0.0000000  1.2552000  3
   6961   6973   6985   6986     1  0.0000000  0.6508444  3
   6961   6973   6985   6987     1  0.0000000  0.6508444  3
   6962   6961   6960   6964     1  0.0000000  1.2552000  3
   6962   6961   6960   6967     1  0.0000000  1.2552000  3
   6962   6961   6973   6985     1  0.0000000  0.6508444  3
   6962   6961   6973   6974     1  0.0000000  0.6508444  3
   6962   6961   6973   6975     1  0.0000000  0.6508444  3
   6963   6961   6960   6964     1  0.0000000  1.2552000  3
   6963   6961   6960   6967     1  0.0000000  1.2552000  3
   6963   6961   6973   6985     1  0.0000000  0.6508444  3
   6963   6961   6973   6974     1  0.0000000  0.6508444  3
   6963   6961   6973   6975     1  0.0000000  0.6508444  3
   6964   6960   6967   6968     1  0.0000000  1.2552000  3
   6964   6960   6967   6969     1  0.0000000  1.2552000  3
   6964   6976   6982   6983     1  0.0000000  0.6508444  3
   6964   6976   6982   6984     1  0.0000000  0.6508444  3
   6965   6964   6960   6967     1  0.0000000  1.2552000  3
   6965   6964   6976   6982     1  0.0000000  0.6508444  3
   6965   6964   6976   6977     1  0.0000000  0.6508444  3
   6965   6964   6976   6978     1  0.0000000  0.6508444  3
   6966   6964   6960   6967     1  0.0000000  1.2552000  3
   6966   6964   6976   6982     1  0.0000000  0.6508444  3
   6966   6964   6976   6977     1  0.0000000  0.6508444  3
   6966   6964   6976   6978     1  0.0000000  0.6508444  3
   6967   6970   6979   6980     1  0.0000000  0.6508444  3
   6967   6970   6979   6981     1  0.0000000  0.6508444  3
   6968   6967   6970   6979     1  0.0000000  0.6508444  3
   6968   6967   6970   6971     1  0.0000000  0.6508444  3
   6968   6967   6970   6972     1  0.0000000  0.6508444  3
   6969   6967   6970   6979     1  0.0000000  0.6508444  3
   6969   6967   6970   6971     1  0.0000000  0.6508444  3
   6969   6967   6970   6972     1  0.0000000  0.6508444  3
   6971   6970   6979   6988     1  0.0000000  1.0460000  1
   6971   6970   6979   6988     1  0.0000000  0.0000000  3
   6971   6970   6979   6980     1  0.0000000  0.6508444  3
   6971   6970   6979   6981     1  0.0000000  0.6508444  3
   6972   6970   6979   6988     1  0.0000000  1.0460000  1
   6972   6970   6979   6988     1  0.0000000  0.0000000  3
   6972   6970   6979   6980     1  0.0000000  0.6508444  3
   6972   6970   6979   6981     1  0.0000000  0.6508444  3
   6974   6973   6985  13411     1  0.0000000  1.0460000  1
   6974   6973   6985  13411     1  0.0000000  0.0000000  3
   6974   6973   6985   6986     1  0.0000000  0.6508444  3
   6974   6973   6985   6987     1  0.0000000  0.6508444  3
   6975   6973   6985  13411     1  0.0000000  1.0460000  1
   6975   6973   6985  13411     1  0.0000000  0.0000000  3
   6975   6973   6985   6986     1  0.0000000  0.6508444  3
   6975   6973   6985   6987     1  0.0000000  0.6508444  3
   6977   6976   6982  13388     1  0.0000000  1.0460000  1
   6977   6976   6982  13388     1  0.0000000  0.0000000  3
   6977   6976   6982   6983     1  0.0000000  0.6508444  3
   6977   6976   6982   6984     1  0.0000000  0.6508444  3
   6978   6976   6982  13388     1  0.0000000  1.0460000  1
   6978   6976   6982  13388     1  0.0000000  0.0000000  3
   6978   6976   6982   6983     1  0.0000000  0.6508444  3
   6978   6976   6982   6984     1  0.0000000  0.6508444  3
   6982  13388  13384  13387     1  0.0000000  1.6038667  3
   6983   6982  13388  13384     1  0.0000000  1.6038667  3
   6984   6982  13388  13384     1  0.0000000  1.6038667  3
   6985  13411  13407  13410     1  0.0000000  1.6038667  3
   6986   6985  13411  13407     1  0.0000000  1.6038667  3
   6987   6985  13411  13407     1  0.0000000  1.6038667  3
   6989   6990   7002   7003     1  0.0000000  0.6508444  3
   6989   6990   7002   7004     1  0.0000000  0.6508444  3
   6989   6993   7005   7006     1  0.0000000  0.6508444  3
   6989   6993   7005   7007     1  0.0000000  0.6508444  3
   6989   6996   6999   7000     1  0.0000000  0.6508444  3
   6989   6996   6999   7001     1  0.0000000  0.6508444  3
   6990   6989   6993   6994     1  0.0000000  1.2552000  3
   6990   6989   6993   6995     1  0.0000000  1.2552000  3
   6990   6989   6996   6997     1  0.0000000  1.2552000  3
   6990   6989   6996   6998     1  0.0000000  1.2552000  3
   6990   7002   7014   7015     1  0.0000000  0.6508444  3
   6990   7002   7014   7016     1  0.0000000  0.6508444  3
   6991   6990   6989   6993     1  0.0000000  1.2552000  3
   6991   6990   6989   6996     1  0.0000000  1.2552000  3
   6991   6990   7002   7014     1  0.0000000  0.6508444  3
   6991   6990   7002   7003     1  0.0000000  0.6508444  3
   6991   6990   7002   7004     1  0.0000000  0.6508444  3
   6992   6990   6989   6993     1  0.0000000  1.2552000  3
   6992   6990   6989   6996     1  0.0000000  1.2552000  3
   6992   6990   7002   7014     1  0.0000000  0.6508444  3
   6992   6990   7002   7003     1  0.0000000  0.6508444  3
   6992   6990   7002   7004     1  0.0000000  0.6508444  3
   6993   6989   6996   6997     1  0.0000000  1.2552000  3
   6993   6989   6996   6998     1  0.0000000  1.2552000  3
   6993   7005   7011   7012     1  0.0000000  0.6508444  3
   6993   7005   7011   7013     1  0.0000000  0.6508444  3
   6994   6993   6989   6996     1  0.0000000  1.2552000  3
   6994   6993   7005   7011     1  0.0000000  0.6508444  3
   6994   6993   7005   7006     1  0.0000000  0.6508444  3
   6994   6993   7005   7007     1  0.0000000  0.6508444  3
   6995   6993   6989   6996     1  0.0000000  1.2552000  3
   6995   6993   7005   7011     1  0.0000000  0.6508444  3
   6995   6993   7005   7006     1  0.0000000  0.6508444  3
   6995   6993   7005   7007     1  0.0000000  0.6508444  3
   6996   6999   7008   7009     1  0.0000000  0.6508444  3
   6996   6999   7008   7010     1  0.0000000  0.6508444  3
   6997   6996   6999   7008     1  0.0000000  0.6508444  3
   6997   6996   6999   7000     1  0.0000000  0.6508444  3
   6997   6996   6999   7001     1  0.0000000  0.6508444  3
   6998   6996   6999   7008     1  0.0000000  0.6508444  3
   6998   6996   6999   7000     1  0.0000000  0.6508444  3
   6998   6996   6999   7001     1  0.0000000  0.6508444  3
   7000   6999   7008   7017     1  0.0000000  1.0460000  1
   7000   6999   7008   7017     1  0.0000000  0.0000000  3
   7000   6999   7008   7009     1  0.0000000  0.6508444  3
   7000   6999   7008   7010     1  0.0000000  0.6508444  3
   7001   6999   7008   7017     1  0.0000000  1.0460000  1
   7001   6999   7008   7017     1  0.0000000  0.0000000  3
   7001   6999   7008   7009     1  0.0000000  0.6508444  3
   7001   6999   7008   7010     1  0.0000000  0.6508444  3
   7003   7002   7014  13457     1  0.0000000  1.0460000  1
   7003   7002   7014  13457     1  0.0000000  0.0000000  3
   7003   7002   7014   7015     1  0.0000000  0.6508444  3
   7003   7002   7014   7016     1  0.0000000  0.6508444  3
   7004   7002   7014  13457     1  0.0000000  1.0460000  1
   7004   7002   7014  13457     1  0.0000000  0.0000000  3
   7004   7002   7014   7015     1  0.0000000  0.6508444  3
   7004   7002   7014   7016     1  0.0000000  0.6508444  3
   7006   7005   7011  13434     1  0.0000000  1.0460000  1
   7006   7005   7011  13434     1  0.0000000  0.0000000  3
   7006   7005   7011   7012     1  0.0000000  0.6508444  3
   7006   7005   7011   7013     1  0.0000000  0.6508444  3
   7007   7005   7011  13434     1  0.0000000  1.0460000  1
   7007   7005   7011  13434     1  0.0000000  0.0000000  3
   7007   7005   7011   7012     1  0.0000000  0.6508444  3
   7007   7005   7011   7013     1  0.0000000  0.6508444  3
   7011  13434  13430  13433     1  0.0000000  1.6038667  3
   7012   7011  13434  13430     1  0.0000000  1.6038667  3
   7013   7011  13434  13430     1  0.0000000  1.6038667  3
   7014  13457  13453  13456     1  0.0000000  1.6038667  3
   7015   7014  13457  13453     1  0.0000000  1.6038667  3
   7016   7014  13457  13453     1  0.0000000  1.6038667  3
   7018   7019   7031   7032     1  0.0000000  0.6508444  3
   7018   7019   7031   7033     1  0.0000000  0.6508444  3
   7018   7022   7034   7035     1  0.0000000  0.6508444  3
   7018   7022   7034   7036     1  0.0000000  0.6508444  3
   7018   7025   7028   7029     1  0.0000000  0.6508444  3
   7018   7025   7028   7030     1  0.0000000  0.6508444  3
   7019   7018   7022   7023     1  0.0000000  1.2552000  3
   7019   7018   7022   7024     1  0.0000000  1.2552000  3
   7019   7018   7025   7026     1  0.0000000  1.2552000  3
   7019   7018   7025   7027     1  0.0000000  1.2552000  3
   7019   7031   7043   7044     1  0.0000000  0.6508444  3
   7019   7031   7043   7045     1  0.0000000  0.6508444  3
   7020   7019   7018   7022     1  0.0000000  1.2552000  3
   7020   7019   7018   7025     1  0.0000000  1.2552000  3
   7020   7019   7031   7043     1  0.0000000  0.6508444  3
   7020   7019   7031   7032     1  0.0000000  0.6508444  3
   7020   7019   7031   7033     1  0.0000000  0.6508444  3
   7021   7019   7018   7022     1  0.0000000  1.2552000  3
   7021   7019   7018   7025     1  0.0000000  1.2552000  3
   7021   7019   7031   7043     1  0.0000000  0.6508444  3
   7021   7019   7031   7032     1  0.0000000  0.6508444  3
   7021   7019   7031   7033     1  0.0000000  0.6508444  3
   7022   7018   7025   7026     1  0.0000000  1.2552000  3
   7022   7018   7025   7027     1  0.0000000  1.2552000  3
   7022   7034   7040   7041     1  0.0000000  0.6508444  3
   7022   7034   7040   7042     1  0.0000000  0.6508444  3
   7023   7022   7018   7025     1  0.0000000  1.2552000  3
   7023   7022   7034   7040     1  0.0000000  0.6508444  3
   7023   7022   7034   7035     1  0.0000000  0.6508444  3
   7023   7022   7034   7036     1  0.0000000  0.6508444  3
   7024   7022   7018   7025     1  0.0000000  1.2552000  3
   7024   7022   7034   7040     1  0.0000000  0.6508444  3
   7024   7022   7034   7035     1  0.0000000  0.6508444  3
   7024   7022   7034   7036     1  0.0000000  0.6508444  3
   7025   7028   7037   7038     1  0.0000000  0.6508444  3
   7025   7028   7037   7039     1  0.0000000  0.6508444  3
   7026   7025   7028   7037     1  0.0000000  0.6508444  3
   7026   7025   7028   7029     1  0.0000000  0.6508444  3
   7026   7025   7028   7030     1  0.0000000  0.6508444  3
   7027   7025   7028   7037     1  0.0000000  0.6508444  3
   7027   7025   7028   7029     1  0.0000000  0.6508444  3
   7027   7025   7028   7030     1  0.0000000  0.6508444  3
   7029   7028   7037   7046     1  0.0000000  1.0460000  1
   7029   7028   7037   7046     1  0.0000000  0.0000000  3
   7029   7028   7037   7038     1  0.0000000  0.6508444  3
   7029   7028   7037   7039     1  0.0000000  0.6508444  3
   7030   7028   7037   7046     1  0.0000000  1.0460000  1
   7030   7028   7037   7046     1  0.0000000  0.0000000  3
   7030   7028   7037   7038     1  0.0000000  0.6508444  3
   7030   7028   7037   7039     1  0.0000000  0.6508444  3
   7032   7031   7043  13503     1  0.0000000  1.0460000  1
   7032   7031   7043  13503     1  0.0000000  0.0000000  3
   7032   7031   7043   7044     1  0.0000000  0.6508444  3
   7032   7031   7043   7045     1  0.0000000  0.6508444  3
   7033   7031   7043  13503     1  0.0000000  1.0460000  1
   7033   7031   7043  13503     1  0.0000000  0.0000000  3
   7033   7031   7043   7044     1  0.0000000  0.6508444  3
   7033   7031   7043   7045     1  0.0000000  0.6508444  3
   7035   7034   7040  13480     1  0.0000000  1.0460000  1
   7035   7034   7040  13480     1  0.0000000  0.0000000  3
   7035   7034   7040   7041     1  0.0000000  0.6508444  3
   7035   7034   7040   7042     1  0.0000000  0.6508444  3
   7036   7034   7040  13480     1  0.0000000  1.0460000  1
   7036   7034   7040  13480     1  0.0000000  0.0000000  3
   7036   7034   7040   7041     1  0.0000000  0.6508444  3
   7036   7034   7040   7042     1  0.0000000  0.6508444  3
   7040  13480  13476  13479     1  0.0000000  1.6038667  3
   7041   7040  13480  13476     1  0.0000000  1.6038667  3
   7042   7040  13480  13476     1  0.0000000  1.6038667  3
   7043  13503  13499  13502     1  0.0000000  1.6038667  3
   7044   7043  13503  13499     1  0.0000000  1.6038667  3
   7045   7043  13503  13499     1  0.0000000  1.6038667  3
   7047   7048   7060   7061     1  0.0000000  0.6508444  3
   7047   7048   7060   7062     1  0.0000000  0.6508444  3
   7047   7051   7063   7064     1  0.0000000  0.6508444  3
   7047   7051   7063   7065     1  0.0000000  0.6508444  3
   7047   7054   7057   7058     1  0.0000000  0.6508444  3
   7047   7054   7057   7059     1  0.0000000  0.6508444  3
   7048   7047   7051   7052     1  0.0000000  1.2552000  3
   7048   7047   7051   7053     1  0.0000000  1.2552000  3
   7048   7047   7054   7055     1  0.0000000  1.2552000  3
   7048   7047   7054   7056     1  0.0000000  1.2552000  3
   7048   7060   7072   7073     1  0.0000000  0.6508444  3
   7048   7060   7072   7074     1  0.0000000  0.6508444  3
   7049   7048   7047   7051     1  0.0000000  1.2552000  3
   7049   7048   7047   7054     1  0.0000000  1.2552000  3
   7049   7048   7060   7072     1  0.0000000  0.6508444  3
   7049   7048   7060   7061     1  0.0000000  0.6508444  3
   7049   7048   7060   7062     1  0.0000000  0.6508444  3
   7050   7048   7047   7051     1  0.0000000  1.2552000  3
   7050   7048   7047   7054     1  0.0000000  1.2552000  3
   7050   7048   7060   7072     1  0.0000000  0.6508444  3
   7050   7048   7060   7061     1  0.0000000  0.6508444  3
   7050   7048   7060   7062     1  0.0000000  0.6508444  3
   7051   7047   7054   7055     1  0.0000000  1.2552000  3
   7051   7047   7054   7056     1  0.0000000  1.2552000  3
   7051   7063   7069   7070     1  0.0000000  0.6508444  3
   7051   7063   7069   7071     1  0.0000000  0.6508444  3
   7052   7051   7047   7054     1  0.0000000  1.2552000  3
   7052   7051   7063   7069     1  0.0000000  0.6508444  3
   7052   7051   7063   7064     1  0.0000000  0.6508444  3
   7052   7051   7063   7065     1  0.0000000  0.6508444  3
   7053   7051   7047   7054     1  0.0000000  1.2552000  3
   7053   7051   7063   7069     1  0.0000000  0.6508444  3
   7053   7051   7063   7064     1  0.0000000  0.6508444  3
   7053   7051   7063   7065     1  0.0000000  0.6508444  3
   7054   7057   7066   7067     1  0.0000000  0.6508444  3
   7054   7057   7066   7068     1  0.0000000  0.6508444  3
   7055   7054   7057   7066     1  0.0000000  0.6508444  3
   7055   7054   7057   7058     1  0.0000000  0.6508444  3
   7055   7054   7057   7059     1  0.0000000  0.6508444  3
   7056   7054   7057   7066     1  0.0000000  0.6508444  3
   7056   7054   7057   7058     1  0.0000000  0.6508444  3
   7056   7054   7057   7059     1  0.0000000  0.6508444  3
   7058   7057   7066   7075     1  0.0000000  1.0460000  1
   7058   7057   7066   7075     1  0.0000000  0.0000000  3
   7058   7057   7066   7067     1  0.0000000  0.6508444  3
   7058   7057   7066   7068     1  0.0000000  0.6508444  3
   7059   7057   7066   7075     1  0.0000000  1.0460000  1
   7059   7057   7066   7075     1  0.0000000  0.0000000  3
   7059   7057   7066   7067     1  0.0000000  0.6508444  3
   7059   7057   7066   7068     1  0.0000000  0.6508444  3
   7061   7060   7072  13549     1  0.0000000  1.0460000  1
   7061   7060   7072  13549     1  0.0000000  0.0000000  3
   7061   7060   7072   7073     1  0.0000000  0.6508444  3
   7061   7060   7072   7074     1  0.0000000  0.6508444  3
   7062   7060   7072  13549     1  0.0000000  1.0460000  1
   7062   7060   7072  13549     1  0.0000000  0.0000000  3
   7062   7060   7072   7073     1  0.0000000  0.6508444  3
   7062   7060   7072   7074     1  0.0000000  0.6508444  3
   7064   7063   7069  13526     1  0.0000000  1.0460000  1
   7064   7063   7069  13526     1  0.0000000  0.0000000  3
   7064   7063   7069   7070     1  0.0000000  0.6508444  3
   7064   7063   7069   7071     1  0.0000000  0.6508444  3
   7065   7063   7069  13526     1  0.0000000  1.0460000  1
   7065   7063   7069  13526     1  0.0000000  0.0000000  3
   7065   7063   7069   7070     1  0.0000000  0.6508444  3
   7065   7063   7069   7071     1  0.0000000  0.6508444  3
   7069  13526  13522  13525     1  0.0000000  1.6038667  3
   7070   7069  13526  13522     1  0.0000000  1.6038667  3
   7071   7069  13526  13522     1  0.0000000  1.6038667  3
   7072  13549  13545  13548     1  0.0000000  1.6038667  3
   7073   7072  13549  13545     1  0.0000000  1.6038667  3
   7074   7072  13549  13545     1  0.0000000  1.6038667  3
   7076   7077   7089   7090     1  0.0000000  0.6508444  3
   7076   7077   7089   7091     1  0.0000000  0.6508444  3
   7076   7080   7092   7093     1  0.0000000  0.6508444  3
   7076   7080   7092   7094     1  0.0000000  0.6508444  3
   7076   7083   7086   7087     1  0.0000000  0.6508444  3
   7076   7083   7086   7088     1  0.0000000  0.6508444  3
   7077   7076   7080   7081     1  0.0000000  1.2552000  3
   7077   7076   7080   7082     1  0.0000000  1.2552000  3
   7077   7076   7083   7084     1  0.0000000  1.2552000  3
   7077   7076   7083   7085     1  0.0000000  1.2552000  3
   7077   7089   7101   7102     1  0.0000000  0.6508444  3
   7077   7089   7101   7103     1  0.0000000  0.6508444  3
   7078   7077   7076   7080     1  0.0000000  1.2552000  3
   7078   7077   7076   7083     1  0.0000000  1.2552000  3
   7078   7077   7089   7101     1  0.0000000  0.6508444  3
   7078   7077   7089   7090     1  0.0000000  0.6508444  3
   7078   7077   7089   7091     1  0.0000000  0.6508444  3
   7079   7077   7076   7080     1  0.0000000  1.2552000  3
   7079   7077   7076   7083     1  0.0000000  1.2552000  3
   7079   7077   7089   7101     1  0.0000000  0.6508444  3
   7079   7077   7089   7090     1  0.0000000  0.6508444  3
   7079   7077   7089   7091     1  0.0000000  0.6508444  3
   7080   7076   7083   7084     1  0.0000000  1.2552000  3
   7080   7076   7083   7085     1  0.0000000  1.2552000  3
   7080   7092   7098   7099     1  0.0000000  0.6508444  3
   7080   7092   7098   7100     1  0.0000000  0.6508444  3
   7081   7080   7076   7083     1  0.0000000  1.2552000  3
   7081   7080   7092   7098     1  0.0000000  0.6508444  3
   7081   7080   7092   7093     1  0.0000000  0.6508444  3
   7081   7080   7092   7094     1  0.0000000  0.6508444  3
   7082   7080   7076   7083     1  0.0000000  1.2552000  3
   7082   7080   7092   7098     1  0.0000000  0.6508444  3
   7082   7080   7092   7093     1  0.0000000  0.6508444  3
   7082   7080   7092   7094     1  0.0000000  0.6508444  3
   7083   7086   7095   7096     1  0.0000000  0.6508444  3
   7083   7086   7095   7097     1  0.0000000  0.6508444  3
   7084   7083   7086   7095     1  0.0000000  0.6508444  3
   7084   7083   7086   7087     1  0.0000000  0.6508444  3
   7084   7083   7086   7088     1  0.0000000  0.6508444  3
   7085   7083   7086   7095     1  0.0000000  0.6508444  3
   7085   7083   7086   7087     1  0.0000000  0.6508444  3
   7085   7083   7086   7088     1  0.0000000  0.6508444  3
   7087   7086   7095   7104     1  0.0000000  1.0460000  1
   7087   7086   7095   7104     1  0.0000000  0.0000000  3
   7087   7086   7095   7096     1  0.0000000  0.6508444  3
   7087   7086   7095   7097     1  0.0000000  0.6508444  3
   7088   7086   7095   7104     1  0.0000000  1.0460000  1
   7088   7086   7095   7104     1  0.0000000  0.0000000  3
   7088   7086   7095   7096     1  0.0000000  0.6508444  3
   7088   7086   7095   7097     1  0.0000000  0.6508444  3
   7090   7089   7101  13595     1  0.0000000  1.0460000  1
   7090   7089   7101  13595     1  0.0000000  0.0000000  3
   7090   7089   7101   7102     1  0.0000000  0.6508444  3
   7090   7089   7101   7103     1  0.0000000  0.6508444  3
   7091   7089   7101  13595     1  0.0000000  1.0460000  1
   7091   7089   7101  13595     1  0.0000000  0.0000000  3
   7091   7089   7101   7102     1  0.0000000  0.6508444  3
   7091   7089   7101   7103     1  0.0000000  0.6508444  3
   7093   7092   7098  13572     1  0.0000000  1.0460000  1
   7093   7092   7098  13572     1  0.0000000  0.0000000  3
   7093   7092   7098   7099     1  0.0000000  0.6508444  3
   7093   7092   7098   7100     1  0.0000000  0.6508444  3
   7094   7092   7098  13572     1  0.0000000  1.0460000  1
   7094   7092   7098  13572     1  0.0000000  0.0000000  3
   7094   7092   7098   7099     1  0.0000000  0.6508444  3
   7094   7092   7098   7100     1  0.0000000  0.6508444  3
   7098  13572  13568  13571     1  0.0000000  1.6038667  3
   7099   7098  13572  13568     1  0.0000000  1.6038667  3
   7100   7098  13572  13568     1  0.0000000  1.6038667  3
   7101  13595  13591  13594     1  0.0000000  1.6038667  3
   7102   7101  13595  13591     1  0.0000000  1.6038667  3
   7103   7101  13595  13591     1  0.0000000  1.6038667  3
   7105   7106   7118   7119     1  0.0000000  0.6508444  3
   7105   7106   7118   7120     1  0.0000000  0.6508444  3
   7105   7109   7121   7122     1  0.0000000  0.6508444  3
   7105   7109   7121   7123     1  0.0000000  0.6508444  3
   7105   7112   7115   7116     1  0.0000000  0.6508444  3
   7105   7112   7115   7117     1  0.0000000  0.6508444  3
   7106   7105   7109   7110     1  0.0000000  1.2552000  3
   7106   7105   7109   7111     1  0.0000000  1.2552000  3
   7106   7105   7112   7113     1  0.0000000  1.2552000  3
   7106   7105   7112   7114     1  0.0000000  1.2552000  3
   7106   7118   7130   7131     1  0.0000000  0.6508444  3
   7106   7118   7130   7132     1  0.0000000  0.6508444  3
   7107   7106   7105   7109     1  0.0000000  1.2552000  3
   7107   7106   7105   7112     1  0.0000000  1.2552000  3
   7107   7106   7118   7130     1  0.0000000  0.6508444  3
   7107   7106   7118   7119     1  0.0000000  0.6508444  3
   7107   7106   7118   7120     1  0.0000000  0.6508444  3
   7108   7106   7105   7109     1  0.0000000  1.2552000  3
   7108   7106   7105   7112     1  0.0000000  1.2552000  3
   7108   7106   7118   7130     1  0.0000000  0.6508444  3
   7108   7106   7118   7119     1  0.0000000  0.6508444  3
   7108   7106   7118   7120     1  0.0000000  0.6508444  3
   7109   7105   7112   7113     1  0.0000000  1.2552000  3
   7109   7105   7112   7114     1  0.0000000  1.2552000  3
   7109   7121   7127   7128     1  0.0000000  0.6508444  3
   7109   7121   7127   7129     1  0.0000000  0.6508444  3
   7110   7109   7105   7112     1  0.0000000  1.2552000  3
   7110   7109   7121   7127     1  0.0000000  0.6508444  3
   7110   7109   7121   7122     1  0.0000000  0.6508444  3
   7110   7109   7121   7123     1  0.0000000  0.6508444  3
   7111   7109   7105   7112     1  0.0000000  1.2552000  3
   7111   7109   7121   7127     1  0.0000000  0.6508444  3
   7111   7109   7121   7122     1  0.0000000  0.6508444  3
   7111   7109   7121   7123     1  0.0000000  0.6508444  3
   7112   7115   7124   7125     1  0.0000000  0.6508444  3
   7112   7115   7124   7126     1  0.0000000  0.6508444  3
   7113   7112   7115   7124     1  0.0000000  0.6508444  3
   7113   7112   7115   7116     1  0.0000000  0.6508444  3
   7113   7112   7115   7117     1  0.0000000  0.6508444  3
   7114   7112   7115   7124     1  0.0000000  0.6508444  3
   7114   7112   7115   7116     1  0.0000000  0.6508444  3
   7114   7112   7115   7117     1  0.0000000  0.6508444  3
   7116   7115   7124   7133     1  0.0000000  1.0460000  1
   7116   7115   7124   7133     1  0.0000000  0.0000000  3
   7116   7115   7124   7125     1  0.0000000  0.6508444  3
   7116   7115   7124   7126     1  0.0000000  0.6508444  3
   7117   7115   7124   7133     1  0.0000000  1.0460000  1
   7117   7115   7124   7133     1  0.0000000  0.0000000  3
   7117   7115   7124   7125     1  0.0000000  0.6508444  3
   7117   7115   7124   7126     1  0.0000000  0.6508444  3
   7119   7118   7130  13641     1  0.0000000  1.0460000  1
   7119   7118   7130  13641     1  0.0000000  0.0000000  3
   7119   7118   7130   7131     1  0.0000000  0.6508444  3
   7119   7118   7130   7132     1  0.0000000  0.6508444  3
   7120   7118   7130  13641     1  0.0000000  1.0460000  1
   7120   7118   7130  13641     1  0.0000000  0.0000000  3
   7120   7118   7130   7131     1  0.0000000  0.6508444  3
   7120   7118   7130   7132     1  0.0000000  0.6508444  3
   7122   7121   7127  13618     1  0.0000000  1.0460000  1
   7122   7121   7127  13618     1  0.0000000  0.0000000  3
   7122   7121   7127   7128     1  0.0000000  0.6508444  3
   7122   7121   7127   7129     1  0.0000000  0.6508444  3
   7123   7121   7127  13618     1  0.0000000  1.0460000  1
   7123   7121   7127  13618     1  0.0000000  0.0000000  3
   7123   7121   7127   7128     1  0.0000000  0.6508444  3
   7123   7121   7127   7129     1  0.0000000  0.6508444  3
   7127  13618  13614  13617     1  0.0000000  1.6038667  3
   7128   7127  13618  13614     1  0.0000000  1.6038667  3
   7129   7127  13618  13614     1  0.0000000  1.6038667  3
   7130  13641  13637  13640     1  0.0000000  1.6038667  3
   7131   7130  13641  13637     1  0.0000000  1.6038667  3
   7132   7130  13641  13637     1  0.0000000  1.6038667  3
   7134   7135   7147   7148     1  0.0000000  0.6508444  3
   7134   7135   7147   7149     1  0.0000000  0.6508444  3
   7134   7138   7150   7151     1  0.0000000  0.6508444  3
   7134   7138   7150   7152     1  0.0000000  0.6508444  3
   7134   7141   7144   7145     1  0.0000000  0.6508444  3
   7134   7141   7144   7146     1  0.0000000  0.6508444  3
   7135   7134   7138   7139     1  0.0000000  1.2552000  3
   7135   7134   7138   7140     1  0.0000000  1.2552000  3
   7135   7134   7141   7142     1  0.0000000  1.2552000  3
   7135   7134   7141   7143     1  0.0000000  1.2552000  3
   7135   7147   7159   7160     1  0.0000000  0.6508444  3
   7135   7147   7159   7161     1  0.0000000  0.6508444  3
   7136   7135   7134   7138     1  0.0000000  1.2552000  3
   7136   7135   7134   7141     1  0.0000000  1.2552000  3
   7136   7135   7147   7159     1  0.0000000  0.6508444  3
   7136   7135   7147   7148     1  0.0000000  0.6508444  3
   7136   7135   7147   7149     1  0.0000000  0.6508444  3
   7137   7135   7134   7138     1  0.0000000  1.2552000  3
   7137   7135   7134   7141     1  0.0000000  1.2552000  3
   7137   7135   7147   7159     1  0.0000000  0.6508444  3
   7137   7135   7147   7148     1  0.0000000  0.6508444  3
   7137   7135   7147   7149     1  0.0000000  0.6508444  3
   7138   7134   7141   7142     1  0.0000000  1.2552000  3
   7138   7134   7141   7143     1  0.0000000  1.2552000  3
   7138   7150   7156   7157     1  0.0000000  0.6508444  3
   7138   7150   7156   7158     1  0.0000000  0.6508444  3
   7139   7138   7134   7141     1  0.0000000  1.2552000  3
   7139   7138   7150   7156     1  0.0000000  0.6508444  3
   7139   7138   7150   7151     1  0.0000000  0.6508444  3
   7139   7138   7150   7152     1  0.0000000  0.6508444  3
   7140   7138   7134   7141     1  0.0000000  1.2552000  3
   7140   7138   7150   7156     1  0.0000000  0.6508444  3
   7140   7138   7150   7151     1  0.0000000  0.6508444  3
   7140   7138   7150   7152     1  0.0000000  0.6508444  3
   7141   7144   7153   7154     1  0.0000000  0.6508444  3
   7141   7144   7153   7155     1  0.0000000  0.6508444  3
   7142   7141   7144   7153     1  0.0000000  0.6508444  3
   7142   7141   7144   7145     1  0.0000000  0.6508444  3
   7142   7141   7144   7146     1  0.0000000  0.6508444  3
   7143   7141   7144   7153     1  0.0000000  0.6508444  3
   7143   7141   7144   7145     1  0.0000000  0.6508444  3
   7143   7141   7144   7146     1  0.0000000  0.6508444  3
   7145   7144   7153   7162     1  0.0000000  1.0460000  1
   7145   7144   7153   7162     1  0.0000000  0.0000000  3
   7145   7144   7153   7154     1  0.0000000  0.6508444  3
   7145   7144   7153   7155     1  0.0000000  0.6508444  3
   7146   7144   7153   7162     1  0.0000000  1.0460000  1
   7146   7144   7153   7162     1  0.0000000  0.0000000  3
   7146   7144   7153   7154     1  0.0000000  0.6508444  3
   7146   7144   7153   7155     1  0.0000000  0.6508444  3
   7148   7147   7159  13687     1  0.0000000  1.0460000  1
   7148   7147   7159  13687     1  0.0000000  0.0000000  3
   7148   7147   7159   7160     1  0.0000000  0.6508444  3
   7148   7147   7159   7161     1  0.0000000  0.6508444  3
   7149   7147   7159  13687     1  0.0000000  1.0460000  1
   7149   7147   7159  13687     1  0.0000000  0.0000000  3
   7149   7147   7159   7160     1  0.0000000  0.6508444  3
   7149   7147   7159   7161     1  0.0000000  0.6508444  3
   7151   7150   7156  13664     1  0.0000000  1.0460000  1
   7151   7150   7156  13664     1  0.0000000  0.0000000  3
   7151   7150   7156   7157     1  0.0000000  0.6508444  3
   7151   7150   7156   7158     1  0.0000000  0.6508444  3
   7152   7150   7156  13664     1  0.0000000  1.0460000  1
   7152   7150   7156  13664     1  0.0000000  0.0000000  3
   7152   7150   7156   7157     1  0.0000000  0.6508444  3
   7152   7150   7156   7158     1  0.0000000  0.6508444  3
   7156  13664  13660  13663     1  0.0000000  1.6038667  3
   7157   7156  13664  13660     1  0.0000000  1.6038667  3
   7158   7156  13664  13660     1  0.0000000  1.6038667  3
   7159  13687  13683  13686     1  0.0000000  1.6038667  3
   7160   7159  13687  13683     1  0.0000000  1.6038667  3
   7161   7159  13687  13683     1  0.0000000  1.6038667  3
   7163   7164   7176   7177     1  0.0000000  0.6508444  3
   7163   7164   7176   7178     1  0.0000000  0.6508444  3
   7163   7167   7179   7180     1  0.0000000  0.6508444  3
   7163   7167   7179   7181     1  0.0000000  0.6508444  3
   7163   7170   7173   7174     1  0.0000000  0.6508444  3
   7163   7170   7173   7175     1  0.0000000  0.6508444  3
   7164   7163   7167   7168     1  0.0000000  1.2552000  3
   7164   7163   7167   7169     1  0.0000000  1.2552000  3
   7164   7163   7170   7171     1  0.0000000  1.2552000  3
   7164   7163   7170   7172     1  0.0000000  1.2552000  3
   7164   7176   7188   7189     1  0.0000000  0.6508444  3
   7164   7176   7188   7190     1  0.0000000  0.6508444  3
   7165   7164   7163   7167     1  0.0000000  1.2552000  3
   7165   7164   7163   7170     1  0.0000000  1.2552000  3
   7165   7164   7176   7188     1  0.0000000  0.6508444  3
   7165   7164   7176   7177     1  0.0000000  0.6508444  3
   7165   7164   7176   7178     1  0.0000000  0.6508444  3
   7166   7164   7163   7167     1  0.0000000  1.2552000  3
   7166   7164   7163   7170     1  0.0000000  1.2552000  3
   7166   7164   7176   7188     1  0.0000000  0.6508444  3
   7166   7164   7176   7177     1  0.0000000  0.6508444  3
   7166   7164   7176   7178     1  0.0000000  0.6508444  3
   7167   7163   7170   7171     1  0.0000000  1.2552000  3
   7167   7163   7170   7172     1  0.0000000  1.2552000  3
   7167   7179   7185   7186     1  0.0000000  0.6508444  3
   7167   7179   7185   7187     1  0.0000000  0.6508444  3
   7168   7167   7163   7170     1  0.0000000  1.2552000  3
   7168   7167   7179   7185     1  0.0000000  0.6508444  3
   7168   7167   7179   7180     1  0.0000000  0.6508444  3
   7168   7167   7179   7181     1  0.0000000  0.6508444  3
   7169   7167   7163   7170     1  0.0000000  1.2552000  3
   7169   7167   7179   7185     1  0.0000000  0.6508444  3
   7169   7167   7179   7180     1  0.0000000  0.6508444  3
   7169   7167   7179   7181     1  0.0000000  0.6508444  3
   7170   7173   7182   7183     1  0.0000000  0.6508444  3
   7170   7173   7182   7184     1  0.0000000  0.6508444  3
   7171   7170   7173   7182     1  0.0000000  0.6508444  3
   7171   7170   7173   7174     1  0.0000000  0.6508444  3
   7171   7170   7173   7175     1  0.0000000  0.6508444  3
   7172   7170   7173   7182     1  0.0000000  0.6508444  3
   7172   7170   7173   7174     1  0.0000000  0.6508444  3
   7172   7170   7173   7175     1  0.0000000  0.6508444  3
   7174   7173   7182   7191     1  0.0000000  1.0460000  1
   7174   7173   7182   7191     1  0.0000000  0.0000000  3
   7174   7173   7182   7183     1  0.0000000  0.6508444  3
   7174   7173   7182   7184     1  0.0000000  0.6508444  3
   7175   7173   7182   7191     1  0.0000000  1.0460000  1
   7175   7173   7182   7191     1  0.0000000  0.0000000  3
   7175   7173   7182   7183     1  0.0000000  0.6508444  3
   7175   7173   7182   7184     1  0.0000000  0.6508444  3
   7177   7176   7188  13733     1  0.0000000  1.0460000  1
   7177   7176   7188  13733     1  0.0000000  0.0000000  3
   7177   7176   7188   7189     1  0.0000000  0.6508444  3
   7177   7176   7188   7190     1  0.0000000  0.6508444  3
   7178   7176   7188  13733     1  0.0000000  1.0460000  1
   7178   7176   7188  13733     1  0.0000000  0.0000000  3
   7178   7176   7188   7189     1  0.0000000  0.6508444  3
   7178   7176   7188   7190     1  0.0000000  0.6508444  3
   7180   7179   7185  13710     1  0.0000000  1.0460000  1
   7180   7179   7185  13710     1  0.0000000  0.0000000  3
   7180   7179   7185   7186     1  0.0000000  0.6508444  3
   7180   7179   7185   7187     1  0.0000000  0.6508444  3
   7181   7179   7185  13710     1  0.0000000  1.0460000  1
   7181   7179   7185  13710     1  0.0000000  0.0000000  3
   7181   7179   7185   7186     1  0.0000000  0.6508444  3
   7181   7179   7185   7187     1  0.0000000  0.6508444  3
   7185  13710  13706  13709     1  0.0000000  1.6038667  3
   7186   7185  13710  13706     1  0.0000000  1.6038667  3
   7187   7185  13710  13706     1  0.0000000  1.6038667  3
   7188  13733  13729  13732     1  0.0000000  1.6038667  3
   7189   7188  13733  13729     1  0.0000000  1.6038667  3
   7190   7188  13733  13729     1  0.0000000  1.6038667  3
   7192   7193   7205   7206     1  0.0000000  0.6508444  3
   7192   7193   7205   7207     1  0.0000000  0.6508444  3
   7192   7196   7208   7209     1  0.0000000  0.6508444  3
   7192   7196   7208   7210     1  0.0000000  0.6508444  3
   7192   7199   7202   7203     1  0.0000000  0.6508444  3
   7192   7199   7202   7204     1  0.0000000  0.6508444  3
   7193   7192   7196   7197     1  0.0000000  1.2552000  3
   7193   7192   7196   7198     1  0.0000000  1.2552000  3
   7193   7192   7199   7200     1  0.0000000  1.2552000  3
   7193   7192   7199   7201     1  0.0000000  1.2552000  3
   7193   7205   7217   7218     1  0.0000000  0.6508444  3
   7193   7205   7217   7219     1  0.0000000  0.6508444  3
   7194   7193   7192   7196     1  0.0000000  1.2552000  3
   7194   7193   7192   7199     1  0.0000000  1.2552000  3
   7194   7193   7205   7217     1  0.0000000  0.6508444  3
   7194   7193   7205   7206     1  0.0000000  0.6508444  3
   7194   7193   7205   7207     1  0.0000000  0.6508444  3
   7195   7193   7192   7196     1  0.0000000  1.2552000  3
   7195   7193   7192   7199     1  0.0000000  1.2552000  3
   7195   7193   7205   7217     1  0.0000000  0.6508444  3
   7195   7193   7205   7206     1  0.0000000  0.6508444  3
   7195   7193   7205   7207     1  0.0000000  0.6508444  3
   7196   7192   7199   7200     1  0.0000000  1.2552000  3
   7196   7192   7199   7201     1  0.0000000  1.2552000  3
   7196   7208   7214   7215     1  0.0000000  0.6508444  3
   7196   7208   7214   7216     1  0.0000000  0.6508444  3
   7197   7196   7192   7199     1  0.0000000  1.2552000  3
   7197   7196   7208   7214     1  0.0000000  0.6508444  3
   7197   7196   7208   7209     1  0.0000000  0.6508444  3
   7197   7196   7208   7210     1  0.0000000  0.6508444  3
   7198   7196   7192   7199     1  0.0000000  1.2552000  3
   7198   7196   7208   7214     1  0.0000000  0.6508444  3
   7198   7196   7208   7209     1  0.0000000  0.6508444  3
   7198   7196   7208   7210     1  0.0000000  0.6508444  3
   7199   7202   7211   7212     1  0.0000000  0.6508444  3
   7199   7202   7211   7213     1  0.0000000  0.6508444  3
   7200   7199   7202   7211     1  0.0000000  0.6508444  3
   7200   7199   7202   7203     1  0.0000000  0.6508444  3
   7200   7199   7202   7204     1  0.0000000  0.6508444  3
   7201   7199   7202   7211     1  0.0000000  0.6508444  3
   7201   7199   7202   7203     1  0.0000000  0.6508444  3
   7201   7199   7202   7204     1  0.0000000  0.6508444  3
   7203   7202   7211   7220     1  0.0000000  1.0460000  1
   7203   7202   7211   7220     1  0.0000000  0.0000000  3
   7203   7202   7211   7212     1  0.0000000  0.6508444  3
   7203   7202   7211   7213     1  0.0000000  0.6508444  3
   7204   7202   7211   7220     1  0.0000000  1.0460000  1
   7204   7202   7211   7220     1  0.0000000  0.0000000  3
   7204   7202   7211   7212     1  0.0000000  0.6508444  3
   7204   7202   7211   7213     1  0.0000000  0.6508444  3
   7206   7205   7217  13779     1  0.0000000  1.0460000  1
   7206   7205   7217  13779     1  0.0000000  0.0000000  3
   7206   7205   7217   7218     1  0.0000000  0.6508444  3
   7206   7205   7217   7219     1  0.0000000  0.6508444  3
   7207   7205   7217  13779     1  0.0000000  1.0460000  1
   7207   7205   7217  13779     1  0.0000000  0.0000000  3
   7207   7205   7217   7218     1  0.0000000  0.6508444  3
   7207   7205   7217   7219     1  0.0000000  0.6508444  3
   7209   7208   7214  13756     1  0.0000000  1.0460000  1
   7209   7208   7214  13756     1  0.0000000  0.0000000  3
   7209   7208   7214   7215     1  0.0000000  0.6508444  3
   7209   7208   7214   7216     1  0.0000000  0.6508444  3
   7210   7208   7214  13756     1  0.0000000  1.0460000  1
   7210   7208   7214  13756     1  0.0000000  0.0000000  3
   7210   7208   7214   7215     1  0.0000000  0.6508444  3
   7210   7208   7214   7216     1  0.0000000  0.6508444  3
   7214  13756  13752  13755     1  0.0000000  1.6038667  3
   7215   7214  13756  13752     1  0.0000000  1.6038667  3
   7216   7214  13756  13752     1  0.0000000  1.6038667  3
   7217  13779  13775  13778     1  0.0000000  1.6038667  3
   7218   7217  13779  13775     1  0.0000000  1.6038667  3
   7219   7217  13779  13775     1  0.0000000  1.6038667  3
   7221   7222   7234   7235     1  0.0000000  0.6508444  3
   7221   7222   7234   7236     1  0.0000000  0.6508444  3
   7221   7225   7237   7238     1  0.0000000  0.6508444  3
   7221   7225   7237   7239     1  0.0000000  0.6508444  3
   7221   7228   7231   7232     1  0.0000000  0.6508444  3
   7221   7228   7231   7233     1  0.0000000  0.6508444  3
   7222   7221   7225   7226     1  0.0000000  1.2552000  3
   7222   7221   7225   7227     1  0.0000000  1.2552000  3
   7222   7221   7228   7229     1  0.0000000  1.2552000  3
   7222   7221   7228   7230     1  0.0000000  1.2552000  3
   7222   7234   7246   7247     1  0.0000000  0.6508444  3
   7222   7234   7246   7248     1  0.0000000  0.6508444  3
   7223   7222   7221   7225     1  0.0000000  1.2552000  3
   7223   7222   7221   7228     1  0.0000000  1.2552000  3
   7223   7222   7234   7246     1  0.0000000  0.6508444  3
   7223   7222   7234   7235     1  0.0000000  0.6508444  3
   7223   7222   7234   7236     1  0.0000000  0.6508444  3
   7224   7222   7221   7225     1  0.0000000  1.2552000  3
   7224   7222   7221   7228     1  0.0000000  1.2552000  3
   7224   7222   7234   7246     1  0.0000000  0.6508444  3
   7224   7222   7234   7235     1  0.0000000  0.6508444  3
   7224   7222   7234   7236     1  0.0000000  0.6508444  3
   7225   7221   7228   7229     1  0.0000000  1.2552000  3
   7225   7221   7228   7230     1  0.0000000  1.2552000  3
   7225   7237   7243   7244     1  0.0000000  0.6508444  3
   7225   7237   7243   7245     1  0.0000000  0.6508444  3
   7226   7225   7221   7228     1  0.0000000  1.2552000  3
   7226   7225   7237   7243     1  0.0000000  0.6508444  3
   7226   7225   7237   7238     1  0.0000000  0.6508444  3
   7226   7225   7237   7239     1  0.0000000  0.6508444  3
   7227   7225   7221   7228     1  0.0000000  1.2552000  3
   7227   7225   7237   7243     1  0.0000000  0.6508444  3
   7227   7225   7237   7238     1  0.0000000  0.6508444  3
   7227   7225   7237   7239     1  0.0000000  0.6508444  3
   7228   7231   7240   7241     1  0.0000000  0.6508444  3
   7228   7231   7240   7242     1  0.0000000  0.6508444  3
   7229   7228   7231   7240     1  0.0000000  0.6508444  3
   7229   7228   7231   7232     1  0.0000000  0.6508444  3
   7229   7228   7231   7233     1  0.0000000  0.6508444  3
   7230   7228   7231   7240     1  0.0000000  0.6508444  3
   7230   7228   7231   7232     1  0.0000000  0.6508444  3
   7230   7228   7231   7233     1  0.0000000  0.6508444  3
   7232   7231   7240   7249     1  0.0000000  1.0460000  1
   7232   7231   7240   7249     1  0.0000000  0.0000000  3
   7232   7231   7240   7241     1  0.0000000  0.6508444  3
   7232   7231   7240   7242     1  0.0000000  0.6508444  3
   7233   7231   7240   7249     1  0.0000000  1.0460000  1
   7233   7231   7240   7249     1  0.0000000  0.0000000  3
   7233   7231   7240   7241     1  0.0000000  0.6508444  3
   7233   7231   7240   7242     1  0.0000000  0.6508444  3
   7235   7234   7246  13825     1  0.0000000  1.0460000  1
   7235   7234   7246  13825     1  0.0000000  0.0000000  3
   7235   7234   7246   7247     1  0.0000000  0.6508444  3
   7235   7234   7246   7248     1  0.0000000  0.6508444  3
   7236   7234   7246  13825     1  0.0000000  1.0460000  1
   7236   7234   7246  13825     1  0.0000000  0.0000000  3
   7236   7234   7246   7247     1  0.0000000  0.6508444  3
   7236   7234   7246   7248     1  0.0000000  0.6508444  3
   7238   7237   7243  13802     1  0.0000000  1.0460000  1
   7238   7237   7243  13802     1  0.0000000  0.0000000  3
   7238   7237   7243   7244     1  0.0000000  0.6508444  3
   7238   7237   7243   7245     1  0.0000000  0.6508444  3
   7239   7237   7243  13802     1  0.0000000  1.0460000  1
   7239   7237   7243  13802     1  0.0000000  0.0000000  3
   7239   7237   7243   7244     1  0.0000000  0.6508444  3
   7239   7237   7243   7245     1  0.0000000  0.6508444  3
   7243  13802  13798  13801     1  0.0000000  1.6038667  3
   7244   7243  13802  13798     1  0.0000000  1.6038667  3
   7245   7243  13802  13798     1  0.0000000  1.6038667  3
   7246  13825  13821  13824     1  0.0000000  1.6038667  3
   7247   7246  13825  13821     1  0.0000000  1.6038667  3
   7248   7246  13825  13821     1  0.0000000  1.6038667  3
   7250   7251   7263   7264     1  0.0000000  0.6508444  3
   7250   7251   7263   7265     1  0.0000000  0.6508444  3
   7250   7254   7266   7267     1  0.0000000  0.6508444  3
   7250   7254   7266   7268     1  0.0000000  0.6508444  3
   7250   7257   7260   7261     1  0.0000000  0.6508444  3
   7250   7257   7260   7262     1  0.0000000  0.6508444  3
   7251   7250   7254   7255     1  0.0000000  1.2552000  3
   7251   7250   7254   7256     1  0.0000000  1.2552000  3
   7251   7250   7257   7258     1  0.0000000  1.2552000  3
   7251   7250   7257   7259     1  0.0000000  1.2552000  3
   7251   7263   7275   7276     1  0.0000000  0.6508444  3
   7251   7263   7275   7277     1  0.0000000  0.6508444  3
   7252   7251   7250   7254     1  0.0000000  1.2552000  3
   7252   7251   7250   7257     1  0.0000000  1.2552000  3
   7252   7251   7263   7275     1  0.0000000  0.6508444  3
   7252   7251   7263   7264     1  0.0000000  0.6508444  3
   7252   7251   7263   7265     1  0.0000000  0.6508444  3
   7253   7251   7250   7254     1  0.0000000  1.2552000  3
   7253   7251   7250   7257     1  0.0000000  1.2552000  3
   7253   7251   7263   7275     1  0.0000000  0.6508444  3
   7253   7251   7263   7264     1  0.0000000  0.6508444  3
   7253   7251   7263   7265     1  0.0000000  0.6508444  3
   7254   7250   7257   7258     1  0.0000000  1.2552000  3
   7254   7250   7257   7259     1  0.0000000  1.2552000  3
   7254   7266   7272   7273     1  0.0000000  0.6508444  3
   7254   7266   7272   7274     1  0.0000000  0.6508444  3
   7255   7254   7250   7257     1  0.0000000  1.2552000  3
   7255   7254   7266   7272     1  0.0000000  0.6508444  3
   7255   7254   7266   7267     1  0.0000000  0.6508444  3
   7255   7254   7266   7268     1  0.0000000  0.6508444  3
   7256   7254   7250   7257     1  0.0000000  1.2552000  3
   7256   7254   7266   7272     1  0.0000000  0.6508444  3
   7256   7254   7266   7267     1  0.0000000  0.6508444  3
   7256   7254   7266   7268     1  0.0000000  0.6508444  3
   7257   7260   7269   7270     1  0.0000000  0.6508444  3
   7257   7260   7269   7271     1  0.0000000  0.6508444  3
   7258   7257   7260   7269     1  0.0000000  0.6508444  3
   7258   7257   7260   7261     1  0.0000000  0.6508444  3
   7258   7257   7260   7262     1  0.0000000  0.6508444  3
   7259   7257   7260   7269     1  0.0000000  0.6508444  3
   7259   7257   7260   7261     1  0.0000000  0.6508444  3
   7259   7257   7260   7262     1  0.0000000  0.6508444  3
   7261   7260   7269   7278     1  0.0000000  1.0460000  1
   7261   7260   7269   7278     1  0.0000000  0.0000000  3
   7261   7260   7269   7270     1  0.0000000  0.6508444  3
   7261   7260   7269   7271     1  0.0000000  0.6508444  3
   7262   7260   7269   7278     1  0.0000000  1.0460000  1
   7262   7260   7269   7278     1  0.0000000  0.0000000  3
   7262   7260   7269   7270     1  0.0000000  0.6508444  3
   7262   7260   7269   7271     1  0.0000000  0.6508444  3
   7264   7263   7275  13871     1  0.0000000  1.0460000  1
   7264   7263   7275  13871     1  0.0000000  0.0000000  3
   7264   7263   7275   7276     1  0.0000000  0.6508444  3
   7264   7263   7275   7277     1  0.0000000  0.6508444  3
   7265   7263   7275  13871     1  0.0000000  1.0460000  1
   7265   7263   7275  13871     1  0.0000000  0.0000000  3
   7265   7263   7275   7276     1  0.0000000  0.6508444  3
   7265   7263   7275   7277     1  0.0000000  0.6508444  3
   7267   7266   7272  13848     1  0.0000000  1.0460000  1
   7267   7266   7272  13848     1  0.0000000  0.0000000  3
   7267   7266   7272   7273     1  0.0000000  0.6508444  3
   7267   7266   7272   7274     1  0.0000000  0.6508444  3
   7268   7266   7272  13848     1  0.0000000  1.0460000  1
   7268   7266   7272  13848     1  0.0000000  0.0000000  3
   7268   7266   7272   7273     1  0.0000000  0.6508444  3
   7268   7266   7272   7274     1  0.0000000  0.6508444  3
   7272  13848  13844  13847     1  0.0000000  1.6038667  3
   7273   7272  13848  13844     1  0.0000000  1.6038667  3
   7274   7272  13848  13844     1  0.0000000  1.6038667  3
   7275  13871  13867  13870     1  0.0000000  1.6038667  3
   7276   7275  13871  13867     1  0.0000000  1.6038667  3
   7277   7275  13871  13867     1  0.0000000  1.6038667  3
   7279   7280   7292   7293     1  0.0000000  0.6508444  3
   7279   7280   7292   7294     1  0.0000000  0.6508444  3
   7279   7283   7295   7296     1  0.0000000  0.6508444  3
   7279   7283   7295   7297     1  0.0000000  0.6508444  3
   7279   7286   7289   7290     1  0.0000000  0.6508444  3
   7279   7286   7289   7291     1  0.0000000  0.6508444  3
   7280   7279   7283   7284     1  0.0000000  1.2552000  3
   7280   7279   7283   7285     1  0.0000000  1.2552000  3
   7280   7279   7286   7287     1  0.0000000  1.2552000  3
   7280   7279   7286   7288     1  0.0000000  1.2552000  3
   7280   7292   7304   7305     1  0.0000000  0.6508444  3
   7280   7292   7304   7306     1  0.0000000  0.6508444  3
   7281   7280   7279   7283     1  0.0000000  1.2552000  3
   7281   7280   7279   7286     1  0.0000000  1.2552000  3
   7281   7280   7292   7304     1  0.0000000  0.6508444  3
   7281   7280   7292   7293     1  0.0000000  0.6508444  3
   7281   7280   7292   7294     1  0.0000000  0.6508444  3
   7282   7280   7279   7283     1  0.0000000  1.2552000  3
   7282   7280   7279   7286     1  0.0000000  1.2552000  3
   7282   7280   7292   7304     1  0.0000000  0.6508444  3
   7282   7280   7292   7293     1  0.0000000  0.6508444  3
   7282   7280   7292   7294     1  0.0000000  0.6508444  3
   7283   7279   7286   7287     1  0.0000000  1.2552000  3
   7283   7279   7286   7288     1  0.0000000  1.2552000  3
   7283   7295   7301   7302     1  0.0000000  0.6508444  3
   7283   7295   7301   7303     1  0.0000000  0.6508444  3
   7284   7283   7279   7286     1  0.0000000  1.2552000  3
   7284   7283   7295   7301     1  0.0000000  0.6508444  3
   7284   7283   7295   7296     1  0.0000000  0.6508444  3
   7284   7283   7295   7297     1  0.0000000  0.6508444  3
   7285   7283   7279   7286     1  0.0000000  1.2552000  3
   7285   7283   7295   7301     1  0.0000000  0.6508444  3
   7285   7283   7295   7296     1  0.0000000  0.6508444  3
   7285   7283   7295   7297     1  0.0000000  0.6508444  3
   7286   7289   7298   7299     1  0.0000000  0.6508444  3
   7286   7289   7298   7300     1  0.0000000  0.6508444  3
   7287   7286   7289   7298     1  0.0000000  0.6508444  3
   7287   7286   7289   7290     1  0.0000000  0.6508444  3
   7287   7286   7289   7291     1  0.0000000  0.6508444  3
   7288   7286   7289   7298     1  0.0000000  0.6508444  3
   7288   7286   7289   7290     1  0.0000000  0.6508444  3
   7288   7286   7289   7291     1  0.0000000  0.6508444  3
   7290   7289   7298   7307     1  0.0000000  1.0460000  1
   7290   7289   7298   7307     1  0.0000000  0.0000000  3
   7290   7289   7298   7299     1  0.0000000  0.6508444  3
   7290   7289   7298   7300     1  0.0000000  0.6508444  3
   7291   7289   7298   7307     1  0.0000000  1.0460000  1
   7291   7289   7298   7307     1  0.0000000  0.0000000  3
   7291   7289   7298   7299     1  0.0000000  0.6508444  3
   7291   7289   7298   7300     1  0.0000000  0.6508444  3
   7293   7292   7304  13917     1  0.0000000  1.0460000  1
   7293   7292   7304  13917     1  0.0000000  0.0000000  3
   7293   7292   7304   7305     1  0.0000000  0.6508444  3
   7293   7292   7304   7306     1  0.0000000  0.6508444  3
   7294   7292   7304  13917     1  0.0000000  1.0460000  1
   7294   7292   7304  13917     1  0.0000000  0.0000000  3
   7294   7292   7304   7305     1  0.0000000  0.6508444  3
   7294   7292   7304   7306     1  0.0000000  0.6508444  3
   7296   7295   7301  13894     1  0.0000000  1.0460000  1
   7296   7295   7301  13894     1  0.0000000  0.0000000  3
   7296   7295   7301   7302     1  0.0000000  0.6508444  3
   7296   7295   7301   7303     1  0.0000000  0.6508444  3
   7297   7295   7301  13894     1  0.0000000  1.0460000  1
   7297   7295   7301  13894     1  0.0000000  0.0000000  3
   7297   7295   7301   7302     1  0.0000000  0.6508444  3
   7297   7295   7301   7303     1  0.0000000  0.6508444  3
   7301  13894  13890  13893     1  0.0000000  1.6038667  3
   7302   7301  13894  13890     1  0.0000000  1.6038667  3
   7303   7301  13894  13890     1  0.0000000  1.6038667  3
   7304  13917  13913  13916     1  0.0000000  1.6038667  3
   7305   7304  13917  13913     1  0.0000000  1.6038667  3
   7306   7304  13917  13913     1  0.0000000  1.6038667  3
   7308   7309   7321   7322     1  0.0000000  0.6508444  3
   7308   7309   7321   7323     1  0.0000000  0.6508444  3
   7308   7312   7324   7325     1  0.0000000  0.6508444  3
   7308   7312   7324   7326     1  0.0000000  0.6508444  3
   7308   7315   7318   7319     1  0.0000000  0.6508444  3
   7308   7315   7318   7320     1  0.0000000  0.6508444  3
   7309   7308   7312   7313     1  0.0000000  1.2552000  3
   7309   7308   7312   7314     1  0.0000000  1.2552000  3
   7309   7308   7315   7316     1  0.0000000  1.2552000  3
   7309   7308   7315   7317     1  0.0000000  1.2552000  3
   7309   7321   7333   7334     1  0.0000000  0.6508444  3
   7309   7321   7333   7335     1  0.0000000  0.6508444  3
   7310   7309   7308   7312     1  0.0000000  1.2552000  3
   7310   7309   7308   7315     1  0.0000000  1.2552000  3
   7310   7309   7321   7333     1  0.0000000  0.6508444  3
   7310   7309   7321   7322     1  0.0000000  0.6508444  3
   7310   7309   7321   7323     1  0.0000000  0.6508444  3
   7311   7309   7308   7312     1  0.0000000  1.2552000  3
   7311   7309   7308   7315     1  0.0000000  1.2552000  3
   7311   7309   7321   7333     1  0.0000000  0.6508444  3
   7311   7309   7321   7322     1  0.0000000  0.6508444  3
   7311   7309   7321   7323     1  0.0000000  0.6508444  3
   7312   7308   7315   7316     1  0.0000000  1.2552000  3
   7312   7308   7315   7317     1  0.0000000  1.2552000  3
   7312   7324   7330   7331     1  0.0000000  0.6508444  3
   7312   7324   7330   7332     1  0.0000000  0.6508444  3
   7313   7312   7308   7315     1  0.0000000  1.2552000  3
   7313   7312   7324   7330     1  0.0000000  0.6508444  3
   7313   7312   7324   7325     1  0.0000000  0.6508444  3
   7313   7312   7324   7326     1  0.0000000  0.6508444  3
   7314   7312   7308   7315     1  0.0000000  1.2552000  3
   7314   7312   7324   7330     1  0.0000000  0.6508444  3
   7314   7312   7324   7325     1  0.0000000  0.6508444  3
   7314   7312   7324   7326     1  0.0000000  0.6508444  3
   7315   7318   7327   7328     1  0.0000000  0.6508444  3
   7315   7318   7327   7329     1  0.0000000  0.6508444  3
   7316   7315   7318   7327     1  0.0000000  0.6508444  3
   7316   7315   7318   7319     1  0.0000000  0.6508444  3
   7316   7315   7318   7320     1  0.0000000  0.6508444  3
   7317   7315   7318   7327     1  0.0000000  0.6508444  3
   7317   7315   7318   7319     1  0.0000000  0.6508444  3
   7317   7315   7318   7320     1  0.0000000  0.6508444  3
   7319   7318   7327   7336     1  0.0000000  1.0460000  1
   7319   7318   7327   7336     1  0.0000000  0.0000000  3
   7319   7318   7327   7328     1  0.0000000  0.6508444  3
   7319   7318   7327   7329     1  0.0000000  0.6508444  3
   7320   7318   7327   7336     1  0.0000000  1.0460000  1
   7320   7318   7327   7336     1  0.0000000  0.0000000  3
   7320   7318   7327   7328     1  0.0000000  0.6508444  3
   7320   7318   7327   7329     1  0.0000000  0.6508444  3
   7322   7321   7333  13963     1  0.0000000  1.0460000  1
   7322   7321   7333  13963     1  0.0000000  0.0000000  3
   7322   7321   7333   7334     1  0.0000000  0.6508444  3
   7322   7321   7333   7335     1  0.0000000  0.6508444  3
   7323   7321   7333  13963     1  0.0000000  1.0460000  1
   7323   7321   7333  13963     1  0.0000000  0.0000000  3
   7323   7321   7333   7334     1  0.0000000  0.6508444  3
   7323   7321   7333   7335     1  0.0000000  0.6508444  3
   7325   7324   7330  13940     1  0.0000000  1.0460000  1
   7325   7324   7330  13940     1  0.0000000  0.0000000  3
   7325   7324   7330   7331     1  0.0000000  0.6508444  3
   7325   7324   7330   7332     1  0.0000000  0.6508444  3
   7326   7324   7330  13940     1  0.0000000  1.0460000  1
   7326   7324   7330  13940     1  0.0000000  0.0000000  3
   7326   7324   7330   7331     1  0.0000000  0.6508444  3
   7326   7324   7330   7332     1  0.0000000  0.6508444  3
   7330  13940  13936  13939     1  0.0000000  1.6038667  3
   7331   7330  13940  13936     1  0.0000000  1.6038667  3
   7332   7330  13940  13936     1  0.0000000  1.6038667  3
   7333  13963  13959  13962     1  0.0000000  1.6038667  3
   7334   7333  13963  13959     1  0.0000000  1.6038667  3
   7335   7333  13963  13959     1  0.0000000  1.6038667  3
   7337   7338   7350   7351     1  0.0000000  0.6508444  3
   7337   7338   7350   7352     1  0.0000000  0.6508444  3
   7337   7341   7353   7354     1  0.0000000  0.6508444  3
   7337   7341   7353   7355     1  0.0000000  0.6508444  3
   7337   7344   7347   7348     1  0.0000000  0.6508444  3
   7337   7344   7347   7349     1  0.0000000  0.6508444  3
   7338   7337   7341   7342     1  0.0000000  1.2552000  3
   7338   7337   7341   7343     1  0.0000000  1.2552000  3
   7338   7337   7344   7345     1  0.0000000  1.2552000  3
   7338   7337   7344   7346     1  0.0000000  1.2552000  3
   7338   7350   7362   7363     1  0.0000000  0.6508444  3
   7338   7350   7362   7364     1  0.0000000  0.6508444  3
   7339   7338   7337   7341     1  0.0000000  1.2552000  3
   7339   7338   7337   7344     1  0.0000000  1.2552000  3
   7339   7338   7350   7362     1  0.0000000  0.6508444  3
   7339   7338   7350   7351     1  0.0000000  0.6508444  3
   7339   7338   7350   7352     1  0.0000000  0.6508444  3
   7340   7338   7337   7341     1  0.0000000  1.2552000  3
   7340   7338   7337   7344     1  0.0000000  1.2552000  3
   7340   7338   7350   7362     1  0.0000000  0.6508444  3
   7340   7338   7350   7351     1  0.0000000  0.6508444  3
   7340   7338   7350   7352     1  0.0000000  0.6508444  3
   7341   7337   7344   7345     1  0.0000000  1.2552000  3
   7341   7337   7344   7346     1  0.0000000  1.2552000  3
   7341   7353   7359   7360     1  0.0000000  0.6508444  3
   7341   7353   7359   7361     1  0.0000000  0.6508444  3
   7342   7341   7337   7344     1  0.0000000  1.2552000  3
   7342   7341   7353   7359     1  0.0000000  0.6508444  3
   7342   7341   7353   7354     1  0.0000000  0.6508444  3
   7342   7341   7353   7355     1  0.0000000  0.6508444  3
   7343   7341   7337   7344     1  0.0000000  1.2552000  3
   7343   7341   7353   7359     1  0.0000000  0.6508444  3
   7343   7341   7353   7354     1  0.0000000  0.6508444  3
   7343   7341   7353   7355     1  0.0000000  0.6508444  3
   7344   7347   7356   7357     1  0.0000000  0.6508444  3
   7344   7347   7356   7358     1  0.0000000  0.6508444  3
   7345   7344   7347   7356     1  0.0000000  0.6508444  3
   7345   7344   7347   7348     1  0.0000000  0.6508444  3
   7345   7344   7347   7349     1  0.0000000  0.6508444  3
   7346   7344   7347   7356     1  0.0000000  0.6508444  3
   7346   7344   7347   7348     1  0.0000000  0.6508444  3
   7346   7344   7347   7349     1  0.0000000  0.6508444  3
   7348   7347   7356   7365     1  0.0000000  1.0460000  1
   7348   7347   7356   7365     1  0.0000000  0.0000000  3
   7348   7347   7356   7357     1  0.0000000  0.6508444  3
   7348   7347   7356   7358     1  0.0000000  0.6508444  3
   7349   7347   7356   7365     1  0.0000000  1.0460000  1
   7349   7347   7356   7365     1  0.0000000  0.0000000  3
   7349   7347   7356   7357     1  0.0000000  0.6508444  3
   7349   7347   7356   7358     1  0.0000000  0.6508444  3
   7351   7350   7362  14009     1  0.0000000  1.0460000  1
   7351   7350   7362  14009     1  0.0000000  0.0000000  3
   7351   7350   7362   7363     1  0.0000000  0.6508444  3
   7351   7350   7362   7364     1  0.0000000  0.6508444  3
   7352   7350   7362  14009     1  0.0000000  1.0460000  1
   7352   7350   7362  14009     1  0.0000000  0.0000000  3
   7352   7350   7362   7363     1  0.0000000  0.6508444  3
   7352   7350   7362   7364     1  0.0000000  0.6508444  3
   7354   7353   7359  13986     1  0.0000000  1.0460000  1
   7354   7353   7359  13986     1  0.0000000  0.0000000  3
   7354   7353   7359   7360     1  0.0000000  0.6508444  3
   7354   7353   7359   7361     1  0.0000000  0.6508444  3
   7355   7353   7359  13986     1  0.0000000  1.0460000  1
   7355   7353   7359  13986     1  0.0000000  0.0000000  3
   7355   7353   7359   7360     1  0.0000000  0.6508444  3
   7355   7353   7359   7361     1  0.0000000  0.6508444  3
   7359  13986  13982  13985     1  0.0000000  1.6038667  3
   7360   7359  13986  13982     1  0.0000000  1.6038667  3
   7361   7359  13986  13982     1  0.0000000  1.6038667  3
   7362  14009  14005  14008     1  0.0000000  1.6038667  3
   7363   7362  14009  14005     1  0.0000000  1.6038667  3
   7364   7362  14009  14005     1  0.0000000  1.6038667  3
   7366   7367   7379   7380     1  0.0000000  0.6508444  3
   7366   7367   7379   7381     1  0.0000000  0.6508444  3
   7366   7370   7382   7383     1  0.0000000  0.6508444  3
   7366   7370   7382   7384     1  0.0000000  0.6508444  3
   7366   7373   7376   7377     1  0.0000000  0.6508444  3
   7366   7373   7376   7378     1  0.0000000  0.6508444  3
   7367   7366   7370   7371     1  0.0000000  1.2552000  3
   7367   7366   7370   7372     1  0.0000000  1.2552000  3
   7367   7366   7373   7374     1  0.0000000  1.2552000  3
   7367   7366   7373   7375     1  0.0000000  1.2552000  3
   7367   7379   7391   7392     1  0.0000000  0.6508444  3
   7367   7379   7391   7393     1  0.0000000  0.6508444  3
   7368   7367   7366   7370     1  0.0000000  1.2552000  3
   7368   7367   7366   7373     1  0.0000000  1.2552000  3
   7368   7367   7379   7391     1  0.0000000  0.6508444  3
   7368   7367   7379   7380     1  0.0000000  0.6508444  3
   7368   7367   7379   7381     1  0.0000000  0.6508444  3
   7369   7367   7366   7370     1  0.0000000  1.2552000  3
   7369   7367   7366   7373     1  0.0000000  1.2552000  3
   7369   7367   7379   7391     1  0.0000000  0.6508444  3
   7369   7367   7379   7380     1  0.0000000  0.6508444  3
   7369   7367   7379   7381     1  0.0000000  0.6508444  3
   7370   7366   7373   7374     1  0.0000000  1.2552000  3
   7370   7366   7373   7375     1  0.0000000  1.2552000  3
   7370   7382   7388   7389     1  0.0000000  0.6508444  3
   7370   7382   7388   7390     1  0.0000000  0.6508444  3
   7371   7370   7366   7373     1  0.0000000  1.2552000  3
   7371   7370   7382   7388     1  0.0000000  0.6508444  3
   7371   7370   7382   7383     1  0.0000000  0.6508444  3
   7371   7370   7382   7384     1  0.0000000  0.6508444  3
   7372   7370   7366   7373     1  0.0000000  1.2552000  3
   7372   7370   7382   7388     1  0.0000000  0.6508444  3
   7372   7370   7382   7383     1  0.0000000  0.6508444  3
   7372   7370   7382   7384     1  0.0000000  0.6508444  3
   7373   7376   7385   7386     1  0.0000000  0.6508444  3
   7373   7376   7385   7387     1  0.0000000  0.6508444  3
   7374   7373   7376   7385     1  0.0000000  0.6508444  3
   7374   7373   7376   7377     1  0.0000000  0.6508444  3
   7374   7373   7376   7378     1  0.0000000  0.6508444  3
   7375   7373   7376   7385     1  0.0000000  0.6508444  3
   7375   7373   7376   7377     1  0.0000000  0.6508444  3
   7375   7373   7376   7378     1  0.0000000  0.6508444  3
   7377   7376   7385   7394     1  0.0000000  1.0460000  1
   7377   7376   7385   7394     1  0.0000000  0.0000000  3
   7377   7376   7385   7386     1  0.0000000  0.6508444  3
   7377   7376   7385   7387     1  0.0000000  0.6508444  3
   7378   7376   7385   7394     1  0.0000000  1.0460000  1
   7378   7376   7385   7394     1  0.0000000  0.0000000  3
   7378   7376   7385   7386     1  0.0000000  0.6508444  3
   7378   7376   7385   7387     1  0.0000000  0.6508444  3
   7380   7379   7391  14055     1  0.0000000  1.0460000  1
   7380   7379   7391  14055     1  0.0000000  0.0000000  3
   7380   7379   7391   7392     1  0.0000000  0.6508444  3
   7380   7379   7391   7393     1  0.0000000  0.6508444  3
   7381   7379   7391  14055     1  0.0000000  1.0460000  1
   7381   7379   7391  14055     1  0.0000000  0.0000000  3
   7381   7379   7391   7392     1  0.0000000  0.6508444  3
   7381   7379   7391   7393     1  0.0000000  0.6508444  3
   7383   7382   7388  14032     1  0.0000000  1.0460000  1
   7383   7382   7388  14032     1  0.0000000  0.0000000  3
   7383   7382   7388   7389     1  0.0000000  0.6508444  3
   7383   7382   7388   7390     1  0.0000000  0.6508444  3
   7384   7382   7388  14032     1  0.0000000  1.0460000  1
   7384   7382   7388  14032     1  0.0000000  0.0000000  3
   7384   7382   7388   7389     1  0.0000000  0.6508444  3
   7384   7382   7388   7390     1  0.0000000  0.6508444  3
   7388  14032  14028  14031     1  0.0000000  1.6038667  3
   7389   7388  14032  14028     1  0.0000000  1.6038667  3
   7390   7388  14032  14028     1  0.0000000  1.6038667  3
   7391  14055  14051  14054     1  0.0000000  1.6038667  3
   7392   7391  14055  14051     1  0.0000000  1.6038667  3
   7393   7391  14055  14051     1  0.0000000  1.6038667  3
   7395   7396   7408   7409     1  0.0000000  0.6508444  3
   7395   7396   7408   7410     1  0.0000000  0.6508444  3
   7395   7399   7411   7412     1  0.0000000  0.6508444  3
   7395   7399   7411   7413     1  0.0000000  0.6508444  3
   7395   7402   7405   7406     1  0.0000000  0.6508444  3
   7395   7402   7405   7407     1  0.0000000  0.6508444  3
   7396   7395   7399   7400     1  0.0000000  1.2552000  3
   7396   7395   7399   7401     1  0.0000000  1.2552000  3
   7396   7395   7402   7403     1  0.0000000  1.2552000  3
   7396   7395   7402   7404     1  0.0000000  1.2552000  3
   7396   7408   7420   7421     1  0.0000000  0.6508444  3
   7396   7408   7420   7422     1  0.0000000  0.6508444  3
   7397   7396   7395   7399     1  0.0000000  1.2552000  3
   7397   7396   7395   7402     1  0.0000000  1.2552000  3
   7397   7396   7408   7420     1  0.0000000  0.6508444  3
   7397   7396   7408   7409     1  0.0000000  0.6508444  3
   7397   7396   7408   7410     1  0.0000000  0.6508444  3
   7398   7396   7395   7399     1  0.0000000  1.2552000  3
   7398   7396   7395   7402     1  0.0000000  1.2552000  3
   7398   7396   7408   7420     1  0.0000000  0.6508444  3
   7398   7396   7408   7409     1  0.0000000  0.6508444  3
   7398   7396   7408   7410     1  0.0000000  0.6508444  3
   7399   7395   7402   7403     1  0.0000000  1.2552000  3
   7399   7395   7402   7404     1  0.0000000  1.2552000  3
   7399   7411   7417   7418     1  0.0000000  0.6508444  3
   7399   7411   7417   7419     1  0.0000000  0.6508444  3
   7400   7399   7395   7402     1  0.0000000  1.2552000  3
   7400   7399   7411   7417     1  0.0000000  0.6508444  3
   7400   7399   7411   7412     1  0.0000000  0.6508444  3
   7400   7399   7411   7413     1  0.0000000  0.6508444  3
   7401   7399   7395   7402     1  0.0000000  1.2552000  3
   7401   7399   7411   7417     1  0.0000000  0.6508444  3
   7401   7399   7411   7412     1  0.0000000  0.6508444  3
   7401   7399   7411   7413     1  0.0000000  0.6508444  3
   7402   7405   7414   7415     1  0.0000000  0.6508444  3
   7402   7405   7414   7416     1  0.0000000  0.6508444  3
   7403   7402   7405   7414     1  0.0000000  0.6508444  3
   7403   7402   7405   7406     1  0.0000000  0.6508444  3
   7403   7402   7405   7407     1  0.0000000  0.6508444  3
   7404   7402   7405   7414     1  0.0000000  0.6508444  3
   7404   7402   7405   7406     1  0.0000000  0.6508444  3
   7404   7402   7405   7407     1  0.0000000  0.6508444  3
   7406   7405   7414   7423     1  0.0000000  1.0460000  1
   7406   7405   7414   7423     1  0.0000000  0.0000000  3
   7406   7405   7414   7415     1  0.0000000  0.6508444  3
   7406   7405   7414   7416     1  0.0000000  0.6508444  3
   7407   7405   7414   7423     1  0.0000000  1.0460000  1
   7407   7405   7414   7423     1  0.0000000  0.0000000  3
   7407   7405   7414   7415     1  0.0000000  0.6508444  3
   7407   7405   7414   7416     1  0.0000000  0.6508444  3
   7409   7408   7420  14101     1  0.0000000  1.0460000  1
   7409   7408   7420  14101     1  0.0000000  0.0000000  3
   7409   7408   7420   7421     1  0.0000000  0.6508444  3
   7409   7408   7420   7422     1  0.0000000  0.6508444  3
   7410   7408   7420  14101     1  0.0000000  1.0460000  1
   7410   7408   7420  14101     1  0.0000000  0.0000000  3
   7410   7408   7420   7421     1  0.0000000  0.6508444  3
   7410   7408   7420   7422     1  0.0000000  0.6508444  3
   7412   7411   7417  14078     1  0.0000000  1.0460000  1
   7412   7411   7417  14078     1  0.0000000  0.0000000  3
   7412   7411   7417   7418     1  0.0000000  0.6508444  3
   7412   7411   7417   7419     1  0.0000000  0.6508444  3
   7413   7411   7417  14078     1  0.0000000  1.0460000  1
   7413   7411   7417  14078     1  0.0000000  0.0000000  3
   7413   7411   7417   7418     1  0.0000000  0.6508444  3
   7413   7411   7417   7419     1  0.0000000  0.6508444  3
   7417  14078  14074  14077     1  0.0000000  1.6038667  3
   7418   7417  14078  14074     1  0.0000000  1.6038667  3
   7419   7417  14078  14074     1  0.0000000  1.6038667  3
   7420  14101  14097  14100     1  0.0000000  1.6038667  3
   7421   7420  14101  14097     1  0.0000000  1.6038667  3
   7422   7420  14101  14097     1  0.0000000  1.6038667  3
   7424   7425   7437   7438     1  0.0000000  0.6508444  3
   7424   7425   7437   7439     1  0.0000000  0.6508444  3
   7424   7428   7440   7441     1  0.0000000  0.6508444  3
   7424   7428   7440   7442     1  0.0000000  0.6508444  3
   7424   7431   7434   7435     1  0.0000000  0.6508444  3
   7424   7431   7434   7436     1  0.0000000  0.6508444  3
   7425   7424   7428   7429     1  0.0000000  1.2552000  3
   7425   7424   7428   7430     1  0.0000000  1.2552000  3
   7425   7424   7431   7432     1  0.0000000  1.2552000  3
   7425   7424   7431   7433     1  0.0000000  1.2552000  3
   7425   7437   7449   7450     1  0.0000000  0.6508444  3
   7425   7437   7449   7451     1  0.0000000  0.6508444  3
   7426   7425   7424   7428     1  0.0000000  1.2552000  3
   7426   7425   7424   7431     1  0.0000000  1.2552000  3
   7426   7425   7437   7449     1  0.0000000  0.6508444  3
   7426   7425   7437   7438     1  0.0000000  0.6508444  3
   7426   7425   7437   7439     1  0.0000000  0.6508444  3
   7427   7425   7424   7428     1  0.0000000  1.2552000  3
   7427   7425   7424   7431     1  0.0000000  1.2552000  3
   7427   7425   7437   7449     1  0.0000000  0.6508444  3
   7427   7425   7437   7438     1  0.0000000  0.6508444  3
   7427   7425   7437   7439     1  0.0000000  0.6508444  3
   7428   7424   7431   7432     1  0.0000000  1.2552000  3
   7428   7424   7431   7433     1  0.0000000  1.2552000  3
   7428   7440   7446   7447     1  0.0000000  0.6508444  3
   7428   7440   7446   7448     1  0.0000000  0.6508444  3
   7429   7428   7424   7431     1  0.0000000  1.2552000  3
   7429   7428   7440   7446     1  0.0000000  0.6508444  3
   7429   7428   7440   7441     1  0.0000000  0.6508444  3
   7429   7428   7440   7442     1  0.0000000  0.6508444  3
   7430   7428   7424   7431     1  0.0000000  1.2552000  3
   7430   7428   7440   7446     1  0.0000000  0.6508444  3
   7430   7428   7440   7441     1  0.0000000  0.6508444  3
   7430   7428   7440   7442     1  0.0000000  0.6508444  3
   7431   7434   7443   7444     1  0.0000000  0.6508444  3
   7431   7434   7443   7445     1  0.0000000  0.6508444  3
   7432   7431   7434   7443     1  0.0000000  0.6508444  3
   7432   7431   7434   7435     1  0.0000000  0.6508444  3
   7432   7431   7434   7436     1  0.0000000  0.6508444  3
   7433   7431   7434   7443     1  0.0000000  0.6508444  3
   7433   7431   7434   7435     1  0.0000000  0.6508444  3
   7433   7431   7434   7436     1  0.0000000  0.6508444  3
   7435   7434   7443   7452     1  0.0000000  1.0460000  1
   7435   7434   7443   7452     1  0.0000000  0.0000000  3
   7435   7434   7443   7444     1  0.0000000  0.6508444  3
   7435   7434   7443   7445     1  0.0000000  0.6508444  3
   7436   7434   7443   7452     1  0.0000000  1.0460000  1
   7436   7434   7443   7452     1  0.0000000  0.0000000  3
   7436   7434   7443   7444     1  0.0000000  0.6508444  3
   7436   7434   7443   7445     1  0.0000000  0.6508444  3
   7438   7437   7449  14147     1  0.0000000  1.0460000  1
   7438   7437   7449  14147     1  0.0000000  0.0000000  3
   7438   7437   7449   7450     1  0.0000000  0.6508444  3
   7438   7437   7449   7451     1  0.0000000  0.6508444  3
   7439   7437   7449  14147     1  0.0000000  1.0460000  1
   7439   7437   7449  14147     1  0.0000000  0.0000000  3
   7439   7437   7449   7450     1  0.0000000  0.6508444  3
   7439   7437   7449   7451     1  0.0000000  0.6508444  3
   7441   7440   7446  14124     1  0.0000000  1.0460000  1
   7441   7440   7446  14124     1  0.0000000  0.0000000  3
   7441   7440   7446   7447     1  0.0000000  0.6508444  3
   7441   7440   7446   7448     1  0.0000000  0.6508444  3
   7442   7440   7446  14124     1  0.0000000  1.0460000  1
   7442   7440   7446  14124     1  0.0000000  0.0000000  3
   7442   7440   7446   7447     1  0.0000000  0.6508444  3
   7442   7440   7446   7448     1  0.0000000  0.6508444  3
   7446  14124  14120  14123     1  0.0000000  1.6038667  3
   7447   7446  14124  14120     1  0.0000000  1.6038667  3
   7448   7446  14124  14120     1  0.0000000  1.6038667  3
   7449  14147  14143  14146     1  0.0000000  1.6038667  3
   7450   7449  14147  14143     1  0.0000000  1.6038667  3
   7451   7449  14147  14143     1  0.0000000  1.6038667  3
   7453   7454   7466   7467     1  0.0000000  0.6508444  3
   7453   7454   7466   7468     1  0.0000000  0.6508444  3
   7453   7457   7469   7470     1  0.0000000  0.6508444  3
   7453   7457   7469   7471     1  0.0000000  0.6508444  3
   7453   7460   7463   7464     1  0.0000000  0.6508444  3
   7453   7460   7463   7465     1  0.0000000  0.6508444  3
   7454   7453   7457   7458     1  0.0000000  1.2552000  3
   7454   7453   7457   7459     1  0.0000000  1.2552000  3
   7454   7453   7460   7461     1  0.0000000  1.2552000  3
   7454   7453   7460   7462     1  0.0000000  1.2552000  3
   7454   7466   7478   7479     1  0.0000000  0.6508444  3
   7454   7466   7478   7480     1  0.0000000  0.6508444  3
   7455   7454   7453   7457     1  0.0000000  1.2552000  3
   7455   7454   7453   7460     1  0.0000000  1.2552000  3
   7455   7454   7466   7478     1  0.0000000  0.6508444  3
   7455   7454   7466   7467     1  0.0000000  0.6508444  3
   7455   7454   7466   7468     1  0.0000000  0.6508444  3
   7456   7454   7453   7457     1  0.0000000  1.2552000  3
   7456   7454   7453   7460     1  0.0000000  1.2552000  3
   7456   7454   7466   7478     1  0.0000000  0.6508444  3
   7456   7454   7466   7467     1  0.0000000  0.6508444  3
   7456   7454   7466   7468     1  0.0000000  0.6508444  3
   7457   7453   7460   7461     1  0.0000000  1.2552000  3
   7457   7453   7460   7462     1  0.0000000  1.2552000  3
   7457   7469   7475   7476     1  0.0000000  0.6508444  3
   7457   7469   7475   7477     1  0.0000000  0.6508444  3
   7458   7457   7453   7460     1  0.0000000  1.2552000  3
   7458   7457   7469   7475     1  0.0000000  0.6508444  3
   7458   7457   7469   7470     1  0.0000000  0.6508444  3
   7458   7457   7469   7471     1  0.0000000  0.6508444  3
   7459   7457   7453   7460     1  0.0000000  1.2552000  3
   7459   7457   7469   7475     1  0.0000000  0.6508444  3
   7459   7457   7469   7470     1  0.0000000  0.6508444  3
   7459   7457   7469   7471     1  0.0000000  0.6508444  3
   7460   7463   7472   7473     1  0.0000000  0.6508444  3
   7460   7463   7472   7474     1  0.0000000  0.6508444  3
   7461   7460   7463   7472     1  0.0000000  0.6508444  3
   7461   7460   7463   7464     1  0.0000000  0.6508444  3
   7461   7460   7463   7465     1  0.0000000  0.6508444  3
   7462   7460   7463   7472     1  0.0000000  0.6508444  3
   7462   7460   7463   7464     1  0.0000000  0.6508444  3
   7462   7460   7463   7465     1  0.0000000  0.6508444  3
   7464   7463   7472   7481     1  0.0000000  1.0460000  1
   7464   7463   7472   7481     1  0.0000000  0.0000000  3
   7464   7463   7472   7473     1  0.0000000  0.6508444  3
   7464   7463   7472   7474     1  0.0000000  0.6508444  3
   7465   7463   7472   7481     1  0.0000000  1.0460000  1
   7465   7463   7472   7481     1  0.0000000  0.0000000  3
   7465   7463   7472   7473     1  0.0000000  0.6508444  3
   7465   7463   7472   7474     1  0.0000000  0.6508444  3
   7467   7466   7478  14193     1  0.0000000  1.0460000  1
   7467   7466   7478  14193     1  0.0000000  0.0000000  3
   7467   7466   7478   7479     1  0.0000000  0.6508444  3
   7467   7466   7478   7480     1  0.0000000  0.6508444  3
   7468   7466   7478  14193     1  0.0000000  1.0460000  1
   7468   7466   7478  14193     1  0.0000000  0.0000000  3
   7468   7466   7478   7479     1  0.0000000  0.6508444  3
   7468   7466   7478   7480     1  0.0000000  0.6508444  3
   7470   7469   7475  14170     1  0.0000000  1.0460000  1
   7470   7469   7475  14170     1  0.0000000  0.0000000  3
   7470   7469   7475   7476     1  0.0000000  0.6508444  3
   7470   7469   7475   7477     1  0.0000000  0.6508444  3
   7471   7469   7475  14170     1  0.0000000  1.0460000  1
   7471   7469   7475  14170     1  0.0000000  0.0000000  3
   7471   7469   7475   7476     1  0.0000000  0.6508444  3
   7471   7469   7475   7477     1  0.0000000  0.6508444  3
   7475  14170  14166  14169     1  0.0000000  1.6038667  3
   7476   7475  14170  14166     1  0.0000000  1.6038667  3
   7477   7475  14170  14166     1  0.0000000  1.6038667  3
   7478  14193  14189  14192     1  0.0000000  1.6038667  3
   7479   7478  14193  14189     1  0.0000000  1.6038667  3
   7480   7478  14193  14189     1  0.0000000  1.6038667  3
   7482   7483   7495   7496     1  0.0000000  0.6508444  3
   7482   7483   7495   7497     1  0.0000000  0.6508444  3
   7482   7486   7498   7499     1  0.0000000  0.6508444  3
   7482   7486   7498   7500     1  0.0000000  0.6508444  3
   7482   7489   7492   7493     1  0.0000000  0.6508444  3
   7482   7489   7492   7494     1  0.0000000  0.6508444  3
   7483   7482   7486   7487     1  0.0000000  1.2552000  3
   7483   7482   7486   7488     1  0.0000000  1.2552000  3
   7483   7482   7489   7490     1  0.0000000  1.2552000  3
   7483   7482   7489   7491     1  0.0000000  1.2552000  3
   7483   7495   7507   7508     1  0.0000000  0.6508444  3
   7483   7495   7507   7509     1  0.0000000  0.6508444  3
   7484   7483   7482   7486     1  0.0000000  1.2552000  3
   7484   7483   7482   7489     1  0.0000000  1.2552000  3
   7484   7483   7495   7507     1  0.0000000  0.6508444  3
   7484   7483   7495   7496     1  0.0000000  0.6508444  3
   7484   7483   7495   7497     1  0.0000000  0.6508444  3
   7485   7483   7482   7486     1  0.0000000  1.2552000  3
   7485   7483   7482   7489     1  0.0000000  1.2552000  3
   7485   7483   7495   7507     1  0.0000000  0.6508444  3
   7485   7483   7495   7496     1  0.0000000  0.6508444  3
   7485   7483   7495   7497     1  0.0000000  0.6508444  3
   7486   7482   7489   7490     1  0.0000000  1.2552000  3
   7486   7482   7489   7491     1  0.0000000  1.2552000  3
   7486   7498   7504   7505     1  0.0000000  0.6508444  3
   7486   7498   7504   7506     1  0.0000000  0.6508444  3
   7487   7486   7482   7489     1  0.0000000  1.2552000  3
   7487   7486   7498   7504     1  0.0000000  0.6508444  3
   7487   7486   7498   7499     1  0.0000000  0.6508444  3
   7487   7486   7498   7500     1  0.0000000  0.6508444  3
   7488   7486   7482   7489     1  0.0000000  1.2552000  3
   7488   7486   7498   7504     1  0.0000000  0.6508444  3
   7488   7486   7498   7499     1  0.0000000  0.6508444  3
   7488   7486   7498   7500     1  0.0000000  0.6508444  3
   7489   7492   7501   7502     1  0.0000000  0.6508444  3
   7489   7492   7501   7503     1  0.0000000  0.6508444  3
   7490   7489   7492   7501     1  0.0000000  0.6508444  3
   7490   7489   7492   7493     1  0.0000000  0.6508444  3
   7490   7489   7492   7494     1  0.0000000  0.6508444  3
   7491   7489   7492   7501     1  0.0000000  0.6508444  3
   7491   7489   7492   7493     1  0.0000000  0.6508444  3
   7491   7489   7492   7494     1  0.0000000  0.6508444  3
   7493   7492   7501   7510     1  0.0000000  1.0460000  1
   7493   7492   7501   7510     1  0.0000000  0.0000000  3
   7493   7492   7501   7502     1  0.0000000  0.6508444  3
   7493   7492   7501   7503     1  0.0000000  0.6508444  3
   7494   7492   7501   7510     1  0.0000000  1.0460000  1
   7494   7492   7501   7510     1  0.0000000  0.0000000  3
   7494   7492   7501   7502     1  0.0000000  0.6508444  3
   7494   7492   7501   7503     1  0.0000000  0.6508444  3
   7496   7495   7507  14239     1  0.0000000  1.0460000  1
   7496   7495   7507  14239     1  0.0000000  0.0000000  3
   7496   7495   7507   7508     1  0.0000000  0.6508444  3
   7496   7495   7507   7509     1  0.0000000  0.6508444  3
   7497   7495   7507  14239     1  0.0000000  1.0460000  1
   7497   7495   7507  14239     1  0.0000000  0.0000000  3
   7497   7495   7507   7508     1  0.0000000  0.6508444  3
   7497   7495   7507   7509     1  0.0000000  0.6508444  3
   7499   7498   7504  14216     1  0.0000000  1.0460000  1
   7499   7498   7504  14216     1  0.0000000  0.0000000  3
   7499   7498   7504   7505     1  0.0000000  0.6508444  3
   7499   7498   7504   7506     1  0.0000000  0.6508444  3
   7500   7498   7504  14216     1  0.0000000  1.0460000  1
   7500   7498   7504  14216     1  0.0000000  0.0000000  3
   7500   7498   7504   7505     1  0.0000000  0.6508444  3
   7500   7498   7504   7506     1  0.0000000  0.6508444  3
   7504  14216  14212  14215     1  0.0000000  1.6038667  3
   7505   7504  14216  14212     1  0.0000000  1.6038667  3
   7506   7504  14216  14212     1  0.0000000  1.6038667  3
   7507  14239  14235  14238     1  0.0000000  1.6038667  3
   7508   7507  14239  14235     1  0.0000000  1.6038667  3
   7509   7507  14239  14235     1  0.0000000  1.6038667  3
   7511   7512   7524   7525     1  0.0000000  0.6508444  3
   7511   7512   7524   7526     1  0.0000000  0.6508444  3
   7511   7515   7527   7528     1  0.0000000  0.6508444  3
   7511   7515   7527   7529     1  0.0000000  0.6508444  3
   7511   7518   7521   7522     1  0.0000000  0.6508444  3
   7511   7518   7521   7523     1  0.0000000  0.6508444  3
   7512   7511   7515   7516     1  0.0000000  1.2552000  3
   7512   7511   7515   7517     1  0.0000000  1.2552000  3
   7512   7511   7518   7519     1  0.0000000  1.2552000  3
   7512   7511   7518   7520     1  0.0000000  1.2552000  3
   7512   7524   7536   7537     1  0.0000000  0.6508444  3
   7512   7524   7536   7538     1  0.0000000  0.6508444  3
   7513   7512   7511   7515     1  0.0000000  1.2552000  3
   7513   7512   7511   7518     1  0.0000000  1.2552000  3
   7513   7512   7524   7536     1  0.0000000  0.6508444  3
   7513   7512   7524   7525     1  0.0000000  0.6508444  3
   7513   7512   7524   7526     1  0.0000000  0.6508444  3
   7514   7512   7511   7515     1  0.0000000  1.2552000  3
   7514   7512   7511   7518     1  0.0000000  1.2552000  3
   7514   7512   7524   7536     1  0.0000000  0.6508444  3
   7514   7512   7524   7525     1  0.0000000  0.6508444  3
   7514   7512   7524   7526     1  0.0000000  0.6508444  3
   7515   7511   7518   7519     1  0.0000000  1.2552000  3
   7515   7511   7518   7520     1  0.0000000  1.2552000  3
   7515   7527   7533   7534     1  0.0000000  0.6508444  3
   7515   7527   7533   7535     1  0.0000000  0.6508444  3
   7516   7515   7511   7518     1  0.0000000  1.2552000  3
   7516   7515   7527   7533     1  0.0000000  0.6508444  3
   7516   7515   7527   7528     1  0.0000000  0.6508444  3
   7516   7515   7527   7529     1  0.0000000  0.6508444  3
   7517   7515   7511   7518     1  0.0000000  1.2552000  3
   7517   7515   7527   7533     1  0.0000000  0.6508444  3
   7517   7515   7527   7528     1  0.0000000  0.6508444  3
   7517   7515   7527   7529     1  0.0000000  0.6508444  3
   7518   7521   7530   7531     1  0.0000000  0.6508444  3
   7518   7521   7530   7532     1  0.0000000  0.6508444  3
   7519   7518   7521   7530     1  0.0000000  0.6508444  3
   7519   7518   7521   7522     1  0.0000000  0.6508444  3
   7519   7518   7521   7523     1  0.0000000  0.6508444  3
   7520   7518   7521   7530     1  0.0000000  0.6508444  3
   7520   7518   7521   7522     1  0.0000000  0.6508444  3
   7520   7518   7521   7523     1  0.0000000  0.6508444  3
   7522   7521   7530   7539     1  0.0000000  1.0460000  1
   7522   7521   7530   7539     1  0.0000000  0.0000000  3
   7522   7521   7530   7531     1  0.0000000  0.6508444  3
   7522   7521   7530   7532     1  0.0000000  0.6508444  3
   7523   7521   7530   7539     1  0.0000000  1.0460000  1
   7523   7521   7530   7539     1  0.0000000  0.0000000  3
   7523   7521   7530   7531     1  0.0000000  0.6508444  3
   7523   7521   7530   7532     1  0.0000000  0.6508444  3
   7525   7524   7536  14285     1  0.0000000  1.0460000  1
   7525   7524   7536  14285     1  0.0000000  0.0000000  3
   7525   7524   7536   7537     1  0.0000000  0.6508444  3
   7525   7524   7536   7538     1  0.0000000  0.6508444  3
   7526   7524   7536  14285     1  0.0000000  1.0460000  1
   7526   7524   7536  14285     1  0.0000000  0.0000000  3
   7526   7524   7536   7537     1  0.0000000  0.6508444  3
   7526   7524   7536   7538     1  0.0000000  0.6508444  3
   7528   7527   7533  14262     1  0.0000000  1.0460000  1
   7528   7527   7533  14262     1  0.0000000  0.0000000  3
   7528   7527   7533   7534     1  0.0000000  0.6508444  3
   7528   7527   7533   7535     1  0.0000000  0.6508444  3
   7529   7527   7533  14262     1  0.0000000  1.0460000  1
   7529   7527   7533  14262     1  0.0000000  0.0000000  3
   7529   7527   7533   7534     1  0.0000000  0.6508444  3
   7529   7527   7533   7535     1  0.0000000  0.6508444  3
   7533  14262  14258  14261     1  0.0000000  1.6038667  3
   7534   7533  14262  14258     1  0.0000000  1.6038667  3
   7535   7533  14262  14258     1  0.0000000  1.6038667  3
   7536  14285  14281  14284     1  0.0000000  1.6038667  3
   7537   7536  14285  14281     1  0.0000000  1.6038667  3
   7538   7536  14285  14281     1  0.0000000  1.6038667  3
   7540   7541   7553   7554     1  0.0000000  0.6508444  3
   7540   7541   7553   7555     1  0.0000000  0.6508444  3
   7540   7544   7556   7557     1  0.0000000  0.6508444  3
   7540   7544   7556   7558     1  0.0000000  0.6508444  3
   7540   7547   7550   7551     1  0.0000000  0.6508444  3
   7540   7547   7550   7552     1  0.0000000  0.6508444  3
   7541   7540   7544   7545     1  0.0000000  1.2552000  3
   7541   7540   7544   7546     1  0.0000000  1.2552000  3
   7541   7540   7547   7548     1  0.0000000  1.2552000  3
   7541   7540   7547   7549     1  0.0000000  1.2552000  3
   7541   7553   7565   7566     1  0.0000000  0.6508444  3
   7541   7553   7565   7567     1  0.0000000  0.6508444  3
   7542   7541   7540   7544     1  0.0000000  1.2552000  3
   7542   7541   7540   7547     1  0.0000000  1.2552000  3
   7542   7541   7553   7565     1  0.0000000  0.6508444  3
   7542   7541   7553   7554     1  0.0000000  0.6508444  3
   7542   7541   7553   7555     1  0.0000000  0.6508444  3
   7543   7541   7540   7544     1  0.0000000  1.2552000  3
   7543   7541   7540   7547     1  0.0000000  1.2552000  3
   7543   7541   7553   7565     1  0.0000000  0.6508444  3
   7543   7541   7553   7554     1  0.0000000  0.6508444  3
   7543   7541   7553   7555     1  0.0000000  0.6508444  3
   7544   7540   7547   7548     1  0.0000000  1.2552000  3
   7544   7540   7547   7549     1  0.0000000  1.2552000  3
   7544   7556   7562   7563     1  0.0000000  0.6508444  3
   7544   7556   7562   7564     1  0.0000000  0.6508444  3
   7545   7544   7540   7547     1  0.0000000  1.2552000  3
   7545   7544   7556   7562     1  0.0000000  0.6508444  3
   7545   7544   7556   7557     1  0.0000000  0.6508444  3
   7545   7544   7556   7558     1  0.0000000  0.6508444  3
   7546   7544   7540   7547     1  0.0000000  1.2552000  3
   7546   7544   7556   7562     1  0.0000000  0.6508444  3
   7546   7544   7556   7557     1  0.0000000  0.6508444  3
   7546   7544   7556   7558     1  0.0000000  0.6508444  3
   7547   7550   7559   7560     1  0.0000000  0.6508444  3
   7547   7550   7559   7561     1  0.0000000  0.6508444  3
   7548   7547   7550   7559     1  0.0000000  0.6508444  3
   7548   7547   7550   7551     1  0.0000000  0.6508444  3
   7548   7547   7550   7552     1  0.0000000  0.6508444  3
   7549   7547   7550   7559     1  0.0000000  0.6508444  3
   7549   7547   7550   7551     1  0.0000000  0.6508444  3
   7549   7547   7550   7552     1  0.0000000  0.6508444  3
   7551   7550   7559   7568     1  0.0000000  1.0460000  1
   7551   7550   7559   7568     1  0.0000000  0.0000000  3
   7551   7550   7559   7560     1  0.0000000  0.6508444  3
   7551   7550   7559   7561     1  0.0000000  0.6508444  3
   7552   7550   7559   7568     1  0.0000000  1.0460000  1
   7552   7550   7559   7568     1  0.0000000  0.0000000  3
   7552   7550   7559   7560     1  0.0000000  0.6508444  3
   7552   7550   7559   7561     1  0.0000000  0.6508444  3
   7554   7553   7565  14331     1  0.0000000  1.0460000  1
   7554   7553   7565  14331     1  0.0000000  0.0000000  3
   7554   7553   7565   7566     1  0.0000000  0.6508444  3
   7554   7553   7565   7567     1  0.0000000  0.6508444  3
   7555   7553   7565  14331     1  0.0000000  1.0460000  1
   7555   7553   7565  14331     1  0.0000000  0.0000000  3
   7555   7553   7565   7566     1  0.0000000  0.6508444  3
   7555   7553   7565   7567     1  0.0000000  0.6508444  3
   7557   7556   7562  14308     1  0.0000000  1.0460000  1
   7557   7556   7562  14308     1  0.0000000  0.0000000  3
   7557   7556   7562   7563     1  0.0000000  0.6508444  3
   7557   7556   7562   7564     1  0.0000000  0.6508444  3
   7558   7556   7562  14308     1  0.0000000  1.0460000  1
   7558   7556   7562  14308     1  0.0000000  0.0000000  3
   7558   7556   7562   7563     1  0.0000000  0.6508444  3
   7558   7556   7562   7564     1  0.0000000  0.6508444  3
   7562  14308  14304  14307     1  0.0000000  1.6038667  3
   7563   7562  14308  14304     1  0.0000000  1.6038667  3
   7564   7562  14308  14304     1  0.0000000  1.6038667  3
   7565  14331  14327  14330     1  0.0000000  1.6038667  3
   7566   7565  14331  14327     1  0.0000000  1.6038667  3
   7567   7565  14331  14327     1  0.0000000  1.6038667  3
   7569   7570   7582   7583     1  0.0000000  0.6508444  3
   7569   7570   7582   7584     1  0.0000000  0.6508444  3
   7569   7573   7585   7586     1  0.0000000  0.6508444  3
   7569   7573   7585   7587     1  0.0000000  0.6508444  3
   7569   7576   7579   7580     1  0.0000000  0.6508444  3
   7569   7576   7579   7581     1  0.0000000  0.6508444  3
   7570   7569   7573   7574     1  0.0000000  1.2552000  3
   7570   7569   7573   7575     1  0.0000000  1.2552000  3
   7570   7569   7576   7577     1  0.0000000  1.2552000  3
   7570   7569   7576   7578     1  0.0000000  1.2552000  3
   7570   7582   7594   7595     1  0.0000000  0.6508444  3
   7570   7582   7594   7596     1  0.0000000  0.6508444  3
   7571   7570   7569   7573     1  0.0000000  1.2552000  3
   7571   7570   7569   7576     1  0.0000000  1.2552000  3
   7571   7570   7582   7594     1  0.0000000  0.6508444  3
   7571   7570   7582   7583     1  0.0000000  0.6508444  3
   7571   7570   7582   7584     1  0.0000000  0.6508444  3
   7572   7570   7569   7573     1  0.0000000  1.2552000  3
   7572   7570   7569   7576     1  0.0000000  1.2552000  3
   7572   7570   7582   7594     1  0.0000000  0.6508444  3
   7572   7570   7582   7583     1  0.0000000  0.6508444  3
   7572   7570   7582   7584     1  0.0000000  0.6508444  3
   7573   7569   7576   7577     1  0.0000000  1.2552000  3
   7573   7569   7576   7578     1  0.0000000  1.2552000  3
   7573   7585   7591   7592     1  0.0000000  0.6508444  3
   7573   7585   7591   7593     1  0.0000000  0.6508444  3
   7574   7573   7569   7576     1  0.0000000  1.2552000  3
   7574   7573   7585   7591     1  0.0000000  0.6508444  3
   7574   7573   7585   7586     1  0.0000000  0.6508444  3
   7574   7573   7585   7587     1  0.0000000  0.6508444  3
   7575   7573   7569   7576     1  0.0000000  1.2552000  3
   7575   7573   7585   7591     1  0.0000000  0.6508444  3
   7575   7573   7585   7586     1  0.0000000  0.6508444  3
   7575   7573   7585   7587     1  0.0000000  0.6508444  3
   7576   7579   7588   7589     1  0.0000000  0.6508444  3
   7576   7579   7588   7590     1  0.0000000  0.6508444  3
   7577   7576   7579   7588     1  0.0000000  0.6508444  3
   7577   7576   7579   7580     1  0.0000000  0.6508444  3
   7577   7576   7579   7581     1  0.0000000  0.6508444  3
   7578   7576   7579   7588     1  0.0000000  0.6508444  3
   7578   7576   7579   7580     1  0.0000000  0.6508444  3
   7578   7576   7579   7581     1  0.0000000  0.6508444  3
   7580   7579   7588   7597     1  0.0000000  1.0460000  1
   7580   7579   7588   7597     1  0.0000000  0.0000000  3
   7580   7579   7588   7589     1  0.0000000  0.6508444  3
   7580   7579   7588   7590     1  0.0000000  0.6508444  3
   7581   7579   7588   7597     1  0.0000000  1.0460000  1
   7581   7579   7588   7597     1  0.0000000  0.0000000  3
   7581   7579   7588   7589     1  0.0000000  0.6508444  3
   7581   7579   7588   7590     1  0.0000000  0.6508444  3
   7583   7582   7594  14377     1  0.0000000  1.0460000  1
   7583   7582   7594  14377     1  0.0000000  0.0000000  3
   7583   7582   7594   7595     1  0.0000000  0.6508444  3
   7583   7582   7594   7596     1  0.0000000  0.6508444  3
   7584   7582   7594  14377     1  0.0000000  1.0460000  1
   7584   7582   7594  14377     1  0.0000000  0.0000000  3
   7584   7582   7594   7595     1  0.0000000  0.6508444  3
   7584   7582   7594   7596     1  0.0000000  0.6508444  3
   7586   7585   7591  14354     1  0.0000000  1.0460000  1
   7586   7585   7591  14354     1  0.0000000  0.0000000  3
   7586   7585   7591   7592     1  0.0000000  0.6508444  3
   7586   7585   7591   7593     1  0.0000000  0.6508444  3
   7587   7585   7591  14354     1  0.0000000  1.0460000  1
   7587   7585   7591  14354     1  0.0000000  0.0000000  3
   7587   7585   7591   7592     1  0.0000000  0.6508444  3
   7587   7585   7591   7593     1  0.0000000  0.6508444  3
   7591  14354  14350  14353     1  0.0000000  1.6038667  3
   7592   7591  14354  14350     1  0.0000000  1.6038667  3
   7593   7591  14354  14350     1  0.0000000  1.6038667  3
   7594  14377  14373  14376     1  0.0000000  1.6038667  3
   7595   7594  14377  14373     1  0.0000000  1.6038667  3
   7596   7594  14377  14373     1  0.0000000  1.6038667  3
   7598   7599   7611   7612     1  0.0000000  0.6508444  3
   7598   7599   7611   7613     1  0.0000000  0.6508444  3
   7598   7602   7614   7615     1  0.0000000  0.6508444  3
   7598   7602   7614   7616     1  0.0000000  0.6508444  3
   7598   7605   7608   7609     1  0.0000000  0.6508444  3
   7598   7605   7608   7610     1  0.0000000  0.6508444  3
   7599   7598   7602   7603     1  0.0000000  1.2552000  3
   7599   7598   7602   7604     1  0.0000000  1.2552000  3
   7599   7598   7605   7606     1  0.0000000  1.2552000  3
   7599   7598   7605   7607     1  0.0000000  1.2552000  3
   7599   7611   7623   7624     1  0.0000000  0.6508444  3
   7599   7611   7623   7625     1  0.0000000  0.6508444  3
   7600   7599   7598   7602     1  0.0000000  1.2552000  3
   7600   7599   7598   7605     1  0.0000000  1.2552000  3
   7600   7599   7611   7623     1  0.0000000  0.6508444  3
   7600   7599   7611   7612     1  0.0000000  0.6508444  3
   7600   7599   7611   7613     1  0.0000000  0.6508444  3
   7601   7599   7598   7602     1  0.0000000  1.2552000  3
   7601   7599   7598   7605     1  0.0000000  1.2552000  3
   7601   7599   7611   7623     1  0.0000000  0.6508444  3
   7601   7599   7611   7612     1  0.0000000  0.6508444  3
   7601   7599   7611   7613     1  0.0000000  0.6508444  3
   7602   7598   7605   7606     1  0.0000000  1.2552000  3
   7602   7598   7605   7607     1  0.0000000  1.2552000  3
   7602   7614   7620   7621     1  0.0000000  0.6508444  3
   7602   7614   7620   7622     1  0.0000000  0.6508444  3
   7603   7602   7598   7605     1  0.0000000  1.2552000  3
   7603   7602   7614   7620     1  0.0000000  0.6508444  3
   7603   7602   7614   7615     1  0.0000000  0.6508444  3
   7603   7602   7614   7616     1  0.0000000  0.6508444  3
   7604   7602   7598   7605     1  0.0000000  1.2552000  3
   7604   7602   7614   7620     1  0.0000000  0.6508444  3
   7604   7602   7614   7615     1  0.0000000  0.6508444  3
   7604   7602   7614   7616     1  0.0000000  0.6508444  3
   7605   7608   7617   7618     1  0.0000000  0.6508444  3
   7605   7608   7617   7619     1  0.0000000  0.6508444  3
   7606   7605   7608   7617     1  0.0000000  0.6508444  3
   7606   7605   7608   7609     1  0.0000000  0.6508444  3
   7606   7605   7608   7610     1  0.0000000  0.6508444  3
   7607   7605   7608   7617     1  0.0000000  0.6508444  3
   7607   7605   7608   7609     1  0.0000000  0.6508444  3
   7607   7605   7608   7610     1  0.0000000  0.6508444  3
   7609   7608   7617   7626     1  0.0000000  1.0460000  1
   7609   7608   7617   7626     1  0.0000000  0.0000000  3
   7609   7608   7617   7618     1  0.0000000  0.6508444  3
   7609   7608   7617   7619     1  0.0000000  0.6508444  3
   7610   7608   7617   7626     1  0.0000000  1.0460000  1
   7610   7608   7617   7626     1  0.0000000  0.0000000  3
   7610   7608   7617   7618     1  0.0000000  0.6508444  3
   7610   7608   7617   7619     1  0.0000000  0.6508444  3
   7612   7611   7623  14423     1  0.0000000  1.0460000  1
   7612   7611   7623  14423     1  0.0000000  0.0000000  3
   7612   7611   7623   7624     1  0.0000000  0.6508444  3
   7612   7611   7623   7625     1  0.0000000  0.6508444  3
   7613   7611   7623  14423     1  0.0000000  1.0460000  1
   7613   7611   7623  14423     1  0.0000000  0.0000000  3
   7613   7611   7623   7624     1  0.0000000  0.6508444  3
   7613   7611   7623   7625     1  0.0000000  0.6508444  3
   7615   7614   7620  14400     1  0.0000000  1.0460000  1
   7615   7614   7620  14400     1  0.0000000  0.0000000  3
   7615   7614   7620   7621     1  0.0000000  0.6508444  3
   7615   7614   7620   7622     1  0.0000000  0.6508444  3
   7616   7614   7620  14400     1  0.0000000  1.0460000  1
   7616   7614   7620  14400     1  0.0000000  0.0000000  3
   7616   7614   7620   7621     1  0.0000000  0.6508444  3
   7616   7614   7620   7622     1  0.0000000  0.6508444  3
   7620  14400  14396  14399     1  0.0000000  1.6038667  3
   7621   7620  14400  14396     1  0.0000000  1.6038667  3
   7622   7620  14400  14396     1  0.0000000  1.6038667  3
   7623  14423  14419  14422     1  0.0000000  1.6038667  3
   7624   7623  14423  14419     1  0.0000000  1.6038667  3
   7625   7623  14423  14419     1  0.0000000  1.6038667  3
   7627   7628   7640   7641     1  0.0000000  0.6508444  3
   7627   7628   7640   7642     1  0.0000000  0.6508444  3
   7627   7631   7643   7644     1  0.0000000  0.6508444  3
   7627   7631   7643   7645     1  0.0000000  0.6508444  3
   7627   7634   7637   7638     1  0.0000000  0.6508444  3
   7627   7634   7637   7639     1  0.0000000  0.6508444  3
   7628   7627   7631   7632     1  0.0000000  1.2552000  3
   7628   7627   7631   7633     1  0.0000000  1.2552000  3
   7628   7627   7634   7635     1  0.0000000  1.2552000  3
   7628   7627   7634   7636     1  0.0000000  1.2552000  3
   7628   7640   7652   7653     1  0.0000000  0.6508444  3
   7628   7640   7652   7654     1  0.0000000  0.6508444  3
   7629   7628   7627   7631     1  0.0000000  1.2552000  3
   7629   7628   7627   7634     1  0.0000000  1.2552000  3
   7629   7628   7640   7652     1  0.0000000  0.6508444  3
   7629   7628   7640   7641     1  0.0000000  0.6508444  3
   7629   7628   7640   7642     1  0.0000000  0.6508444  3
   7630   7628   7627   7631     1  0.0000000  1.2552000  3
   7630   7628   7627   7634     1  0.0000000  1.2552000  3
   7630   7628   7640   7652     1  0.0000000  0.6508444  3
   7630   7628   7640   7641     1  0.0000000  0.6508444  3
   7630   7628   7640   7642     1  0.0000000  0.6508444  3
   7631   7627   7634   7635     1  0.0000000  1.2552000  3
   7631   7627   7634   7636     1  0.0000000  1.2552000  3
   7631   7643   7649   7650     1  0.0000000  0.6508444  3
   7631   7643   7649   7651     1  0.0000000  0.6508444  3
   7632   7631   7627   7634     1  0.0000000  1.2552000  3
   7632   7631   7643   7649     1  0.0000000  0.6508444  3
   7632   7631   7643   7644     1  0.0000000  0.6508444  3
   7632   7631   7643   7645     1  0.0000000  0.6508444  3
   7633   7631   7627   7634     1  0.0000000  1.2552000  3
   7633   7631   7643   7649     1  0.0000000  0.6508444  3
   7633   7631   7643   7644     1  0.0000000  0.6508444  3
   7633   7631   7643   7645     1  0.0000000  0.6508444  3
   7634   7637   7646   7647     1  0.0000000  0.6508444  3
   7634   7637   7646   7648     1  0.0000000  0.6508444  3
   7635   7634   7637   7646     1  0.0000000  0.6508444  3
   7635   7634   7637   7638     1  0.0000000  0.6508444  3
   7635   7634   7637   7639     1  0.0000000  0.6508444  3
   7636   7634   7637   7646     1  0.0000000  0.6508444  3
   7636   7634   7637   7638     1  0.0000000  0.6508444  3
   7636   7634   7637   7639     1  0.0000000  0.6508444  3
   7638   7637   7646   7655     1  0.0000000  1.0460000  1
   7638   7637   7646   7655     1  0.0000000  0.0000000  3
   7638   7637   7646   7647     1  0.0000000  0.6508444  3
   7638   7637   7646   7648     1  0.0000000  0.6508444  3
   7639   7637   7646   7655     1  0.0000000  1.0460000  1
   7639   7637   7646   7655     1  0.0000000  0.0000000  3
   7639   7637   7646   7647     1  0.0000000  0.6508444  3
   7639   7637   7646   7648     1  0.0000000  0.6508444  3
   7641   7640   7652  14469     1  0.0000000  1.0460000  1
   7641   7640   7652  14469     1  0.0000000  0.0000000  3
   7641   7640   7652   7653     1  0.0000000  0.6508444  3
   7641   7640   7652   7654     1  0.0000000  0.6508444  3
   7642   7640   7652  14469     1  0.0000000  1.0460000  1
   7642   7640   7652  14469     1  0.0000000  0.0000000  3
   7642   7640   7652   7653     1  0.0000000  0.6508444  3
   7642   7640   7652   7654     1  0.0000000  0.6508444  3
   7644   7643   7649  14446     1  0.0000000  1.0460000  1
   7644   7643   7649  14446     1  0.0000000  0.0000000  3
   7644   7643   7649   7650     1  0.0000000  0.6508444  3
   7644   7643   7649   7651     1  0.0000000  0.6508444  3
   7645   7643   7649  14446     1  0.0000000  1.0460000  1
   7645   7643   7649  14446     1  0.0000000  0.0000000  3
   7645   7643   7649   7650     1  0.0000000  0.6508444  3
   7645   7643   7649   7651     1  0.0000000  0.6508444  3
   7649  14446  14442  14445     1  0.0000000  1.6038667  3
   7650   7649  14446  14442     1  0.0000000  1.6038667  3
   7651   7649  14446  14442     1  0.0000000  1.6038667  3
   7652  14469  14465  14468     1  0.0000000  1.6038667  3
   7653   7652  14469  14465     1  0.0000000  1.6038667  3
   7654   7652  14469  14465     1  0.0000000  1.6038667  3
   7656   7657   7669   7670     1  0.0000000  0.6508444  3
   7656   7657   7669   7671     1  0.0000000  0.6508444  3
   7656   7660   7672   7673     1  0.0000000  0.6508444  3
   7656   7660   7672   7674     1  0.0000000  0.6508444  3
   7656   7663   7666   7667     1  0.0000000  0.6508444  3
   7656   7663   7666   7668     1  0.0000000  0.6508444  3
   7657   7656   7660   7661     1  0.0000000  1.2552000  3
   7657   7656   7660   7662     1  0.0000000  1.2552000  3
   7657   7656   7663   7664     1  0.0000000  1.2552000  3
   7657   7656   7663   7665     1  0.0000000  1.2552000  3
   7657   7669   7681   7682     1  0.0000000  0.6508444  3
   7657   7669   7681   7683     1  0.0000000  0.6508444  3
   7658   7657   7656   7660     1  0.0000000  1.2552000  3
   7658   7657   7656   7663     1  0.0000000  1.2552000  3
   7658   7657   7669   7681     1  0.0000000  0.6508444  3
   7658   7657   7669   7670     1  0.0000000  0.6508444  3
   7658   7657   7669   7671     1  0.0000000  0.6508444  3
   7659   7657   7656   7660     1  0.0000000  1.2552000  3
   7659   7657   7656   7663     1  0.0000000  1.2552000  3
   7659   7657   7669   7681     1  0.0000000  0.6508444  3
   7659   7657   7669   7670     1  0.0000000  0.6508444  3
   7659   7657   7669   7671     1  0.0000000  0.6508444  3
   7660   7656   7663   7664     1  0.0000000  1.2552000  3
   7660   7656   7663   7665     1  0.0000000  1.2552000  3
   7660   7672   7678   7679     1  0.0000000  0.6508444  3
   7660   7672   7678   7680     1  0.0000000  0.6508444  3
   7661   7660   7656   7663     1  0.0000000  1.2552000  3
   7661   7660   7672   7678     1  0.0000000  0.6508444  3
   7661   7660   7672   7673     1  0.0000000  0.6508444  3
   7661   7660   7672   7674     1  0.0000000  0.6508444  3
   7662   7660   7656   7663     1  0.0000000  1.2552000  3
   7662   7660   7672   7678     1  0.0000000  0.6508444  3
   7662   7660   7672   7673     1  0.0000000  0.6508444  3
   7662   7660   7672   7674     1  0.0000000  0.6508444  3
   7663   7666   7675   7676     1  0.0000000  0.6508444  3
   7663   7666   7675   7677     1  0.0000000  0.6508444  3
   7664   7663   7666   7675     1  0.0000000  0.6508444  3
   7664   7663   7666   7667     1  0.0000000  0.6508444  3
   7664   7663   7666   7668     1  0.0000000  0.6508444  3
   7665   7663   7666   7675     1  0.0000000  0.6508444  3
   7665   7663   7666   7667     1  0.0000000  0.6508444  3
   7665   7663   7666   7668     1  0.0000000  0.6508444  3
   7667   7666   7675   7684     1  0.0000000  1.0460000  1
   7667   7666   7675   7684     1  0.0000000  0.0000000  3
   7667   7666   7675   7676     1  0.0000000  0.6508444  3
   7667   7666   7675   7677     1  0.0000000  0.6508444  3
   7668   7666   7675   7684     1  0.0000000  1.0460000  1
   7668   7666   7675   7684     1  0.0000000  0.0000000  3
   7668   7666   7675   7676     1  0.0000000  0.6508444  3
   7668   7666   7675   7677     1  0.0000000  0.6508444  3
   7670   7669   7681  14515     1  0.0000000  1.0460000  1
   7670   7669   7681  14515     1  0.0000000  0.0000000  3
   7670   7669   7681   7682     1  0.0000000  0.6508444  3
   7670   7669   7681   7683     1  0.0000000  0.6508444  3
   7671   7669   7681  14515     1  0.0000000  1.0460000  1
   7671   7669   7681  14515     1  0.0000000  0.0000000  3
   7671   7669   7681   7682     1  0.0000000  0.6508444  3
   7671   7669   7681   7683     1  0.0000000  0.6508444  3
   7673   7672   7678  14492     1  0.0000000  1.0460000  1
   7673   7672   7678  14492     1  0.0000000  0.0000000  3
   7673   7672   7678   7679     1  0.0000000  0.6508444  3
   7673   7672   7678   7680     1  0.0000000  0.6508444  3
   7674   7672   7678  14492     1  0.0000000  1.0460000  1
   7674   7672   7678  14492     1  0.0000000  0.0000000  3
   7674   7672   7678   7679     1  0.0000000  0.6508444  3
   7674   7672   7678   7680     1  0.0000000  0.6508444  3
   7678  14492  14488  14491     1  0.0000000  1.6038667  3
   7679   7678  14492  14488     1  0.0000000  1.6038667  3
   7680   7678  14492  14488     1  0.0000000  1.6038667  3
   7681  14515  14511  14514     1  0.0000000  1.6038667  3
   7682   7681  14515  14511     1  0.0000000  1.6038667  3
   7683   7681  14515  14511     1  0.0000000  1.6038667  3
   7685   7686   7698   7699     1  0.0000000  0.6508444  3
   7685   7686   7698   7700     1  0.0000000  0.6508444  3
   7685   7689   7701   7702     1  0.0000000  0.6508444  3
   7685   7689   7701   7703     1  0.0000000  0.6508444  3
   7685   7692   7695   7696     1  0.0000000  0.6508444  3
   7685   7692   7695   7697     1  0.0000000  0.6508444  3
   7686   7685   7689   7690     1  0.0000000  1.2552000  3
   7686   7685   7689   7691     1  0.0000000  1.2552000  3
   7686   7685   7692   7693     1  0.0000000  1.2552000  3
   7686   7685   7692   7694     1  0.0000000  1.2552000  3
   7686   7698   7710   7711     1  0.0000000  0.6508444  3
   7686   7698   7710   7712     1  0.0000000  0.6508444  3
   7687   7686   7685   7689     1  0.0000000  1.2552000  3
   7687   7686   7685   7692     1  0.0000000  1.2552000  3
   7687   7686   7698   7710     1  0.0000000  0.6508444  3
   7687   7686   7698   7699     1  0.0000000  0.6508444  3
   7687   7686   7698   7700     1  0.0000000  0.6508444  3
   7688   7686   7685   7689     1  0.0000000  1.2552000  3
   7688   7686   7685   7692     1  0.0000000  1.2552000  3
   7688   7686   7698   7710     1  0.0000000  0.6508444  3
   7688   7686   7698   7699     1  0.0000000  0.6508444  3
   7688   7686   7698   7700     1  0.0000000  0.6508444  3
   7689   7685   7692   7693     1  0.0000000  1.2552000  3
   7689   7685   7692   7694     1  0.0000000  1.2552000  3
   7689   7701   7707   7708     1  0.0000000  0.6508444  3
   7689   7701   7707   7709     1  0.0000000  0.6508444  3
   7690   7689   7685   7692     1  0.0000000  1.2552000  3
   7690   7689   7701   7707     1  0.0000000  0.6508444  3
   7690   7689   7701   7702     1  0.0000000  0.6508444  3
   7690   7689   7701   7703     1  0.0000000  0.6508444  3
   7691   7689   7685   7692     1  0.0000000  1.2552000  3
   7691   7689   7701   7707     1  0.0000000  0.6508444  3
   7691   7689   7701   7702     1  0.0000000  0.6508444  3
   7691   7689   7701   7703     1  0.0000000  0.6508444  3
   7692   7695   7704   7705     1  0.0000000  0.6508444  3
   7692   7695   7704   7706     1  0.0000000  0.6508444  3
   7693   7692   7695   7704     1  0.0000000  0.6508444  3
   7693   7692   7695   7696     1  0.0000000  0.6508444  3
   7693   7692   7695   7697     1  0.0000000  0.6508444  3
   7694   7692   7695   7704     1  0.0000000  0.6508444  3
   7694   7692   7695   7696     1  0.0000000  0.6508444  3
   7694   7692   7695   7697     1  0.0000000  0.6508444  3
   7696   7695   7704   7713     1  0.0000000  1.0460000  1
   7696   7695   7704   7713     1  0.0000000  0.0000000  3
   7696   7695   7704   7705     1  0.0000000  0.6508444  3
   7696   7695   7704   7706     1  0.0000000  0.6508444  3
   7697   7695   7704   7713     1  0.0000000  1.0460000  1
   7697   7695   7704   7713     1  0.0000000  0.0000000  3
   7697   7695   7704   7705     1  0.0000000  0.6508444  3
   7697   7695   7704   7706     1  0.0000000  0.6508444  3
   7699   7698   7710  14561     1  0.0000000  1.0460000  1
   7699   7698   7710  14561     1  0.0000000  0.0000000  3
   7699   7698   7710   7711     1  0.0000000  0.6508444  3
   7699   7698   7710   7712     1  0.0000000  0.6508444  3
   7700   7698   7710  14561     1  0.0000000  1.0460000  1
   7700   7698   7710  14561     1  0.0000000  0.0000000  3
   7700   7698   7710   7711     1  0.0000000  0.6508444  3
   7700   7698   7710   7712     1  0.0000000  0.6508444  3
   7702   7701   7707  14538     1  0.0000000  1.0460000  1
   7702   7701   7707  14538     1  0.0000000  0.0000000  3
   7702   7701   7707   7708     1  0.0000000  0.6508444  3
   7702   7701   7707   7709     1  0.0000000  0.6508444  3
   7703   7701   7707  14538     1  0.0000000  1.0460000  1
   7703   7701   7707  14538     1  0.0000000  0.0000000  3
   7703   7701   7707   7708     1  0.0000000  0.6508444  3
   7703   7701   7707   7709     1  0.0000000  0.6508444  3
   7707  14538  14534  14537     1  0.0000000  1.6038667  3
   7708   7707  14538  14534     1  0.0000000  1.6038667  3
   7709   7707  14538  14534     1  0.0000000  1.6038667  3
   7710  14561  14557  14560     1  0.0000000  1.6038667  3
   7711   7710  14561  14557     1  0.0000000  1.6038667  3
   7712   7710  14561  14557     1  0.0000000  1.6038667  3
   7714   7715   7727   7728     1  0.0000000  0.6508444  3
   7714   7715   7727   7729     1  0.0000000  0.6508444  3
   7714   7718   7730   7731     1  0.0000000  0.6508444  3
   7714   7718   7730   7732     1  0.0000000  0.6508444  3
   7714   7721   7724   7725     1  0.0000000  0.6508444  3
   7714   7721   7724   7726     1  0.0000000  0.6508444  3
   7715   7714   7718   7719     1  0.0000000  1.2552000  3
   7715   7714   7718   7720     1  0.0000000  1.2552000  3
   7715   7714   7721   7722     1  0.0000000  1.2552000  3
   7715   7714   7721   7723     1  0.0000000  1.2552000  3
   7715   7727   7739   7740     1  0.0000000  0.6508444  3
   7715   7727   7739   7741     1  0.0000000  0.6508444  3
   7716   7715   7714   7718     1  0.0000000  1.2552000  3
   7716   7715   7714   7721     1  0.0000000  1.2552000  3
   7716   7715   7727   7739     1  0.0000000  0.6508444  3
   7716   7715   7727   7728     1  0.0000000  0.6508444  3
   7716   7715   7727   7729     1  0.0000000  0.6508444  3
   7717   7715   7714   7718     1  0.0000000  1.2552000  3
   7717   7715   7714   7721     1  0.0000000  1.2552000  3
   7717   7715   7727   7739     1  0.0000000  0.6508444  3
   7717   7715   7727   7728     1  0.0000000  0.6508444  3
   7717   7715   7727   7729     1  0.0000000  0.6508444  3
   7718   7714   7721   7722     1  0.0000000  1.2552000  3
   7718   7714   7721   7723     1  0.0000000  1.2552000  3
   7718   7730   7736   7737     1  0.0000000  0.6508444  3
   7718   7730   7736   7738     1  0.0000000  0.6508444  3
   7719   7718   7714   7721     1  0.0000000  1.2552000  3
   7719   7718   7730   7736     1  0.0000000  0.6508444  3
   7719   7718   7730   7731     1  0.0000000  0.6508444  3
   7719   7718   7730   7732     1  0.0000000  0.6508444  3
   7720   7718   7714   7721     1  0.0000000  1.2552000  3
   7720   7718   7730   7736     1  0.0000000  0.6508444  3
   7720   7718   7730   7731     1  0.0000000  0.6508444  3
   7720   7718   7730   7732     1  0.0000000  0.6508444  3
   7721   7724   7733   7734     1  0.0000000  0.6508444  3
   7721   7724   7733   7735     1  0.0000000  0.6508444  3
   7722   7721   7724   7733     1  0.0000000  0.6508444  3
   7722   7721   7724   7725     1  0.0000000  0.6508444  3
   7722   7721   7724   7726     1  0.0000000  0.6508444  3
   7723   7721   7724   7733     1  0.0000000  0.6508444  3
   7723   7721   7724   7725     1  0.0000000  0.6508444  3
   7723   7721   7724   7726     1  0.0000000  0.6508444  3
   7725   7724   7733   7742     1  0.0000000  1.0460000  1
   7725   7724   7733   7742     1  0.0000000  0.0000000  3
   7725   7724   7733   7734     1  0.0000000  0.6508444  3
   7725   7724   7733   7735     1  0.0000000  0.6508444  3
   7726   7724   7733   7742     1  0.0000000  1.0460000  1
   7726   7724   7733   7742     1  0.0000000  0.0000000  3
   7726   7724   7733   7734     1  0.0000000  0.6508444  3
   7726   7724   7733   7735     1  0.0000000  0.6508444  3
   7728   7727   7739  14607     1  0.0000000  1.0460000  1
   7728   7727   7739  14607     1  0.0000000  0.0000000  3
   7728   7727   7739   7740     1  0.0000000  0.6508444  3
   7728   7727   7739   7741     1  0.0000000  0.6508444  3
   7729   7727   7739  14607     1  0.0000000  1.0460000  1
   7729   7727   7739  14607     1  0.0000000  0.0000000  3
   7729   7727   7739   7740     1  0.0000000  0.6508444  3
   7729   7727   7739   7741     1  0.0000000  0.6508444  3
   7731   7730   7736  14584     1  0.0000000  1.0460000  1
   7731   7730   7736  14584     1  0.0000000  0.0000000  3
   7731   7730   7736   7737     1  0.0000000  0.6508444  3
   7731   7730   7736   7738     1  0.0000000  0.6508444  3
   7732   7730   7736  14584     1  0.0000000  1.0460000  1
   7732   7730   7736  14584     1  0.0000000  0.0000000  3
   7732   7730   7736   7737     1  0.0000000  0.6508444  3
   7732   7730   7736   7738     1  0.0000000  0.6508444  3
   7736  14584  14580  14583     1  0.0000000  1.6038667  3
   7737   7736  14584  14580     1  0.0000000  1.6038667  3
   7738   7736  14584  14580     1  0.0000000  1.6038667  3
   7739  14607  14603  14606     1  0.0000000  1.6038667  3
   7740   7739  14607  14603     1  0.0000000  1.6038667  3
   7741   7739  14607  14603     1  0.0000000  1.6038667  3
   7743   7744   7756   7757     1  0.0000000  0.6508444  3
   7743   7744   7756   7758     1  0.0000000  0.6508444  3
   7743   7747   7759   7760     1  0.0000000  0.6508444  3
   7743   7747   7759   7761     1  0.0000000  0.6508444  3
   7743   7750   7753   7754     1  0.0000000  0.6508444  3
   7743   7750   7753   7755     1  0.0000000  0.6508444  3
   7744   7743   7747   7748     1  0.0000000  1.2552000  3
   7744   7743   7747   7749     1  0.0000000  1.2552000  3
   7744   7743   7750   7751     1  0.0000000  1.2552000  3
   7744   7743   7750   7752     1  0.0000000  1.2552000  3
   7744   7756   7768   7769     1  0.0000000  0.6508444  3
   7744   7756   7768   7770     1  0.0000000  0.6508444  3
   7745   7744   7743   7747     1  0.0000000  1.2552000  3
   7745   7744   7743   7750     1  0.0000000  1.2552000  3
   7745   7744   7756   7768     1  0.0000000  0.6508444  3
   7745   7744   7756   7757     1  0.0000000  0.6508444  3
   7745   7744   7756   7758     1  0.0000000  0.6508444  3
   7746   7744   7743   7747     1  0.0000000  1.2552000  3
   7746   7744   7743   7750     1  0.0000000  1.2552000  3
   7746   7744   7756   7768     1  0.0000000  0.6508444  3
   7746   7744   7756   7757     1  0.0000000  0.6508444  3
   7746   7744   7756   7758     1  0.0000000  0.6508444  3
   7747   7743   7750   7751     1  0.0000000  1.2552000  3
   7747   7743   7750   7752     1  0.0000000  1.2552000  3
   7747   7759   7765   7766     1  0.0000000  0.6508444  3
   7747   7759   7765   7767     1  0.0000000  0.6508444  3
   7748   7747   7743   7750     1  0.0000000  1.2552000  3
   7748   7747   7759   7765     1  0.0000000  0.6508444  3
   7748   7747   7759   7760     1  0.0000000  0.6508444  3
   7748   7747   7759   7761     1  0.0000000  0.6508444  3
   7749   7747   7743   7750     1  0.0000000  1.2552000  3
   7749   7747   7759   7765     1  0.0000000  0.6508444  3
   7749   7747   7759   7760     1  0.0000000  0.6508444  3
   7749   7747   7759   7761     1  0.0000000  0.6508444  3
   7750   7753   7762   7763     1  0.0000000  0.6508444  3
   7750   7753   7762   7764     1  0.0000000  0.6508444  3
   7751   7750   7753   7762     1  0.0000000  0.6508444  3
   7751   7750   7753   7754     1  0.0000000  0.6508444  3
   7751   7750   7753   7755     1  0.0000000  0.6508444  3
   7752   7750   7753   7762     1  0.0000000  0.6508444  3
   7752   7750   7753   7754     1  0.0000000  0.6508444  3
   7752   7750   7753   7755     1  0.0000000  0.6508444  3
   7754   7753   7762   7771     1  0.0000000  1.0460000  1
   7754   7753   7762   7771     1  0.0000000  0.0000000  3
   7754   7753   7762   7763     1  0.0000000  0.6508444  3
   7754   7753   7762   7764     1  0.0000000  0.6508444  3
   7755   7753   7762   7771     1  0.0000000  1.0460000  1
   7755   7753   7762   7771     1  0.0000000  0.0000000  3
   7755   7753   7762   7763     1  0.0000000  0.6508444  3
   7755   7753   7762   7764     1  0.0000000  0.6508444  3
   7757   7756   7768  14653     1  0.0000000  1.0460000  1
   7757   7756   7768  14653     1  0.0000000  0.0000000  3
   7757   7756   7768   7769     1  0.0000000  0.6508444  3
   7757   7756   7768   7770     1  0.0000000  0.6508444  3
   7758   7756   7768  14653     1  0.0000000  1.0460000  1
   7758   7756   7768  14653     1  0.0000000  0.0000000  3
   7758   7756   7768   7769     1  0.0000000  0.6508444  3
   7758   7756   7768   7770     1  0.0000000  0.6508444  3
   7760   7759   7765  14630     1  0.0000000  1.0460000  1
   7760   7759   7765  14630     1  0.0000000  0.0000000  3
   7760   7759   7765   7766     1  0.0000000  0.6508444  3
   7760   7759   7765   7767     1  0.0000000  0.6508444  3
   7761   7759   7765  14630     1  0.0000000  1.0460000  1
   7761   7759   7765  14630     1  0.0000000  0.0000000  3
   7761   7759   7765   7766     1  0.0000000  0.6508444  3
   7761   7759   7765   7767     1  0.0000000  0.6508444  3
   7765  14630  14626  14629     1  0.0000000  1.6038667  3
   7766   7765  14630  14626     1  0.0000000  1.6038667  3
   7767   7765  14630  14626     1  0.0000000  1.6038667  3
   7768  14653  14649  14652     1  0.0000000  1.6038667  3
   7769   7768  14653  14649     1  0.0000000  1.6038667  3
   7770   7768  14653  14649     1  0.0000000  1.6038667  3
   7772   7773   7785   7786     1  0.0000000  0.6508444  3
   7772   7773   7785   7787     1  0.0000000  0.6508444  3
   7772   7776   7788   7789     1  0.0000000  0.6508444  3
   7772   7776   7788   7790     1  0.0000000  0.6508444  3
   7772   7779   7782   7783     1  0.0000000  0.6508444  3
   7772   7779   7782   7784     1  0.0000000  0.6508444  3
   7773   7772   7776   7777     1  0.0000000  1.2552000  3
   7773   7772   7776   7778     1  0.0000000  1.2552000  3
   7773   7772   7779   7780     1  0.0000000  1.2552000  3
   7773   7772   7779   7781     1  0.0000000  1.2552000  3
   7773   7785   7797   7798     1  0.0000000  0.6508444  3
   7773   7785   7797   7799     1  0.0000000  0.6508444  3
   7774   7773   7772   7776     1  0.0000000  1.2552000  3
   7774   7773   7772   7779     1  0.0000000  1.2552000  3
   7774   7773   7785   7797     1  0.0000000  0.6508444  3
   7774   7773   7785   7786     1  0.0000000  0.6508444  3
   7774   7773   7785   7787     1  0.0000000  0.6508444  3
   7775   7773   7772   7776     1  0.0000000  1.2552000  3
   7775   7773   7772   7779     1  0.0000000  1.2552000  3
   7775   7773   7785   7797     1  0.0000000  0.6508444  3
   7775   7773   7785   7786     1  0.0000000  0.6508444  3
   7775   7773   7785   7787     1  0.0000000  0.6508444  3
   7776   7772   7779   7780     1  0.0000000  1.2552000  3
   7776   7772   7779   7781     1  0.0000000  1.2552000  3
   7776   7788   7794   7795     1  0.0000000  0.6508444  3
   7776   7788   7794   7796     1  0.0000000  0.6508444  3
   7777   7776   7772   7779     1  0.0000000  1.2552000  3
   7777   7776   7788   7794     1  0.0000000  0.6508444  3
   7777   7776   7788   7789     1  0.0000000  0.6508444  3
   7777   7776   7788   7790     1  0.0000000  0.6508444  3
   7778   7776   7772   7779     1  0.0000000  1.2552000  3
   7778   7776   7788   7794     1  0.0000000  0.6508444  3
   7778   7776   7788   7789     1  0.0000000  0.6508444  3
   7778   7776   7788   7790     1  0.0000000  0.6508444  3
   7779   7782   7791   7792     1  0.0000000  0.6508444  3
   7779   7782   7791   7793     1  0.0000000  0.6508444  3
   7780   7779   7782   7791     1  0.0000000  0.6508444  3
   7780   7779   7782   7783     1  0.0000000  0.6508444  3
   7780   7779   7782   7784     1  0.0000000  0.6508444  3
   7781   7779   7782   7791     1  0.0000000  0.6508444  3
   7781   7779   7782   7783     1  0.0000000  0.6508444  3
   7781   7779   7782   7784     1  0.0000000  0.6508444  3
   7783   7782   7791   7800     1  0.0000000  1.0460000  1
   7783   7782   7791   7800     1  0.0000000  0.0000000  3
   7783   7782   7791   7792     1  0.0000000  0.6508444  3
   7783   7782   7791   7793     1  0.0000000  0.6508444  3
   7784   7782   7791   7800     1  0.0000000  1.0460000  1
   7784   7782   7791   7800     1  0.0000000  0.0000000  3
   7784   7782   7791   7792     1  0.0000000  0.6508444  3
   7784   7782   7791   7793     1  0.0000000  0.6508444  3
   7786   7785   7797  14699     1  0.0000000  1.0460000  1
   7786   7785   7797  14699     1  0.0000000  0.0000000  3
   7786   7785   7797   7798     1  0.0000000  0.6508444  3
   7786   7785   7797   7799     1  0.0000000  0.6508444  3
   7787   7785   7797  14699     1  0.0000000  1.0460000  1
   7787   7785   7797  14699     1  0.0000000  0.0000000  3
   7787   7785   7797   7798     1  0.0000000  0.6508444  3
   7787   7785   7797   7799     1  0.0000000  0.6508444  3
   7789   7788   7794  14676     1  0.0000000  1.0460000  1
   7789   7788   7794  14676     1  0.0000000  0.0000000  3
   7789   7788   7794   7795     1  0.0000000  0.6508444  3
   7789   7788   7794   7796     1  0.0000000  0.6508444  3
   7790   7788   7794  14676     1  0.0000000  1.0460000  1
   7790   7788   7794  14676     1  0.0000000  0.0000000  3
   7790   7788   7794   7795     1  0.0000000  0.6508444  3
   7790   7788   7794   7796     1  0.0000000  0.6508444  3
   7794  14676  14672  14675     1  0.0000000  1.6038667  3
   7795   7794  14676  14672     1  0.0000000  1.6038667  3
   7796   7794  14676  14672     1  0.0000000  1.6038667  3
   7797  14699  14695  14698     1  0.0000000  1.6038667  3
   7798   7797  14699  14695     1  0.0000000  1.6038667  3
   7799   7797  14699  14695     1  0.0000000  1.6038667  3
   7801   7802   7814   7815     1  0.0000000  0.6508444  3
   7801   7802   7814   7816     1  0.0000000  0.6508444  3
   7801   7805   7817   7818     1  0.0000000  0.6508444  3
   7801   7805   7817   7819     1  0.0000000  0.6508444  3
   7801   7808   7811   7812     1  0.0000000  0.6508444  3
   7801   7808   7811   7813     1  0.0000000  0.6508444  3
   7802   7801   7805   7806     1  0.0000000  1.2552000  3
   7802   7801   7805   7807     1  0.0000000  1.2552000  3
   7802   7801   7808   7809     1  0.0000000  1.2552000  3
   7802   7801   7808   7810     1  0.0000000  1.2552000  3
   7802   7814   7826   7827     1  0.0000000  0.6508444  3
   7802   7814   7826   7828     1  0.0000000  0.6508444  3
   7803   7802   7801   7805     1  0.0000000  1.2552000  3
   7803   7802   7801   7808     1  0.0000000  1.2552000  3
   7803   7802   7814   7826     1  0.0000000  0.6508444  3
   7803   7802   7814   7815     1  0.0000000  0.6508444  3
   7803   7802   7814   7816     1  0.0000000  0.6508444  3
   7804   7802   7801   7805     1  0.0000000  1.2552000  3
   7804   7802   7801   7808     1  0.0000000  1.2552000  3
   7804   7802   7814   7826     1  0.0000000  0.6508444  3
   7804   7802   7814   7815     1  0.0000000  0.6508444  3
   7804   7802   7814   7816     1  0.0000000  0.6508444  3
   7805   7801   7808   7809     1  0.0000000  1.2552000  3
   7805   7801   7808   7810     1  0.0000000  1.2552000  3
   7805   7817   7823   7824     1  0.0000000  0.6508444  3
   7805   7817   7823   7825     1  0.0000000  0.6508444  3
   7806   7805   7801   7808     1  0.0000000  1.2552000  3
   7806   7805   7817   7823     1  0.0000000  0.6508444  3
   7806   7805   7817   7818     1  0.0000000  0.6508444  3
   7806   7805   7817   7819     1  0.0000000  0.6508444  3
   7807   7805   7801   7808     1  0.0000000  1.2552000  3
   7807   7805   7817   7823     1  0.0000000  0.6508444  3
   7807   7805   7817   7818     1  0.0000000  0.6508444  3
   7807   7805   7817   7819     1  0.0000000  0.6508444  3
   7808   7811   7820   7821     1  0.0000000  0.6508444  3
   7808   7811   7820   7822     1  0.0000000  0.6508444  3
   7809   7808   7811   7820     1  0.0000000  0.6508444  3
   7809   7808   7811   7812     1  0.0000000  0.6508444  3
   7809   7808   7811   7813     1  0.0000000  0.6508444  3
   7810   7808   7811   7820     1  0.0000000  0.6508444  3
   7810   7808   7811   7812     1  0.0000000  0.6508444  3
   7810   7808   7811   7813     1  0.0000000  0.6508444  3
   7812   7811   7820   7829     1  0.0000000  1.0460000  1
   7812   7811   7820   7829     1  0.0000000  0.0000000  3
   7812   7811   7820   7821     1  0.0000000  0.6508444  3
   7812   7811   7820   7822     1  0.0000000  0.6508444  3
   7813   7811   7820   7829     1  0.0000000  1.0460000  1
   7813   7811   7820   7829     1  0.0000000  0.0000000  3
   7813   7811   7820   7821     1  0.0000000  0.6508444  3
   7813   7811   7820   7822     1  0.0000000  0.6508444  3
   7815   7814   7826  14745     1  0.0000000  1.0460000  1
   7815   7814   7826  14745     1  0.0000000  0.0000000  3
   7815   7814   7826   7827     1  0.0000000  0.6508444  3
   7815   7814   7826   7828     1  0.0000000  0.6508444  3
   7816   7814   7826  14745     1  0.0000000  1.0460000  1
   7816   7814   7826  14745     1  0.0000000  0.0000000  3
   7816   7814   7826   7827     1  0.0000000  0.6508444  3
   7816   7814   7826   7828     1  0.0000000  0.6508444  3
   7818   7817   7823  14722     1  0.0000000  1.0460000  1
   7818   7817   7823  14722     1  0.0000000  0.0000000  3
   7818   7817   7823   7824     1  0.0000000  0.6508444  3
   7818   7817   7823   7825     1  0.0000000  0.6508444  3
   7819   7817   7823  14722     1  0.0000000  1.0460000  1
   7819   7817   7823  14722     1  0.0000000  0.0000000  3
   7819   7817   7823   7824     1  0.0000000  0.6508444  3
   7819   7817   7823   7825     1  0.0000000  0.6508444  3
   7823  14722  14718  14721     1  0.0000000  1.6038667  3
   7824   7823  14722  14718     1  0.0000000  1.6038667  3
   7825   7823  14722  14718     1  0.0000000  1.6038667  3
   7826  14745  14741  14744     1  0.0000000  1.6038667  3
   7827   7826  14745  14741     1  0.0000000  1.6038667  3
   7828   7826  14745  14741     1  0.0000000  1.6038667  3
   7830   7831   7843   7844     1  0.0000000  0.6508444  3
   7830   7831   7843   7845     1  0.0000000  0.6508444  3
   7830   7834   7846   7847     1  0.0000000  0.6508444  3
   7830   7834   7846   7848     1  0.0000000  0.6508444  3
   7830   7837   7840   7841     1  0.0000000  0.6508444  3
   7830   7837   7840   7842     1  0.0000000  0.6508444  3
   7831   7830   7834   7835     1  0.0000000  1.2552000  3
   7831   7830   7834   7836     1  0.0000000  1.2552000  3
   7831   7830   7837   7838     1  0.0000000  1.2552000  3
   7831   7830   7837   7839     1  0.0000000  1.2552000  3
   7831   7843   7855   7856     1  0.0000000  0.6508444  3
   7831   7843   7855   7857     1  0.0000000  0.6508444  3
   7832   7831   7830   7834     1  0.0000000  1.2552000  3
   7832   7831   7830   7837     1  0.0000000  1.2552000  3
   7832   7831   7843   7855     1  0.0000000  0.6508444  3
   7832   7831   7843   7844     1  0.0000000  0.6508444  3
   7832   7831   7843   7845     1  0.0000000  0.6508444  3
   7833   7831   7830   7834     1  0.0000000  1.2552000  3
   7833   7831   7830   7837     1  0.0000000  1.2552000  3
   7833   7831   7843   7855     1  0.0000000  0.6508444  3
   7833   7831   7843   7844     1  0.0000000  0.6508444  3
   7833   7831   7843   7845     1  0.0000000  0.6508444  3
   7834   7830   7837   7838     1  0.0000000  1.2552000  3
   7834   7830   7837   7839     1  0.0000000  1.2552000  3
   7834   7846   7852   7853     1  0.0000000  0.6508444  3
   7834   7846   7852   7854     1  0.0000000  0.6508444  3
   7835   7834   7830   7837     1  0.0000000  1.2552000  3
   7835   7834   7846   7852     1  0.0000000  0.6508444  3
   7835   7834   7846   7847     1  0.0000000  0.6508444  3
   7835   7834   7846   7848     1  0.0000000  0.6508444  3
   7836   7834   7830   7837     1  0.0000000  1.2552000  3
   7836   7834   7846   7852     1  0.0000000  0.6508444  3
   7836   7834   7846   7847     1  0.0000000  0.6508444  3
   7836   7834   7846   7848     1  0.0000000  0.6508444  3
   7837   7840   7849   7850     1  0.0000000  0.6508444  3
   7837   7840   7849   7851     1  0.0000000  0.6508444  3
   7838   7837   7840   7849     1  0.0000000  0.6508444  3
   7838   7837   7840   7841     1  0.0000000  0.6508444  3
   7838   7837   7840   7842     1  0.0000000  0.6508444  3
   7839   7837   7840   7849     1  0.0000000  0.6508444  3
   7839   7837   7840   7841     1  0.0000000  0.6508444  3
   7839   7837   7840   7842     1  0.0000000  0.6508444  3
   7841   7840   7849   7858     1  0.0000000  1.0460000  1
   7841   7840   7849   7858     1  0.0000000  0.0000000  3
   7841   7840   7849   7850     1  0.0000000  0.6508444  3
   7841   7840   7849   7851     1  0.0000000  0.6508444  3
   7842   7840   7849   7858     1  0.0000000  1.0460000  1
   7842   7840   7849   7858     1  0.0000000  0.0000000  3
   7842   7840   7849   7850     1  0.0000000  0.6508444  3
   7842   7840   7849   7851     1  0.0000000  0.6508444  3
   7844   7843   7855  14791     1  0.0000000  1.0460000  1
   7844   7843   7855  14791     1  0.0000000  0.0000000  3
   7844   7843   7855   7856     1  0.0000000  0.6508444  3
   7844   7843   7855   7857     1  0.0000000  0.6508444  3
   7845   7843   7855  14791     1  0.0000000  1.0460000  1
   7845   7843   7855  14791     1  0.0000000  0.0000000  3
   7845   7843   7855   7856     1  0.0000000  0.6508444  3
   7845   7843   7855   7857     1  0.0000000  0.6508444  3
   7847   7846   7852  14768     1  0.0000000  1.0460000  1
   7847   7846   7852  14768     1  0.0000000  0.0000000  3
   7847   7846   7852   7853     1  0.0000000  0.6508444  3
   7847   7846   7852   7854     1  0.0000000  0.6508444  3
   7848   7846   7852  14768     1  0.0000000  1.0460000  1
   7848   7846   7852  14768     1  0.0000000  0.0000000  3
   7848   7846   7852   7853     1  0.0000000  0.6508444  3
   7848   7846   7852   7854     1  0.0000000  0.6508444  3
   7852  14768  14764  14767     1  0.0000000  1.6038667  3
   7853   7852  14768  14764     1  0.0000000  1.6038667  3
   7854   7852  14768  14764     1  0.0000000  1.6038667  3
   7855  14791  14787  14790     1  0.0000000  1.6038667  3
   7856   7855  14791  14787     1  0.0000000  1.6038667  3
   7857   7855  14791  14787     1  0.0000000  1.6038667  3
   7859   7860   7872   7873     1  0.0000000  0.6508444  3
   7859   7860   7872   7874     1  0.0000000  0.6508444  3
   7859   7863   7875   7876     1  0.0000000  0.6508444  3
   7859   7863   7875   7877     1  0.0000000  0.6508444  3
   7859   7866   7869   7870     1  0.0000000  0.6508444  3
   7859   7866   7869   7871     1  0.0000000  0.6508444  3
   7860   7859   7863   7864     1  0.0000000  1.2552000  3
   7860   7859   7863   7865     1  0.0000000  1.2552000  3
   7860   7859   7866   7867     1  0.0000000  1.2552000  3
   7860   7859   7866   7868     1  0.0000000  1.2552000  3
   7860   7872   7884   7885     1  0.0000000  0.6508444  3
   7860   7872   7884   7886     1  0.0000000  0.6508444  3
   7861   7860   7859   7863     1  0.0000000  1.2552000  3
   7861   7860   7859   7866     1  0.0000000  1.2552000  3
   7861   7860   7872   7884     1  0.0000000  0.6508444  3
   7861   7860   7872   7873     1  0.0000000  0.6508444  3
   7861   7860   7872   7874     1  0.0000000  0.6508444  3
   7862   7860   7859   7863     1  0.0000000  1.2552000  3
   7862   7860   7859   7866     1  0.0000000  1.2552000  3
   7862   7860   7872   7884     1  0.0000000  0.6508444  3
   7862   7860   7872   7873     1  0.0000000  0.6508444  3
   7862   7860   7872   7874     1  0.0000000  0.6508444  3
   7863   7859   7866   7867     1  0.0000000  1.2552000  3
   7863   7859   7866   7868     1  0.0000000  1.2552000  3
   7863   7875   7881   7882     1  0.0000000  0.6508444  3
   7863   7875   7881   7883     1  0.0000000  0.6508444  3
   7864   7863   7859   7866     1  0.0000000  1.2552000  3
   7864   7863   7875   7881     1  0.0000000  0.6508444  3
   7864   7863   7875   7876     1  0.0000000  0.6508444  3
   7864   7863   7875   7877     1  0.0000000  0.6508444  3
   7865   7863   7859   7866     1  0.0000000  1.2552000  3
   7865   7863   7875   7881     1  0.0000000  0.6508444  3
   7865   7863   7875   7876     1  0.0000000  0.6508444  3
   7865   7863   7875   7877     1  0.0000000  0.6508444  3
   7866   7869   7878   7879     1  0.0000000  0.6508444  3
   7866   7869   7878   7880     1  0.0000000  0.6508444  3
   7867   7866   7869   7878     1  0.0000000  0.6508444  3
   7867   7866   7869   7870     1  0.0000000  0.6508444  3
   7867   7866   7869   7871     1  0.0000000  0.6508444  3
   7868   7866   7869   7878     1  0.0000000  0.6508444  3
   7868   7866   7869   7870     1  0.0000000  0.6508444  3
   7868   7866   7869   7871     1  0.0000000  0.6508444  3
   7870   7869   7878   7887     1  0.0000000  1.0460000  1
   7870   7869   7878   7887     1  0.0000000  0.0000000  3
   7870   7869   7878   7879     1  0.0000000  0.6508444  3
   7870   7869   7878   7880     1  0.0000000  0.6508444  3
   7871   7869   7878   7887     1  0.0000000  1.0460000  1
   7871   7869   7878   7887     1  0.0000000  0.0000000  3
   7871   7869   7878   7879     1  0.0000000  0.6508444  3
   7871   7869   7878   7880     1  0.0000000  0.6508444  3
   7873   7872   7884  14837     1  0.0000000  1.0460000  1
   7873   7872   7884  14837     1  0.0000000  0.0000000  3
   7873   7872   7884   7885     1  0.0000000  0.6508444  3
   7873   7872   7884   7886     1  0.0000000  0.6508444  3
   7874   7872   7884  14837     1  0.0000000  1.0460000  1
   7874   7872   7884  14837     1  0.0000000  0.0000000  3
   7874   7872   7884   7885     1  0.0000000  0.6508444  3
   7874   7872   7884   7886     1  0.0000000  0.6508444  3
   7876   7875   7881  14814     1  0.0000000  1.0460000  1
   7876   7875   7881  14814     1  0.0000000  0.0000000  3
   7876   7875   7881   7882     1  0.0000000  0.6508444  3
   7876   7875   7881   7883     1  0.0000000  0.6508444  3
   7877   7875   7881  14814     1  0.0000000  1.0460000  1
   7877   7875   7881  14814     1  0.0000000  0.0000000  3
   7877   7875   7881   7882     1  0.0000000  0.6508444  3
   7877   7875   7881   7883     1  0.0000000  0.6508444  3
   7881  14814  14810  14813     1  0.0000000  1.6038667  3
   7882   7881  14814  14810     1  0.0000000  1.6038667  3
   7883   7881  14814  14810     1  0.0000000  1.6038667  3
   7884  14837  14833  14836     1  0.0000000  1.6038667  3
   7885   7884  14837  14833     1  0.0000000  1.6038667  3
   7886   7884  14837  14833     1  0.0000000  1.6038667  3
   7888   7889   7901   7902     1  0.0000000  0.6508444  3
   7888   7889   7901   7903     1  0.0000000  0.6508444  3
   7888   7892   7904   7905     1  0.0000000  0.6508444  3
   7888   7892   7904   7906     1  0.0000000  0.6508444  3
   7888   7895   7898   7899     1  0.0000000  0.6508444  3
   7888   7895   7898   7900     1  0.0000000  0.6508444  3
   7889   7888   7892   7893     1  0.0000000  1.2552000  3
   7889   7888   7892   7894     1  0.0000000  1.2552000  3
   7889   7888   7895   7896     1  0.0000000  1.2552000  3
   7889   7888   7895   7897     1  0.0000000  1.2552000  3
   7889   7901   7913   7914     1  0.0000000  0.6508444  3
   7889   7901   7913   7915     1  0.0000000  0.6508444  3
   7890   7889   7888   7892     1  0.0000000  1.2552000  3
   7890   7889   7888   7895     1  0.0000000  1.2552000  3
   7890   7889   7901   7913     1  0.0000000  0.6508444  3
   7890   7889   7901   7902     1  0.0000000  0.6508444  3
   7890   7889   7901   7903     1  0.0000000  0.6508444  3
   7891   7889   7888   7892     1  0.0000000  1.2552000  3
   7891   7889   7888   7895     1  0.0000000  1.2552000  3
   7891   7889   7901   7913     1  0.0000000  0.6508444  3
   7891   7889   7901   7902     1  0.0000000  0.6508444  3
   7891   7889   7901   7903     1  0.0000000  0.6508444  3
   7892   7888   7895   7896     1  0.0000000  1.2552000  3
   7892   7888   7895   7897     1  0.0000000  1.2552000  3
   7892   7904   7910   7911     1  0.0000000  0.6508444  3
   7892   7904   7910   7912     1  0.0000000  0.6508444  3
   7893   7892   7888   7895     1  0.0000000  1.2552000  3
   7893   7892   7904   7910     1  0.0000000  0.6508444  3
   7893   7892   7904   7905     1  0.0000000  0.6508444  3
   7893   7892   7904   7906     1  0.0000000  0.6508444  3
   7894   7892   7888   7895     1  0.0000000  1.2552000  3
   7894   7892   7904   7910     1  0.0000000  0.6508444  3
   7894   7892   7904   7905     1  0.0000000  0.6508444  3
   7894   7892   7904   7906     1  0.0000000  0.6508444  3
   7895   7898   7907   7908     1  0.0000000  0.6508444  3
   7895   7898   7907   7909     1  0.0000000  0.6508444  3
   7896   7895   7898   7907     1  0.0000000  0.6508444  3
   7896   7895   7898   7899     1  0.0000000  0.6508444  3
   7896   7895   7898   7900     1  0.0000000  0.6508444  3
   7897   7895   7898   7907     1  0.0000000  0.6508444  3
   7897   7895   7898   7899     1  0.0000000  0.6508444  3
   7897   7895   7898   7900     1  0.0000000  0.6508444  3
   7899   7898   7907   7916     1  0.0000000  1.0460000  1
   7899   7898   7907   7916     1  0.0000000  0.0000000  3
   7899   7898   7907   7908     1  0.0000000  0.6508444  3
   7899   7898   7907   7909     1  0.0000000  0.6508444  3
   7900   7898   7907   7916     1  0.0000000  1.0460000  1
   7900   7898   7907   7916     1  0.0000000  0.0000000  3
   7900   7898   7907   7908     1  0.0000000  0.6508444  3
   7900   7898   7907   7909     1  0.0000000  0.6508444  3
   7902   7901   7913  14883     1  0.0000000  1.0460000  1
   7902   7901   7913  14883     1  0.0000000  0.0000000  3
   7902   7901   7913   7914     1  0.0000000  0.6508444  3
   7902   7901   7913   7915     1  0.0000000  0.6508444  3
   7903   7901   7913  14883     1  0.0000000  1.0460000  1
   7903   7901   7913  14883     1  0.0000000  0.0000000  3
   7903   7901   7913   7914     1  0.0000000  0.6508444  3
   7903   7901   7913   7915     1  0.0000000  0.6508444  3
   7905   7904   7910  14860     1  0.0000000  1.0460000  1
   7905   7904   7910  14860     1  0.0000000  0.0000000  3
   7905   7904   7910   7911     1  0.0000000  0.6508444  3
   7905   7904   7910   7912     1  0.0000000  0.6508444  3
   7906   7904   7910  14860     1  0.0000000  1.0460000  1
   7906   7904   7910  14860     1  0.0000000  0.0000000  3
   7906   7904   7910   7911     1  0.0000000  0.6508444  3
   7906   7904   7910   7912     1  0.0000000  0.6508444  3
   7910  14860  14856  14859     1  0.0000000  1.6038667  3
   7911   7910  14860  14856     1  0.0000000  1.6038667  3
   7912   7910  14860  14856     1  0.0000000  1.6038667  3
   7913  14883  14879  14882     1  0.0000000  1.6038667  3
   7914   7913  14883  14879     1  0.0000000  1.6038667  3
   7915   7913  14883  14879     1  0.0000000  1.6038667  3
   7917   7918   7930   7931     1  0.0000000  0.6508444  3
   7917   7918   7930   7932     1  0.0000000  0.6508444  3
   7917   7921   7933   7934     1  0.0000000  0.6508444  3
   7917   7921   7933   7935     1  0.0000000  0.6508444  3
   7917   7924   7927   7928     1  0.0000000  0.6508444  3
   7917   7924   7927   7929     1  0.0000000  0.6508444  3
   7918   7917   7921   7922     1  0.0000000  1.2552000  3
   7918   7917   7921   7923     1  0.0000000  1.2552000  3
   7918   7917   7924   7925     1  0.0000000  1.2552000  3
   7918   7917   7924   7926     1  0.0000000  1.2552000  3
   7918   7930   7942   7943     1  0.0000000  0.6508444  3
   7918   7930   7942   7944     1  0.0000000  0.6508444  3
   7919   7918   7917   7921     1  0.0000000  1.2552000  3
   7919   7918   7917   7924     1  0.0000000  1.2552000  3
   7919   7918   7930   7942     1  0.0000000  0.6508444  3
   7919   7918   7930   7931     1  0.0000000  0.6508444  3
   7919   7918   7930   7932     1  0.0000000  0.6508444  3
   7920   7918   7917   7921     1  0.0000000  1.2552000  3
   7920   7918   7917   7924     1  0.0000000  1.2552000  3
   7920   7918   7930   7942     1  0.0000000  0.6508444  3
   7920   7918   7930   7931     1  0.0000000  0.6508444  3
   7920   7918   7930   7932     1  0.0000000  0.6508444  3
   7921   7917   7924   7925     1  0.0000000  1.2552000  3
   7921   7917   7924   7926     1  0.0000000  1.2552000  3
   7921   7933   7939   7940     1  0.0000000  0.6508444  3
   7921   7933   7939   7941     1  0.0000000  0.6508444  3
   7922   7921   7917   7924     1  0.0000000  1.2552000  3
   7922   7921   7933   7939     1  0.0000000  0.6508444  3
   7922   7921   7933   7934     1  0.0000000  0.6508444  3
   7922   7921   7933   7935     1  0.0000000  0.6508444  3
   7923   7921   7917   7924     1  0.0000000  1.2552000  3
   7923   7921   7933   7939     1  0.0000000  0.6508444  3
   7923   7921   7933   7934     1  0.0000000  0.6508444  3
   7923   7921   7933   7935     1  0.0000000  0.6508444  3
   7924   7927   7936   7937     1  0.0000000  0.6508444  3
   7924   7927   7936   7938     1  0.0000000  0.6508444  3
   7925   7924   7927   7936     1  0.0000000  0.6508444  3
   7925   7924   7927   7928     1  0.0000000  0.6508444  3
   7925   7924   7927   7929     1  0.0000000  0.6508444  3
   7926   7924   7927   7936     1  0.0000000  0.6508444  3
   7926   7924   7927   7928     1  0.0000000  0.6508444  3
   7926   7924   7927   7929     1  0.0000000  0.6508444  3
   7928   7927   7936   7945     1  0.0000000  1.0460000  1
   7928   7927   7936   7945     1  0.0000000  0.0000000  3
   7928   7927   7936   7937     1  0.0000000  0.6508444  3
   7928   7927   7936   7938     1  0.0000000  0.6508444  3
   7929   7927   7936   7945     1  0.0000000  1.0460000  1
   7929   7927   7936   7945     1  0.0000000  0.0000000  3
   7929   7927   7936   7937     1  0.0000000  0.6508444  3
   7929   7927   7936   7938     1  0.0000000  0.6508444  3
   7931   7930   7942  14929     1  0.0000000  1.0460000  1
   7931   7930   7942  14929     1  0.0000000  0.0000000  3
   7931   7930   7942   7943     1  0.0000000  0.6508444  3
   7931   7930   7942   7944     1  0.0000000  0.6508444  3
   7932   7930   7942  14929     1  0.0000000  1.0460000  1
   7932   7930   7942  14929     1  0.0000000  0.0000000  3
   7932   7930   7942   7943     1  0.0000000  0.6508444  3
   7932   7930   7942   7944     1  0.0000000  0.6508444  3
   7934   7933   7939  14906     1  0.0000000  1.0460000  1
   7934   7933   7939  14906     1  0.0000000  0.0000000  3
   7934   7933   7939   7940     1  0.0000000  0.6508444  3
   7934   7933   7939   7941     1  0.0000000  0.6508444  3
   7935   7933   7939  14906     1  0.0000000  1.0460000  1
   7935   7933   7939  14906     1  0.0000000  0.0000000  3
   7935   7933   7939   7940     1  0.0000000  0.6508444  3
   7935   7933   7939   7941     1  0.0000000  0.6508444  3
   7939  14906  14902  14905     1  0.0000000  1.6038667  3
   7940   7939  14906  14902     1  0.0000000  1.6038667  3
   7941   7939  14906  14902     1  0.0000000  1.6038667  3
   7942  14929  14925  14928     1  0.0000000  1.6038667  3
   7943   7942  14929  14925     1  0.0000000  1.6038667  3
   7944   7942  14929  14925     1  0.0000000  1.6038667  3
   7946   7947   7959   7960     1  0.0000000  0.6508444  3
   7946   7947   7959   7961     1  0.0000000  0.6508444  3
   7946   7950   7962   7963     1  0.0000000  0.6508444  3
   7946   7950   7962   7964     1  0.0000000  0.6508444  3
   7946   7953   7956   7957     1  0.0000000  0.6508444  3
   7946   7953   7956   7958     1  0.0000000  0.6508444  3
   7947   7946   7950   7951     1  0.0000000  1.2552000  3
   7947   7946   7950   7952     1  0.0000000  1.2552000  3
   7947   7946   7953   7954     1  0.0000000  1.2552000  3
   7947   7946   7953   7955     1  0.0000000  1.2552000  3
   7947   7959   7971   7972     1  0.0000000  0.6508444  3
   7947   7959   7971   7973     1  0.0000000  0.6508444  3
   7948   7947   7946   7950     1  0.0000000  1.2552000  3
   7948   7947   7946   7953     1  0.0000000  1.2552000  3
   7948   7947   7959   7971     1  0.0000000  0.6508444  3
   7948   7947   7959   7960     1  0.0000000  0.6508444  3
   7948   7947   7959   7961     1  0.0000000  0.6508444  3
   7949   7947   7946   7950     1  0.0000000  1.2552000  3
   7949   7947   7946   7953     1  0.0000000  1.2552000  3
   7949   7947   7959   7971     1  0.0000000  0.6508444  3
   7949   7947   7959   7960     1  0.0000000  0.6508444  3
   7949   7947   7959   7961     1  0.0000000  0.6508444  3
   7950   7946   7953   7954     1  0.0000000  1.2552000  3
   7950   7946   7953   7955     1  0.0000000  1.2552000  3
   7950   7962   7968   7969     1  0.0000000  0.6508444  3
   7950   7962   7968   7970     1  0.0000000  0.6508444  3
   7951   7950   7946   7953     1  0.0000000  1.2552000  3
   7951   7950   7962   7968     1  0.0000000  0.6508444  3
   7951   7950   7962   7963     1  0.0000000  0.6508444  3
   7951   7950   7962   7964     1  0.0000000  0.6508444  3
   7952   7950   7946   7953     1  0.0000000  1.2552000  3
   7952   7950   7962   7968     1  0.0000000  0.6508444  3
   7952   7950   7962   7963     1  0.0000000  0.6508444  3
   7952   7950   7962   7964     1  0.0000000  0.6508444  3
   7953   7956   7965   7966     1  0.0000000  0.6508444  3
   7953   7956   7965   7967     1  0.0000000  0.6508444  3
   7954   7953   7956   7965     1  0.0000000  0.6508444  3
   7954   7953   7956   7957     1  0.0000000  0.6508444  3
   7954   7953   7956   7958     1  0.0000000  0.6508444  3
   7955   7953   7956   7965     1  0.0000000  0.6508444  3
   7955   7953   7956   7957     1  0.0000000  0.6508444  3
   7955   7953   7956   7958     1  0.0000000  0.6508444  3
   7957   7956   7965   7974     1  0.0000000  1.0460000  1
   7957   7956   7965   7974     1  0.0000000  0.0000000  3
   7957   7956   7965   7966     1  0.0000000  0.6508444  3
   7957   7956   7965   7967     1  0.0000000  0.6508444  3
   7958   7956   7965   7974     1  0.0000000  1.0460000  1
   7958   7956   7965   7974     1  0.0000000  0.0000000  3
   7958   7956   7965   7966     1  0.0000000  0.6508444  3
   7958   7956   7965   7967     1  0.0000000  0.6508444  3
   7960   7959   7971  14975     1  0.0000000  1.0460000  1
   7960   7959   7971  14975     1  0.0000000  0.0000000  3
   7960   7959   7971   7972     1  0.0000000  0.6508444  3
   7960   7959   7971   7973     1  0.0000000  0.6508444  3
   7961   7959   7971  14975     1  0.0000000  1.0460000  1
   7961   7959   7971  14975     1  0.0000000  0.0000000  3
   7961   7959   7971   7972     1  0.0000000  0.6508444  3
   7961   7959   7971   7973     1  0.0000000  0.6508444  3
   7963   7962   7968  14952     1  0.0000000  1.0460000  1
   7963   7962   7968  14952     1  0.0000000  0.0000000  3
   7963   7962   7968   7969     1  0.0000000  0.6508444  3
   7963   7962   7968   7970     1  0.0000000  0.6508444  3
   7964   7962   7968  14952     1  0.0000000  1.0460000  1
   7964   7962   7968  14952     1  0.0000000  0.0000000  3
   7964   7962   7968   7969     1  0.0000000  0.6508444  3
   7964   7962   7968   7970     1  0.0000000  0.6508444  3
   7968  14952  14948  14951     1  0.0000000  1.6038667  3
   7969   7968  14952  14948     1  0.0000000  1.6038667  3
   7970   7968  14952  14948     1  0.0000000  1.6038667  3
   7971  14975  14971  14974     1  0.0000000  1.6038667  3
   7972   7971  14975  14971     1  0.0000000  1.6038667  3
   7973   7971  14975  14971     1  0.0000000  1.6038667  3
   7975   7976   7988   7989     1  0.0000000  0.6508444  3
   7975   7976   7988   7990     1  0.0000000  0.6508444  3
   7975   7979   7991   7992     1  0.0000000  0.6508444  3
   7975   7979   7991   7993     1  0.0000000  0.6508444  3
   7975   7982   7985   7986     1  0.0000000  0.6508444  3
   7975   7982   7985   7987     1  0.0000000  0.6508444  3
   7976   7975   7979   7980     1  0.0000000  1.2552000  3
   7976   7975   7979   7981     1  0.0000000  1.2552000  3
   7976   7975   7982   7983     1  0.0000000  1.2552000  3
   7976   7975   7982   7984     1  0.0000000  1.2552000  3
   7976   7988   8000   8001     1  0.0000000  0.6508444  3
   7976   7988   8000   8002     1  0.0000000  0.6508444  3
   7977   7976   7975   7979     1  0.0000000  1.2552000  3
   7977   7976   7975   7982     1  0.0000000  1.2552000  3
   7977   7976   7988   8000     1  0.0000000  0.6508444  3
   7977   7976   7988   7989     1  0.0000000  0.6508444  3
   7977   7976   7988   7990     1  0.0000000  0.6508444  3
   7978   7976   7975   7979     1  0.0000000  1.2552000  3
   7978   7976   7975   7982     1  0.0000000  1.2552000  3
   7978   7976   7988   8000     1  0.0000000  0.6508444  3
   7978   7976   7988   7989     1  0.0000000  0.6508444  3
   7978   7976   7988   7990     1  0.0000000  0.6508444  3
   7979   7975   7982   7983     1  0.0000000  1.2552000  3
   7979   7975   7982   7984     1  0.0000000  1.2552000  3
   7979   7991   7997   7998     1  0.0000000  0.6508444  3
   7979   7991   7997   7999     1  0.0000000  0.6508444  3
   7980   7979   7975   7982     1  0.0000000  1.2552000  3
   7980   7979   7991   7997     1  0.0000000  0.6508444  3
   7980   7979   7991   7992     1  0.0000000  0.6508444  3
   7980   7979   7991   7993     1  0.0000000  0.6508444  3
   7981   7979   7975   7982     1  0.0000000  1.2552000  3
   7981   7979   7991   7997     1  0.0000000  0.6508444  3
   7981   7979   7991   7992     1  0.0000000  0.6508444  3
   7981   7979   7991   7993     1  0.0000000  0.6508444  3
   7982   7985   7994   7995     1  0.0000000  0.6508444  3
   7982   7985   7994   7996     1  0.0000000  0.6508444  3
   7983   7982   7985   7994     1  0.0000000  0.6508444  3
   7983   7982   7985   7986     1  0.0000000  0.6508444  3
   7983   7982   7985   7987     1  0.0000000  0.6508444  3
   7984   7982   7985   7994     1  0.0000000  0.6508444  3
   7984   7982   7985   7986     1  0.0000000  0.6508444  3
   7984   7982   7985   7987     1  0.0000000  0.6508444  3
   7986   7985   7994   8003     1  0.0000000  1.0460000  1
   7986   7985   7994   8003     1  0.0000000  0.0000000  3
   7986   7985   7994   7995     1  0.0000000  0.6508444  3
   7986   7985   7994   7996     1  0.0000000  0.6508444  3
   7987   7985   7994   8003     1  0.0000000  1.0460000  1
   7987   7985   7994   8003     1  0.0000000  0.0000000  3
   7987   7985   7994   7995     1  0.0000000  0.6508444  3
   7987   7985   7994   7996     1  0.0000000  0.6508444  3
   7989   7988   8000  15021     1  0.0000000  1.0460000  1
   7989   7988   8000  15021     1  0.0000000  0.0000000  3
   7989   7988   8000   8001     1  0.0000000  0.6508444  3
   7989   7988   8000   8002     1  0.0000000  0.6508444  3
   7990   7988   8000  15021     1  0.0000000  1.0460000  1
   7990   7988   8000  15021     1  0.0000000  0.0000000  3
   7990   7988   8000   8001     1  0.0000000  0.6508444  3
   7990   7988   8000   8002     1  0.0000000  0.6508444  3
   7992   7991   7997  14998     1  0.0000000  1.0460000  1
   7992   7991   7997  14998     1  0.0000000  0.0000000  3
   7992   7991   7997   7998     1  0.0000000  0.6508444  3
   7992   7991   7997   7999     1  0.0000000  0.6508444  3
   7993   7991   7997  14998     1  0.0000000  1.0460000  1
   7993   7991   7997  14998     1  0.0000000  0.0000000  3
   7993   7991   7997   7998     1  0.0000000  0.6508444  3
   7993   7991   7997   7999     1  0.0000000  0.6508444  3
   7997  14998  14994  14997     1  0.0000000  1.6038667  3
   7998   7997  14998  14994     1  0.0000000  1.6038667  3
   7999   7997  14998  14994     1  0.0000000  1.6038667  3
   8000  15021  15017  15020     1  0.0000000  1.6038667  3
   8001   8000  15021  15017     1  0.0000000  1.6038667  3
   8002   8000  15021  15017     1  0.0000000  1.6038667  3
   8004   8005   8017   8018     1  0.0000000  0.6508444  3
   8004   8005   8017   8019     1  0.0000000  0.6508444  3
   8004   8008   8020   8021     1  0.0000000  0.6508444  3
   8004   8008   8020   8022     1  0.0000000  0.6508444  3
   8004   8011   8014   8015     1  0.0000000  0.6508444  3
   8004   8011   8014   8016     1  0.0000000  0.6508444  3
   8005   8004   8008   8009     1  0.0000000  1.2552000  3
   8005   8004   8008   8010     1  0.0000000  1.2552000  3
   8005   8004   8011   8012     1  0.0000000  1.2552000  3
   8005   8004   8011   8013     1  0.0000000  1.2552000  3
   8005   8017   8029   8030     1  0.0000000  0.6508444  3
   8005   8017   8029   8031     1  0.0000000  0.6508444  3
   8006   8005   8004   8008     1  0.0000000  1.2552000  3
   8006   8005   8004   8011     1  0.0000000  1.2552000  3
   8006   8005   8017   8029     1  0.0000000  0.6508444  3
   8006   8005   8017   8018     1  0.0000000  0.6508444  3
   8006   8005   8017   8019     1  0.0000000  0.6508444  3
   8007   8005   8004   8008     1  0.0000000  1.2552000  3
   8007   8005   8004   8011     1  0.0000000  1.2552000  3
   8007   8005   8017   8029     1  0.0000000  0.6508444  3
   8007   8005   8017   8018     1  0.0000000  0.6508444  3
   8007   8005   8017   8019     1  0.0000000  0.6508444  3
   8008   8004   8011   8012     1  0.0000000  1.2552000  3
   8008   8004   8011   8013     1  0.0000000  1.2552000  3
   8008   8020   8026   8027     1  0.0000000  0.6508444  3
   8008   8020   8026   8028     1  0.0000000  0.6508444  3
   8009   8008   8004   8011     1  0.0000000  1.2552000  3
   8009   8008   8020   8026     1  0.0000000  0.6508444  3
   8009   8008   8020   8021     1  0.0000000  0.6508444  3
   8009   8008   8020   8022     1  0.0000000  0.6508444  3
   8010   8008   8004   8011     1  0.0000000  1.2552000  3
   8010   8008   8020   8026     1  0.0000000  0.6508444  3
   8010   8008   8020   8021     1  0.0000000  0.6508444  3
   8010   8008   8020   8022     1  0.0000000  0.6508444  3
   8011   8014   8023   8024     1  0.0000000  0.6508444  3
   8011   8014   8023   8025     1  0.0000000  0.6508444  3
   8012   8011   8014   8023     1  0.0000000  0.6508444  3
   8012   8011   8014   8015     1  0.0000000  0.6508444  3
   8012   8011   8014   8016     1  0.0000000  0.6508444  3
   8013   8011   8014   8023     1  0.0000000  0.6508444  3
   8013   8011   8014   8015     1  0.0000000  0.6508444  3
   8013   8011   8014   8016     1  0.0000000  0.6508444  3
   8015   8014   8023   8032     1  0.0000000  1.0460000  1
   8015   8014   8023   8032     1  0.0000000  0.0000000  3
   8015   8014   8023   8024     1  0.0000000  0.6508444  3
   8015   8014   8023   8025     1  0.0000000  0.6508444  3
   8016   8014   8023   8032     1  0.0000000  1.0460000  1
   8016   8014   8023   8032     1  0.0000000  0.0000000  3
   8016   8014   8023   8024     1  0.0000000  0.6508444  3
   8016   8014   8023   8025     1  0.0000000  0.6508444  3
   8018   8017   8029  15067     1  0.0000000  1.0460000  1
   8018   8017   8029  15067     1  0.0000000  0.0000000  3
   8018   8017   8029   8030     1  0.0000000  0.6508444  3
   8018   8017   8029   8031     1  0.0000000  0.6508444  3
   8019   8017   8029  15067     1  0.0000000  1.0460000  1
   8019   8017   8029  15067     1  0.0000000  0.0000000  3
   8019   8017   8029   8030     1  0.0000000  0.6508444  3
   8019   8017   8029   8031     1  0.0000000  0.6508444  3
   8021   8020   8026  15044     1  0.0000000  1.0460000  1
   8021   8020   8026  15044     1  0.0000000  0.0000000  3
   8021   8020   8026   8027     1  0.0000000  0.6508444  3
   8021   8020   8026   8028     1  0.0000000  0.6508444  3
   8022   8020   8026  15044     1  0.0000000  1.0460000  1
   8022   8020   8026  15044     1  0.0000000  0.0000000  3
   8022   8020   8026   8027     1  0.0000000  0.6508444  3
   8022   8020   8026   8028     1  0.0000000  0.6508444  3
   8026  15044  15040  15043     1  0.0000000  1.6038667  3
   8027   8026  15044  15040     1  0.0000000  1.6038667  3
   8028   8026  15044  15040     1  0.0000000  1.6038667  3
   8029  15067  15063  15066     1  0.0000000  1.6038667  3
   8030   8029  15067  15063     1  0.0000000  1.6038667  3
   8031   8029  15067  15063     1  0.0000000  1.6038667  3
   8033   8034   8046   8047     1  0.0000000  0.6508444  3
   8033   8034   8046   8048     1  0.0000000  0.6508444  3
   8033   8037   8049   8050     1  0.0000000  0.6508444  3
   8033   8037   8049   8051     1  0.0000000  0.6508444  3
   8033   8040   8043   8044     1  0.0000000  0.6508444  3
   8033   8040   8043   8045     1  0.0000000  0.6508444  3
   8034   8033   8037   8038     1  0.0000000  1.2552000  3
   8034   8033   8037   8039     1  0.0000000  1.2552000  3
   8034   8033   8040   8041     1  0.0000000  1.2552000  3
   8034   8033   8040   8042     1  0.0000000  1.2552000  3
   8034   8046   8058   8059     1  0.0000000  0.6508444  3
   8034   8046   8058   8060     1  0.0000000  0.6508444  3
   8035   8034   8033   8037     1  0.0000000  1.2552000  3
   8035   8034   8033   8040     1  0.0000000  1.2552000  3
   8035   8034   8046   8058     1  0.0000000  0.6508444  3
   8035   8034   8046   8047     1  0.0000000  0.6508444  3
   8035   8034   8046   8048     1  0.0000000  0.6508444  3
   8036   8034   8033   8037     1  0.0000000  1.2552000  3
   8036   8034   8033   8040     1  0.0000000  1.2552000  3
   8036   8034   8046   8058     1  0.0000000  0.6508444  3
   8036   8034   8046   8047     1  0.0000000  0.6508444  3
   8036   8034   8046   8048     1  0.0000000  0.6508444  3
   8037   8033   8040   8041     1  0.0000000  1.2552000  3
   8037   8033   8040   8042     1  0.0000000  1.2552000  3
   8037   8049   8055   8056     1  0.0000000  0.6508444  3
   8037   8049   8055   8057     1  0.0000000  0.6508444  3
   8038   8037   8033   8040     1  0.0000000  1.2552000  3
   8038   8037   8049   8055     1  0.0000000  0.6508444  3
   8038   8037   8049   8050     1  0.0000000  0.6508444  3
   8038   8037   8049   8051     1  0.0000000  0.6508444  3
   8039   8037   8033   8040     1  0.0000000  1.2552000  3
   8039   8037   8049   8055     1  0.0000000  0.6508444  3
   8039   8037   8049   8050     1  0.0000000  0.6508444  3
   8039   8037   8049   8051     1  0.0000000  0.6508444  3
   8040   8043   8052   8053     1  0.0000000  0.6508444  3
   8040   8043   8052   8054     1  0.0000000  0.6508444  3
   8041   8040   8043   8052     1  0.0000000  0.6508444  3
   8041   8040   8043   8044     1  0.0000000  0.6508444  3
   8041   8040   8043   8045     1  0.0000000  0.6508444  3
   8042   8040   8043   8052     1  0.0000000  0.6508444  3
   8042   8040   8043   8044     1  0.0000000  0.6508444  3
   8042   8040   8043   8045     1  0.0000000  0.6508444  3
   8044   8043   8052   8061     1  0.0000000  1.0460000  1
   8044   8043   8052   8061     1  0.0000000  0.0000000  3
   8044   8043   8052   8053     1  0.0000000  0.6508444  3
   8044   8043   8052   8054     1  0.0000000  0.6508444  3
   8045   8043   8052   8061     1  0.0000000  1.0460000  1
   8045   8043   8052   8061     1  0.0000000  0.0000000  3
   8045   8043   8052   8053     1  0.0000000  0.6508444  3
   8045   8043   8052   8054     1  0.0000000  0.6508444  3
   8047   8046   8058  15113     1  0.0000000  1.0460000  1
   8047   8046   8058  15113     1  0.0000000  0.0000000  3
   8047   8046   8058   8059     1  0.0000000  0.6508444  3
   8047   8046   8058   8060     1  0.0000000  0.6508444  3
   8048   8046   8058  15113     1  0.0000000  1.0460000  1
   8048   8046   8058  15113     1  0.0000000  0.0000000  3
   8048   8046   8058   8059     1  0.0000000  0.6508444  3
   8048   8046   8058   8060     1  0.0000000  0.6508444  3
   8050   8049   8055  15090     1  0.0000000  1.0460000  1
   8050   8049   8055  15090     1  0.0000000  0.0000000  3
   8050   8049   8055   8056     1  0.0000000  0.6508444  3
   8050   8049   8055   8057     1  0.0000000  0.6508444  3
   8051   8049   8055  15090     1  0.0000000  1.0460000  1
   8051   8049   8055  15090     1  0.0000000  0.0000000  3
   8051   8049   8055   8056     1  0.0000000  0.6508444  3
   8051   8049   8055   8057     1  0.0000000  0.6508444  3
   8055  15090  15086  15089     1  0.0000000  1.6038667  3
   8056   8055  15090  15086     1  0.0000000  1.6038667  3
   8057   8055  15090  15086     1  0.0000000  1.6038667  3
   8058  15113  15109  15112     1  0.0000000  1.6038667  3
   8059   8058  15113  15109     1  0.0000000  1.6038667  3
   8060   8058  15113  15109     1  0.0000000  1.6038667  3
   8062   8063   8075   8076     1  0.0000000  0.6508444  3
   8062   8063   8075   8077     1  0.0000000  0.6508444  3
   8062   8066   8078   8079     1  0.0000000  0.6508444  3
   8062   8066   8078   8080     1  0.0000000  0.6508444  3
   8062   8069   8072   8073     1  0.0000000  0.6508444  3
   8062   8069   8072   8074     1  0.0000000  0.6508444  3
   8063   8062   8066   8067     1  0.0000000  1.2552000  3
   8063   8062   8066   8068     1  0.0000000  1.2552000  3
   8063   8062   8069   8070     1  0.0000000  1.2552000  3
   8063   8062   8069   8071     1  0.0000000  1.2552000  3
   8063   8075   8087   8088     1  0.0000000  0.6508444  3
   8063   8075   8087   8089     1  0.0000000  0.6508444  3
   8064   8063   8062   8066     1  0.0000000  1.2552000  3
   8064   8063   8062   8069     1  0.0000000  1.2552000  3
   8064   8063   8075   8087     1  0.0000000  0.6508444  3
   8064   8063   8075   8076     1  0.0000000  0.6508444  3
   8064   8063   8075   8077     1  0.0000000  0.6508444  3
   8065   8063   8062   8066     1  0.0000000  1.2552000  3
   8065   8063   8062   8069     1  0.0000000  1.2552000  3
   8065   8063   8075   8087     1  0.0000000  0.6508444  3
   8065   8063   8075   8076     1  0.0000000  0.6508444  3
   8065   8063   8075   8077     1  0.0000000  0.6508444  3
   8066   8062   8069   8070     1  0.0000000  1.2552000  3
   8066   8062   8069   8071     1  0.0000000  1.2552000  3
   8066   8078   8084   8085     1  0.0000000  0.6508444  3
   8066   8078   8084   8086     1  0.0000000  0.6508444  3
   8067   8066   8062   8069     1  0.0000000  1.2552000  3
   8067   8066   8078   8084     1  0.0000000  0.6508444  3
   8067   8066   8078   8079     1  0.0000000  0.6508444  3
   8067   8066   8078   8080     1  0.0000000  0.6508444  3
   8068   8066   8062   8069     1  0.0000000  1.2552000  3
   8068   8066   8078   8084     1  0.0000000  0.6508444  3
   8068   8066   8078   8079     1  0.0000000  0.6508444  3
   8068   8066   8078   8080     1  0.0000000  0.6508444  3
   8069   8072   8081   8082     1  0.0000000  0.6508444  3
   8069   8072   8081   8083     1  0.0000000  0.6508444  3
   8070   8069   8072   8081     1  0.0000000  0.6508444  3
   8070   8069   8072   8073     1  0.0000000  0.6508444  3
   8070   8069   8072   8074     1  0.0000000  0.6508444  3
   8071   8069   8072   8081     1  0.0000000  0.6508444  3
   8071   8069   8072   8073     1  0.0000000  0.6508444  3
   8071   8069   8072   8074     1  0.0000000  0.6508444  3
   8073   8072   8081   8090     1  0.0000000  1.0460000  1
   8073   8072   8081   8090     1  0.0000000  0.0000000  3
   8073   8072   8081   8082     1  0.0000000  0.6508444  3
   8073   8072   8081   8083     1  0.0000000  0.6508444  3
   8074   8072   8081   8090     1  0.0000000  1.0460000  1
   8074   8072   8081   8090     1  0.0000000  0.0000000  3
   8074   8072   8081   8082     1  0.0000000  0.6508444  3
   8074   8072   8081   8083     1  0.0000000  0.6508444  3
   8076   8075   8087  15159     1  0.0000000  1.0460000  1
   8076   8075   8087  15159     1  0.0000000  0.0000000  3
   8076   8075   8087   8088     1  0.0000000  0.6508444  3
   8076   8075   8087   8089     1  0.0000000  0.6508444  3
   8077   8075   8087  15159     1  0.0000000  1.0460000  1
   8077   8075   8087  15159     1  0.0000000  0.0000000  3
   8077   8075   8087   8088     1  0.0000000  0.6508444  3
   8077   8075   8087   8089     1  0.0000000  0.6508444  3
   8079   8078   8084  15136     1  0.0000000  1.0460000  1
   8079   8078   8084  15136     1  0.0000000  0.0000000  3
   8079   8078   8084   8085     1  0.0000000  0.6508444  3
   8079   8078   8084   8086     1  0.0000000  0.6508444  3
   8080   8078   8084  15136     1  0.0000000  1.0460000  1
   8080   8078   8084  15136     1  0.0000000  0.0000000  3
   8080   8078   8084   8085     1  0.0000000  0.6508444  3
   8080   8078   8084   8086     1  0.0000000  0.6508444  3
   8084  15136  15132  15135     1  0.0000000  1.6038667  3
   8085   8084  15136  15132     1  0.0000000  1.6038667  3
   8086   8084  15136  15132     1  0.0000000  1.6038667  3
   8087  15159  15155  15158     1  0.0000000  1.6038667  3
   8088   8087  15159  15155     1  0.0000000  1.6038667  3
   8089   8087  15159  15155     1  0.0000000  1.6038667  3
   8091   8092   8104   8105     1  0.0000000  0.6508444  3
   8091   8092   8104   8106     1  0.0000000  0.6508444  3
   8091   8095   8107   8108     1  0.0000000  0.6508444  3
   8091   8095   8107   8109     1  0.0000000  0.6508444  3
   8091   8098   8101   8102     1  0.0000000  0.6508444  3
   8091   8098   8101   8103     1  0.0000000  0.6508444  3
   8092   8091   8095   8096     1  0.0000000  1.2552000  3
   8092   8091   8095   8097     1  0.0000000  1.2552000  3
   8092   8091   8098   8099     1  0.0000000  1.2552000  3
   8092   8091   8098   8100     1  0.0000000  1.2552000  3
   8092   8104   8116   8117     1  0.0000000  0.6508444  3
   8092   8104   8116   8118     1  0.0000000  0.6508444  3
   8093   8092   8091   8095     1  0.0000000  1.2552000  3
   8093   8092   8091   8098     1  0.0000000  1.2552000  3
   8093   8092   8104   8116     1  0.0000000  0.6508444  3
   8093   8092   8104   8105     1  0.0000000  0.6508444  3
   8093   8092   8104   8106     1  0.0000000  0.6508444  3
   8094   8092   8091   8095     1  0.0000000  1.2552000  3
   8094   8092   8091   8098     1  0.0000000  1.2552000  3
   8094   8092   8104   8116     1  0.0000000  0.6508444  3
   8094   8092   8104   8105     1  0.0000000  0.6508444  3
   8094   8092   8104   8106     1  0.0000000  0.6508444  3
   8095   8091   8098   8099     1  0.0000000  1.2552000  3
   8095   8091   8098   8100     1  0.0000000  1.2552000  3
   8095   8107   8113   8114     1  0.0000000  0.6508444  3
   8095   8107   8113   8115     1  0.0000000  0.6508444  3
   8096   8095   8091   8098     1  0.0000000  1.2552000  3
   8096   8095   8107   8113     1  0.0000000  0.6508444  3
   8096   8095   8107   8108     1  0.0000000  0.6508444  3
   8096   8095   8107   8109     1  0.0000000  0.6508444  3
   8097   8095   8091   8098     1  0.0000000  1.2552000  3
   8097   8095   8107   8113     1  0.0000000  0.6508444  3
   8097   8095   8107   8108     1  0.0000000  0.6508444  3
   8097   8095   8107   8109     1  0.0000000  0.6508444  3
   8098   8101   8110   8111     1  0.0000000  0.6508444  3
   8098   8101   8110   8112     1  0.0000000  0.6508444  3
   8099   8098   8101   8110     1  0.0000000  0.6508444  3
   8099   8098   8101   8102     1  0.0000000  0.6508444  3
   8099   8098   8101   8103     1  0.0000000  0.6508444  3
   8100   8098   8101   8110     1  0.0000000  0.6508444  3
   8100   8098   8101   8102     1  0.0000000  0.6508444  3
   8100   8098   8101   8103     1  0.0000000  0.6508444  3
   8102   8101   8110   8119     1  0.0000000  1.0460000  1
   8102   8101   8110   8119     1  0.0000000  0.0000000  3
   8102   8101   8110   8111     1  0.0000000  0.6508444  3
   8102   8101   8110   8112     1  0.0000000  0.6508444  3
   8103   8101   8110   8119     1  0.0000000  1.0460000  1
   8103   8101   8110   8119     1  0.0000000  0.0000000  3
   8103   8101   8110   8111     1  0.0000000  0.6508444  3
   8103   8101   8110   8112     1  0.0000000  0.6508444  3
   8105   8104   8116  15205     1  0.0000000  1.0460000  1
   8105   8104   8116  15205     1  0.0000000  0.0000000  3
   8105   8104   8116   8117     1  0.0000000  0.6508444  3
   8105   8104   8116   8118     1  0.0000000  0.6508444  3
   8106   8104   8116  15205     1  0.0000000  1.0460000  1
   8106   8104   8116  15205     1  0.0000000  0.0000000  3
   8106   8104   8116   8117     1  0.0000000  0.6508444  3
   8106   8104   8116   8118     1  0.0000000  0.6508444  3
   8108   8107   8113  15182     1  0.0000000  1.0460000  1
   8108   8107   8113  15182     1  0.0000000  0.0000000  3
   8108   8107   8113   8114     1  0.0000000  0.6508444  3
   8108   8107   8113   8115     1  0.0000000  0.6508444  3
   8109   8107   8113  15182     1  0.0000000  1.0460000  1
   8109   8107   8113  15182     1  0.0000000  0.0000000  3
   8109   8107   8113   8114     1  0.0000000  0.6508444  3
   8109   8107   8113   8115     1  0.0000000  0.6508444  3
   8113  15182  15178  15181     1  0.0000000  1.6038667  3
   8114   8113  15182  15178     1  0.0000000  1.6038667  3
   8115   8113  15182  15178     1  0.0000000  1.6038667  3
   8116  15205  15201  15204     1  0.0000000  1.6038667  3
   8117   8116  15205  15201     1  0.0000000  1.6038667  3
   8118   8116  15205  15201     1  0.0000000  1.6038667  3
   8120   8121   8133   8134     1  0.0000000  0.6508444  3
   8120   8121   8133   8135     1  0.0000000  0.6508444  3
   8120   8124   8136   8137     1  0.0000000  0.6508444  3
   8120   8124   8136   8138     1  0.0000000  0.6508444  3
   8120   8127   8130   8131     1  0.0000000  0.6508444  3
   8120   8127   8130   8132     1  0.0000000  0.6508444  3
   8121   8120   8124   8125     1  0.0000000  1.2552000  3
   8121   8120   8124   8126     1  0.0000000  1.2552000  3
   8121   8120   8127   8128     1  0.0000000  1.2552000  3
   8121   8120   8127   8129     1  0.0000000  1.2552000  3
   8121   8133   8145   8146     1  0.0000000  0.6508444  3
   8121   8133   8145   8147     1  0.0000000  0.6508444  3
   8122   8121   8120   8124     1  0.0000000  1.2552000  3
   8122   8121   8120   8127     1  0.0000000  1.2552000  3
   8122   8121   8133   8145     1  0.0000000  0.6508444  3
   8122   8121   8133   8134     1  0.0000000  0.6508444  3
   8122   8121   8133   8135     1  0.0000000  0.6508444  3
   8123   8121   8120   8124     1  0.0000000  1.2552000  3
   8123   8121   8120   8127     1  0.0000000  1.2552000  3
   8123   8121   8133   8145     1  0.0000000  0.6508444  3
   8123   8121   8133   8134     1  0.0000000  0.6508444  3
   8123   8121   8133   8135     1  0.0000000  0.6508444  3
   8124   8120   8127   8128     1  0.0000000  1.2552000  3
   8124   8120   8127   8129     1  0.0000000  1.2552000  3
   8124   8136   8142   8143     1  0.0000000  0.6508444  3
   8124   8136   8142   8144     1  0.0000000  0.6508444  3
   8125   8124   8120   8127     1  0.0000000  1.2552000  3
   8125   8124   8136   8142     1  0.0000000  0.6508444  3
   8125   8124   8136   8137     1  0.0000000  0.6508444  3
   8125   8124   8136   8138     1  0.0000000  0.6508444  3
   8126   8124   8120   8127     1  0.0000000  1.2552000  3
   8126   8124   8136   8142     1  0.0000000  0.6508444  3
   8126   8124   8136   8137     1  0.0000000  0.6508444  3
   8126   8124   8136   8138     1  0.0000000  0.6508444  3
   8127   8130   8139   8140     1  0.0000000  0.6508444  3
   8127   8130   8139   8141     1  0.0000000  0.6508444  3
   8128   8127   8130   8139     1  0.0000000  0.6508444  3
   8128   8127   8130   8131     1  0.0000000  0.6508444  3
   8128   8127   8130   8132     1  0.0000000  0.6508444  3
   8129   8127   8130   8139     1  0.0000000  0.6508444  3
   8129   8127   8130   8131     1  0.0000000  0.6508444  3
   8129   8127   8130   8132     1  0.0000000  0.6508444  3
   8131   8130   8139   8148     1  0.0000000  1.0460000  1
   8131   8130   8139   8148     1  0.0000000  0.0000000  3
   8131   8130   8139   8140     1  0.0000000  0.6508444  3
   8131   8130   8139   8141     1  0.0000000  0.6508444  3
   8132   8130   8139   8148     1  0.0000000  1.0460000  1
   8132   8130   8139   8148     1  0.0000000  0.0000000  3
   8132   8130   8139   8140     1  0.0000000  0.6508444  3
   8132   8130   8139   8141     1  0.0000000  0.6508444  3
   8134   8133   8145  15251     1  0.0000000  1.0460000  1
   8134   8133   8145  15251     1  0.0000000  0.0000000  3
   8134   8133   8145   8146     1  0.0000000  0.6508444  3
   8134   8133   8145   8147     1  0.0000000  0.6508444  3
   8135   8133   8145  15251     1  0.0000000  1.0460000  1
   8135   8133   8145  15251     1  0.0000000  0.0000000  3
   8135   8133   8145   8146     1  0.0000000  0.6508444  3
   8135   8133   8145   8147     1  0.0000000  0.6508444  3
   8137   8136   8142  15228     1  0.0000000  1.0460000  1
   8137   8136   8142  15228     1  0.0000000  0.0000000  3
   8137   8136   8142   8143     1  0.0000000  0.6508444  3
   8137   8136   8142   8144     1  0.0000000  0.6508444  3
   8138   8136   8142  15228     1  0.0000000  1.0460000  1
   8138   8136   8142  15228     1  0.0000000  0.0000000  3
   8138   8136   8142   8143     1  0.0000000  0.6508444  3
   8138   8136   8142   8144     1  0.0000000  0.6508444  3
   8142  15228  15224  15227     1  0.0000000  1.6038667  3
   8143   8142  15228  15224     1  0.0000000  1.6038667  3
   8144   8142  15228  15224     1  0.0000000  1.6038667  3
   8145  15251  15247  15250     1  0.0000000  1.6038667  3
   8146   8145  15251  15247     1  0.0000000  1.6038667  3
   8147   8145  15251  15247     1  0.0000000  1.6038667  3
   8149   8150   8162   8163     1  0.0000000  0.6508444  3
   8149   8150   8162   8164     1  0.0000000  0.6508444  3
   8149   8153   8165   8166     1  0.0000000  0.6508444  3
   8149   8153   8165   8167     1  0.0000000  0.6508444  3
   8149   8156   8159   8160     1  0.0000000  0.6508444  3
   8149   8156   8159   8161     1  0.0000000  0.6508444  3
   8150   8149   8153   8154     1  0.0000000  1.2552000  3
   8150   8149   8153   8155     1  0.0000000  1.2552000  3
   8150   8149   8156   8157     1  0.0000000  1.2552000  3
   8150   8149   8156   8158     1  0.0000000  1.2552000  3
   8150   8162   8174   8175     1  0.0000000  0.6508444  3
   8150   8162   8174   8176     1  0.0000000  0.6508444  3
   8151   8150   8149   8153     1  0.0000000  1.2552000  3
   8151   8150   8149   8156     1  0.0000000  1.2552000  3
   8151   8150   8162   8174     1  0.0000000  0.6508444  3
   8151   8150   8162   8163     1  0.0000000  0.6508444  3
   8151   8150   8162   8164     1  0.0000000  0.6508444  3
   8152   8150   8149   8153     1  0.0000000  1.2552000  3
   8152   8150   8149   8156     1  0.0000000  1.2552000  3
   8152   8150   8162   8174     1  0.0000000  0.6508444  3
   8152   8150   8162   8163     1  0.0000000  0.6508444  3
   8152   8150   8162   8164     1  0.0000000  0.6508444  3
   8153   8149   8156   8157     1  0.0000000  1.2552000  3
   8153   8149   8156   8158     1  0.0000000  1.2552000  3
   8153   8165   8171   8172     1  0.0000000  0.6508444  3
   8153   8165   8171   8173     1  0.0000000  0.6508444  3
   8154   8153   8149   8156     1  0.0000000  1.2552000  3
   8154   8153   8165   8171     1  0.0000000  0.6508444  3
   8154   8153   8165   8166     1  0.0000000  0.6508444  3
   8154   8153   8165   8167     1  0.0000000  0.6508444  3
   8155   8153   8149   8156     1  0.0000000  1.2552000  3
   8155   8153   8165   8171     1  0.0000000  0.6508444  3
   8155   8153   8165   8166     1  0.0000000  0.6508444  3
   8155   8153   8165   8167     1  0.0000000  0.6508444  3
   8156   8159   8168   8169     1  0.0000000  0.6508444  3
   8156   8159   8168   8170     1  0.0000000  0.6508444  3
   8157   8156   8159   8168     1  0.0000000  0.6508444  3
   8157   8156   8159   8160     1  0.0000000  0.6508444  3
   8157   8156   8159   8161     1  0.0000000  0.6508444  3
   8158   8156   8159   8168     1  0.0000000  0.6508444  3
   8158   8156   8159   8160     1  0.0000000  0.6508444  3
   8158   8156   8159   8161     1  0.0000000  0.6508444  3
   8160   8159   8168   8177     1  0.0000000  1.0460000  1
   8160   8159   8168   8177     1  0.0000000  0.0000000  3
   8160   8159   8168   8169     1  0.0000000  0.6508444  3
   8160   8159   8168   8170     1  0.0000000  0.6508444  3
   8161   8159   8168   8177     1  0.0000000  1.0460000  1
   8161   8159   8168   8177     1  0.0000000  0.0000000  3
   8161   8159   8168   8169     1  0.0000000  0.6508444  3
   8161   8159   8168   8170     1  0.0000000  0.6508444  3
   8163   8162   8174  15297     1  0.0000000  1.0460000  1
   8163   8162   8174  15297     1  0.0000000  0.0000000  3
   8163   8162   8174   8175     1  0.0000000  0.6508444  3
   8163   8162   8174   8176     1  0.0000000  0.6508444  3
   8164   8162   8174  15297     1  0.0000000  1.0460000  1
   8164   8162   8174  15297     1  0.0000000  0.0000000  3
   8164   8162   8174   8175     1  0.0000000  0.6508444  3
   8164   8162   8174   8176     1  0.0000000  0.6508444  3
   8166   8165   8171  15274     1  0.0000000  1.0460000  1
   8166   8165   8171  15274     1  0.0000000  0.0000000  3
   8166   8165   8171   8172     1  0.0000000  0.6508444  3
   8166   8165   8171   8173     1  0.0000000  0.6508444  3
   8167   8165   8171  15274     1  0.0000000  1.0460000  1
   8167   8165   8171  15274     1  0.0000000  0.0000000  3
   8167   8165   8171   8172     1  0.0000000  0.6508444  3
   8167   8165   8171   8173     1  0.0000000  0.6508444  3
   8171  15274  15270  15273     1  0.0000000  1.6038667  3
   8172   8171  15274  15270     1  0.0000000  1.6038667  3
   8173   8171  15274  15270     1  0.0000000  1.6038667  3
   8174  15297  15293  15296     1  0.0000000  1.6038667  3
   8175   8174  15297  15293     1  0.0000000  1.6038667  3
   8176   8174  15297  15293     1  0.0000000  1.6038667  3
   8178   8179   8191   8192     1  0.0000000  0.6508444  3
   8178   8179   8191   8193     1  0.0000000  0.6508444  3
   8178   8182   8194   8195     1  0.0000000  0.6508444  3
   8178   8182   8194   8196     1  0.0000000  0.6508444  3
   8178   8185   8188   8189     1  0.0000000  0.6508444  3
   8178   8185   8188   8190     1  0.0000000  0.6508444  3
   8179   8178   8182   8183     1  0.0000000  1.2552000  3
   8179   8178   8182   8184     1  0.0000000  1.2552000  3
   8179   8178   8185   8186     1  0.0000000  1.2552000  3
   8179   8178   8185   8187     1  0.0000000  1.2552000  3
   8179   8191   8203   8204     1  0.0000000  0.6508444  3
   8179   8191   8203   8205     1  0.0000000  0.6508444  3
   8180   8179   8178   8182     1  0.0000000  1.2552000  3
   8180   8179   8178   8185     1  0.0000000  1.2552000  3
   8180   8179   8191   8203     1  0.0000000  0.6508444  3
   8180   8179   8191   8192     1  0.0000000  0.6508444  3
   8180   8179   8191   8193     1  0.0000000  0.6508444  3
   8181   8179   8178   8182     1  0.0000000  1.2552000  3
   8181   8179   8178   8185     1  0.0000000  1.2552000  3
   8181   8179   8191   8203     1  0.0000000  0.6508444  3
   8181   8179   8191   8192     1  0.0000000  0.6508444  3
   8181   8179   8191   8193     1  0.0000000  0.6508444  3
   8182   8178   8185   8186     1  0.0000000  1.2552000  3
   8182   8178   8185   8187     1  0.0000000  1.2552000  3
   8182   8194   8200   8201     1  0.0000000  0.6508444  3
   8182   8194   8200   8202     1  0.0000000  0.6508444  3
   8183   8182   8178   8185     1  0.0000000  1.2552000  3
   8183   8182   8194   8200     1  0.0000000  0.6508444  3
   8183   8182   8194   8195     1  0.0000000  0.6508444  3
   8183   8182   8194   8196     1  0.0000000  0.6508444  3
   8184   8182   8178   8185     1  0.0000000  1.2552000  3
   8184   8182   8194   8200     1  0.0000000  0.6508444  3
   8184   8182   8194   8195     1  0.0000000  0.6508444  3
   8184   8182   8194   8196     1  0.0000000  0.6508444  3
   8185   8188   8197   8198     1  0.0000000  0.6508444  3
   8185   8188   8197   8199     1  0.0000000  0.6508444  3
   8186   8185   8188   8197     1  0.0000000  0.6508444  3
   8186   8185   8188   8189     1  0.0000000  0.6508444  3
   8186   8185   8188   8190     1  0.0000000  0.6508444  3
   8187   8185   8188   8197     1  0.0000000  0.6508444  3
   8187   8185   8188   8189     1  0.0000000  0.6508444  3
   8187   8185   8188   8190     1  0.0000000  0.6508444  3
   8189   8188   8197   8206     1  0.0000000  1.0460000  1
   8189   8188   8197   8206     1  0.0000000  0.0000000  3
   8189   8188   8197   8198     1  0.0000000  0.6508444  3
   8189   8188   8197   8199     1  0.0000000  0.6508444  3
   8190   8188   8197   8206     1  0.0000000  1.0460000  1
   8190   8188   8197   8206     1  0.0000000  0.0000000  3
   8190   8188   8197   8198     1  0.0000000  0.6508444  3
   8190   8188   8197   8199     1  0.0000000  0.6508444  3
   8192   8191   8203  15343     1  0.0000000  1.0460000  1
   8192   8191   8203  15343     1  0.0000000  0.0000000  3
   8192   8191   8203   8204     1  0.0000000  0.6508444  3
   8192   8191   8203   8205     1  0.0000000  0.6508444  3
   8193   8191   8203  15343     1  0.0000000  1.0460000  1
   8193   8191   8203  15343     1  0.0000000  0.0000000  3
   8193   8191   8203   8204     1  0.0000000  0.6508444  3
   8193   8191   8203   8205     1  0.0000000  0.6508444  3
   8195   8194   8200  15320     1  0.0000000  1.0460000  1
   8195   8194   8200  15320     1  0.0000000  0.0000000  3
   8195   8194   8200   8201     1  0.0000000  0.6508444  3
   8195   8194   8200   8202     1  0.0000000  0.6508444  3
   8196   8194   8200  15320     1  0.0000000  1.0460000  1
   8196   8194   8200  15320     1  0.0000000  0.0000000  3
   8196   8194   8200   8201     1  0.0000000  0.6508444  3
   8196   8194   8200   8202     1  0.0000000  0.6508444  3
   8200  15320  15316  15319     1  0.0000000  1.6038667  3
   8201   8200  15320  15316     1  0.0000000  1.6038667  3
   8202   8200  15320  15316     1  0.0000000  1.6038667  3
   8203  15343  15339  15342     1  0.0000000  1.6038667  3
   8204   8203  15343  15339     1  0.0000000  1.6038667  3
   8205   8203  15343  15339     1  0.0000000  1.6038667  3
   8207   8208   8220   8221     1  0.0000000  0.6508444  3
   8207   8208   8220   8222     1  0.0000000  0.6508444  3
   8207   8211   8223   8224     1  0.0000000  0.6508444  3
   8207   8211   8223   8225     1  0.0000000  0.6508444  3
   8207   8214   8217   8218     1  0.0000000  0.6508444  3
   8207   8214   8217   8219     1  0.0000000  0.6508444  3
   8208   8207   8211   8212     1  0.0000000  1.2552000  3
   8208   8207   8211   8213     1  0.0000000  1.2552000  3
   8208   8207   8214   8215     1  0.0000000  1.2552000  3
   8208   8207   8214   8216     1  0.0000000  1.2552000  3
   8208   8220   8232   8233     1  0.0000000  0.6508444  3
   8208   8220   8232   8234     1  0.0000000  0.6508444  3
   8209   8208   8207   8211     1  0.0000000  1.2552000  3
   8209   8208   8207   8214     1  0.0000000  1.2552000  3
   8209   8208   8220   8232     1  0.0000000  0.6508444  3
   8209   8208   8220   8221     1  0.0000000  0.6508444  3
   8209   8208   8220   8222     1  0.0000000  0.6508444  3
   8210   8208   8207   8211     1  0.0000000  1.2552000  3
   8210   8208   8207   8214     1  0.0000000  1.2552000  3
   8210   8208   8220   8232     1  0.0000000  0.6508444  3
   8210   8208   8220   8221     1  0.0000000  0.6508444  3
   8210   8208   8220   8222     1  0.0000000  0.6508444  3
   8211   8207   8214   8215     1  0.0000000  1.2552000  3
   8211   8207   8214   8216     1  0.0000000  1.2552000  3
   8211   8223   8229   8230     1  0.0000000  0.6508444  3
   8211   8223   8229   8231     1  0.0000000  0.6508444  3
   8212   8211   8207   8214     1  0.0000000  1.2552000  3
   8212   8211   8223   8229     1  0.0000000  0.6508444  3
   8212   8211   8223   8224     1  0.0000000  0.6508444  3
   8212   8211   8223   8225     1  0.0000000  0.6508444  3
   8213   8211   8207   8214     1  0.0000000  1.2552000  3
   8213   8211   8223   8229     1  0.0000000  0.6508444  3
   8213   8211   8223   8224     1  0.0000000  0.6508444  3
   8213   8211   8223   8225     1  0.0000000  0.6508444  3
   8214   8217   8226   8227     1  0.0000000  0.6508444  3
   8214   8217   8226   8228     1  0.0000000  0.6508444  3
   8215   8214   8217   8226     1  0.0000000  0.6508444  3
   8215   8214   8217   8218     1  0.0000000  0.6508444  3
   8215   8214   8217   8219     1  0.0000000  0.6508444  3
   8216   8214   8217   8226     1  0.0000000  0.6508444  3
   8216   8214   8217   8218     1  0.0000000  0.6508444  3
   8216   8214   8217   8219     1  0.0000000  0.6508444  3
   8218   8217   8226   8235     1  0.0000000  1.0460000  1
   8218   8217   8226   8235     1  0.0000000  0.0000000  3
   8218   8217   8226   8227     1  0.0000000  0.6508444  3
   8218   8217   8226   8228     1  0.0000000  0.6508444  3
   8219   8217   8226   8235     1  0.0000000  1.0460000  1
   8219   8217   8226   8235     1  0.0000000  0.0000000  3
   8219   8217   8226   8227     1  0.0000000  0.6508444  3
   8219   8217   8226   8228     1  0.0000000  0.6508444  3
   8221   8220   8232  15389     1  0.0000000  1.0460000  1
   8221   8220   8232  15389     1  0.0000000  0.0000000  3
   8221   8220   8232   8233     1  0.0000000  0.6508444  3
   8221   8220   8232   8234     1  0.0000000  0.6508444  3
   8222   8220   8232  15389     1  0.0000000  1.0460000  1
   8222   8220   8232  15389     1  0.0000000  0.0000000  3
   8222   8220   8232   8233     1  0.0000000  0.6508444  3
   8222   8220   8232   8234     1  0.0000000  0.6508444  3
   8224   8223   8229  15366     1  0.0000000  1.0460000  1
   8224   8223   8229  15366     1  0.0000000  0.0000000  3
   8224   8223   8229   8230     1  0.0000000  0.6508444  3
   8224   8223   8229   8231     1  0.0000000  0.6508444  3
   8225   8223   8229  15366     1  0.0000000  1.0460000  1
   8225   8223   8229  15366     1  0.0000000  0.0000000  3
   8225   8223   8229   8230     1  0.0000000  0.6508444  3
   8225   8223   8229   8231     1  0.0000000  0.6508444  3
   8229  15366  15362  15365     1  0.0000000  1.6038667  3
   8230   8229  15366  15362     1  0.0000000  1.6038667  3
   8231   8229  15366  15362     1  0.0000000  1.6038667  3
   8232  15389  15385  15388     1  0.0000000  1.6038667  3
   8233   8232  15389  15385     1  0.0000000  1.6038667  3
   8234   8232  15389  15385     1  0.0000000  1.6038667  3
   8236   8237   8249   8250     1  0.0000000  0.6508444  3
   8236   8237   8249   8251     1  0.0000000  0.6508444  3
   8236   8240   8252   8253     1  0.0000000  0.6508444  3
   8236   8240   8252   8254     1  0.0000000  0.6508444  3
   8236   8243   8246   8247     1  0.0000000  0.6508444  3
   8236   8243   8246   8248     1  0.0000000  0.6508444  3
   8237   8236   8240   8241     1  0.0000000  1.2552000  3
   8237   8236   8240   8242     1  0.0000000  1.2552000  3
   8237   8236   8243   8244     1  0.0000000  1.2552000  3
   8237   8236   8243   8245     1  0.0000000  1.2552000  3
   8237   8249   8261   8262     1  0.0000000  0.6508444  3
   8237   8249   8261   8263     1  0.0000000  0.6508444  3
   8238   8237   8236   8240     1  0.0000000  1.2552000  3
   8238   8237   8236   8243     1  0.0000000  1.2552000  3
   8238   8237   8249   8261     1  0.0000000  0.6508444  3
   8238   8237   8249   8250     1  0.0000000  0.6508444  3
   8238   8237   8249   8251     1  0.0000000  0.6508444  3
   8239   8237   8236   8240     1  0.0000000  1.2552000  3
   8239   8237   8236   8243     1  0.0000000  1.2552000  3
   8239   8237   8249   8261     1  0.0000000  0.6508444  3
   8239   8237   8249   8250     1  0.0000000  0.6508444  3
   8239   8237   8249   8251     1  0.0000000  0.6508444  3
   8240   8236   8243   8244     1  0.0000000  1.2552000  3
   8240   8236   8243   8245     1  0.0000000  1.2552000  3
   8240   8252   8258   8259     1  0.0000000  0.6508444  3
   8240   8252   8258   8260     1  0.0000000  0.6508444  3
   8241   8240   8236   8243     1  0.0000000  1.2552000  3
   8241   8240   8252   8258     1  0.0000000  0.6508444  3
   8241   8240   8252   8253     1  0.0000000  0.6508444  3
   8241   8240   8252   8254     1  0.0000000  0.6508444  3
   8242   8240   8236   8243     1  0.0000000  1.2552000  3
   8242   8240   8252   8258     1  0.0000000  0.6508444  3
   8242   8240   8252   8253     1  0.0000000  0.6508444  3
   8242   8240   8252   8254     1  0.0000000  0.6508444  3
   8243   8246   8255   8256     1  0.0000000  0.6508444  3
   8243   8246   8255   8257     1  0.0000000  0.6508444  3
   8244   8243   8246   8255     1  0.0000000  0.6508444  3
   8244   8243   8246   8247     1  0.0000000  0.6508444  3
   8244   8243   8246   8248     1  0.0000000  0.6508444  3
   8245   8243   8246   8255     1  0.0000000  0.6508444  3
   8245   8243   8246   8247     1  0.0000000  0.6508444  3
   8245   8243   8246   8248     1  0.0000000  0.6508444  3
   8247   8246   8255   8264     1  0.0000000  1.0460000  1
   8247   8246   8255   8264     1  0.0000000  0.0000000  3
   8247   8246   8255   8256     1  0.0000000  0.6508444  3
   8247   8246   8255   8257     1  0.0000000  0.6508444  3
   8248   8246   8255   8264     1  0.0000000  1.0460000  1
   8248   8246   8255   8264     1  0.0000000  0.0000000  3
   8248   8246   8255   8256     1  0.0000000  0.6508444  3
   8248   8246   8255   8257     1  0.0000000  0.6508444  3
   8250   8249   8261  15435     1  0.0000000  1.0460000  1
   8250   8249   8261  15435     1  0.0000000  0.0000000  3
   8250   8249   8261   8262     1  0.0000000  0.6508444  3
   8250   8249   8261   8263     1  0.0000000  0.6508444  3
   8251   8249   8261  15435     1  0.0000000  1.0460000  1
   8251   8249   8261  15435     1  0.0000000  0.0000000  3
   8251   8249   8261   8262     1  0.0000000  0.6508444  3
   8251   8249   8261   8263     1  0.0000000  0.6508444  3
   8253   8252   8258  15412     1  0.0000000  1.0460000  1
   8253   8252   8258  15412     1  0.0000000  0.0000000  3
   8253   8252   8258   8259     1  0.0000000  0.6508444  3
   8253   8252   8258   8260     1  0.0000000  0.6508444  3
   8254   8252   8258  15412     1  0.0000000  1.0460000  1
   8254   8252   8258  15412     1  0.0000000  0.0000000  3
   8254   8252   8258   8259     1  0.0000000  0.6508444  3
   8254   8252   8258   8260     1  0.0000000  0.6508444  3
   8258  15412  15408  15411     1  0.0000000  1.6038667  3
   8259   8258  15412  15408     1  0.0000000  1.6038667  3
   8260   8258  15412  15408     1  0.0000000  1.6038667  3
   8261  15435  15431  15434     1  0.0000000  1.6038667  3
   8262   8261  15435  15431     1  0.0000000  1.6038667  3
   8263   8261  15435  15431     1  0.0000000  1.6038667  3
   8265   8266   8278   8279     1  0.0000000  0.6508444  3
   8265   8266   8278   8280     1  0.0000000  0.6508444  3
   8265   8269   8281   8282     1  0.0000000  0.6508444  3
   8265   8269   8281   8283     1  0.0000000  0.6508444  3
   8265   8272   8275   8276     1  0.0000000  0.6508444  3
   8265   8272   8275   8277     1  0.0000000  0.6508444  3
   8266   8265   8269   8270     1  0.0000000  1.2552000  3
   8266   8265   8269   8271     1  0.0000000  1.2552000  3
   8266   8265   8272   8273     1  0.0000000  1.2552000  3
   8266   8265   8272   8274     1  0.0000000  1.2552000  3
   8266   8278   8290   8291     1  0.0000000  0.6508444  3
   8266   8278   8290   8292     1  0.0000000  0.6508444  3
   8267   8266   8265   8269     1  0.0000000  1.2552000  3
   8267   8266   8265   8272     1  0.0000000  1.2552000  3
   8267   8266   8278   8290     1  0.0000000  0.6508444  3
   8267   8266   8278   8279     1  0.0000000  0.6508444  3
   8267   8266   8278   8280     1  0.0000000  0.6508444  3
   8268   8266   8265   8269     1  0.0000000  1.2552000  3
   8268   8266   8265   8272     1  0.0000000  1.2552000  3
   8268   8266   8278   8290     1  0.0000000  0.6508444  3
   8268   8266   8278   8279     1  0.0000000  0.6508444  3
   8268   8266   8278   8280     1  0.0000000  0.6508444  3
   8269   8265   8272   8273     1  0.0000000  1.2552000  3
   8269   8265   8272   8274     1  0.0000000  1.2552000  3
   8269   8281   8287   8288     1  0.0000000  0.6508444  3
   8269   8281   8287   8289     1  0.0000000  0.6508444  3
   8270   8269   8265   8272     1  0.0000000  1.2552000  3
   8270   8269   8281   8287     1  0.0000000  0.6508444  3
   8270   8269   8281   8282     1  0.0000000  0.6508444  3
   8270   8269   8281   8283     1  0.0000000  0.6508444  3
   8271   8269   8265   8272     1  0.0000000  1.2552000  3
   8271   8269   8281   8287     1  0.0000000  0.6508444  3
   8271   8269   8281   8282     1  0.0000000  0.6508444  3
   8271   8269   8281   8283     1  0.0000000  0.6508444  3
   8272   8275   8284   8285     1  0.0000000  0.6508444  3
   8272   8275   8284   8286     1  0.0000000  0.6508444  3
   8273   8272   8275   8284     1  0.0000000  0.6508444  3
   8273   8272   8275   8276     1  0.0000000  0.6508444  3
   8273   8272   8275   8277     1  0.0000000  0.6508444  3
   8274   8272   8275   8284     1  0.0000000  0.6508444  3
   8274   8272   8275   8276     1  0.0000000  0.6508444  3
   8274   8272   8275   8277     1  0.0000000  0.6508444  3
   8276   8275   8284   8293     1  0.0000000  1.0460000  1
   8276   8275   8284   8293     1  0.0000000  0.0000000  3
   8276   8275   8284   8285     1  0.0000000  0.6508444  3
   8276   8275   8284   8286     1  0.0000000  0.6508444  3
   8277   8275   8284   8293     1  0.0000000  1.0460000  1
   8277   8275   8284   8293     1  0.0000000  0.0000000  3
   8277   8275   8284   8285     1  0.0000000  0.6508444  3
   8277   8275   8284   8286     1  0.0000000  0.6508444  3
   8279   8278   8290  15481     1  0.0000000  1.0460000  1
   8279   8278   8290  15481     1  0.0000000  0.0000000  3
   8279   8278   8290   8291     1  0.0000000  0.6508444  3
   8279   8278   8290   8292     1  0.0000000  0.6508444  3
   8280   8278   8290  15481     1  0.0000000  1.0460000  1
   8280   8278   8290  15481     1  0.0000000  0.0000000  3
   8280   8278   8290   8291     1  0.0000000  0.6508444  3
   8280   8278   8290   8292     1  0.0000000  0.6508444  3
   8282   8281   8287  15458     1  0.0000000  1.0460000  1
   8282   8281   8287  15458     1  0.0000000  0.0000000  3
   8282   8281   8287   8288     1  0.0000000  0.6508444  3
   8282   8281   8287   8289     1  0.0000000  0.6508444  3
   8283   8281   8287  15458     1  0.0000000  1.0460000  1
   8283   8281   8287  15458     1  0.0000000  0.0000000  3
   8283   8281   8287   8288     1  0.0000000  0.6508444  3
   8283   8281   8287   8289     1  0.0000000  0.6508444  3
   8287  15458  15454  15457     1  0.0000000  1.6038667  3
   8288   8287  15458  15454     1  0.0000000  1.6038667  3
   8289   8287  15458  15454     1  0.0000000  1.6038667  3
   8290  15481  15477  15480     1  0.0000000  1.6038667  3
   8291   8290  15481  15477     1  0.0000000  1.6038667  3
   8292   8290  15481  15477     1  0.0000000  1.6038667  3
   8294   8295   8307   8308     1  0.0000000  0.6508444  3
   8294   8295   8307   8309     1  0.0000000  0.6508444  3
   8294   8298   8310   8311     1  0.0000000  0.6508444  3
   8294   8298   8310   8312     1  0.0000000  0.6508444  3
   8294   8301   8304   8305     1  0.0000000  0.6508444  3
   8294   8301   8304   8306     1  0.0000000  0.6508444  3
   8295   8294   8298   8299     1  0.0000000  1.2552000  3
   8295   8294   8298   8300     1  0.0000000  1.2552000  3
   8295   8294   8301   8302     1  0.0000000  1.2552000  3
   8295   8294   8301   8303     1  0.0000000  1.2552000  3
   8295   8307   8319   8320     1  0.0000000  0.6508444  3
   8295   8307   8319   8321     1  0.0000000  0.6508444  3
   8296   8295   8294   8298     1  0.0000000  1.2552000  3
   8296   8295   8294   8301     1  0.0000000  1.2552000  3
   8296   8295   8307   8319     1  0.0000000  0.6508444  3
   8296   8295   8307   8308     1  0.0000000  0.6508444  3
   8296   8295   8307   8309     1  0.0000000  0.6508444  3
   8297   8295   8294   8298     1  0.0000000  1.2552000  3
   8297   8295   8294   8301     1  0.0000000  1.2552000  3
   8297   8295   8307   8319     1  0.0000000  0.6508444  3
   8297   8295   8307   8308     1  0.0000000  0.6508444  3
   8297   8295   8307   8309     1  0.0000000  0.6508444  3
   8298   8294   8301   8302     1  0.0000000  1.2552000  3
   8298   8294   8301   8303     1  0.0000000  1.2552000  3
   8298   8310   8316   8317     1  0.0000000  0.6508444  3
   8298   8310   8316   8318     1  0.0000000  0.6508444  3
   8299   8298   8294   8301     1  0.0000000  1.2552000  3
   8299   8298   8310   8316     1  0.0000000  0.6508444  3
   8299   8298   8310   8311     1  0.0000000  0.6508444  3
   8299   8298   8310   8312     1  0.0000000  0.6508444  3
   8300   8298   8294   8301     1  0.0000000  1.2552000  3
   8300   8298   8310   8316     1  0.0000000  0.6508444  3
   8300   8298   8310   8311     1  0.0000000  0.6508444  3
   8300   8298   8310   8312     1  0.0000000  0.6508444  3
   8301   8304   8313   8314     1  0.0000000  0.6508444  3
   8301   8304   8313   8315     1  0.0000000  0.6508444  3
   8302   8301   8304   8313     1  0.0000000  0.6508444  3
   8302   8301   8304   8305     1  0.0000000  0.6508444  3
   8302   8301   8304   8306     1  0.0000000  0.6508444  3
   8303   8301   8304   8313     1  0.0000000  0.6508444  3
   8303   8301   8304   8305     1  0.0000000  0.6508444  3
   8303   8301   8304   8306     1  0.0000000  0.6508444  3
   8305   8304   8313   8322     1  0.0000000  1.0460000  1
   8305   8304   8313   8322     1  0.0000000  0.0000000  3
   8305   8304   8313   8314     1  0.0000000  0.6508444  3
   8305   8304   8313   8315     1  0.0000000  0.6508444  3
   8306   8304   8313   8322     1  0.0000000  1.0460000  1
   8306   8304   8313   8322     1  0.0000000  0.0000000  3
   8306   8304   8313   8314     1  0.0000000  0.6508444  3
   8306   8304   8313   8315     1  0.0000000  0.6508444  3
   8308   8307   8319  15527     1  0.0000000  1.0460000  1
   8308   8307   8319  15527     1  0.0000000  0.0000000  3
   8308   8307   8319   8320     1  0.0000000  0.6508444  3
   8308   8307   8319   8321     1  0.0000000  0.6508444  3
   8309   8307   8319  15527     1  0.0000000  1.0460000  1
   8309   8307   8319  15527     1  0.0000000  0.0000000  3
   8309   8307   8319   8320     1  0.0000000  0.6508444  3
   8309   8307   8319   8321     1  0.0000000  0.6508444  3
   8311   8310   8316  15504     1  0.0000000  1.0460000  1
   8311   8310   8316  15504     1  0.0000000  0.0000000  3
   8311   8310   8316   8317     1  0.0000000  0.6508444  3
   8311   8310   8316   8318     1  0.0000000  0.6508444  3
   8312   8310   8316  15504     1  0.0000000  1.0460000  1
   8312   8310   8316  15504     1  0.0000000  0.0000000  3
   8312   8310   8316   8317     1  0.0000000  0.6508444  3
   8312   8310   8316   8318     1  0.0000000  0.6508444  3
   8316  15504  15500  15503     1  0.0000000  1.6038667  3
   8317   8316  15504  15500     1  0.0000000  1.6038667  3
   8318   8316  15504  15500     1  0.0000000  1.6038667  3
   8319  15527  15523  15526     1  0.0000000  1.6038667  3
   8320   8319  15527  15523     1  0.0000000  1.6038667  3
   8321   8319  15527  15523     1  0.0000000  1.6038667  3
   8323   8324   8336   8337     1  0.0000000  0.6508444  3
   8323   8324   8336   8338     1  0.0000000  0.6508444  3
   8323   8327   8339   8340     1  0.0000000  0.6508444  3
   8323   8327   8339   8341     1  0.0000000  0.6508444  3
   8323   8330   8333   8334     1  0.0000000  0.6508444  3
   8323   8330   8333   8335     1  0.0000000  0.6508444  3
   8324   8323   8327   8328     1  0.0000000  1.2552000  3
   8324   8323   8327   8329     1  0.0000000  1.2552000  3
   8324   8323   8330   8331     1  0.0000000  1.2552000  3
   8324   8323   8330   8332     1  0.0000000  1.2552000  3
   8324   8336   8348   8349     1  0.0000000  0.6508444  3
   8324   8336   8348   8350     1  0.0000000  0.6508444  3
   8325   8324   8323   8327     1  0.0000000  1.2552000  3
   8325   8324   8323   8330     1  0.0000000  1.2552000  3
   8325   8324   8336   8348     1  0.0000000  0.6508444  3
   8325   8324   8336   8337     1  0.0000000  0.6508444  3
   8325   8324   8336   8338     1  0.0000000  0.6508444  3
   8326   8324   8323   8327     1  0.0000000  1.2552000  3
   8326   8324   8323   8330     1  0.0000000  1.2552000  3
   8326   8324   8336   8348     1  0.0000000  0.6508444  3
   8326   8324   8336   8337     1  0.0000000  0.6508444  3
   8326   8324   8336   8338     1  0.0000000  0.6508444  3
   8327   8323   8330   8331     1  0.0000000  1.2552000  3
   8327   8323   8330   8332     1  0.0000000  1.2552000  3
   8327   8339   8345   8346     1  0.0000000  0.6508444  3
   8327   8339   8345   8347     1  0.0000000  0.6508444  3
   8328   8327   8323   8330     1  0.0000000  1.2552000  3
   8328   8327   8339   8345     1  0.0000000  0.6508444  3
   8328   8327   8339   8340     1  0.0000000  0.6508444  3
   8328   8327   8339   8341     1  0.0000000  0.6508444  3
   8329   8327   8323   8330     1  0.0000000  1.2552000  3
   8329   8327   8339   8345     1  0.0000000  0.6508444  3
   8329   8327   8339   8340     1  0.0000000  0.6508444  3
   8329   8327   8339   8341     1  0.0000000  0.6508444  3
   8330   8333   8342   8343     1  0.0000000  0.6508444  3
   8330   8333   8342   8344     1  0.0000000  0.6508444  3
   8331   8330   8333   8342     1  0.0000000  0.6508444  3
   8331   8330   8333   8334     1  0.0000000  0.6508444  3
   8331   8330   8333   8335     1  0.0000000  0.6508444  3
   8332   8330   8333   8342     1  0.0000000  0.6508444  3
   8332   8330   8333   8334     1  0.0000000  0.6508444  3
   8332   8330   8333   8335     1  0.0000000  0.6508444  3
   8334   8333   8342   8351     1  0.0000000  1.0460000  1
   8334   8333   8342   8351     1  0.0000000  0.0000000  3
   8334   8333   8342   8343     1  0.0000000  0.6508444  3
   8334   8333   8342   8344     1  0.0000000  0.6508444  3
   8335   8333   8342   8351     1  0.0000000  1.0460000  1
   8335   8333   8342   8351     1  0.0000000  0.0000000  3
   8335   8333   8342   8343     1  0.0000000  0.6508444  3
   8335   8333   8342   8344     1  0.0000000  0.6508444  3
   8337   8336   8348  15573     1  0.0000000  1.0460000  1
   8337   8336   8348  15573     1  0.0000000  0.0000000  3
   8337   8336   8348   8349     1  0.0000000  0.6508444  3
   8337   8336   8348   8350     1  0.0000000  0.6508444  3
   8338   8336   8348  15573     1  0.0000000  1.0460000  1
   8338   8336   8348  15573     1  0.0000000  0.0000000  3
   8338   8336   8348   8349     1  0.0000000  0.6508444  3
   8338   8336   8348   8350     1  0.0000000  0.6508444  3
   8340   8339   8345  15550     1  0.0000000  1.0460000  1
   8340   8339   8345  15550     1  0.0000000  0.0000000  3
   8340   8339   8345   8346     1  0.0000000  0.6508444  3
   8340   8339   8345   8347     1  0.0000000  0.6508444  3
   8341   8339   8345  15550     1  0.0000000  1.0460000  1
   8341   8339   8345  15550     1  0.0000000  0.0000000  3
   8341   8339   8345   8346     1  0.0000000  0.6508444  3
   8341   8339   8345   8347     1  0.0000000  0.6508444  3
   8345  15550  15546  15549     1  0.0000000  1.6038667  3
   8346   8345  15550  15546     1  0.0000000  1.6038667  3
   8347   8345  15550  15546     1  0.0000000  1.6038667  3
   8348  15573  15569  15572     1  0.0000000  1.6038667  3
   8349   8348  15573  15569     1  0.0000000  1.6038667  3
   8350   8348  15573  15569     1  0.0000000  1.6038667  3
   8352   8353   8365   8366     1  0.0000000  0.6508444  3
   8352   8353   8365   8367     1  0.0000000  0.6508444  3
   8352   8356   8368   8369     1  0.0000000  0.6508444  3
   8352   8356   8368   8370     1  0.0000000  0.6508444  3
   8352   8359   8362   8363     1  0.0000000  0.6508444  3
   8352   8359   8362   8364     1  0.0000000  0.6508444  3
   8353   8352   8356   8357     1  0.0000000  1.2552000  3
   8353   8352   8356   8358     1  0.0000000  1.2552000  3
   8353   8352   8359   8360     1  0.0000000  1.2552000  3
   8353   8352   8359   8361     1  0.0000000  1.2552000  3
   8353   8365   8377   8378     1  0.0000000  0.6508444  3
   8353   8365   8377   8379     1  0.0000000  0.6508444  3
   8354   8353   8352   8356     1  0.0000000  1.2552000  3
   8354   8353   8352   8359     1  0.0000000  1.2552000  3
   8354   8353   8365   8377     1  0.0000000  0.6508444  3
   8354   8353   8365   8366     1  0.0000000  0.6508444  3
   8354   8353   8365   8367     1  0.0000000  0.6508444  3
   8355   8353   8352   8356     1  0.0000000  1.2552000  3
   8355   8353   8352   8359     1  0.0000000  1.2552000  3
   8355   8353   8365   8377     1  0.0000000  0.6508444  3
   8355   8353   8365   8366     1  0.0000000  0.6508444  3
   8355   8353   8365   8367     1  0.0000000  0.6508444  3
   8356   8352   8359   8360     1  0.0000000  1.2552000  3
   8356   8352   8359   8361     1  0.0000000  1.2552000  3
   8356   8368   8374   8375     1  0.0000000  0.6508444  3
   8356   8368   8374   8376     1  0.0000000  0.6508444  3
   8357   8356   8352   8359     1  0.0000000  1.2552000  3
   8357   8356   8368   8374     1  0.0000000  0.6508444  3
   8357   8356   8368   8369     1  0.0000000  0.6508444  3
   8357   8356   8368   8370     1  0.0000000  0.6508444  3
   8358   8356   8352   8359     1  0.0000000  1.2552000  3
   8358   8356   8368   8374     1  0.0000000  0.6508444  3
   8358   8356   8368   8369     1  0.0000000  0.6508444  3
   8358   8356   8368   8370     1  0.0000000  0.6508444  3
   8359   8362   8371   8372     1  0.0000000  0.6508444  3
   8359   8362   8371   8373     1  0.0000000  0.6508444  3
   8360   8359   8362   8371     1  0.0000000  0.6508444  3
   8360   8359   8362   8363     1  0.0000000  0.6508444  3
   8360   8359   8362   8364     1  0.0000000  0.6508444  3
   8361   8359   8362   8371     1  0.0000000  0.6508444  3
   8361   8359   8362   8363     1  0.0000000  0.6508444  3
   8361   8359   8362   8364     1  0.0000000  0.6508444  3
   8363   8362   8371   8380     1  0.0000000  1.0460000  1
   8363   8362   8371   8380     1  0.0000000  0.0000000  3
   8363   8362   8371   8372     1  0.0000000  0.6508444  3
   8363   8362   8371   8373     1  0.0000000  0.6508444  3
   8364   8362   8371   8380     1  0.0000000  1.0460000  1
   8364   8362   8371   8380     1  0.0000000  0.0000000  3
   8364   8362   8371   8372     1  0.0000000  0.6508444  3
   8364   8362   8371   8373     1  0.0000000  0.6508444  3
   8366   8365   8377  15619     1  0.0000000  1.0460000  1
   8366   8365   8377  15619     1  0.0000000  0.0000000  3
   8366   8365   8377   8378     1  0.0000000  0.6508444  3
   8366   8365   8377   8379     1  0.0000000  0.6508444  3
   8367   8365   8377  15619     1  0.0000000  1.0460000  1
   8367   8365   8377  15619     1  0.0000000  0.0000000  3
   8367   8365   8377   8378     1  0.0000000  0.6508444  3
   8367   8365   8377   8379     1  0.0000000  0.6508444  3
   8369   8368   8374  15596     1  0.0000000  1.0460000  1
   8369   8368   8374  15596     1  0.0000000  0.0000000  3
   8369   8368   8374   8375     1  0.0000000  0.6508444  3
   8369   8368   8374   8376     1  0.0000000  0.6508444  3
   8370   8368   8374  15596     1  0.0000000  1.0460000  1
   8370   8368   8374  15596     1  0.0000000  0.0000000  3
   8370   8368   8374   8375     1  0.0000000  0.6508444  3
   8370   8368   8374   8376     1  0.0000000  0.6508444  3
   8374  15596  15592  15595     1  0.0000000  1.6038667  3
   8375   8374  15596  15592     1  0.0000000  1.6038667  3
   8376   8374  15596  15592     1  0.0000000  1.6038667  3
   8377  15619  15615  15618     1  0.0000000  1.6038667  3
   8378   8377  15619  15615     1  0.0000000  1.6038667  3
   8379   8377  15619  15615     1  0.0000000  1.6038667  3
   8381   8382   8394   8395     1  0.0000000  0.6508444  3
   8381   8382   8394   8396     1  0.0000000  0.6508444  3
   8381   8385   8397   8398     1  0.0000000  0.6508444  3
   8381   8385   8397   8399     1  0.0000000  0.6508444  3
   8381   8388   8391   8392     1  0.0000000  0.6508444  3
   8381   8388   8391   8393     1  0.0000000  0.6508444  3
   8382   8381   8385   8386     1  0.0000000  1.2552000  3
   8382   8381   8385   8387     1  0.0000000  1.2552000  3
   8382   8381   8388   8389     1  0.0000000  1.2552000  3
   8382   8381   8388   8390     1  0.0000000  1.2552000  3
   8382   8394   8406   8407     1  0.0000000  0.6508444  3
   8382   8394   8406   8408     1  0.0000000  0.6508444  3
   8383   8382   8381   8385     1  0.0000000  1.2552000  3
   8383   8382   8381   8388     1  0.0000000  1.2552000  3
   8383   8382   8394   8406     1  0.0000000  0.6508444  3
   8383   8382   8394   8395     1  0.0000000  0.6508444  3
   8383   8382   8394   8396     1  0.0000000  0.6508444  3
   8384   8382   8381   8385     1  0.0000000  1.2552000  3
   8384   8382   8381   8388     1  0.0000000  1.2552000  3
   8384   8382   8394   8406     1  0.0000000  0.6508444  3
   8384   8382   8394   8395     1  0.0000000  0.6508444  3
   8384   8382   8394   8396     1  0.0000000  0.6508444  3
   8385   8381   8388   8389     1  0.0000000  1.2552000  3
   8385   8381   8388   8390     1  0.0000000  1.2552000  3
   8385   8397   8403   8404     1  0.0000000  0.6508444  3
   8385   8397   8403   8405     1  0.0000000  0.6508444  3
   8386   8385   8381   8388     1  0.0000000  1.2552000  3
   8386   8385   8397   8403     1  0.0000000  0.6508444  3
   8386   8385   8397   8398     1  0.0000000  0.6508444  3
   8386   8385   8397   8399     1  0.0000000  0.6508444  3
   8387   8385   8381   8388     1  0.0000000  1.2552000  3
   8387   8385   8397   8403     1  0.0000000  0.6508444  3
   8387   8385   8397   8398     1  0.0000000  0.6508444  3
   8387   8385   8397   8399     1  0.0000000  0.6508444  3
   8388   8391   8400   8401     1  0.0000000  0.6508444  3
   8388   8391   8400   8402     1  0.0000000  0.6508444  3
   8389   8388   8391   8400     1  0.0000000  0.6508444  3
   8389   8388   8391   8392     1  0.0000000  0.6508444  3
   8389   8388   8391   8393     1  0.0000000  0.6508444  3
   8390   8388   8391   8400     1  0.0000000  0.6508444  3
   8390   8388   8391   8392     1  0.0000000  0.6508444  3
   8390   8388   8391   8393     1  0.0000000  0.6508444  3
   8392   8391   8400   8409     1  0.0000000  1.0460000  1
   8392   8391   8400   8409     1  0.0000000  0.0000000  3
   8392   8391   8400   8401     1  0.0000000  0.6508444  3
   8392   8391   8400   8402     1  0.0000000  0.6508444  3
   8393   8391   8400   8409     1  0.0000000  1.0460000  1
   8393   8391   8400   8409     1  0.0000000  0.0000000  3
   8393   8391   8400   8401     1  0.0000000  0.6508444  3
   8393   8391   8400   8402     1  0.0000000  0.6508444  3
   8395   8394   8406  15665     1  0.0000000  1.0460000  1
   8395   8394   8406  15665     1  0.0000000  0.0000000  3
   8395   8394   8406   8407     1  0.0000000  0.6508444  3
   8395   8394   8406   8408     1  0.0000000  0.6508444  3
   8396   8394   8406  15665     1  0.0000000  1.0460000  1
   8396   8394   8406  15665     1  0.0000000  0.0000000  3
   8396   8394   8406   8407     1  0.0000000  0.6508444  3
   8396   8394   8406   8408     1  0.0000000  0.6508444  3
   8398   8397   8403  15642     1  0.0000000  1.0460000  1
   8398   8397   8403  15642     1  0.0000000  0.0000000  3
   8398   8397   8403   8404     1  0.0000000  0.6508444  3
   8398   8397   8403   8405     1  0.0000000  0.6508444  3
   8399   8397   8403  15642     1  0.0000000  1.0460000  1
   8399   8397   8403  15642     1  0.0000000  0.0000000  3
   8399   8397   8403   8404     1  0.0000000  0.6508444  3
   8399   8397   8403   8405     1  0.0000000  0.6508444  3
   8403  15642  15638  15641     1  0.0000000  1.6038667  3
   8404   8403  15642  15638     1  0.0000000  1.6038667  3
   8405   8403  15642  15638     1  0.0000000  1.6038667  3
   8406  15665  15661  15664     1  0.0000000  1.6038667  3
   8407   8406  15665  15661     1  0.0000000  1.6038667  3
   8408   8406  15665  15661     1  0.0000000  1.6038667  3
   8410   8411   8423   8424     1  0.0000000  0.6508444  3
   8410   8411   8423   8425     1  0.0000000  0.6508444  3
   8410   8414   8426   8427     1  0.0000000  0.6508444  3
   8410   8414   8426   8428     1  0.0000000  0.6508444  3
   8410   8417   8420   8421     1  0.0000000  0.6508444  3
   8410   8417   8420   8422     1  0.0000000  0.6508444  3
   8411   8410   8414   8415     1  0.0000000  1.2552000  3
   8411   8410   8414   8416     1  0.0000000  1.2552000  3
   8411   8410   8417   8418     1  0.0000000  1.2552000  3
   8411   8410   8417   8419     1  0.0000000  1.2552000  3
   8411   8423   8435   8436     1  0.0000000  0.6508444  3
   8411   8423   8435   8437     1  0.0000000  0.6508444  3
   8412   8411   8410   8414     1  0.0000000  1.2552000  3
   8412   8411   8410   8417     1  0.0000000  1.2552000  3
   8412   8411   8423   8435     1  0.0000000  0.6508444  3
   8412   8411   8423   8424     1  0.0000000  0.6508444  3
   8412   8411   8423   8425     1  0.0000000  0.6508444  3
   8413   8411   8410   8414     1  0.0000000  1.2552000  3
   8413   8411   8410   8417     1  0.0000000  1.2552000  3
   8413   8411   8423   8435     1  0.0000000  0.6508444  3
   8413   8411   8423   8424     1  0.0000000  0.6508444  3
   8413   8411   8423   8425     1  0.0000000  0.6508444  3
   8414   8410   8417   8418     1  0.0000000  1.2552000  3
   8414   8410   8417   8419     1  0.0000000  1.2552000  3
   8414   8426   8432   8433     1  0.0000000  0.6508444  3
   8414   8426   8432   8434     1  0.0000000  0.6508444  3
   8415   8414   8410   8417     1  0.0000000  1.2552000  3
   8415   8414   8426   8432     1  0.0000000  0.6508444  3
   8415   8414   8426   8427     1  0.0000000  0.6508444  3
   8415   8414   8426   8428     1  0.0000000  0.6508444  3
   8416   8414   8410   8417     1  0.0000000  1.2552000  3
   8416   8414   8426   8432     1  0.0000000  0.6508444  3
   8416   8414   8426   8427     1  0.0000000  0.6508444  3
   8416   8414   8426   8428     1  0.0000000  0.6508444  3
   8417   8420   8429   8430     1  0.0000000  0.6508444  3
   8417   8420   8429   8431     1  0.0000000  0.6508444  3
   8418   8417   8420   8429     1  0.0000000  0.6508444  3
   8418   8417   8420   8421     1  0.0000000  0.6508444  3
   8418   8417   8420   8422     1  0.0000000  0.6508444  3
   8419   8417   8420   8429     1  0.0000000  0.6508444  3
   8419   8417   8420   8421     1  0.0000000  0.6508444  3
   8419   8417   8420   8422     1  0.0000000  0.6508444  3
   8421   8420   8429   8438     1  0.0000000  1.0460000  1
   8421   8420   8429   8438     1  0.0000000  0.0000000  3
   8421   8420   8429   8430     1  0.0000000  0.6508444  3
   8421   8420   8429   8431     1  0.0000000  0.6508444  3
   8422   8420   8429   8438     1  0.0000000  1.0460000  1
   8422   8420   8429   8438     1  0.0000000  0.0000000  3
   8422   8420   8429   8430     1  0.0000000  0.6508444  3
   8422   8420   8429   8431     1  0.0000000  0.6508444  3
   8424   8423   8435  15711     1  0.0000000  1.0460000  1
   8424   8423   8435  15711     1  0.0000000  0.0000000  3
   8424   8423   8435   8436     1  0.0000000  0.6508444  3
   8424   8423   8435   8437     1  0.0000000  0.6508444  3
   8425   8423   8435  15711     1  0.0000000  1.0460000  1
   8425   8423   8435  15711     1  0.0000000  0.0000000  3
   8425   8423   8435   8436     1  0.0000000  0.6508444  3
   8425   8423   8435   8437     1  0.0000000  0.6508444  3
   8427   8426   8432  15688     1  0.0000000  1.0460000  1
   8427   8426   8432  15688     1  0.0000000  0.0000000  3
   8427   8426   8432   8433     1  0.0000000  0.6508444  3
   8427   8426   8432   8434     1  0.0000000  0.6508444  3
   8428   8426   8432  15688     1  0.0000000  1.0460000  1
   8428   8426   8432  15688     1  0.0000000  0.0000000  3
   8428   8426   8432   8433     1  0.0000000  0.6508444  3
   8428   8426   8432   8434     1  0.0000000  0.6508444  3
   8432  15688  15684  15687     1  0.0000000  1.6038667  3
   8433   8432  15688  15684     1  0.0000000  1.6038667  3
   8434   8432  15688  15684     1  0.0000000  1.6038667  3
   8435  15711  15707  15710     1  0.0000000  1.6038667  3
   8436   8435  15711  15707     1  0.0000000  1.6038667  3
   8437   8435  15711  15707     1  0.0000000  1.6038667  3
   8439   8440   8452   8453     1  0.0000000  0.6508444  3
   8439   8440   8452   8454     1  0.0000000  0.6508444  3
   8439   8443   8455   8456     1  0.0000000  0.6508444  3
   8439   8443   8455   8457     1  0.0000000  0.6508444  3
   8439   8446   8449   8450     1  0.0000000  0.6508444  3
   8439   8446   8449   8451     1  0.0000000  0.6508444  3
   8440   8439   8443   8444     1  0.0000000  1.2552000  3
   8440   8439   8443   8445     1  0.0000000  1.2552000  3
   8440   8439   8446   8447     1  0.0000000  1.2552000  3
   8440   8439   8446   8448     1  0.0000000  1.2552000  3
   8440   8452   8464   8465     1  0.0000000  0.6508444  3
   8440   8452   8464   8466     1  0.0000000  0.6508444  3
   8441   8440   8439   8443     1  0.0000000  1.2552000  3
   8441   8440   8439   8446     1  0.0000000  1.2552000  3
   8441   8440   8452   8464     1  0.0000000  0.6508444  3
   8441   8440   8452   8453     1  0.0000000  0.6508444  3
   8441   8440   8452   8454     1  0.0000000  0.6508444  3
   8442   8440   8439   8443     1  0.0000000  1.2552000  3
   8442   8440   8439   8446     1  0.0000000  1.2552000  3
   8442   8440   8452   8464     1  0.0000000  0.6508444  3
   8442   8440   8452   8453     1  0.0000000  0.6508444  3
   8442   8440   8452   8454     1  0.0000000  0.6508444  3
   8443   8439   8446   8447     1  0.0000000  1.2552000  3
   8443   8439   8446   8448     1  0.0000000  1.2552000  3
   8443   8455   8461   8462     1  0.0000000  0.6508444  3
   8443   8455   8461   8463     1  0.0000000  0.6508444  3
   8444   8443   8439   8446     1  0.0000000  1.2552000  3
   8444   8443   8455   8461     1  0.0000000  0.6508444  3
   8444   8443   8455   8456     1  0.0000000  0.6508444  3
   8444   8443   8455   8457     1  0.0000000  0.6508444  3
   8445   8443   8439   8446     1  0.0000000  1.2552000  3
   8445   8443   8455   8461     1  0.0000000  0.6508444  3
   8445   8443   8455   8456     1  0.0000000  0.6508444  3
   8445   8443   8455   8457     1  0.0000000  0.6508444  3
   8446   8449   8458   8459     1  0.0000000  0.6508444  3
   8446   8449   8458   8460     1  0.0000000  0.6508444  3
   8447   8446   8449   8458     1  0.0000000  0.6508444  3
   8447   8446   8449   8450     1  0.0000000  0.6508444  3
   8447   8446   8449   8451     1  0.0000000  0.6508444  3
   8448   8446   8449   8458     1  0.0000000  0.6508444  3
   8448   8446   8449   8450     1  0.0000000  0.6508444  3
   8448   8446   8449   8451     1  0.0000000  0.6508444  3
   8450   8449   8458   8467     1  0.0000000  1.0460000  1
   8450   8449   8458   8467     1  0.0000000  0.0000000  3
   8450   8449   8458   8459     1  0.0000000  0.6508444  3
   8450   8449   8458   8460     1  0.0000000  0.6508444  3
   8451   8449   8458   8467     1  0.0000000  1.0460000  1
   8451   8449   8458   8467     1  0.0000000  0.0000000  3
   8451   8449   8458   8459     1  0.0000000  0.6508444  3
   8451   8449   8458   8460     1  0.0000000  0.6508444  3
   8453   8452   8464  15757     1  0.0000000  1.0460000  1
   8453   8452   8464  15757     1  0.0000000  0.0000000  3
   8453   8452   8464   8465     1  0.0000000  0.6508444  3
   8453   8452   8464   8466     1  0.0000000  0.6508444  3
   8454   8452   8464  15757     1  0.0000000  1.0460000  1
   8454   8452   8464  15757     1  0.0000000  0.0000000  3
   8454   8452   8464   8465     1  0.0000000  0.6508444  3
   8454   8452   8464   8466     1  0.0000000  0.6508444  3
   8456   8455   8461  15734     1  0.0000000  1.0460000  1
   8456   8455   8461  15734     1  0.0000000  0.0000000  3
   8456   8455   8461   8462     1  0.0000000  0.6508444  3
   8456   8455   8461   8463     1  0.0000000  0.6508444  3
   8457   8455   8461  15734     1  0.0000000  1.0460000  1
   8457   8455   8461  15734     1  0.0000000  0.0000000  3
   8457   8455   8461   8462     1  0.0000000  0.6508444  3
   8457   8455   8461   8463     1  0.0000000  0.6508444  3
   8461  15734  15730  15733     1  0.0000000  1.6038667  3
   8462   8461  15734  15730     1  0.0000000  1.6038667  3
   8463   8461  15734  15730     1  0.0000000  1.6038667  3
   8464  15757  15753  15756     1  0.0000000  1.6038667  3
   8465   8464  15757  15753     1  0.0000000  1.6038667  3
   8466   8464  15757  15753     1  0.0000000  1.6038667  3
   8468   8469   8481   8482     1  0.0000000  0.6508444  3
   8468   8469   8481   8483     1  0.0000000  0.6508444  3
   8468   8472   8484   8485     1  0.0000000  0.6508444  3
   8468   8472   8484   8486     1  0.0000000  0.6508444  3
   8468   8475   8478   8479     1  0.0000000  0.6508444  3
   8468   8475   8478   8480     1  0.0000000  0.6508444  3
   8469   8468   8472   8473     1  0.0000000  1.2552000  3
   8469   8468   8472   8474     1  0.0000000  1.2552000  3
   8469   8468   8475   8476     1  0.0000000  1.2552000  3
   8469   8468   8475   8477     1  0.0000000  1.2552000  3
   8469   8481   8493   8494     1  0.0000000  0.6508444  3
   8469   8481   8493   8495     1  0.0000000  0.6508444  3
   8470   8469   8468   8472     1  0.0000000  1.2552000  3
   8470   8469   8468   8475     1  0.0000000  1.2552000  3
   8470   8469   8481   8493     1  0.0000000  0.6508444  3
   8470   8469   8481   8482     1  0.0000000  0.6508444  3
   8470   8469   8481   8483     1  0.0000000  0.6508444  3
   8471   8469   8468   8472     1  0.0000000  1.2552000  3
   8471   8469   8468   8475     1  0.0000000  1.2552000  3
   8471   8469   8481   8493     1  0.0000000  0.6508444  3
   8471   8469   8481   8482     1  0.0000000  0.6508444  3
   8471   8469   8481   8483     1  0.0000000  0.6508444  3
   8472   8468   8475   8476     1  0.0000000  1.2552000  3
   8472   8468   8475   8477     1  0.0000000  1.2552000  3
   8472   8484   8490   8491     1  0.0000000  0.6508444  3
   8472   8484   8490   8492     1  0.0000000  0.6508444  3
   8473   8472   8468   8475     1  0.0000000  1.2552000  3
   8473   8472   8484   8490     1  0.0000000  0.6508444  3
   8473   8472   8484   8485     1  0.0000000  0.6508444  3
   8473   8472   8484   8486     1  0.0000000  0.6508444  3
   8474   8472   8468   8475     1  0.0000000  1.2552000  3
   8474   8472   8484   8490     1  0.0000000  0.6508444  3
   8474   8472   8484   8485     1  0.0000000  0.6508444  3
   8474   8472   8484   8486     1  0.0000000  0.6508444  3
   8475   8478   8487   8488     1  0.0000000  0.6508444  3
   8475   8478   8487   8489     1  0.0000000  0.6508444  3
   8476   8475   8478   8487     1  0.0000000  0.6508444  3
   8476   8475   8478   8479     1  0.0000000  0.6508444  3
   8476   8475   8478   8480     1  0.0000000  0.6508444  3
   8477   8475   8478   8487     1  0.0000000  0.6508444  3
   8477   8475   8478   8479     1  0.0000000  0.6508444  3
   8477   8475   8478   8480     1  0.0000000  0.6508444  3
   8479   8478   8487   8496     1  0.0000000  1.0460000  1
   8479   8478   8487   8496     1  0.0000000  0.0000000  3
   8479   8478   8487   8488     1  0.0000000  0.6508444  3
   8479   8478   8487   8489     1  0.0000000  0.6508444  3
   8480   8478   8487   8496     1  0.0000000  1.0460000  1
   8480   8478   8487   8496     1  0.0000000  0.0000000  3
   8480   8478   8487   8488     1  0.0000000  0.6508444  3
   8480   8478   8487   8489     1  0.0000000  0.6508444  3
   8482   8481   8493  15803     1  0.0000000  1.0460000  1
   8482   8481   8493  15803     1  0.0000000  0.0000000  3
   8482   8481   8493   8494     1  0.0000000  0.6508444  3
   8482   8481   8493   8495     1  0.0000000  0.6508444  3
   8483   8481   8493  15803     1  0.0000000  1.0460000  1
   8483   8481   8493  15803     1  0.0000000  0.0000000  3
   8483   8481   8493   8494     1  0.0000000  0.6508444  3
   8483   8481   8493   8495     1  0.0000000  0.6508444  3
   8485   8484   8490  15780     1  0.0000000  1.0460000  1
   8485   8484   8490  15780     1  0.0000000  0.0000000  3
   8485   8484   8490   8491     1  0.0000000  0.6508444  3
   8485   8484   8490   8492     1  0.0000000  0.6508444  3
   8486   8484   8490  15780     1  0.0000000  1.0460000  1
   8486   8484   8490  15780     1  0.0000000  0.0000000  3
   8486   8484   8490   8491     1  0.0000000  0.6508444  3
   8486   8484   8490   8492     1  0.0000000  0.6508444  3
   8490  15780  15776  15779     1  0.0000000  1.6038667  3
   8491   8490  15780  15776     1  0.0000000  1.6038667  3
   8492   8490  15780  15776     1  0.0000000  1.6038667  3
   8493  15803  15799  15802     1  0.0000000  1.6038667  3
   8494   8493  15803  15799     1  0.0000000  1.6038667  3
   8495   8493  15803  15799     1  0.0000000  1.6038667  3
   8497   8498   8510   8511     1  0.0000000  0.6508444  3
   8497   8498   8510   8512     1  0.0000000  0.6508444  3
   8497   8501   8513   8514     1  0.0000000  0.6508444  3
   8497   8501   8513   8515     1  0.0000000  0.6508444  3
   8497   8504   8507   8508     1  0.0000000  0.6508444  3
   8497   8504   8507   8509     1  0.0000000  0.6508444  3
   8498   8497   8501   8502     1  0.0000000  1.2552000  3
   8498   8497   8501   8503     1  0.0000000  1.2552000  3
   8498   8497   8504   8505     1  0.0000000  1.2552000  3
   8498   8497   8504   8506     1  0.0000000  1.2552000  3
   8498   8510   8522   8523     1  0.0000000  0.6508444  3
   8498   8510   8522   8524     1  0.0000000  0.6508444  3
   8499   8498   8497   8501     1  0.0000000  1.2552000  3
   8499   8498   8497   8504     1  0.0000000  1.2552000  3
   8499   8498   8510   8522     1  0.0000000  0.6508444  3
   8499   8498   8510   8511     1  0.0000000  0.6508444  3
   8499   8498   8510   8512     1  0.0000000  0.6508444  3
   8500   8498   8497   8501     1  0.0000000  1.2552000  3
   8500   8498   8497   8504     1  0.0000000  1.2552000  3
   8500   8498   8510   8522     1  0.0000000  0.6508444  3
   8500   8498   8510   8511     1  0.0000000  0.6508444  3
   8500   8498   8510   8512     1  0.0000000  0.6508444  3
   8501   8497   8504   8505     1  0.0000000  1.2552000  3
   8501   8497   8504   8506     1  0.0000000  1.2552000  3
   8501   8513   8519   8520     1  0.0000000  0.6508444  3
   8501   8513   8519   8521     1  0.0000000  0.6508444  3
   8502   8501   8497   8504     1  0.0000000  1.2552000  3
   8502   8501   8513   8519     1  0.0000000  0.6508444  3
   8502   8501   8513   8514     1  0.0000000  0.6508444  3
   8502   8501   8513   8515     1  0.0000000  0.6508444  3
   8503   8501   8497   8504     1  0.0000000  1.2552000  3
   8503   8501   8513   8519     1  0.0000000  0.6508444  3
   8503   8501   8513   8514     1  0.0000000  0.6508444  3
   8503   8501   8513   8515     1  0.0000000  0.6508444  3
   8504   8507   8516   8517     1  0.0000000  0.6508444  3
   8504   8507   8516   8518     1  0.0000000  0.6508444  3
   8505   8504   8507   8516     1  0.0000000  0.6508444  3
   8505   8504   8507   8508     1  0.0000000  0.6508444  3
   8505   8504   8507   8509     1  0.0000000  0.6508444  3
   8506   8504   8507   8516     1  0.0000000  0.6508444  3
   8506   8504   8507   8508     1  0.0000000  0.6508444  3
   8506   8504   8507   8509     1  0.0000000  0.6508444  3
   8508   8507   8516   8525     1  0.0000000  1.0460000  1
   8508   8507   8516   8525     1  0.0000000  0.0000000  3
   8508   8507   8516   8517     1  0.0000000  0.6508444  3
   8508   8507   8516   8518     1  0.0000000  0.6508444  3
   8509   8507   8516   8525     1  0.0000000  1.0460000  1
   8509   8507   8516   8525     1  0.0000000  0.0000000  3
   8509   8507   8516   8517     1  0.0000000  0.6508444  3
   8509   8507   8516   8518     1  0.0000000  0.6508444  3
   8511   8510   8522  15849     1  0.0000000  1.0460000  1
   8511   8510   8522  15849     1  0.0000000  0.0000000  3
   8511   8510   8522   8523     1  0.0000000  0.6508444  3
   8511   8510   8522   8524     1  0.0000000  0.6508444  3
   8512   8510   8522  15849     1  0.0000000  1.0460000  1
   8512   8510   8522  15849     1  0.0000000  0.0000000  3
   8512   8510   8522   8523     1  0.0000000  0.6508444  3
   8512   8510   8522   8524     1  0.0000000  0.6508444  3
   8514   8513   8519  15826     1  0.0000000  1.0460000  1
   8514   8513   8519  15826     1  0.0000000  0.0000000  3
   8514   8513   8519   8520     1  0.0000000  0.6508444  3
   8514   8513   8519   8521     1  0.0000000  0.6508444  3
   8515   8513   8519  15826     1  0.0000000  1.0460000  1
   8515   8513   8519  15826     1  0.0000000  0.0000000  3
   8515   8513   8519   8520     1  0.0000000  0.6508444  3
   8515   8513   8519   8521     1  0.0000000  0.6508444  3
   8519  15826  15822  15825     1  0.0000000  1.6038667  3
   8520   8519  15826  15822     1  0.0000000  1.6038667  3
   8521   8519  15826  15822     1  0.0000000  1.6038667  3
   8522  15849  15845  15848     1  0.0000000  1.6038667  3
   8523   8522  15849  15845     1  0.0000000  1.6038667  3
   8524   8522  15849  15845     1  0.0000000  1.6038667  3
   8526   8527   8539   8540     1  0.0000000  0.6508444  3
   8526   8527   8539   8541     1  0.0000000  0.6508444  3
   8526   8530   8542   8543     1  0.0000000  0.6508444  3
   8526   8530   8542   8544     1  0.0000000  0.6508444  3
   8526   8533   8536   8537     1  0.0000000  0.6508444  3
   8526   8533   8536   8538     1  0.0000000  0.6508444  3
   8527   8526   8530   8531     1  0.0000000  1.2552000  3
   8527   8526   8530   8532     1  0.0000000  1.2552000  3
   8527   8526   8533   8534     1  0.0000000  1.2552000  3
   8527   8526   8533   8535     1  0.0000000  1.2552000  3
   8527   8539   8551   8552     1  0.0000000  0.6508444  3
   8527   8539   8551   8553     1  0.0000000  0.6508444  3
   8528   8527   8526   8530     1  0.0000000  1.2552000  3
   8528   8527   8526   8533     1  0.0000000  1.2552000  3
   8528   8527   8539   8551     1  0.0000000  0.6508444  3
   8528   8527   8539   8540     1  0.0000000  0.6508444  3
   8528   8527   8539   8541     1  0.0000000  0.6508444  3
   8529   8527   8526   8530     1  0.0000000  1.2552000  3
   8529   8527   8526   8533     1  0.0000000  1.2552000  3
   8529   8527   8539   8551     1  0.0000000  0.6508444  3
   8529   8527   8539   8540     1  0.0000000  0.6508444  3
   8529   8527   8539   8541     1  0.0000000  0.6508444  3
   8530   8526   8533   8534     1  0.0000000  1.2552000  3
   8530   8526   8533   8535     1  0.0000000  1.2552000  3
   8530   8542   8548   8549     1  0.0000000  0.6508444  3
   8530   8542   8548   8550     1  0.0000000  0.6508444  3
   8531   8530   8526   8533     1  0.0000000  1.2552000  3
   8531   8530   8542   8548     1  0.0000000  0.6508444  3
   8531   8530   8542   8543     1  0.0000000  0.6508444  3
   8531   8530   8542   8544     1  0.0000000  0.6508444  3
   8532   8530   8526   8533     1  0.0000000  1.2552000  3
   8532   8530   8542   8548     1  0.0000000  0.6508444  3
   8532   8530   8542   8543     1  0.0000000  0.6508444  3
   8532   8530   8542   8544     1  0.0000000  0.6508444  3
   8533   8536   8545   8546     1  0.0000000  0.6508444  3
   8533   8536   8545   8547     1  0.0000000  0.6508444  3
   8534   8533   8536   8545     1  0.0000000  0.6508444  3
   8534   8533   8536   8537     1  0.0000000  0.6508444  3
   8534   8533   8536   8538     1  0.0000000  0.6508444  3
   8535   8533   8536   8545     1  0.0000000  0.6508444  3
   8535   8533   8536   8537     1  0.0000000  0.6508444  3
   8535   8533   8536   8538     1  0.0000000  0.6508444  3
   8537   8536   8545   8554     1  0.0000000  1.0460000  1
   8537   8536   8545   8554     1  0.0000000  0.0000000  3
   8537   8536   8545   8546     1  0.0000000  0.6508444  3
   8537   8536   8545   8547     1  0.0000000  0.6508444  3
   8538   8536   8545   8554     1  0.0000000  1.0460000  1
   8538   8536   8545   8554     1  0.0000000  0.0000000  3
   8538   8536   8545   8546     1  0.0000000  0.6508444  3
   8538   8536   8545   8547     1  0.0000000  0.6508444  3
   8540   8539   8551  15895     1  0.0000000  1.0460000  1
   8540   8539   8551  15895     1  0.0000000  0.0000000  3
   8540   8539   8551   8552     1  0.0000000  0.6508444  3
   8540   8539   8551   8553     1  0.0000000  0.6508444  3
   8541   8539   8551  15895     1  0.0000000  1.0460000  1
   8541   8539   8551  15895     1  0.0000000  0.0000000  3
   8541   8539   8551   8552     1  0.0000000  0.6508444  3
   8541   8539   8551   8553     1  0.0000000  0.6508444  3
   8543   8542   8548  15872     1  0.0000000  1.0460000  1
   8543   8542   8548  15872     1  0.0000000  0.0000000  3
   8543   8542   8548   8549     1  0.0000000  0.6508444  3
   8543   8542   8548   8550     1  0.0000000  0.6508444  3
   8544   8542   8548  15872     1  0.0000000  1.0460000  1
   8544   8542   8548  15872     1  0.0000000  0.0000000  3
   8544   8542   8548   8549     1  0.0000000  0.6508444  3
   8544   8542   8548   8550     1  0.0000000  0.6508444  3
   8548  15872  15868  15871     1  0.0000000  1.6038667  3
   8549   8548  15872  15868     1  0.0000000  1.6038667  3
   8550   8548  15872  15868     1  0.0000000  1.6038667  3
   8551  15895  15891  15894     1  0.0000000  1.6038667  3
   8552   8551  15895  15891     1  0.0000000  1.6038667  3
   8553   8551  15895  15891     1  0.0000000  1.6038667  3
   8555   8556   8568   8569     1  0.0000000  0.6508444  3
   8555   8556   8568   8570     1  0.0000000  0.6508444  3
   8555   8559   8571   8572     1  0.0000000  0.6508444  3
   8555   8559   8571   8573     1  0.0000000  0.6508444  3
   8555   8562   8565   8566     1  0.0000000  0.6508444  3
   8555   8562   8565   8567     1  0.0000000  0.6508444  3
   8556   8555   8559   8560     1  0.0000000  1.2552000  3
   8556   8555   8559   8561     1  0.0000000  1.2552000  3
   8556   8555   8562   8563     1  0.0000000  1.2552000  3
   8556   8555   8562   8564     1  0.0000000  1.2552000  3
   8556   8568   8580   8581     1  0.0000000  0.6508444  3
   8556   8568   8580   8582     1  0.0000000  0.6508444  3
   8557   8556   8555   8559     1  0.0000000  1.2552000  3
   8557   8556   8555   8562     1  0.0000000  1.2552000  3
   8557   8556   8568   8580     1  0.0000000  0.6508444  3
   8557   8556   8568   8569     1  0.0000000  0.6508444  3
   8557   8556   8568   8570     1  0.0000000  0.6508444  3
   8558   8556   8555   8559     1  0.0000000  1.2552000  3
   8558   8556   8555   8562     1  0.0000000  1.2552000  3
   8558   8556   8568   8580     1  0.0000000  0.6508444  3
   8558   8556   8568   8569     1  0.0000000  0.6508444  3
   8558   8556   8568   8570     1  0.0000000  0.6508444  3
   8559   8555   8562   8563     1  0.0000000  1.2552000  3
   8559   8555   8562   8564     1  0.0000000  1.2552000  3
   8559   8571   8577   8578     1  0.0000000  0.6508444  3
   8559   8571   8577   8579     1  0.0000000  0.6508444  3
   8560   8559   8555   8562     1  0.0000000  1.2552000  3
   8560   8559   8571   8577     1  0.0000000  0.6508444  3
   8560   8559   8571   8572     1  0.0000000  0.6508444  3
   8560   8559   8571   8573     1  0.0000000  0.6508444  3
   8561   8559   8555   8562     1  0.0000000  1.2552000  3
   8561   8559   8571   8577     1  0.0000000  0.6508444  3
   8561   8559   8571   8572     1  0.0000000  0.6508444  3
   8561   8559   8571   8573     1  0.0000000  0.6508444  3
   8562   8565   8574   8575     1  0.0000000  0.6508444  3
   8562   8565   8574   8576     1  0.0000000  0.6508444  3
   8563   8562   8565   8574     1  0.0000000  0.6508444  3
   8563   8562   8565   8566     1  0.0000000  0.6508444  3
   8563   8562   8565   8567     1  0.0000000  0.6508444  3
   8564   8562   8565   8574     1  0.0000000  0.6508444  3
   8564   8562   8565   8566     1  0.0000000  0.6508444  3
   8564   8562   8565   8567     1  0.0000000  0.6508444  3
   8566   8565   8574   8583     1  0.0000000  1.0460000  1
   8566   8565   8574   8583     1  0.0000000  0.0000000  3
   8566   8565   8574   8575     1  0.0000000  0.6508444  3
   8566   8565   8574   8576     1  0.0000000  0.6508444  3
   8567   8565   8574   8583     1  0.0000000  1.0460000  1
   8567   8565   8574   8583     1  0.0000000  0.0000000  3
   8567   8565   8574   8575     1  0.0000000  0.6508444  3
   8567   8565   8574   8576     1  0.0000000  0.6508444  3
   8569   8568   8580  15941     1  0.0000000  1.0460000  1
   8569   8568   8580  15941     1  0.0000000  0.0000000  3
   8569   8568   8580   8581     1  0.0000000  0.6508444  3
   8569   8568   8580   8582     1  0.0000000  0.6508444  3
   8570   8568   8580  15941     1  0.0000000  1.0460000  1
   8570   8568   8580  15941     1  0.0000000  0.0000000  3
   8570   8568   8580   8581     1  0.0000000  0.6508444  3
   8570   8568   8580   8582     1  0.0000000  0.6508444  3
   8572   8571   8577  15918     1  0.0000000  1.0460000  1
   8572   8571   8577  15918     1  0.0000000  0.0000000  3
   8572   8571   8577   8578     1  0.0000000  0.6508444  3
   8572   8571   8577   8579     1  0.0000000  0.6508444  3
   8573   8571   8577  15918     1  0.0000000  1.0460000  1
   8573   8571   8577  15918     1  0.0000000  0.0000000  3
   8573   8571   8577   8578     1  0.0000000  0.6508444  3
   8573   8571   8577   8579     1  0.0000000  0.6508444  3
   8577  15918  15914  15917     1  0.0000000  1.6038667  3
   8578   8577  15918  15914     1  0.0000000  1.6038667  3
   8579   8577  15918  15914     1  0.0000000  1.6038667  3
   8580  15941  15937  15940     1  0.0000000  1.6038667  3
   8581   8580  15941  15937     1  0.0000000  1.6038667  3
   8582   8580  15941  15937     1  0.0000000  1.6038667  3
   8584   8585   8597   8598     1  0.0000000  0.6508444  3
   8584   8585   8597   8599     1  0.0000000  0.6508444  3
   8584   8588   8600   8601     1  0.0000000  0.6508444  3
   8584   8588   8600   8602     1  0.0000000  0.6508444  3
   8584   8591   8594   8595     1  0.0000000  0.6508444  3
   8584   8591   8594   8596     1  0.0000000  0.6508444  3
   8585   8584   8588   8589     1  0.0000000  1.2552000  3
   8585   8584   8588   8590     1  0.0000000  1.2552000  3
   8585   8584   8591   8592     1  0.0000000  1.2552000  3
   8585   8584   8591   8593     1  0.0000000  1.2552000  3
   8585   8597   8609   8610     1  0.0000000  0.6508444  3
   8585   8597   8609   8611     1  0.0000000  0.6508444  3
   8586   8585   8584   8588     1  0.0000000  1.2552000  3
   8586   8585   8584   8591     1  0.0000000  1.2552000  3
   8586   8585   8597   8609     1  0.0000000  0.6508444  3
   8586   8585   8597   8598     1  0.0000000  0.6508444  3
   8586   8585   8597   8599     1  0.0000000  0.6508444  3
   8587   8585   8584   8588     1  0.0000000  1.2552000  3
   8587   8585   8584   8591     1  0.0000000  1.2552000  3
   8587   8585   8597   8609     1  0.0000000  0.6508444  3
   8587   8585   8597   8598     1  0.0000000  0.6508444  3
   8587   8585   8597   8599     1  0.0000000  0.6508444  3
   8588   8584   8591   8592     1  0.0000000  1.2552000  3
   8588   8584   8591   8593     1  0.0000000  1.2552000  3
   8588   8600   8606   8607     1  0.0000000  0.6508444  3
   8588   8600   8606   8608     1  0.0000000  0.6508444  3
   8589   8588   8584   8591     1  0.0000000  1.2552000  3
   8589   8588   8600   8606     1  0.0000000  0.6508444  3
   8589   8588   8600   8601     1  0.0000000  0.6508444  3
   8589   8588   8600   8602     1  0.0000000  0.6508444  3
   8590   8588   8584   8591     1  0.0000000  1.2552000  3
   8590   8588   8600   8606     1  0.0000000  0.6508444  3
   8590   8588   8600   8601     1  0.0000000  0.6508444  3
   8590   8588   8600   8602     1  0.0000000  0.6508444  3
   8591   8594   8603   8604     1  0.0000000  0.6508444  3
   8591   8594   8603   8605     1  0.0000000  0.6508444  3
   8592   8591   8594   8603     1  0.0000000  0.6508444  3
   8592   8591   8594   8595     1  0.0000000  0.6508444  3
   8592   8591   8594   8596     1  0.0000000  0.6508444  3
   8593   8591   8594   8603     1  0.0000000  0.6508444  3
   8593   8591   8594   8595     1  0.0000000  0.6508444  3
   8593   8591   8594   8596     1  0.0000000  0.6508444  3
   8595   8594   8603   8612     1  0.0000000  1.0460000  1
   8595   8594   8603   8612     1  0.0000000  0.0000000  3
   8595   8594   8603   8604     1  0.0000000  0.6508444  3
   8595   8594   8603   8605     1  0.0000000  0.6508444  3
   8596   8594   8603   8612     1  0.0000000  1.0460000  1
   8596   8594   8603   8612     1  0.0000000  0.0000000  3
   8596   8594   8603   8604     1  0.0000000  0.6508444  3
   8596   8594   8603   8605     1  0.0000000  0.6508444  3
   8598   8597   8609  15987     1  0.0000000  1.0460000  1
   8598   8597   8609  15987     1  0.0000000  0.0000000  3
   8598   8597   8609   8610     1  0.0000000  0.6508444  3
   8598   8597   8609   8611     1  0.0000000  0.6508444  3
   8599   8597   8609  15987     1  0.0000000  1.0460000  1
   8599   8597   8609  15987     1  0.0000000  0.0000000  3
   8599   8597   8609   8610     1  0.0000000  0.6508444  3
   8599   8597   8609   8611     1  0.0000000  0.6508444  3
   8601   8600   8606  15964     1  0.0000000  1.0460000  1
   8601   8600   8606  15964     1  0.0000000  0.0000000  3
   8601   8600   8606   8607     1  0.0000000  0.6508444  3
   8601   8600   8606   8608     1  0.0000000  0.6508444  3
   8602   8600   8606  15964     1  0.0000000  1.0460000  1
   8602   8600   8606  15964     1  0.0000000  0.0000000  3
   8602   8600   8606   8607     1  0.0000000  0.6508444  3
   8602   8600   8606   8608     1  0.0000000  0.6508444  3
   8606  15964  15960  15963     1  0.0000000  1.6038667  3
   8607   8606  15964  15960     1  0.0000000  1.6038667  3
   8608   8606  15964  15960     1  0.0000000  1.6038667  3
   8609  15987  15983  15986     1  0.0000000  1.6038667  3
   8610   8609  15987  15983     1  0.0000000  1.6038667  3
   8611   8609  15987  15983     1  0.0000000  1.6038667  3
   8613   8614   8626   8627     1  0.0000000  0.6508444  3
   8613   8614   8626   8628     1  0.0000000  0.6508444  3
   8613   8617   8629   8630     1  0.0000000  0.6508444  3
   8613   8617   8629   8631     1  0.0000000  0.6508444  3
   8613   8620   8623   8624     1  0.0000000  0.6508444  3
   8613   8620   8623   8625     1  0.0000000  0.6508444  3
   8614   8613   8617   8618     1  0.0000000  1.2552000  3
   8614   8613   8617   8619     1  0.0000000  1.2552000  3
   8614   8613   8620   8621     1  0.0000000  1.2552000  3
   8614   8613   8620   8622     1  0.0000000  1.2552000  3
   8614   8626   8638   8639     1  0.0000000  0.6508444  3
   8614   8626   8638   8640     1  0.0000000  0.6508444  3
   8615   8614   8613   8617     1  0.0000000  1.2552000  3
   8615   8614   8613   8620     1  0.0000000  1.2552000  3
   8615   8614   8626   8638     1  0.0000000  0.6508444  3
   8615   8614   8626   8627     1  0.0000000  0.6508444  3
   8615   8614   8626   8628     1  0.0000000  0.6508444  3
   8616   8614   8613   8617     1  0.0000000  1.2552000  3
   8616   8614   8613   8620     1  0.0000000  1.2552000  3
   8616   8614   8626   8638     1  0.0000000  0.6508444  3
   8616   8614   8626   8627     1  0.0000000  0.6508444  3
   8616   8614   8626   8628     1  0.0000000  0.6508444  3
   8617   8613   8620   8621     1  0.0000000  1.2552000  3
   8617   8613   8620   8622     1  0.0000000  1.2552000  3
   8617   8629   8635   8636     1  0.0000000  0.6508444  3
   8617   8629   8635   8637     1  0.0000000  0.6508444  3
   8618   8617   8613   8620     1  0.0000000  1.2552000  3
   8618   8617   8629   8635     1  0.0000000  0.6508444  3
   8618   8617   8629   8630     1  0.0000000  0.6508444  3
   8618   8617   8629   8631     1  0.0000000  0.6508444  3
   8619   8617   8613   8620     1  0.0000000  1.2552000  3
   8619   8617   8629   8635     1  0.0000000  0.6508444  3
   8619   8617   8629   8630     1  0.0000000  0.6508444  3
   8619   8617   8629   8631     1  0.0000000  0.6508444  3
   8620   8623   8632   8633     1  0.0000000  0.6508444  3
   8620   8623   8632   8634     1  0.0000000  0.6508444  3
   8621   8620   8623   8632     1  0.0000000  0.6508444  3
   8621   8620   8623   8624     1  0.0000000  0.6508444  3
   8621   8620   8623   8625     1  0.0000000  0.6508444  3
   8622   8620   8623   8632     1  0.0000000  0.6508444  3
   8622   8620   8623   8624     1  0.0000000  0.6508444  3
   8622   8620   8623   8625     1  0.0000000  0.6508444  3
   8624   8623   8632   8641     1  0.0000000  1.0460000  1
   8624   8623   8632   8641     1  0.0000000  0.0000000  3
   8624   8623   8632   8633     1  0.0000000  0.6508444  3
   8624   8623   8632   8634     1  0.0000000  0.6508444  3
   8625   8623   8632   8641     1  0.0000000  1.0460000  1
   8625   8623   8632   8641     1  0.0000000  0.0000000  3
   8625   8623   8632   8633     1  0.0000000  0.6508444  3
   8625   8623   8632   8634     1  0.0000000  0.6508444  3
   8627   8626   8638  16033     1  0.0000000  1.0460000  1
   8627   8626   8638  16033     1  0.0000000  0.0000000  3
   8627   8626   8638   8639     1  0.0000000  0.6508444  3
   8627   8626   8638   8640     1  0.0000000  0.6508444  3
   8628   8626   8638  16033     1  0.0000000  1.0460000  1
   8628   8626   8638  16033     1  0.0000000  0.0000000  3
   8628   8626   8638   8639     1  0.0000000  0.6508444  3
   8628   8626   8638   8640     1  0.0000000  0.6508444  3
   8630   8629   8635  16010     1  0.0000000  1.0460000  1
   8630   8629   8635  16010     1  0.0000000  0.0000000  3
   8630   8629   8635   8636     1  0.0000000  0.6508444  3
   8630   8629   8635   8637     1  0.0000000  0.6508444  3
   8631   8629   8635  16010     1  0.0000000  1.0460000  1
   8631   8629   8635  16010     1  0.0000000  0.0000000  3
   8631   8629   8635   8636     1  0.0000000  0.6508444  3
   8631   8629   8635   8637     1  0.0000000  0.6508444  3
   8635  16010  16006  16009     1  0.0000000  1.6038667  3
   8636   8635  16010  16006     1  0.0000000  1.6038667  3
   8637   8635  16010  16006     1  0.0000000  1.6038667  3
   8638  16033  16029  16032     1  0.0000000  1.6038667  3
   8639   8638  16033  16029     1  0.0000000  1.6038667  3
   8640   8638  16033  16029     1  0.0000000  1.6038667  3
   8642   8643   8655   8656     1  0.0000000  0.6508444  3
   8642   8643   8655   8657     1  0.0000000  0.6508444  3
   8642   8646   8658   8659     1  0.0000000  0.6508444  3
   8642   8646   8658   8660     1  0.0000000  0.6508444  3
   8642   8649   8652   8653     1  0.0000000  0.6508444  3
   8642   8649   8652   8654     1  0.0000000  0.6508444  3
   8643   8642   8646   8647     1  0.0000000  1.2552000  3
   8643   8642   8646   8648     1  0.0000000  1.2552000  3
   8643   8642   8649   8650     1  0.0000000  1.2552000  3
   8643   8642   8649   8651     1  0.0000000  1.2552000  3
   8643   8655   8667   8668     1  0.0000000  0.6508444  3
   8643   8655   8667   8669     1  0.0000000  0.6508444  3
   8644   8643   8642   8646     1  0.0000000  1.2552000  3
   8644   8643   8642   8649     1  0.0000000  1.2552000  3
   8644   8643   8655   8667     1  0.0000000  0.6508444  3
   8644   8643   8655   8656     1  0.0000000  0.6508444  3
   8644   8643   8655   8657     1  0.0000000  0.6508444  3
   8645   8643   8642   8646     1  0.0000000  1.2552000  3
   8645   8643   8642   8649     1  0.0000000  1.2552000  3
   8645   8643   8655   8667     1  0.0000000  0.6508444  3
   8645   8643   8655   8656     1  0.0000000  0.6508444  3
   8645   8643   8655   8657     1  0.0000000  0.6508444  3
   8646   8642   8649   8650     1  0.0000000  1.2552000  3
   8646   8642   8649   8651     1  0.0000000  1.2552000  3
   8646   8658   8664   8665     1  0.0000000  0.6508444  3
   8646   8658   8664   8666     1  0.0000000  0.6508444  3
   8647   8646   8642   8649     1  0.0000000  1.2552000  3
   8647   8646   8658   8664     1  0.0000000  0.6508444  3
   8647   8646   8658   8659     1  0.0000000  0.6508444  3
   8647   8646   8658   8660     1  0.0000000  0.6508444  3
   8648   8646   8642   8649     1  0.0000000  1.2552000  3
   8648   8646   8658   8664     1  0.0000000  0.6508444  3
   8648   8646   8658   8659     1  0.0000000  0.6508444  3
   8648   8646   8658   8660     1  0.0000000  0.6508444  3
   8649   8652   8661   8662     1  0.0000000  0.6508444  3
   8649   8652   8661   8663     1  0.0000000  0.6508444  3
   8650   8649   8652   8661     1  0.0000000  0.6508444  3
   8650   8649   8652   8653     1  0.0000000  0.6508444  3
   8650   8649   8652   8654     1  0.0000000  0.6508444  3
   8651   8649   8652   8661     1  0.0000000  0.6508444  3
   8651   8649   8652   8653     1  0.0000000  0.6508444  3
   8651   8649   8652   8654     1  0.0000000  0.6508444  3
   8653   8652   8661   8670     1  0.0000000  1.0460000  1
   8653   8652   8661   8670     1  0.0000000  0.0000000  3
   8653   8652   8661   8662     1  0.0000000  0.6508444  3
   8653   8652   8661   8663     1  0.0000000  0.6508444  3
   8654   8652   8661   8670     1  0.0000000  1.0460000  1
   8654   8652   8661   8670     1  0.0000000  0.0000000  3
   8654   8652   8661   8662     1  0.0000000  0.6508444  3
   8654   8652   8661   8663     1  0.0000000  0.6508444  3
   8656   8655   8667  16079     1  0.0000000  1.0460000  1
   8656   8655   8667  16079     1  0.0000000  0.0000000  3
   8656   8655   8667   8668     1  0.0000000  0.6508444  3
   8656   8655   8667   8669     1  0.0000000  0.6508444  3
   8657   8655   8667  16079     1  0.0000000  1.0460000  1
   8657   8655   8667  16079     1  0.0000000  0.0000000  3
   8657   8655   8667   8668     1  0.0000000  0.6508444  3
   8657   8655   8667   8669     1  0.0000000  0.6508444  3
   8659   8658   8664  16056     1  0.0000000  1.0460000  1
   8659   8658   8664  16056     1  0.0000000  0.0000000  3
   8659   8658   8664   8665     1  0.0000000  0.6508444  3
   8659   8658   8664   8666     1  0.0000000  0.6508444  3
   8660   8658   8664  16056     1  0.0000000  1.0460000  1
   8660   8658   8664  16056     1  0.0000000  0.0000000  3
   8660   8658   8664   8665     1  0.0000000  0.6508444  3
   8660   8658   8664   8666     1  0.0000000  0.6508444  3
   8664  16056  16052  16055     1  0.0000000  1.6038667  3
   8665   8664  16056  16052     1  0.0000000  1.6038667  3
   8666   8664  16056  16052     1  0.0000000  1.6038667  3
   8667  16079  16075  16078     1  0.0000000  1.6038667  3
   8668   8667  16079  16075     1  0.0000000  1.6038667  3
   8669   8667  16079  16075     1  0.0000000  1.6038667  3
   8671   8672   8684   8685     1  0.0000000  0.6508444  3
   8671   8672   8684   8686     1  0.0000000  0.6508444  3
   8671   8675   8687   8688     1  0.0000000  0.6508444  3
   8671   8675   8687   8689     1  0.0000000  0.6508444  3
   8671   8678   8681   8682     1  0.0000000  0.6508444  3
   8671   8678   8681   8683     1  0.0000000  0.6508444  3
   8672   8671   8675   8676     1  0.0000000  1.2552000  3
   8672   8671   8675   8677     1  0.0000000  1.2552000  3
   8672   8671   8678   8679     1  0.0000000  1.2552000  3
   8672   8671   8678   8680     1  0.0000000  1.2552000  3
   8672   8684   8696   8697     1  0.0000000  0.6508444  3
   8672   8684   8696   8698     1  0.0000000  0.6508444  3
   8673   8672   8671   8675     1  0.0000000  1.2552000  3
   8673   8672   8671   8678     1  0.0000000  1.2552000  3
   8673   8672   8684   8696     1  0.0000000  0.6508444  3
   8673   8672   8684   8685     1  0.0000000  0.6508444  3
   8673   8672   8684   8686     1  0.0000000  0.6508444  3
   8674   8672   8671   8675     1  0.0000000  1.2552000  3
   8674   8672   8671   8678     1  0.0000000  1.2552000  3
   8674   8672   8684   8696     1  0.0000000  0.6508444  3
   8674   8672   8684   8685     1  0.0000000  0.6508444  3
   8674   8672   8684   8686     1  0.0000000  0.6508444  3
   8675   8671   8678   8679     1  0.0000000  1.2552000  3
   8675   8671   8678   8680     1  0.0000000  1.2552000  3
   8675   8687   8693   8694     1  0.0000000  0.6508444  3
   8675   8687   8693   8695     1  0.0000000  0.6508444  3
   8676   8675   8671   8678     1  0.0000000  1.2552000  3
   8676   8675   8687   8693     1  0.0000000  0.6508444  3
   8676   8675   8687   8688     1  0.0000000  0.6508444  3
   8676   8675   8687   8689     1  0.0000000  0.6508444  3
   8677   8675   8671   8678     1  0.0000000  1.2552000  3
   8677   8675   8687   8693     1  0.0000000  0.6508444  3
   8677   8675   8687   8688     1  0.0000000  0.6508444  3
   8677   8675   8687   8689     1  0.0000000  0.6508444  3
   8678   8681   8690   8691     1  0.0000000  0.6508444  3
   8678   8681   8690   8692     1  0.0000000  0.6508444  3
   8679   8678   8681   8690     1  0.0000000  0.6508444  3
   8679   8678   8681   8682     1  0.0000000  0.6508444  3
   8679   8678   8681   8683     1  0.0000000  0.6508444  3
   8680   8678   8681   8690     1  0.0000000  0.6508444  3
   8680   8678   8681   8682     1  0.0000000  0.6508444  3
   8680   8678   8681   8683     1  0.0000000  0.6508444  3
   8682   8681   8690   8699     1  0.0000000  1.0460000  1
   8682   8681   8690   8699     1  0.0000000  0.0000000  3
   8682   8681   8690   8691     1  0.0000000  0.6508444  3
   8682   8681   8690   8692     1  0.0000000  0.6508444  3
   8683   8681   8690   8699     1  0.0000000  1.0460000  1
   8683   8681   8690   8699     1  0.0000000  0.0000000  3
   8683   8681   8690   8691     1  0.0000000  0.6508444  3
   8683   8681   8690   8692     1  0.0000000  0.6508444  3
   8685   8684   8696  16125     1  0.0000000  1.0460000  1
   8685   8684   8696  16125     1  0.0000000  0.0000000  3
   8685   8684   8696   8697     1  0.0000000  0.6508444  3
   8685   8684   8696   8698     1  0.0000000  0.6508444  3
   8686   8684   8696  16125     1  0.0000000  1.0460000  1
   8686   8684   8696  16125     1  0.0000000  0.0000000  3
   8686   8684   8696   8697     1  0.0000000  0.6508444  3
   8686   8684   8696   8698     1  0.0000000  0.6508444  3
   8688   8687   8693  16102     1  0.0000000  1.0460000  1
   8688   8687   8693  16102     1  0.0000000  0.0000000  3
   8688   8687   8693   8694     1  0.0000000  0.6508444  3
   8688   8687   8693   8695     1  0.0000000  0.6508444  3
   8689   8687   8693  16102     1  0.0000000  1.0460000  1
   8689   8687   8693  16102     1  0.0000000  0.0000000  3
   8689   8687   8693   8694     1  0.0000000  0.6508444  3
   8689   8687   8693   8695     1  0.0000000  0.6508444  3
   8693  16102  16098  16101     1  0.0000000  1.6038667  3
   8694   8693  16102  16098     1  0.0000000  1.6038667  3
   8695   8693  16102  16098     1  0.0000000  1.6038667  3
   8696  16125  16121  16124     1  0.0000000  1.6038667  3
   8697   8696  16125  16121     1  0.0000000  1.6038667  3
   8698   8696  16125  16121     1  0.0000000  1.6038667  3
   8700   8701   8713   8714     1  0.0000000  0.6508444  3
   8700   8701   8713   8715     1  0.0000000  0.6508444  3
   8700   8704   8716   8717     1  0.0000000  0.6508444  3
   8700   8704   8716   8718     1  0.0000000  0.6508444  3
   8700   8707   8710   8711     1  0.0000000  0.6508444  3
   8700   8707   8710   8712     1  0.0000000  0.6508444  3
   8701   8700   8704   8705     1  0.0000000  1.2552000  3
   8701   8700   8704   8706     1  0.0000000  1.2552000  3
   8701   8700   8707   8708     1  0.0000000  1.2552000  3
   8701   8700   8707   8709     1  0.0000000  1.2552000  3
   8701   8713   8725   8726     1  0.0000000  0.6508444  3
   8701   8713   8725   8727     1  0.0000000  0.6508444  3
   8702   8701   8700   8704     1  0.0000000  1.2552000  3
   8702   8701   8700   8707     1  0.0000000  1.2552000  3
   8702   8701   8713   8725     1  0.0000000  0.6508444  3
   8702   8701   8713   8714     1  0.0000000  0.6508444  3
   8702   8701   8713   8715     1  0.0000000  0.6508444  3
   8703   8701   8700   8704     1  0.0000000  1.2552000  3
   8703   8701   8700   8707     1  0.0000000  1.2552000  3
   8703   8701   8713   8725     1  0.0000000  0.6508444  3
   8703   8701   8713   8714     1  0.0000000  0.6508444  3
   8703   8701   8713   8715     1  0.0000000  0.6508444  3
   8704   8700   8707   8708     1  0.0000000  1.2552000  3
   8704   8700   8707   8709     1  0.0000000  1.2552000  3
   8704   8716   8722   8723     1  0.0000000  0.6508444  3
   8704   8716   8722   8724     1  0.0000000  0.6508444  3
   8705   8704   8700   8707     1  0.0000000  1.2552000  3
   8705   8704   8716   8722     1  0.0000000  0.6508444  3
   8705   8704   8716   8717     1  0.0000000  0.6508444  3
   8705   8704   8716   8718     1  0.0000000  0.6508444  3
   8706   8704   8700   8707     1  0.0000000  1.2552000  3
   8706   8704   8716   8722     1  0.0000000  0.6508444  3
   8706   8704   8716   8717     1  0.0000000  0.6508444  3
   8706   8704   8716   8718     1  0.0000000  0.6508444  3
   8707   8710   8719   8720     1  0.0000000  0.6508444  3
   8707   8710   8719   8721     1  0.0000000  0.6508444  3
   8708   8707   8710   8719     1  0.0000000  0.6508444  3
   8708   8707   8710   8711     1  0.0000000  0.6508444  3
   8708   8707   8710   8712     1  0.0000000  0.6508444  3
   8709   8707   8710   8719     1  0.0000000  0.6508444  3
   8709   8707   8710   8711     1  0.0000000  0.6508444  3
   8709   8707   8710   8712     1  0.0000000  0.6508444  3
   8711   8710   8719   8728     1  0.0000000  1.0460000  1
   8711   8710   8719   8728     1  0.0000000  0.0000000  3
   8711   8710   8719   8720     1  0.0000000  0.6508444  3
   8711   8710   8719   8721     1  0.0000000  0.6508444  3
   8712   8710   8719   8728     1  0.0000000  1.0460000  1
   8712   8710   8719   8728     1  0.0000000  0.0000000  3
   8712   8710   8719   8720     1  0.0000000  0.6508444  3
   8712   8710   8719   8721     1  0.0000000  0.6508444  3
   8714   8713   8725  16171     1  0.0000000  1.0460000  1
   8714   8713   8725  16171     1  0.0000000  0.0000000  3
   8714   8713   8725   8726     1  0.0000000  0.6508444  3
   8714   8713   8725   8727     1  0.0000000  0.6508444  3
   8715   8713   8725  16171     1  0.0000000  1.0460000  1
   8715   8713   8725  16171     1  0.0000000  0.0000000  3
   8715   8713   8725   8726     1  0.0000000  0.6508444  3
   8715   8713   8725   8727     1  0.0000000  0.6508444  3
   8717   8716   8722  16148     1  0.0000000  1.0460000  1
   8717   8716   8722  16148     1  0.0000000  0.0000000  3
   8717   8716   8722   8723     1  0.0000000  0.6508444  3
   8717   8716   8722   8724     1  0.0000000  0.6508444  3
   8718   8716   8722  16148     1  0.0000000  1.0460000  1
   8718   8716   8722  16148     1  0.0000000  0.0000000  3
   8718   8716   8722   8723     1  0.0000000  0.6508444  3
   8718   8716   8722   8724     1  0.0000000  0.6508444  3
   8722  16148  16144  16147     1  0.0000000  1.6038667  3
   8723   8722  16148  16144     1  0.0000000  1.6038667  3
   8724   8722  16148  16144     1  0.0000000  1.6038667  3
   8725  16171  16167  16170     1  0.0000000  1.6038667  3
   8726   8725  16171  16167     1  0.0000000  1.6038667  3
   8727   8725  16171  16167     1  0.0000000  1.6038667  3
   8729   8730   8742   8743     1  0.0000000  0.6508444  3
   8729   8730   8742   8744     1  0.0000000  0.6508444  3
   8729   8733   8745   8746     1  0.0000000  0.6508444  3
   8729   8733   8745   8747     1  0.0000000  0.6508444  3
   8729   8736   8739   8740     1  0.0000000  0.6508444  3
   8729   8736   8739   8741     1  0.0000000  0.6508444  3
   8730   8729   8733   8734     1  0.0000000  1.2552000  3
   8730   8729   8733   8735     1  0.0000000  1.2552000  3
   8730   8729   8736   8737     1  0.0000000  1.2552000  3
   8730   8729   8736   8738     1  0.0000000  1.2552000  3
   8730   8742   8754   8755     1  0.0000000  0.6508444  3
   8730   8742   8754   8756     1  0.0000000  0.6508444  3
   8731   8730   8729   8733     1  0.0000000  1.2552000  3
   8731   8730   8729   8736     1  0.0000000  1.2552000  3
   8731   8730   8742   8754     1  0.0000000  0.6508444  3
   8731   8730   8742   8743     1  0.0000000  0.6508444  3
   8731   8730   8742   8744     1  0.0000000  0.6508444  3
   8732   8730   8729   8733     1  0.0000000  1.2552000  3
   8732   8730   8729   8736     1  0.0000000  1.2552000  3
   8732   8730   8742   8754     1  0.0000000  0.6508444  3
   8732   8730   8742   8743     1  0.0000000  0.6508444  3
   8732   8730   8742   8744     1  0.0000000  0.6508444  3
   8733   8729   8736   8737     1  0.0000000  1.2552000  3
   8733   8729   8736   8738     1  0.0000000  1.2552000  3
   8733   8745   8751   8752     1  0.0000000  0.6508444  3
   8733   8745   8751   8753     1  0.0000000  0.6508444  3
   8734   8733   8729   8736     1  0.0000000  1.2552000  3
   8734   8733   8745   8751     1  0.0000000  0.6508444  3
   8734   8733   8745   8746     1  0.0000000  0.6508444  3
   8734   8733   8745   8747     1  0.0000000  0.6508444  3
   8735   8733   8729   8736     1  0.0000000  1.2552000  3
   8735   8733   8745   8751     1  0.0000000  0.6508444  3
   8735   8733   8745   8746     1  0.0000000  0.6508444  3
   8735   8733   8745   8747     1  0.0000000  0.6508444  3
   8736   8739   8748   8749     1  0.0000000  0.6508444  3
   8736   8739   8748   8750     1  0.0000000  0.6508444  3
   8737   8736   8739   8748     1  0.0000000  0.6508444  3
   8737   8736   8739   8740     1  0.0000000  0.6508444  3
   8737   8736   8739   8741     1  0.0000000  0.6508444  3
   8738   8736   8739   8748     1  0.0000000  0.6508444  3
   8738   8736   8739   8740     1  0.0000000  0.6508444  3
   8738   8736   8739   8741     1  0.0000000  0.6508444  3
   8740   8739   8748   8757     1  0.0000000  1.0460000  1
   8740   8739   8748   8757     1  0.0000000  0.0000000  3
   8740   8739   8748   8749     1  0.0000000  0.6508444  3
   8740   8739   8748   8750     1  0.0000000  0.6508444  3
   8741   8739   8748   8757     1  0.0000000  1.0460000  1
   8741   8739   8748   8757     1  0.0000000  0.0000000  3
   8741   8739   8748   8749     1  0.0000000  0.6508444  3
   8741   8739   8748   8750     1  0.0000000  0.6508444  3
   8743   8742   8754  16217     1  0.0000000  1.0460000  1
   8743   8742   8754  16217     1  0.0000000  0.0000000  3
   8743   8742   8754   8755     1  0.0000000  0.6508444  3
   8743   8742   8754   8756     1  0.0000000  0.6508444  3
   8744   8742   8754  16217     1  0.0000000  1.0460000  1
   8744   8742   8754  16217     1  0.0000000  0.0000000  3
   8744   8742   8754   8755     1  0.0000000  0.6508444  3
   8744   8742   8754   8756     1  0.0000000  0.6508444  3
   8746   8745   8751  16194     1  0.0000000  1.0460000  1
   8746   8745   8751  16194     1  0.0000000  0.0000000  3
   8746   8745   8751   8752     1  0.0000000  0.6508444  3
   8746   8745   8751   8753     1  0.0000000  0.6508444  3
   8747   8745   8751  16194     1  0.0000000  1.0460000  1
   8747   8745   8751  16194     1  0.0000000  0.0000000  3
   8747   8745   8751   8752     1  0.0000000  0.6508444  3
   8747   8745   8751   8753     1  0.0000000  0.6508444  3
   8751  16194  16190  16193     1  0.0000000  1.6038667  3
   8752   8751  16194  16190     1  0.0000000  1.6038667  3
   8753   8751  16194  16190     1  0.0000000  1.6038667  3
   8754  16217  16213  16216     1  0.0000000  1.6038667  3
   8755   8754  16217  16213     1  0.0000000  1.6038667  3
   8756   8754  16217  16213     1  0.0000000  1.6038667  3
   8758   8759   8771   8772     1  0.0000000  0.6508444  3
   8758   8759   8771   8773     1  0.0000000  0.6508444  3
   8758   8762   8774   8775     1  0.0000000  0.6508444  3
   8758   8762   8774   8776     1  0.0000000  0.6508444  3
   8758   8765   8768   8769     1  0.0000000  0.6508444  3
   8758   8765   8768   8770     1  0.0000000  0.6508444  3
   8759   8758   8762   8763     1  0.0000000  1.2552000  3
   8759   8758   8762   8764     1  0.0000000  1.2552000  3
   8759   8758   8765   8766     1  0.0000000  1.2552000  3
   8759   8758   8765   8767     1  0.0000000  1.2552000  3
   8759   8771   8783   8784     1  0.0000000  0.6508444  3
   8759   8771   8783   8785     1  0.0000000  0.6508444  3
   8760   8759   8758   8762     1  0.0000000  1.2552000  3
   8760   8759   8758   8765     1  0.0000000  1.2552000  3
   8760   8759   8771   8783     1  0.0000000  0.6508444  3
   8760   8759   8771   8772     1  0.0000000  0.6508444  3
   8760   8759   8771   8773     1  0.0000000  0.6508444  3
   8761   8759   8758   8762     1  0.0000000  1.2552000  3
   8761   8759   8758   8765     1  0.0000000  1.2552000  3
   8761   8759   8771   8783     1  0.0000000  0.6508444  3
   8761   8759   8771   8772     1  0.0000000  0.6508444  3
   8761   8759   8771   8773     1  0.0000000  0.6508444  3
   8762   8758   8765   8766     1  0.0000000  1.2552000  3
   8762   8758   8765   8767     1  0.0000000  1.2552000  3
   8762   8774   8780   8781     1  0.0000000  0.6508444  3
   8762   8774   8780   8782     1  0.0000000  0.6508444  3
   8763   8762   8758   8765     1  0.0000000  1.2552000  3
   8763   8762   8774   8780     1  0.0000000  0.6508444  3
   8763   8762   8774   8775     1  0.0000000  0.6508444  3
   8763   8762   8774   8776     1  0.0000000  0.6508444  3
   8764   8762   8758   8765     1  0.0000000  1.2552000  3
   8764   8762   8774   8780     1  0.0000000  0.6508444  3
   8764   8762   8774   8775     1  0.0000000  0.6508444  3
   8764   8762   8774   8776     1  0.0000000  0.6508444  3
   8765   8768   8777   8778     1  0.0000000  0.6508444  3
   8765   8768   8777   8779     1  0.0000000  0.6508444  3
   8766   8765   8768   8777     1  0.0000000  0.6508444  3
   8766   8765   8768   8769     1  0.0000000  0.6508444  3
   8766   8765   8768   8770     1  0.0000000  0.6508444  3
   8767   8765   8768   8777     1  0.0000000  0.6508444  3
   8767   8765   8768   8769     1  0.0000000  0.6508444  3
   8767   8765   8768   8770     1  0.0000000  0.6508444  3
   8769   8768   8777   8786     1  0.0000000  1.0460000  1
   8769   8768   8777   8786     1  0.0000000  0.0000000  3
   8769   8768   8777   8778     1  0.0000000  0.6508444  3
   8769   8768   8777   8779     1  0.0000000  0.6508444  3
   8770   8768   8777   8786     1  0.0000000  1.0460000  1
   8770   8768   8777   8786     1  0.0000000  0.0000000  3
   8770   8768   8777   8778     1  0.0000000  0.6508444  3
   8770   8768   8777   8779     1  0.0000000  0.6508444  3
   8772   8771   8783  16263     1  0.0000000  1.0460000  1
   8772   8771   8783  16263     1  0.0000000  0.0000000  3
   8772   8771   8783   8784     1  0.0000000  0.6508444  3
   8772   8771   8783   8785     1  0.0000000  0.6508444  3
   8773   8771   8783  16263     1  0.0000000  1.0460000  1
   8773   8771   8783  16263     1  0.0000000  0.0000000  3
   8773   8771   8783   8784     1  0.0000000  0.6508444  3
   8773   8771   8783   8785     1  0.0000000  0.6508444  3
   8775   8774   8780  16240     1  0.0000000  1.0460000  1
   8775   8774   8780  16240     1  0.0000000  0.0000000  3
   8775   8774   8780   8781     1  0.0000000  0.6508444  3
   8775   8774   8780   8782     1  0.0000000  0.6508444  3
   8776   8774   8780  16240     1  0.0000000  1.0460000  1
   8776   8774   8780  16240     1  0.0000000  0.0000000  3
   8776   8774   8780   8781     1  0.0000000  0.6508444  3
   8776   8774   8780   8782     1  0.0000000  0.6508444  3
   8780  16240  16236  16239     1  0.0000000  1.6038667  3
   8781   8780  16240  16236     1  0.0000000  1.6038667  3
   8782   8780  16240  16236     1  0.0000000  1.6038667  3
   8783  16263  16259  16262     1  0.0000000  1.6038667  3
   8784   8783  16263  16259     1  0.0000000  1.6038667  3
   8785   8783  16263  16259     1  0.0000000  1.6038667  3
   8787   8788   8800   8801     1  0.0000000  0.6508444  3
   8787   8788   8800   8802     1  0.0000000  0.6508444  3
   8787   8791   8803   8804     1  0.0000000  0.6508444  3
   8787   8791   8803   8805     1  0.0000000  0.6508444  3
   8787   8794   8797   8798     1  0.0000000  0.6508444  3
   8787   8794   8797   8799     1  0.0000000  0.6508444  3
   8788   8787   8791   8792     1  0.0000000  1.2552000  3
   8788   8787   8791   8793     1  0.0000000  1.2552000  3
   8788   8787   8794   8795     1  0.0000000  1.2552000  3
   8788   8787   8794   8796     1  0.0000000  1.2552000  3
   8788   8800   8812   8813     1  0.0000000  0.6508444  3
   8788   8800   8812   8814     1  0.0000000  0.6508444  3
   8789   8788   8787   8791     1  0.0000000  1.2552000  3
   8789   8788   8787   8794     1  0.0000000  1.2552000  3
   8789   8788   8800   8812     1  0.0000000  0.6508444  3
   8789   8788   8800   8801     1  0.0000000  0.6508444  3
   8789   8788   8800   8802     1  0.0000000  0.6508444  3
   8790   8788   8787   8791     1  0.0000000  1.2552000  3
   8790   8788   8787   8794     1  0.0000000  1.2552000  3
   8790   8788   8800   8812     1  0.0000000  0.6508444  3
   8790   8788   8800   8801     1  0.0000000  0.6508444  3
   8790   8788   8800   8802     1  0.0000000  0.6508444  3
   8791   8787   8794   8795     1  0.0000000  1.2552000  3
   8791   8787   8794   8796     1  0.0000000  1.2552000  3
   8791   8803   8809   8810     1  0.0000000  0.6508444  3
   8791   8803   8809   8811     1  0.0000000  0.6508444  3
   8792   8791   8787   8794     1  0.0000000  1.2552000  3
   8792   8791   8803   8809     1  0.0000000  0.6508444  3
   8792   8791   8803   8804     1  0.0000000  0.6508444  3
   8792   8791   8803   8805     1  0.0000000  0.6508444  3
   8793   8791   8787   8794     1  0.0000000  1.2552000  3
   8793   8791   8803   8809     1  0.0000000  0.6508444  3
   8793   8791   8803   8804     1  0.0000000  0.6508444  3
   8793   8791   8803   8805     1  0.0000000  0.6508444  3
   8794   8797   8806   8807     1  0.0000000  0.6508444  3
   8794   8797   8806   8808     1  0.0000000  0.6508444  3
   8795   8794   8797   8806     1  0.0000000  0.6508444  3
   8795   8794   8797   8798     1  0.0000000  0.6508444  3
   8795   8794   8797   8799     1  0.0000000  0.6508444  3
   8796   8794   8797   8806     1  0.0000000  0.6508444  3
   8796   8794   8797   8798     1  0.0000000  0.6508444  3
   8796   8794   8797   8799     1  0.0000000  0.6508444  3
   8798   8797   8806   8815     1  0.0000000  1.0460000  1
   8798   8797   8806   8815     1  0.0000000  0.0000000  3
   8798   8797   8806   8807     1  0.0000000  0.6508444  3
   8798   8797   8806   8808     1  0.0000000  0.6508444  3
   8799   8797   8806   8815     1  0.0000000  1.0460000  1
   8799   8797   8806   8815     1  0.0000000  0.0000000  3
   8799   8797   8806   8807     1  0.0000000  0.6508444  3
   8799   8797   8806   8808     1  0.0000000  0.6508444  3
   8801   8800   8812  16309     1  0.0000000  1.0460000  1
   8801   8800   8812  16309     1  0.0000000  0.0000000  3
   8801   8800   8812   8813     1  0.0000000  0.6508444  3
   8801   8800   8812   8814     1  0.0000000  0.6508444  3
   8802   8800   8812  16309     1  0.0000000  1.0460000  1
   8802   8800   8812  16309     1  0.0000000  0.0000000  3
   8802   8800   8812   8813     1  0.0000000  0.6508444  3
   8802   8800   8812   8814     1  0.0000000  0.6508444  3
   8804   8803   8809  16286     1  0.0000000  1.0460000  1
   8804   8803   8809  16286     1  0.0000000  0.0000000  3
   8804   8803   8809   8810     1  0.0000000  0.6508444  3
   8804   8803   8809   8811     1  0.0000000  0.6508444  3
   8805   8803   8809  16286     1  0.0000000  1.0460000  1
   8805   8803   8809  16286     1  0.0000000  0.0000000  3
   8805   8803   8809   8810     1  0.0000000  0.6508444  3
   8805   8803   8809   8811     1  0.0000000  0.6508444  3
   8809  16286  16282  16285     1  0.0000000  1.6038667  3
   8810   8809  16286  16282     1  0.0000000  1.6038667  3
   8811   8809  16286  16282     1  0.0000000  1.6038667  3
   8812  16309  16305  16308     1  0.0000000  1.6038667  3
   8813   8812  16309  16305     1  0.0000000  1.6038667  3
   8814   8812  16309  16305     1  0.0000000  1.6038667  3
   8816   8817   8829   8830     1  0.0000000  0.6508444  3
   8816   8817   8829   8831     1  0.0000000  0.6508444  3
   8816   8820   8832   8833     1  0.0000000  0.6508444  3
   8816   8820   8832   8834     1  0.0000000  0.6508444  3
   8816   8823   8826   8827     1  0.0000000  0.6508444  3
   8816   8823   8826   8828     1  0.0000000  0.6508444  3
   8817   8816   8820   8821     1  0.0000000  1.2552000  3
   8817   8816   8820   8822     1  0.0000000  1.2552000  3
   8817   8816   8823   8824     1  0.0000000  1.2552000  3
   8817   8816   8823   8825     1  0.0000000  1.2552000  3
   8817   8829   8841   8842     1  0.0000000  0.6508444  3
   8817   8829   8841   8843     1  0.0000000  0.6508444  3
   8818   8817   8816   8820     1  0.0000000  1.2552000  3
   8818   8817   8816   8823     1  0.0000000  1.2552000  3
   8818   8817   8829   8841     1  0.0000000  0.6508444  3
   8818   8817   8829   8830     1  0.0000000  0.6508444  3
   8818   8817   8829   8831     1  0.0000000  0.6508444  3
   8819   8817   8816   8820     1  0.0000000  1.2552000  3
   8819   8817   8816   8823     1  0.0000000  1.2552000  3
   8819   8817   8829   8841     1  0.0000000  0.6508444  3
   8819   8817   8829   8830     1  0.0000000  0.6508444  3
   8819   8817   8829   8831     1  0.0000000  0.6508444  3
   8820   8816   8823   8824     1  0.0000000  1.2552000  3
   8820   8816   8823   8825     1  0.0000000  1.2552000  3
   8820   8832   8838   8839     1  0.0000000  0.6508444  3
   8820   8832   8838   8840     1  0.0000000  0.6508444  3
   8821   8820   8816   8823     1  0.0000000  1.2552000  3
   8821   8820   8832   8838     1  0.0000000  0.6508444  3
   8821   8820   8832   8833     1  0.0000000  0.6508444  3
   8821   8820   8832   8834     1  0.0000000  0.6508444  3
   8822   8820   8816   8823     1  0.0000000  1.2552000  3
   8822   8820   8832   8838     1  0.0000000  0.6508444  3
   8822   8820   8832   8833     1  0.0000000  0.6508444  3
   8822   8820   8832   8834     1  0.0000000  0.6508444  3
   8823   8826   8835   8836     1  0.0000000  0.6508444  3
   8823   8826   8835   8837     1  0.0000000  0.6508444  3
   8824   8823   8826   8835     1  0.0000000  0.6508444  3
   8824   8823   8826   8827     1  0.0000000  0.6508444  3
   8824   8823   8826   8828     1  0.0000000  0.6508444  3
   8825   8823   8826   8835     1  0.0000000  0.6508444  3
   8825   8823   8826   8827     1  0.0000000  0.6508444  3
   8825   8823   8826   8828     1  0.0000000  0.6508444  3
   8827   8826   8835   8844     1  0.0000000  1.0460000  1
   8827   8826   8835   8844     1  0.0000000  0.0000000  3
   8827   8826   8835   8836     1  0.0000000  0.6508444  3
   8827   8826   8835   8837     1  0.0000000  0.6508444  3
   8828   8826   8835   8844     1  0.0000000  1.0460000  1
   8828   8826   8835   8844     1  0.0000000  0.0000000  3
   8828   8826   8835   8836     1  0.0000000  0.6508444  3
   8828   8826   8835   8837     1  0.0000000  0.6508444  3
   8830   8829   8841  16355     1  0.0000000  1.0460000  1
   8830   8829   8841  16355     1  0.0000000  0.0000000  3
   8830   8829   8841   8842     1  0.0000000  0.6508444  3
   8830   8829   8841   8843     1  0.0000000  0.6508444  3
   8831   8829   8841  16355     1  0.0000000  1.0460000  1
   8831   8829   8841  16355     1  0.0000000  0.0000000  3
   8831   8829   8841   8842     1  0.0000000  0.6508444  3
   8831   8829   8841   8843     1  0.0000000  0.6508444  3
   8833   8832   8838  16332     1  0.0000000  1.0460000  1
   8833   8832   8838  16332     1  0.0000000  0.0000000  3
   8833   8832   8838   8839     1  0.0000000  0.6508444  3
   8833   8832   8838   8840     1  0.0000000  0.6508444  3
   8834   8832   8838  16332     1  0.0000000  1.0460000  1
   8834   8832   8838  16332     1  0.0000000  0.0000000  3
   8834   8832   8838   8839     1  0.0000000  0.6508444  3
   8834   8832   8838   8840     1  0.0000000  0.6508444  3
   8838  16332  16328  16331     1  0.0000000  1.6038667  3
   8839   8838  16332  16328     1  0.0000000  1.6038667  3
   8840   8838  16332  16328     1  0.0000000  1.6038667  3
   8841  16355  16351  16354     1  0.0000000  1.6038667  3
   8842   8841  16355  16351     1  0.0000000  1.6038667  3
   8843   8841  16355  16351     1  0.0000000  1.6038667  3
   8845   8846   8858   8859     1  0.0000000  0.6508444  3
   8845   8846   8858   8860     1  0.0000000  0.6508444  3
   8845   8849   8861   8862     1  0.0000000  0.6508444  3
   8845   8849   8861   8863     1  0.0000000  0.6508444  3
   8845   8852   8855   8856     1  0.0000000  0.6508444  3
   8845   8852   8855   8857     1  0.0000000  0.6508444  3
   8846   8845   8849   8850     1  0.0000000  1.2552000  3
   8846   8845   8849   8851     1  0.0000000  1.2552000  3
   8846   8845   8852   8853     1  0.0000000  1.2552000  3
   8846   8845   8852   8854     1  0.0000000  1.2552000  3
   8846   8858   8870   8871     1  0.0000000  0.6508444  3
   8846   8858   8870   8872     1  0.0000000  0.6508444  3
   8847   8846   8845   8849     1  0.0000000  1.2552000  3
   8847   8846   8845   8852     1  0.0000000  1.2552000  3
   8847   8846   8858   8870     1  0.0000000  0.6508444  3
   8847   8846   8858   8859     1  0.0000000  0.6508444  3
   8847   8846   8858   8860     1  0.0000000  0.6508444  3
   8848   8846   8845   8849     1  0.0000000  1.2552000  3
   8848   8846   8845   8852     1  0.0000000  1.2552000  3
   8848   8846   8858   8870     1  0.0000000  0.6508444  3
   8848   8846   8858   8859     1  0.0000000  0.6508444  3
   8848   8846   8858   8860     1  0.0000000  0.6508444  3
   8849   8845   8852   8853     1  0.0000000  1.2552000  3
   8849   8845   8852   8854     1  0.0000000  1.2552000  3
   8849   8861   8867   8868     1  0.0000000  0.6508444  3
   8849   8861   8867   8869     1  0.0000000  0.6508444  3
   8850   8849   8845   8852     1  0.0000000  1.2552000  3
   8850   8849   8861   8867     1  0.0000000  0.6508444  3
   8850   8849   8861   8862     1  0.0000000  0.6508444  3
   8850   8849   8861   8863     1  0.0000000  0.6508444  3
   8851   8849   8845   8852     1  0.0000000  1.2552000  3
   8851   8849   8861   8867     1  0.0000000  0.6508444  3
   8851   8849   8861   8862     1  0.0000000  0.6508444  3
   8851   8849   8861   8863     1  0.0000000  0.6508444  3
   8852   8855   8864   8865     1  0.0000000  0.6508444  3
   8852   8855   8864   8866     1  0.0000000  0.6508444  3
   8853   8852   8855   8864     1  0.0000000  0.6508444  3
   8853   8852   8855   8856     1  0.0000000  0.6508444  3
   8853   8852   8855   8857     1  0.0000000  0.6508444  3
   8854   8852   8855   8864     1  0.0000000  0.6508444  3
   8854   8852   8855   8856     1  0.0000000  0.6508444  3
   8854   8852   8855   8857     1  0.0000000  0.6508444  3
   8856   8855   8864   8873     1  0.0000000  1.0460000  1
   8856   8855   8864   8873     1  0.0000000  0.0000000  3
   8856   8855   8864   8865     1  0.0000000  0.6508444  3
   8856   8855   8864   8866     1  0.0000000  0.6508444  3
   8857   8855   8864   8873     1  0.0000000  1.0460000  1
   8857   8855   8864   8873     1  0.0000000  0.0000000  3
   8857   8855   8864   8865     1  0.0000000  0.6508444  3
   8857   8855   8864   8866     1  0.0000000  0.6508444  3
   8859   8858   8870  16401     1  0.0000000  1.0460000  1
   8859   8858   8870  16401     1  0.0000000  0.0000000  3
   8859   8858   8870   8871     1  0.0000000  0.6508444  3
   8859   8858   8870   8872     1  0.0000000  0.6508444  3
   8860   8858   8870  16401     1  0.0000000  1.0460000  1
   8860   8858   8870  16401     1  0.0000000  0.0000000  3
   8860   8858   8870   8871     1  0.0000000  0.6508444  3
   8860   8858   8870   8872     1  0.0000000  0.6508444  3
   8862   8861   8867  16378     1  0.0000000  1.0460000  1
   8862   8861   8867  16378     1  0.0000000  0.0000000  3
   8862   8861   8867   8868     1  0.0000000  0.6508444  3
   8862   8861   8867   8869     1  0.0000000  0.6508444  3
   8863   8861   8867  16378     1  0.0000000  1.0460000  1
   8863   8861   8867  16378     1  0.0000000  0.0000000  3
   8863   8861   8867   8868     1  0.0000000  0.6508444  3
   8863   8861   8867   8869     1  0.0000000  0.6508444  3
   8867  16378  16374  16377     1  0.0000000  1.6038667  3
   8868   8867  16378  16374     1  0.0000000  1.6038667  3
   8869   8867  16378  16374     1  0.0000000  1.6038667  3
   8870  16401  16397  16400     1  0.0000000  1.6038667  3
   8871   8870  16401  16397     1  0.0000000  1.6038667  3
   8872   8870  16401  16397     1  0.0000000  1.6038667  3
   8874   8875   8887   8888     1  0.0000000  0.6508444  3
   8874   8875   8887   8889     1  0.0000000  0.6508444  3
   8874   8878   8890   8891     1  0.0000000  0.6508444  3
   8874   8878   8890   8892     1  0.0000000  0.6508444  3
   8874   8881   8884   8885     1  0.0000000  0.6508444  3
   8874   8881   8884   8886     1  0.0000000  0.6508444  3
   8875   8874   8878   8879     1  0.0000000  1.2552000  3
   8875   8874   8878   8880     1  0.0000000  1.2552000  3
   8875   8874   8881   8882     1  0.0000000  1.2552000  3
   8875   8874   8881   8883     1  0.0000000  1.2552000  3
   8875   8887   8899   8900     1  0.0000000  0.6508444  3
   8875   8887   8899   8901     1  0.0000000  0.6508444  3
   8876   8875   8874   8878     1  0.0000000  1.2552000  3
   8876   8875   8874   8881     1  0.0000000  1.2552000  3
   8876   8875   8887   8899     1  0.0000000  0.6508444  3
   8876   8875   8887   8888     1  0.0000000  0.6508444  3
   8876   8875   8887   8889     1  0.0000000  0.6508444  3
   8877   8875   8874   8878     1  0.0000000  1.2552000  3
   8877   8875   8874   8881     1  0.0000000  1.2552000  3
   8877   8875   8887   8899     1  0.0000000  0.6508444  3
   8877   8875   8887   8888     1  0.0000000  0.6508444  3
   8877   8875   8887   8889     1  0.0000000  0.6508444  3
   8878   8874   8881   8882     1  0.0000000  1.2552000  3
   8878   8874   8881   8883     1  0.0000000  1.2552000  3
   8878   8890   8896   8897     1  0.0000000  0.6508444  3
   8878   8890   8896   8898     1  0.0000000  0.6508444  3
   8879   8878   8874   8881     1  0.0000000  1.2552000  3
   8879   8878   8890   8896     1  0.0000000  0.6508444  3
   8879   8878   8890   8891     1  0.0000000  0.6508444  3
   8879   8878   8890   8892     1  0.0000000  0.6508444  3
   8880   8878   8874   8881     1  0.0000000  1.2552000  3
   8880   8878   8890   8896     1  0.0000000  0.6508444  3
   8880   8878   8890   8891     1  0.0000000  0.6508444  3
   8880   8878   8890   8892     1  0.0000000  0.6508444  3
   8881   8884   8893   8894     1  0.0000000  0.6508444  3
   8881   8884   8893   8895     1  0.0000000  0.6508444  3
   8882   8881   8884   8893     1  0.0000000  0.6508444  3
   8882   8881   8884   8885     1  0.0000000  0.6508444  3
   8882   8881   8884   8886     1  0.0000000  0.6508444  3
   8883   8881   8884   8893     1  0.0000000  0.6508444  3
   8883   8881   8884   8885     1  0.0000000  0.6508444  3
   8883   8881   8884   8886     1  0.0000000  0.6508444  3
   8885   8884   8893   8902     1  0.0000000  1.0460000  1
   8885   8884   8893   8902     1  0.0000000  0.0000000  3
   8885   8884   8893   8894     1  0.0000000  0.6508444  3
   8885   8884   8893   8895     1  0.0000000  0.6508444  3
   8886   8884   8893   8902     1  0.0000000  1.0460000  1
   8886   8884   8893   8902     1  0.0000000  0.0000000  3
   8886   8884   8893   8894     1  0.0000000  0.6508444  3
   8886   8884   8893   8895     1  0.0000000  0.6508444  3
   8888   8887   8899  16447     1  0.0000000  1.0460000  1
   8888   8887   8899  16447     1  0.0000000  0.0000000  3
   8888   8887   8899   8900     1  0.0000000  0.6508444  3
   8888   8887   8899   8901     1  0.0000000  0.6508444  3
   8889   8887   8899  16447     1  0.0000000  1.0460000  1
   8889   8887   8899  16447     1  0.0000000  0.0000000  3
   8889   8887   8899   8900     1  0.0000000  0.6508444  3
   8889   8887   8899   8901     1  0.0000000  0.6508444  3
   8891   8890   8896  16424     1  0.0000000  1.0460000  1
   8891   8890   8896  16424     1  0.0000000  0.0000000  3
   8891   8890   8896   8897     1  0.0000000  0.6508444  3
   8891   8890   8896   8898     1  0.0000000  0.6508444  3
   8892   8890   8896  16424     1  0.0000000  1.0460000  1
   8892   8890   8896  16424     1  0.0000000  0.0000000  3
   8892   8890   8896   8897     1  0.0000000  0.6508444  3
   8892   8890   8896   8898     1  0.0000000  0.6508444  3
   8896  16424  16420  16423     1  0.0000000  1.6038667  3
   8897   8896  16424  16420     1  0.0000000  1.6038667  3
   8898   8896  16424  16420     1  0.0000000  1.6038667  3
   8899  16447  16443  16446     1  0.0000000  1.6038667  3
   8900   8899  16447  16443     1  0.0000000  1.6038667  3
   8901   8899  16447  16443     1  0.0000000  1.6038667  3
   8903   8904   8916   8917     1  0.0000000  0.6508444  3
   8903   8904   8916   8918     1  0.0000000  0.6508444  3
   8903   8907   8919   8920     1  0.0000000  0.6508444  3
   8903   8907   8919   8921     1  0.0000000  0.6508444  3
   8903   8910   8913   8914     1  0.0000000  0.6508444  3
   8903   8910   8913   8915     1  0.0000000  0.6508444  3
   8904   8903   8907   8908     1  0.0000000  1.2552000  3
   8904   8903   8907   8909     1  0.0000000  1.2552000  3
   8904   8903   8910   8911     1  0.0000000  1.2552000  3
   8904   8903   8910   8912     1  0.0000000  1.2552000  3
   8904   8916   8928   8929     1  0.0000000  0.6508444  3
   8904   8916   8928   8930     1  0.0000000  0.6508444  3
   8905   8904   8903   8907     1  0.0000000  1.2552000  3
   8905   8904   8903   8910     1  0.0000000  1.2552000  3
   8905   8904   8916   8928     1  0.0000000  0.6508444  3
   8905   8904   8916   8917     1  0.0000000  0.6508444  3
   8905   8904   8916   8918     1  0.0000000  0.6508444  3
   8906   8904   8903   8907     1  0.0000000  1.2552000  3
   8906   8904   8903   8910     1  0.0000000  1.2552000  3
   8906   8904   8916   8928     1  0.0000000  0.6508444  3
   8906   8904   8916   8917     1  0.0000000  0.6508444  3
   8906   8904   8916   8918     1  0.0000000  0.6508444  3
   8907   8903   8910   8911     1  0.0000000  1.2552000  3
   8907   8903   8910   8912     1  0.0000000  1.2552000  3
   8907   8919   8925   8926     1  0.0000000  0.6508444  3
   8907   8919   8925   8927     1  0.0000000  0.6508444  3
   8908   8907   8903   8910     1  0.0000000  1.2552000  3
   8908   8907   8919   8925     1  0.0000000  0.6508444  3
   8908   8907   8919   8920     1  0.0000000  0.6508444  3
   8908   8907   8919   8921     1  0.0000000  0.6508444  3
   8909   8907   8903   8910     1  0.0000000  1.2552000  3
   8909   8907   8919   8925     1  0.0000000  0.6508444  3
   8909   8907   8919   8920     1  0.0000000  0.6508444  3
   8909   8907   8919   8921     1  0.0000000  0.6508444  3
   8910   8913   8922   8923     1  0.0000000  0.6508444  3
   8910   8913   8922   8924     1  0.0000000  0.6508444  3
   8911   8910   8913   8922     1  0.0000000  0.6508444  3
   8911   8910   8913   8914     1  0.0000000  0.6508444  3
   8911   8910   8913   8915     1  0.0000000  0.6508444  3
   8912   8910   8913   8922     1  0.0000000  0.6508444  3
   8912   8910   8913   8914     1  0.0000000  0.6508444  3
   8912   8910   8913   8915     1  0.0000000  0.6508444  3
   8914   8913   8922   8931     1  0.0000000  1.0460000  1
   8914   8913   8922   8931     1  0.0000000  0.0000000  3
   8914   8913   8922   8923     1  0.0000000  0.6508444  3
   8914   8913   8922   8924     1  0.0000000  0.6508444  3
   8915   8913   8922   8931     1  0.0000000  1.0460000  1
   8915   8913   8922   8931     1  0.0000000  0.0000000  3
   8915   8913   8922   8923     1  0.0000000  0.6508444  3
   8915   8913   8922   8924     1  0.0000000  0.6508444  3
   8917   8916   8928  16493     1  0.0000000  1.0460000  1
   8917   8916   8928  16493     1  0.0000000  0.0000000  3
   8917   8916   8928   8929     1  0.0000000  0.6508444  3
   8917   8916   8928   8930     1  0.0000000  0.6508444  3
   8918   8916   8928  16493     1  0.0000000  1.0460000  1
   8918   8916   8928  16493     1  0.0000000  0.0000000  3
   8918   8916   8928   8929     1  0.0000000  0.6508444  3
   8918   8916   8928   8930     1  0.0000000  0.6508444  3
   8920   8919   8925  16470     1  0.0000000  1.0460000  1
   8920   8919   8925  16470     1  0.0000000  0.0000000  3
   8920   8919   8925   8926     1  0.0000000  0.6508444  3
   8920   8919   8925   8927     1  0.0000000  0.6508444  3
   8921   8919   8925  16470     1  0.0000000  1.0460000  1
   8921   8919   8925  16470     1  0.0000000  0.0000000  3
   8921   8919   8925   8926     1  0.0000000  0.6508444  3
   8921   8919   8925   8927     1  0.0000000  0.6508444  3
   8925  16470  16466  16469     1  0.0000000  1.6038667  3
   8926   8925  16470  16466     1  0.0000000  1.6038667  3
   8927   8925  16470  16466     1  0.0000000  1.6038667  3
   8928  16493  16489  16492     1  0.0000000  1.6038667  3
   8929   8928  16493  16489     1  0.0000000  1.6038667  3
   8930   8928  16493  16489     1  0.0000000  1.6038667  3
   8932   8933   8945   8946     1  0.0000000  0.6508444  3
   8932   8933   8945   8947     1  0.0000000  0.6508444  3
   8932   8936   8948   8949     1  0.0000000  0.6508444  3
   8932   8936   8948   8950     1  0.0000000  0.6508444  3
   8932   8939   8942   8943     1  0.0000000  0.6508444  3
   8932   8939   8942   8944     1  0.0000000  0.6508444  3
   8933   8932   8936   8937     1  0.0000000  1.2552000  3
   8933   8932   8936   8938     1  0.0000000  1.2552000  3
   8933   8932   8939   8940     1  0.0000000  1.2552000  3
   8933   8932   8939   8941     1  0.0000000  1.2552000  3
   8933   8945   8957   8958     1  0.0000000  0.6508444  3
   8933   8945   8957   8959     1  0.0000000  0.6508444  3
   8934   8933   8932   8936     1  0.0000000  1.2552000  3
   8934   8933   8932   8939     1  0.0000000  1.2552000  3
   8934   8933   8945   8957     1  0.0000000  0.6508444  3
   8934   8933   8945   8946     1  0.0000000  0.6508444  3
   8934   8933   8945   8947     1  0.0000000  0.6508444  3
   8935   8933   8932   8936     1  0.0000000  1.2552000  3
   8935   8933   8932   8939     1  0.0000000  1.2552000  3
   8935   8933   8945   8957     1  0.0000000  0.6508444  3
   8935   8933   8945   8946     1  0.0000000  0.6508444  3
   8935   8933   8945   8947     1  0.0000000  0.6508444  3
   8936   8932   8939   8940     1  0.0000000  1.2552000  3
   8936   8932   8939   8941     1  0.0000000  1.2552000  3
   8936   8948   8954   8955     1  0.0000000  0.6508444  3
   8936   8948   8954   8956     1  0.0000000  0.6508444  3
   8937   8936   8932   8939     1  0.0000000  1.2552000  3
   8937   8936   8948   8954     1  0.0000000  0.6508444  3
   8937   8936   8948   8949     1  0.0000000  0.6508444  3
   8937   8936   8948   8950     1  0.0000000  0.6508444  3
   8938   8936   8932   8939     1  0.0000000  1.2552000  3
   8938   8936   8948   8954     1  0.0000000  0.6508444  3
   8938   8936   8948   8949     1  0.0000000  0.6508444  3
   8938   8936   8948   8950     1  0.0000000  0.6508444  3
   8939   8942   8951   8952     1  0.0000000  0.6508444  3
   8939   8942   8951   8953     1  0.0000000  0.6508444  3
   8940   8939   8942   8951     1  0.0000000  0.6508444  3
   8940   8939   8942   8943     1  0.0000000  0.6508444  3
   8940   8939   8942   8944     1  0.0000000  0.6508444  3
   8941   8939   8942   8951     1  0.0000000  0.6508444  3
   8941   8939   8942   8943     1  0.0000000  0.6508444  3
   8941   8939   8942   8944     1  0.0000000  0.6508444  3
   8943   8942   8951   8960     1  0.0000000  1.0460000  1
   8943   8942   8951   8960     1  0.0000000  0.0000000  3
   8943   8942   8951   8952     1  0.0000000  0.6508444  3
   8943   8942   8951   8953     1  0.0000000  0.6508444  3
   8944   8942   8951   8960     1  0.0000000  1.0460000  1
   8944   8942   8951   8960     1  0.0000000  0.0000000  3
   8944   8942   8951   8952     1  0.0000000  0.6508444  3
   8944   8942   8951   8953     1  0.0000000  0.6508444  3
   8946   8945   8957  16539     1  0.0000000  1.0460000  1
   8946   8945   8957  16539     1  0.0000000  0.0000000  3
   8946   8945   8957   8958     1  0.0000000  0.6508444  3
   8946   8945   8957   8959     1  0.0000000  0.6508444  3
   8947   8945   8957  16539     1  0.0000000  1.0460000  1
   8947   8945   8957  16539     1  0.0000000  0.0000000  3
   8947   8945   8957   8958     1  0.0000000  0.6508444  3
   8947   8945   8957   8959     1  0.0000000  0.6508444  3
   8949   8948   8954  16516     1  0.0000000  1.0460000  1
   8949   8948   8954  16516     1  0.0000000  0.0000000  3
   8949   8948   8954   8955     1  0.0000000  0.6508444  3
   8949   8948   8954   8956     1  0.0000000  0.6508444  3
   8950   8948   8954  16516     1  0.0000000  1.0460000  1
   8950   8948   8954  16516     1  0.0000000  0.0000000  3
   8950   8948   8954   8955     1  0.0000000  0.6508444  3
   8950   8948   8954   8956     1  0.0000000  0.6508444  3
   8954  16516  16512  16515     1  0.0000000  1.6038667  3
   8955   8954  16516  16512     1  0.0000000  1.6038667  3
   8956   8954  16516  16512     1  0.0000000  1.6038667  3
   8957  16539  16535  16538     1  0.0000000  1.6038667  3
   8958   8957  16539  16535     1  0.0000000  1.6038667  3
   8959   8957  16539  16535     1  0.0000000  1.6038667  3
   8961   8962   8974   8975     1  0.0000000  0.6508444  3
   8961   8962   8974   8976     1  0.0000000  0.6508444  3
   8961   8965   8977   8978     1  0.0000000  0.6508444  3
   8961   8965   8977   8979     1  0.0000000  0.6508444  3
   8961   8968   8971   8972     1  0.0000000  0.6508444  3
   8961   8968   8971   8973     1  0.0000000  0.6508444  3
   8962   8961   8965   8966     1  0.0000000  1.2552000  3
   8962   8961   8965   8967     1  0.0000000  1.2552000  3
   8962   8961   8968   8969     1  0.0000000  1.2552000  3
   8962   8961   8968   8970     1  0.0000000  1.2552000  3
   8962   8974   8986   8987     1  0.0000000  0.6508444  3
   8962   8974   8986   8988     1  0.0000000  0.6508444  3
   8963   8962   8961   8965     1  0.0000000  1.2552000  3
   8963   8962   8961   8968     1  0.0000000  1.2552000  3
   8963   8962   8974   8986     1  0.0000000  0.6508444  3
   8963   8962   8974   8975     1  0.0000000  0.6508444  3
   8963   8962   8974   8976     1  0.0000000  0.6508444  3
   8964   8962   8961   8965     1  0.0000000  1.2552000  3
   8964   8962   8961   8968     1  0.0000000  1.2552000  3
   8964   8962   8974   8986     1  0.0000000  0.6508444  3
   8964   8962   8974   8975     1  0.0000000  0.6508444  3
   8964   8962   8974   8976     1  0.0000000  0.6508444  3
   8965   8961   8968   8969     1  0.0000000  1.2552000  3
   8965   8961   8968   8970     1  0.0000000  1.2552000  3
   8965   8977   8983   8984     1  0.0000000  0.6508444  3
   8965   8977   8983   8985     1  0.0000000  0.6508444  3
   8966   8965   8961   8968     1  0.0000000  1.2552000  3
   8966   8965   8977   8983     1  0.0000000  0.6508444  3
   8966   8965   8977   8978     1  0.0000000  0.6508444  3
   8966   8965   8977   8979     1  0.0000000  0.6508444  3
   8967   8965   8961   8968     1  0.0000000  1.2552000  3
   8967   8965   8977   8983     1  0.0000000  0.6508444  3
   8967   8965   8977   8978     1  0.0000000  0.6508444  3
   8967   8965   8977   8979     1  0.0000000  0.6508444  3
   8968   8971   8980   8981     1  0.0000000  0.6508444  3
   8968   8971   8980   8982     1  0.0000000  0.6508444  3
   8969   8968   8971   8980     1  0.0000000  0.6508444  3
   8969   8968   8971   8972     1  0.0000000  0.6508444  3
   8969   8968   8971   8973     1  0.0000000  0.6508444  3
   8970   8968   8971   8980     1  0.0000000  0.6508444  3
   8970   8968   8971   8972     1  0.0000000  0.6508444  3
   8970   8968   8971   8973     1  0.0000000  0.6508444  3
   8972   8971   8980   8989     1  0.0000000  1.0460000  1
   8972   8971   8980   8989     1  0.0000000  0.0000000  3
   8972   8971   8980   8981     1  0.0000000  0.6508444  3
   8972   8971   8980   8982     1  0.0000000  0.6508444  3
   8973   8971   8980   8989     1  0.0000000  1.0460000  1
   8973   8971   8980   8989     1  0.0000000  0.0000000  3
   8973   8971   8980   8981     1  0.0000000  0.6508444  3
   8973   8971   8980   8982     1  0.0000000  0.6508444  3
   8975   8974   8986  16585     1  0.0000000  1.0460000  1
   8975   8974   8986  16585     1  0.0000000  0.0000000  3
   8975   8974   8986   8987     1  0.0000000  0.6508444  3
   8975   8974   8986   8988     1  0.0000000  0.6508444  3
   8976   8974   8986  16585     1  0.0000000  1.0460000  1
   8976   8974   8986  16585     1  0.0000000  0.0000000  3
   8976   8974   8986   8987     1  0.0000000  0.6508444  3
   8976   8974   8986   8988     1  0.0000000  0.6508444  3
   8978   8977   8983  16562     1  0.0000000  1.0460000  1
   8978   8977   8983  16562     1  0.0000000  0.0000000  3
   8978   8977   8983   8984     1  0.0000000  0.6508444  3
   8978   8977   8983   8985     1  0.0000000  0.6508444  3
   8979   8977   8983  16562     1  0.0000000  1.0460000  1
   8979   8977   8983  16562     1  0.0000000  0.0000000  3
   8979   8977   8983   8984     1  0.0000000  0.6508444  3
   8979   8977   8983   8985     1  0.0000000  0.6508444  3
   8983  16562  16558  16561     1  0.0000000  1.6038667  3
   8984   8983  16562  16558     1  0.0000000  1.6038667  3
   8985   8983  16562  16558     1  0.0000000  1.6038667  3
   8986  16585  16581  16584     1  0.0000000  1.6038667  3
   8987   8986  16585  16581     1  0.0000000  1.6038667  3
   8988   8986  16585  16581     1  0.0000000  1.6038667  3
   8990   8991   9003   9004     1  0.0000000  0.6508444  3
   8990   8991   9003   9005     1  0.0000000  0.6508444  3
   8990   8994   9006   9007     1  0.0000000  0.6508444  3
   8990   8994   9006   9008     1  0.0000000  0.6508444  3
   8990   8997   9000   9001     1  0.0000000  0.6508444  3
   8990   8997   9000   9002     1  0.0000000  0.6508444  3
   8991   8990   8994   8995     1  0.0000000  1.2552000  3
   8991   8990   8994   8996     1  0.0000000  1.2552000  3
   8991   8990   8997   8998     1  0.0000000  1.2552000  3
   8991   8990   8997   8999     1  0.0000000  1.2552000  3
   8991   9003   9015   9016     1  0.0000000  0.6508444  3
   8991   9003   9015   9017     1  0.0000000  0.6508444  3
   8992   8991   8990   8994     1  0.0000000  1.2552000  3
   8992   8991   8990   8997     1  0.0000000  1.2552000  3
   8992   8991   9003   9015     1  0.0000000  0.6508444  3
   8992   8991   9003   9004     1  0.0000000  0.6508444  3
   8992   8991   9003   9005     1  0.0000000  0.6508444  3
   8993   8991   8990   8994     1  0.0000000  1.2552000  3
   8993   8991   8990   8997     1  0.0000000  1.2552000  3
   8993   8991   9003   9015     1  0.0000000  0.6508444  3
   8993   8991   9003   9004     1  0.0000000  0.6508444  3
   8993   8991   9003   9005     1  0.0000000  0.6508444  3
   8994   8990   8997   8998     1  0.0000000  1.2552000  3
   8994   8990   8997   8999     1  0.0000000  1.2552000  3
   8994   9006   9012   9013     1  0.0000000  0.6508444  3
   8994   9006   9012   9014     1  0.0000000  0.6508444  3
   8995   8994   8990   8997     1  0.0000000  1.2552000  3
   8995   8994   9006   9012     1  0.0000000  0.6508444  3
   8995   8994   9006   9007     1  0.0000000  0.6508444  3
   8995   8994   9006   9008     1  0.0000000  0.6508444  3
   8996   8994   8990   8997     1  0.0000000  1.2552000  3
   8996   8994   9006   9012     1  0.0000000  0.6508444  3
   8996   8994   9006   9007     1  0.0000000  0.6508444  3
   8996   8994   9006   9008     1  0.0000000  0.6508444  3
   8997   9000   9009   9010     1  0.0000000  0.6508444  3
   8997   9000   9009   9011     1  0.0000000  0.6508444  3
   8998   8997   9000   9009     1  0.0000000  0.6508444  3
   8998   8997   9000   9001     1  0.0000000  0.6508444  3
   8998   8997   9000   9002     1  0.0000000  0.6508444  3
   8999   8997   9000   9009     1  0.0000000  0.6508444  3
   8999   8997   9000   9001     1  0.0000000  0.6508444  3
   8999   8997   9000   9002     1  0.0000000  0.6508444  3
   9001   9000   9009   9018     1  0.0000000  1.0460000  1
   9001   9000   9009   9018     1  0.0000000  0.0000000  3
   9001   9000   9009   9010     1  0.0000000  0.6508444  3
   9001   9000   9009   9011     1  0.0000000  0.6508444  3
   9002   9000   9009   9018     1  0.0000000  1.0460000  1
   9002   9000   9009   9018     1  0.0000000  0.0000000  3
   9002   9000   9009   9010     1  0.0000000  0.6508444  3
   9002   9000   9009   9011     1  0.0000000  0.6508444  3
   9004   9003   9015  16631     1  0.0000000  1.0460000  1
   9004   9003   9015  16631     1  0.0000000  0.0000000  3
   9004   9003   9015   9016     1  0.0000000  0.6508444  3
   9004   9003   9015   9017     1  0.0000000  0.6508444  3
   9005   9003   9015  16631     1  0.0000000  1.0460000  1
   9005   9003   9015  16631     1  0.0000000  0.0000000  3
   9005   9003   9015   9016     1  0.0000000  0.6508444  3
   9005   9003   9015   9017     1  0.0000000  0.6508444  3
   9007   9006   9012  16608     1  0.0000000  1.0460000  1
   9007   9006   9012  16608     1  0.0000000  0.0000000  3
   9007   9006   9012   9013     1  0.0000000  0.6508444  3
   9007   9006   9012   9014     1  0.0000000  0.6508444  3
   9008   9006   9012  16608     1  0.0000000  1.0460000  1
   9008   9006   9012  16608     1  0.0000000  0.0000000  3
   9008   9006   9012   9013     1  0.0000000  0.6508444  3
   9008   9006   9012   9014     1  0.0000000  0.6508444  3
   9012  16608  16604  16607     1  0.0000000  1.6038667  3
   9013   9012  16608  16604     1  0.0000000  1.6038667  3
   9014   9012  16608  16604     1  0.0000000  1.6038667  3
   9015  16631  16627  16630     1  0.0000000  1.6038667  3
   9016   9015  16631  16627     1  0.0000000  1.6038667  3
   9017   9015  16631  16627     1  0.0000000  1.6038667  3
   9019   9020   9032   9033     1  0.0000000  0.6508444  3
   9019   9020   9032   9034     1  0.0000000  0.6508444  3
   9019   9023   9035   9036     1  0.0000000  0.6508444  3
   9019   9023   9035   9037     1  0.0000000  0.6508444  3
   9019   9026   9029   9030     1  0.0000000  0.6508444  3
   9019   9026   9029   9031     1  0.0000000  0.6508444  3
   9020   9019   9023   9024     1  0.0000000  1.2552000  3
   9020   9019   9023   9025     1  0.0000000  1.2552000  3
   9020   9019   9026   9027     1  0.0000000  1.2552000  3
   9020   9019   9026   9028     1  0.0000000  1.2552000  3
   9020   9032   9044   9045     1  0.0000000  0.6508444  3
   9020   9032   9044   9046     1  0.0000000  0.6508444  3
   9021   9020   9019   9023     1  0.0000000  1.2552000  3
   9021   9020   9019   9026     1  0.0000000  1.2552000  3
   9021   9020   9032   9044     1  0.0000000  0.6508444  3
   9021   9020   9032   9033     1  0.0000000  0.6508444  3
   9021   9020   9032   9034     1  0.0000000  0.6508444  3
   9022   9020   9019   9023     1  0.0000000  1.2552000  3
   9022   9020   9019   9026     1  0.0000000  1.2552000  3
   9022   9020   9032   9044     1  0.0000000  0.6508444  3
   9022   9020   9032   9033     1  0.0000000  0.6508444  3
   9022   9020   9032   9034     1  0.0000000  0.6508444  3
   9023   9019   9026   9027     1  0.0000000  1.2552000  3
   9023   9019   9026   9028     1  0.0000000  1.2552000  3
   9023   9035   9041   9042     1  0.0000000  0.6508444  3
   9023   9035   9041   9043     1  0.0000000  0.6508444  3
   9024   9023   9019   9026     1  0.0000000  1.2552000  3
   9024   9023   9035   9041     1  0.0000000  0.6508444  3
   9024   9023   9035   9036     1  0.0000000  0.6508444  3
   9024   9023   9035   9037     1  0.0000000  0.6508444  3
   9025   9023   9019   9026     1  0.0000000  1.2552000  3
   9025   9023   9035   9041     1  0.0000000  0.6508444  3
   9025   9023   9035   9036     1  0.0000000  0.6508444  3
   9025   9023   9035   9037     1  0.0000000  0.6508444  3
   9026   9029   9038   9039     1  0.0000000  0.6508444  3
   9026   9029   9038   9040     1  0.0000000  0.6508444  3
   9027   9026   9029   9038     1  0.0000000  0.6508444  3
   9027   9026   9029   9030     1  0.0000000  0.6508444  3
   9027   9026   9029   9031     1  0.0000000  0.6508444  3
   9028   9026   9029   9038     1  0.0000000  0.6508444  3
   9028   9026   9029   9030     1  0.0000000  0.6508444  3
   9028   9026   9029   9031     1  0.0000000  0.6508444  3
   9030   9029   9038   9047     1  0.0000000  1.0460000  1
   9030   9029   9038   9047     1  0.0000000  0.0000000  3
   9030   9029   9038   9039     1  0.0000000  0.6508444  3
   9030   9029   9038   9040     1  0.0000000  0.6508444  3
   9031   9029   9038   9047     1  0.0000000  1.0460000  1
   9031   9029   9038   9047     1  0.0000000  0.0000000  3
   9031   9029   9038   9039     1  0.0000000  0.6508444  3
   9031   9029   9038   9040     1  0.0000000  0.6508444  3
   9033   9032   9044  16677     1  0.0000000  1.0460000  1
   9033   9032   9044  16677     1  0.0000000  0.0000000  3
   9033   9032   9044   9045     1  0.0000000  0.6508444  3
   9033   9032   9044   9046     1  0.0000000  0.6508444  3
   9034   9032   9044  16677     1  0.0000000  1.0460000  1
   9034   9032   9044  16677     1  0.0000000  0.0000000  3
   9034   9032   9044   9045     1  0.0000000  0.6508444  3
   9034   9032   9044   9046     1  0.0000000  0.6508444  3
   9036   9035   9041  16654     1  0.0000000  1.0460000  1
   9036   9035   9041  16654     1  0.0000000  0.0000000  3
   9036   9035   9041   9042     1  0.0000000  0.6508444  3
   9036   9035   9041   9043     1  0.0000000  0.6508444  3
   9037   9035   9041  16654     1  0.0000000  1.0460000  1
   9037   9035   9041  16654     1  0.0000000  0.0000000  3
   9037   9035   9041   9042     1  0.0000000  0.6508444  3
   9037   9035   9041   9043     1  0.0000000  0.6508444  3
   9041  16654  16650  16653     1  0.0000000  1.6038667  3
   9042   9041  16654  16650     1  0.0000000  1.6038667  3
   9043   9041  16654  16650     1  0.0000000  1.6038667  3
   9044  16677  16673  16676     1  0.0000000  1.6038667  3
   9045   9044  16677  16673     1  0.0000000  1.6038667  3
   9046   9044  16677  16673     1  0.0000000  1.6038667  3
   9048   9049   9061   9062     1  0.0000000  0.6508444  3
   9048   9049   9061   9063     1  0.0000000  0.6508444  3
   9048   9052   9064   9065     1  0.0000000  0.6508444  3
   9048   9052   9064   9066     1  0.0000000  0.6508444  3
   9048   9055   9058   9059     1  0.0000000  0.6508444  3
   9048   9055   9058   9060     1  0.0000000  0.6508444  3
   9049   9048   9052   9053     1  0.0000000  1.2552000  3
   9049   9048   9052   9054     1  0.0000000  1.2552000  3
   9049   9048   9055   9056     1  0.0000000  1.2552000  3
   9049   9048   9055   9057     1  0.0000000  1.2552000  3
   9049   9061   9073   9074     1  0.0000000  0.6508444  3
   9049   9061   9073   9075     1  0.0000000  0.6508444  3
   9050   9049   9048   9052     1  0.0000000  1.2552000  3
   9050   9049   9048   9055     1  0.0000000  1.2552000  3
   9050   9049   9061   9073     1  0.0000000  0.6508444  3
   9050   9049   9061   9062     1  0.0000000  0.6508444  3
   9050   9049   9061   9063     1  0.0000000  0.6508444  3
   9051   9049   9048   9052     1  0.0000000  1.2552000  3
   9051   9049   9048   9055     1  0.0000000  1.2552000  3
   9051   9049   9061   9073     1  0.0000000  0.6508444  3
   9051   9049   9061   9062     1  0.0000000  0.6508444  3
   9051   9049   9061   9063     1  0.0000000  0.6508444  3
   9052   9048   9055   9056     1  0.0000000  1.2552000  3
   9052   9048   9055   9057     1  0.0000000  1.2552000  3
   9052   9064   9070   9071     1  0.0000000  0.6508444  3
   9052   9064   9070   9072     1  0.0000000  0.6508444  3
   9053   9052   9048   9055     1  0.0000000  1.2552000  3
   9053   9052   9064   9070     1  0.0000000  0.6508444  3
   9053   9052   9064   9065     1  0.0000000  0.6508444  3
   9053   9052   9064   9066     1  0.0000000  0.6508444  3
   9054   9052   9048   9055     1  0.0000000  1.2552000  3
   9054   9052   9064   9070     1  0.0000000  0.6508444  3
   9054   9052   9064   9065     1  0.0000000  0.6508444  3
   9054   9052   9064   9066     1  0.0000000  0.6508444  3
   9055   9058   9067   9068     1  0.0000000  0.6508444  3
   9055   9058   9067   9069     1  0.0000000  0.6508444  3
   9056   9055   9058   9067     1  0.0000000  0.6508444  3
   9056   9055   9058   9059     1  0.0000000  0.6508444  3
   9056   9055   9058   9060     1  0.0000000  0.6508444  3
   9057   9055   9058   9067     1  0.0000000  0.6508444  3
   9057   9055   9058   9059     1  0.0000000  0.6508444  3
   9057   9055   9058   9060     1  0.0000000  0.6508444  3
   9059   9058   9067   9076     1  0.0000000  1.0460000  1
   9059   9058   9067   9076     1  0.0000000  0.0000000  3
   9059   9058   9067   9068     1  0.0000000  0.6508444  3
   9059   9058   9067   9069     1  0.0000000  0.6508444  3
   9060   9058   9067   9076     1  0.0000000  1.0460000  1
   9060   9058   9067   9076     1  0.0000000  0.0000000  3
   9060   9058   9067   9068     1  0.0000000  0.6508444  3
   9060   9058   9067   9069     1  0.0000000  0.6508444  3
   9062   9061   9073  16723     1  0.0000000  1.0460000  1
   9062   9061   9073  16723     1  0.0000000  0.0000000  3
   9062   9061   9073   9074     1  0.0000000  0.6508444  3
   9062   9061   9073   9075     1  0.0000000  0.6508444  3
   9063   9061   9073  16723     1  0.0000000  1.0460000  1
   9063   9061   9073  16723     1  0.0000000  0.0000000  3
   9063   9061   9073   9074     1  0.0000000  0.6508444  3
   9063   9061   9073   9075     1  0.0000000  0.6508444  3
   9065   9064   9070  16700     1  0.0000000  1.0460000  1
   9065   9064   9070  16700     1  0.0000000  0.0000000  3
   9065   9064   9070   9071     1  0.0000000  0.6508444  3
   9065   9064   9070   9072     1  0.0000000  0.6508444  3
   9066   9064   9070  16700     1  0.0000000  1.0460000  1
   9066   9064   9070  16700     1  0.0000000  0.0000000  3
   9066   9064   9070   9071     1  0.0000000  0.6508444  3
   9066   9064   9070   9072     1  0.0000000  0.6508444  3
   9070  16700  16696  16699     1  0.0000000  1.6038667  3
   9071   9070  16700  16696     1  0.0000000  1.6038667  3
   9072   9070  16700  16696     1  0.0000000  1.6038667  3
   9073  16723  16719  16722     1  0.0000000  1.6038667  3
   9074   9073  16723  16719     1  0.0000000  1.6038667  3
   9075   9073  16723  16719     1  0.0000000  1.6038667  3
   9077   9078   9090   9091     1  0.0000000  0.6508444  3
   9077   9078   9090   9092     1  0.0000000  0.6508444  3
   9077   9081   9093   9094     1  0.0000000  0.6508444  3
   9077   9081   9093   9095     1  0.0000000  0.6508444  3
   9077   9084   9087   9088     1  0.0000000  0.6508444  3
   9077   9084   9087   9089     1  0.0000000  0.6508444  3
   9078   9077   9081   9082     1  0.0000000  1.2552000  3
   9078   9077   9081   9083     1  0.0000000  1.2552000  3
   9078   9077   9084   9085     1  0.0000000  1.2552000  3
   9078   9077   9084   9086     1  0.0000000  1.2552000  3
   9078   9090   9102   9103     1  0.0000000  0.6508444  3
   9078   9090   9102   9104     1  0.0000000  0.6508444  3
   9079   9078   9077   9081     1  0.0000000  1.2552000  3
   9079   9078   9077   9084     1  0.0000000  1.2552000  3
   9079   9078   9090   9102     1  0.0000000  0.6508444  3
   9079   9078   9090   9091     1  0.0000000  0.6508444  3
   9079   9078   9090   9092     1  0.0000000  0.6508444  3
   9080   9078   9077   9081     1  0.0000000  1.2552000  3
   9080   9078   9077   9084     1  0.0000000  1.2552000  3
   9080   9078   9090   9102     1  0.0000000  0.6508444  3
   9080   9078   9090   9091     1  0.0000000  0.6508444  3
   9080   9078   9090   9092     1  0.0000000  0.6508444  3
   9081   9077   9084   9085     1  0.0000000  1.2552000  3
   9081   9077   9084   9086     1  0.0000000  1.2552000  3
   9081   9093   9099   9100     1  0.0000000  0.6508444  3
   9081   9093   9099   9101     1  0.0000000  0.6508444  3
   9082   9081   9077   9084     1  0.0000000  1.2552000  3
   9082   9081   9093   9099     1  0.0000000  0.6508444  3
   9082   9081   9093   9094     1  0.0000000  0.6508444  3
   9082   9081   9093   9095     1  0.0000000  0.6508444  3
   9083   9081   9077   9084     1  0.0000000  1.2552000  3
   9083   9081   9093   9099     1  0.0000000  0.6508444  3
   9083   9081   9093   9094     1  0.0000000  0.6508444  3
   9083   9081   9093   9095     1  0.0000000  0.6508444  3
   9084   9087   9096   9097     1  0.0000000  0.6508444  3
   9084   9087   9096   9098     1  0.0000000  0.6508444  3
   9085   9084   9087   9096     1  0.0000000  0.6508444  3
   9085   9084   9087   9088     1  0.0000000  0.6508444  3
   9085   9084   9087   9089     1  0.0000000  0.6508444  3
   9086   9084   9087   9096     1  0.0000000  0.6508444  3
   9086   9084   9087   9088     1  0.0000000  0.6508444  3
   9086   9084   9087   9089     1  0.0000000  0.6508444  3
   9088   9087   9096   9105     1  0.0000000  1.0460000  1
   9088   9087   9096   9105     1  0.0000000  0.0000000  3
   9088   9087   9096   9097     1  0.0000000  0.6508444  3
   9088   9087   9096   9098     1  0.0000000  0.6508444  3
   9089   9087   9096   9105     1  0.0000000  1.0460000  1
   9089   9087   9096   9105     1  0.0000000  0.0000000  3
   9089   9087   9096   9097     1  0.0000000  0.6508444  3
   9089   9087   9096   9098     1  0.0000000  0.6508444  3
   9091   9090   9102  16769     1  0.0000000  1.0460000  1
   9091   9090   9102  16769     1  0.0000000  0.0000000  3
   9091   9090   9102   9103     1  0.0000000  0.6508444  3
   9091   9090   9102   9104     1  0.0000000  0.6508444  3
   9092   9090   9102  16769     1  0.0000000  1.0460000  1
   9092   9090   9102  16769     1  0.0000000  0.0000000  3
   9092   9090   9102   9103     1  0.0000000  0.6508444  3
   9092   9090   9102   9104     1  0.0000000  0.6508444  3
   9094   9093   9099  16746     1  0.0000000  1.0460000  1
   9094   9093   9099  16746     1  0.0000000  0.0000000  3
   9094   9093   9099   9100     1  0.0000000  0.6508444  3
   9094   9093   9099   9101     1  0.0000000  0.6508444  3
   9095   9093   9099  16746     1  0.0000000  1.0460000  1
   9095   9093   9099  16746     1  0.0000000  0.0000000  3
   9095   9093   9099   9100     1  0.0000000  0.6508444  3
   9095   9093   9099   9101     1  0.0000000  0.6508444  3
   9099  16746  16742  16745     1  0.0000000  1.6038667  3
   9100   9099  16746  16742     1  0.0000000  1.6038667  3
   9101   9099  16746  16742     1  0.0000000  1.6038667  3
   9102  16769  16765  16768     1  0.0000000  1.6038667  3
   9103   9102  16769  16765     1  0.0000000  1.6038667  3
   9104   9102  16769  16765     1  0.0000000  1.6038667  3
   9106   9107   9119   9120     1  0.0000000  0.6508444  3
   9106   9107   9119   9121     1  0.0000000  0.6508444  3
   9106   9110   9122   9123     1  0.0000000  0.6508444  3
   9106   9110   9122   9124     1  0.0000000  0.6508444  3
   9106   9113   9116   9117     1  0.0000000  0.6508444  3
   9106   9113   9116   9118     1  0.0000000  0.6508444  3
   9107   9106   9110   9111     1  0.0000000  1.2552000  3
   9107   9106   9110   9112     1  0.0000000  1.2552000  3
   9107   9106   9113   9114     1  0.0000000  1.2552000  3
   9107   9106   9113   9115     1  0.0000000  1.2552000  3
   9107   9119   9131   9132     1  0.0000000  0.6508444  3
   9107   9119   9131   9133     1  0.0000000  0.6508444  3
   9108   9107   9106   9110     1  0.0000000  1.2552000  3
   9108   9107   9106   9113     1  0.0000000  1.2552000  3
   9108   9107   9119   9131     1  0.0000000  0.6508444  3
   9108   9107   9119   9120     1  0.0000000  0.6508444  3
   9108   9107   9119   9121     1  0.0000000  0.6508444  3
   9109   9107   9106   9110     1  0.0000000  1.2552000  3
   9109   9107   9106   9113     1  0.0000000  1.2552000  3
   9109   9107   9119   9131     1  0.0000000  0.6508444  3
   9109   9107   9119   9120     1  0.0000000  0.6508444  3
   9109   9107   9119   9121     1  0.0000000  0.6508444  3
   9110   9106   9113   9114     1  0.0000000  1.2552000  3
   9110   9106   9113   9115     1  0.0000000  1.2552000  3
   9110   9122   9128   9129     1  0.0000000  0.6508444  3
   9110   9122   9128   9130     1  0.0000000  0.6508444  3
   9111   9110   9106   9113     1  0.0000000  1.2552000  3
   9111   9110   9122   9128     1  0.0000000  0.6508444  3
   9111   9110   9122   9123     1  0.0000000  0.6508444  3
   9111   9110   9122   9124     1  0.0000000  0.6508444  3
   9112   9110   9106   9113     1  0.0000000  1.2552000  3
   9112   9110   9122   9128     1  0.0000000  0.6508444  3
   9112   9110   9122   9123     1  0.0000000  0.6508444  3
   9112   9110   9122   9124     1  0.0000000  0.6508444  3
   9113   9116   9125   9126     1  0.0000000  0.6508444  3
   9113   9116   9125   9127     1  0.0000000  0.6508444  3
   9114   9113   9116   9125     1  0.0000000  0.6508444  3
   9114   9113   9116   9117     1  0.0000000  0.6508444  3
   9114   9113   9116   9118     1  0.0000000  0.6508444  3
   9115   9113   9116   9125     1  0.0000000  0.6508444  3
   9115   9113   9116   9117     1  0.0000000  0.6508444  3
   9115   9113   9116   9118     1  0.0000000  0.6508444  3
   9117   9116   9125   9134     1  0.0000000  1.0460000  1
   9117   9116   9125   9134     1  0.0000000  0.0000000  3
   9117   9116   9125   9126     1  0.0000000  0.6508444  3
   9117   9116   9125   9127     1  0.0000000  0.6508444  3
   9118   9116   9125   9134     1  0.0000000  1.0460000  1
   9118   9116   9125   9134     1  0.0000000  0.0000000  3
   9118   9116   9125   9126     1  0.0000000  0.6508444  3
   9118   9116   9125   9127     1  0.0000000  0.6508444  3
   9120   9119   9131  16815     1  0.0000000  1.0460000  1
   9120   9119   9131  16815     1  0.0000000  0.0000000  3
   9120   9119   9131   9132     1  0.0000000  0.6508444  3
   9120   9119   9131   9133     1  0.0000000  0.6508444  3
   9121   9119   9131  16815     1  0.0000000  1.0460000  1
   9121   9119   9131  16815     1  0.0000000  0.0000000  3
   9121   9119   9131   9132     1  0.0000000  0.6508444  3
   9121   9119   9131   9133     1  0.0000000  0.6508444  3
   9123   9122   9128  16792     1  0.0000000  1.0460000  1
   9123   9122   9128  16792     1  0.0000000  0.0000000  3
   9123   9122   9128   9129     1  0.0000000  0.6508444  3
   9123   9122   9128   9130     1  0.0000000  0.6508444  3
   9124   9122   9128  16792     1  0.0000000  1.0460000  1
   9124   9122   9128  16792     1  0.0000000  0.0000000  3
   9124   9122   9128   9129     1  0.0000000  0.6508444  3
   9124   9122   9128   9130     1  0.0000000  0.6508444  3
   9128  16792  16788  16791     1  0.0000000  1.6038667  3
   9129   9128  16792  16788     1  0.0000000  1.6038667  3
   9130   9128  16792  16788     1  0.0000000  1.6038667  3
   9131  16815  16811  16814     1  0.0000000  1.6038667  3
   9132   9131  16815  16811     1  0.0000000  1.6038667  3
   9133   9131  16815  16811     1  0.0000000  1.6038667  3
   9135   9136   9148   9149     1  0.0000000  0.6508444  3
   9135   9136   9148   9150     1  0.0000000  0.6508444  3
   9135   9139   9151   9152     1  0.0000000  0.6508444  3
   9135   9139   9151   9153     1  0.0000000  0.6508444  3
   9135   9142   9145   9146     1  0.0000000  0.6508444  3
   9135   9142   9145   9147     1  0.0000000  0.6508444  3
   9136   9135   9139   9140     1  0.0000000  1.2552000  3
   9136   9135   9139   9141     1  0.0000000  1.2552000  3
   9136   9135   9142   9143     1  0.0000000  1.2552000  3
   9136   9135   9142   9144     1  0.0000000  1.2552000  3
   9136   9148   9160   9161     1  0.0000000  0.6508444  3
   9136   9148   9160   9162     1  0.0000000  0.6508444  3
   9137   9136   9135   9139     1  0.0000000  1.2552000  3
   9137   9136   9135   9142     1  0.0000000  1.2552000  3
   9137   9136   9148   9160     1  0.0000000  0.6508444  3
   9137   9136   9148   9149     1  0.0000000  0.6508444  3
   9137   9136   9148   9150     1  0.0000000  0.6508444  3
   9138   9136   9135   9139     1  0.0000000  1.2552000  3
   9138   9136   9135   9142     1  0.0000000  1.2552000  3
   9138   9136   9148   9160     1  0.0000000  0.6508444  3
   9138   9136   9148   9149     1  0.0000000  0.6508444  3
   9138   9136   9148   9150     1  0.0000000  0.6508444  3
   9139   9135   9142   9143     1  0.0000000  1.2552000  3
   9139   9135   9142   9144     1  0.0000000  1.2552000  3
   9139   9151   9157   9158     1  0.0000000  0.6508444  3
   9139   9151   9157   9159     1  0.0000000  0.6508444  3
   9140   9139   9135   9142     1  0.0000000  1.2552000  3
   9140   9139   9151   9157     1  0.0000000  0.6508444  3
   9140   9139   9151   9152     1  0.0000000  0.6508444  3
   9140   9139   9151   9153     1  0.0000000  0.6508444  3
   9141   9139   9135   9142     1  0.0000000  1.2552000  3
   9141   9139   9151   9157     1  0.0000000  0.6508444  3
   9141   9139   9151   9152     1  0.0000000  0.6508444  3
   9141   9139   9151   9153     1  0.0000000  0.6508444  3
   9142   9145   9154   9155     1  0.0000000  0.6508444  3
   9142   9145   9154   9156     1  0.0000000  0.6508444  3
   9143   9142   9145   9154     1  0.0000000  0.6508444  3
   9143   9142   9145   9146     1  0.0000000  0.6508444  3
   9143   9142   9145   9147     1  0.0000000  0.6508444  3
   9144   9142   9145   9154     1  0.0000000  0.6508444  3
   9144   9142   9145   9146     1  0.0000000  0.6508444  3
   9144   9142   9145   9147     1  0.0000000  0.6508444  3
   9146   9145   9154   9163     1  0.0000000  1.0460000  1
   9146   9145   9154   9163     1  0.0000000  0.0000000  3
   9146   9145   9154   9155     1  0.0000000  0.6508444  3
   9146   9145   9154   9156     1  0.0000000  0.6508444  3
   9147   9145   9154   9163     1  0.0000000  1.0460000  1
   9147   9145   9154   9163     1  0.0000000  0.0000000  3
   9147   9145   9154   9155     1  0.0000000  0.6508444  3
   9147   9145   9154   9156     1  0.0000000  0.6508444  3
   9149   9148   9160  16861     1  0.0000000  1.0460000  1
   9149   9148   9160  16861     1  0.0000000  0.0000000  3
   9149   9148   9160   9161     1  0.0000000  0.6508444  3
   9149   9148   9160   9162     1  0.0000000  0.6508444  3
   9150   9148   9160  16861     1  0.0000000  1.0460000  1
   9150   9148   9160  16861     1  0.0000000  0.0000000  3
   9150   9148   9160   9161     1  0.0000000  0.6508444  3
   9150   9148   9160   9162     1  0.0000000  0.6508444  3
   9152   9151   9157  16838     1  0.0000000  1.0460000  1
   9152   9151   9157  16838     1  0.0000000  0.0000000  3
   9152   9151   9157   9158     1  0.0000000  0.6508444  3
   9152   9151   9157   9159     1  0.0000000  0.6508444  3
   9153   9151   9157  16838     1  0.0000000  1.0460000  1
   9153   9151   9157  16838     1  0.0000000  0.0000000  3
   9153   9151   9157   9158     1  0.0000000  0.6508444  3
   9153   9151   9157   9159     1  0.0000000  0.6508444  3
   9157  16838  16834  16837     1  0.0000000  1.6038667  3
   9158   9157  16838  16834     1  0.0000000  1.6038667  3
   9159   9157  16838  16834     1  0.0000000  1.6038667  3
   9160  16861  16857  16860     1  0.0000000  1.6038667  3
   9161   9160  16861  16857     1  0.0000000  1.6038667  3
   9162   9160  16861  16857     1  0.0000000  1.6038667  3
   9164   9165   9177   9178     1  0.0000000  0.6508444  3
   9164   9165   9177   9179     1  0.0000000  0.6508444  3
   9164   9168   9180   9181     1  0.0000000  0.6508444  3
   9164   9168   9180   9182     1  0.0000000  0.6508444  3
   9164   9171   9174   9175     1  0.0000000  0.6508444  3
   9164   9171   9174   9176     1  0.0000000  0.6508444  3
   9165   9164   9168   9169     1  0.0000000  1.2552000  3
   9165   9164   9168   9170     1  0.0000000  1.2552000  3
   9165   9164   9171   9172     1  0.0000000  1.2552000  3
   9165   9164   9171   9173     1  0.0000000  1.2552000  3
   9165   9177   9189   9190     1  0.0000000  0.6508444  3
   9165   9177   9189   9191     1  0.0000000  0.6508444  3
   9166   9165   9164   9168     1  0.0000000  1.2552000  3
   9166   9165   9164   9171     1  0.0000000  1.2552000  3
   9166   9165   9177   9189     1  0.0000000  0.6508444  3
   9166   9165   9177   9178     1  0.0000000  0.6508444  3
   9166   9165   9177   9179     1  0.0000000  0.6508444  3
   9167   9165   9164   9168     1  0.0000000  1.2552000  3
   9167   9165   9164   9171     1  0.0000000  1.2552000  3
   9167   9165   9177   9189     1  0.0000000  0.6508444  3
   9167   9165   9177   9178     1  0.0000000  0.6508444  3
   9167   9165   9177   9179     1  0.0000000  0.6508444  3
   9168   9164   9171   9172     1  0.0000000  1.2552000  3
   9168   9164   9171   9173     1  0.0000000  1.2552000  3
   9168   9180   9186   9187     1  0.0000000  0.6508444  3
   9168   9180   9186   9188     1  0.0000000  0.6508444  3
   9169   9168   9164   9171     1  0.0000000  1.2552000  3
   9169   9168   9180   9186     1  0.0000000  0.6508444  3
   9169   9168   9180   9181     1  0.0000000  0.6508444  3
   9169   9168   9180   9182     1  0.0000000  0.6508444  3
   9170   9168   9164   9171     1  0.0000000  1.2552000  3
   9170   9168   9180   9186     1  0.0000000  0.6508444  3
   9170   9168   9180   9181     1  0.0000000  0.6508444  3
   9170   9168   9180   9182     1  0.0000000  0.6508444  3
   9171   9174   9183   9184     1  0.0000000  0.6508444  3
   9171   9174   9183   9185     1  0.0000000  0.6508444  3
   9172   9171   9174   9183     1  0.0000000  0.6508444  3
   9172   9171   9174   9175     1  0.0000000  0.6508444  3
   9172   9171   9174   9176     1  0.0000000  0.6508444  3
   9173   9171   9174   9183     1  0.0000000  0.6508444  3
   9173   9171   9174   9175     1  0.0000000  0.6508444  3
   9173   9171   9174   9176     1  0.0000000  0.6508444  3
   9175   9174   9183   9192     1  0.0000000  1.0460000  1
   9175   9174   9183   9192     1  0.0000000  0.0000000  3
   9175   9174   9183   9184     1  0.0000000  0.6508444  3
   9175   9174   9183   9185     1  0.0000000  0.6508444  3
   9176   9174   9183   9192     1  0.0000000  1.0460000  1
   9176   9174   9183   9192     1  0.0000000  0.0000000  3
   9176   9174   9183   9184     1  0.0000000  0.6508444  3
   9176   9174   9183   9185     1  0.0000000  0.6508444  3
   9178   9177   9189  16907     1  0.0000000  1.0460000  1
   9178   9177   9189  16907     1  0.0000000  0.0000000  3
   9178   9177   9189   9190     1  0.0000000  0.6508444  3
   9178   9177   9189   9191     1  0.0000000  0.6508444  3
   9179   9177   9189  16907     1  0.0000000  1.0460000  1
   9179   9177   9189  16907     1  0.0000000  0.0000000  3
   9179   9177   9189   9190     1  0.0000000  0.6508444  3
   9179   9177   9189   9191     1  0.0000000  0.6508444  3
   9181   9180   9186  16884     1  0.0000000  1.0460000  1
   9181   9180   9186  16884     1  0.0000000  0.0000000  3
   9181   9180   9186   9187     1  0.0000000  0.6508444  3
   9181   9180   9186   9188     1  0.0000000  0.6508444  3
   9182   9180   9186  16884     1  0.0000000  1.0460000  1
   9182   9180   9186  16884     1  0.0000000  0.0000000  3
   9182   9180   9186   9187     1  0.0000000  0.6508444  3
   9182   9180   9186   9188     1  0.0000000  0.6508444  3
   9186  16884  16880  16883     1  0.0000000  1.6038667  3
   9187   9186  16884  16880     1  0.0000000  1.6038667  3
   9188   9186  16884  16880     1  0.0000000  1.6038667  3
   9189  16907  16903  16906     1  0.0000000  1.6038667  3
   9190   9189  16907  16903     1  0.0000000  1.6038667  3
   9191   9189  16907  16903     1  0.0000000  1.6038667  3
   9193   9194   9206   9207     1  0.0000000  0.6508444  3
   9193   9194   9206   9208     1  0.0000000  0.6508444  3
   9193   9197   9209   9210     1  0.0000000  0.6508444  3
   9193   9197   9209   9211     1  0.0000000  0.6508444  3
   9193   9200   9203   9204     1  0.0000000  0.6508444  3
   9193   9200   9203   9205     1  0.0000000  0.6508444  3
   9194   9193   9197   9198     1  0.0000000  1.2552000  3
   9194   9193   9197   9199     1  0.0000000  1.2552000  3
   9194   9193   9200   9201     1  0.0000000  1.2552000  3
   9194   9193   9200   9202     1  0.0000000  1.2552000  3
   9194   9206   9218   9219     1  0.0000000  0.6508444  3
   9194   9206   9218   9220     1  0.0000000  0.6508444  3
   9195   9194   9193   9197     1  0.0000000  1.2552000  3
   9195   9194   9193   9200     1  0.0000000  1.2552000  3
   9195   9194   9206   9218     1  0.0000000  0.6508444  3
   9195   9194   9206   9207     1  0.0000000  0.6508444  3
   9195   9194   9206   9208     1  0.0000000  0.6508444  3
   9196   9194   9193   9197     1  0.0000000  1.2552000  3
   9196   9194   9193   9200     1  0.0000000  1.2552000  3
   9196   9194   9206   9218     1  0.0000000  0.6508444  3
   9196   9194   9206   9207     1  0.0000000  0.6508444  3
   9196   9194   9206   9208     1  0.0000000  0.6508444  3
   9197   9193   9200   9201     1  0.0000000  1.2552000  3
   9197   9193   9200   9202     1  0.0000000  1.2552000  3
   9197   9209   9215   9216     1  0.0000000  0.6508444  3
   9197   9209   9215   9217     1  0.0000000  0.6508444  3
   9198   9197   9193   9200     1  0.0000000  1.2552000  3
   9198   9197   9209   9215     1  0.0000000  0.6508444  3
   9198   9197   9209   9210     1  0.0000000  0.6508444  3
   9198   9197   9209   9211     1  0.0000000  0.6508444  3
   9199   9197   9193   9200     1  0.0000000  1.2552000  3
   9199   9197   9209   9215     1  0.0000000  0.6508444  3
   9199   9197   9209   9210     1  0.0000000  0.6508444  3
   9199   9197   9209   9211     1  0.0000000  0.6508444  3
   9200   9203   9212   9213     1  0.0000000  0.6508444  3
   9200   9203   9212   9214     1  0.0000000  0.6508444  3
   9201   9200   9203   9212     1  0.0000000  0.6508444  3
   9201   9200   9203   9204     1  0.0000000  0.6508444  3
   9201   9200   9203   9205     1  0.0000000  0.6508444  3
   9202   9200   9203   9212     1  0.0000000  0.6508444  3
   9202   9200   9203   9204     1  0.0000000  0.6508444  3
   9202   9200   9203   9205     1  0.0000000  0.6508444  3
   9204   9203   9212   9221     1  0.0000000  1.0460000  1
   9204   9203   9212   9221     1  0.0000000  0.0000000  3
   9204   9203   9212   9213     1  0.0000000  0.6508444  3
   9204   9203   9212   9214     1  0.0000000  0.6508444  3
   9205   9203   9212   9221     1  0.0000000  1.0460000  1
   9205   9203   9212   9221     1  0.0000000  0.0000000  3
   9205   9203   9212   9213     1  0.0000000  0.6508444  3
   9205   9203   9212   9214     1  0.0000000  0.6508444  3
   9207   9206   9218  16953     1  0.0000000  1.0460000  1
   9207   9206   9218  16953     1  0.0000000  0.0000000  3
   9207   9206   9218   9219     1  0.0000000  0.6508444  3
   9207   9206   9218   9220     1  0.0000000  0.6508444  3
   9208   9206   9218  16953     1  0.0000000  1.0460000  1
   9208   9206   9218  16953     1  0.0000000  0.0000000  3
   9208   9206   9218   9219     1  0.0000000  0.6508444  3
   9208   9206   9218   9220     1  0.0000000  0.6508444  3
   9210   9209   9215  16930     1  0.0000000  1.0460000  1
   9210   9209   9215  16930     1  0.0000000  0.0000000  3
   9210   9209   9215   9216     1  0.0000000  0.6508444  3
   9210   9209   9215   9217     1  0.0000000  0.6508444  3
   9211   9209   9215  16930     1  0.0000000  1.0460000  1
   9211   9209   9215  16930     1  0.0000000  0.0000000  3
   9211   9209   9215   9216     1  0.0000000  0.6508444  3
   9211   9209   9215   9217     1  0.0000000  0.6508444  3
   9215  16930  16926  16929     1  0.0000000  1.6038667  3
   9216   9215  16930  16926     1  0.0000000  1.6038667  3
   9217   9215  16930  16926     1  0.0000000  1.6038667  3
   9218  16953  16949  16952     1  0.0000000  1.6038667  3
   9219   9218  16953  16949     1  0.0000000  1.6038667  3
   9220   9218  16953  16949     1  0.0000000  1.6038667  3
   9222   9223   9235   9236     1  0.0000000  0.6508444  3
   9222   9223   9235   9237     1  0.0000000  0.6508444  3
   9222   9226   9238   9239     1  0.0000000  0.6508444  3
   9222   9226   9238   9240     1  0.0000000  0.6508444  3
   9222   9229   9232   9233     1  0.0000000  0.6508444  3
   9222   9229   9232   9234     1  0.0000000  0.6508444  3
   9223   9222   9226   9227     1  0.0000000  1.2552000  3
   9223   9222   9226   9228     1  0.0000000  1.2552000  3
   9223   9222   9229   9230     1  0.0000000  1.2552000  3
   9223   9222   9229   9231     1  0.0000000  1.2552000  3
   9223   9235   9247   9248     1  0.0000000  0.6508444  3
   9223   9235   9247   9249     1  0.0000000  0.6508444  3
   9224   9223   9222   9226     1  0.0000000  1.2552000  3
   9224   9223   9222   9229     1  0.0000000  1.2552000  3
   9224   9223   9235   9247     1  0.0000000  0.6508444  3
   9224   9223   9235   9236     1  0.0000000  0.6508444  3
   9224   9223   9235   9237     1  0.0000000  0.6508444  3
   9225   9223   9222   9226     1  0.0000000  1.2552000  3
   9225   9223   9222   9229     1  0.0000000  1.2552000  3
   9225   9223   9235   9247     1  0.0000000  0.6508444  3
   9225   9223   9235   9236     1  0.0000000  0.6508444  3
   9225   9223   9235   9237     1  0.0000000  0.6508444  3
   9226   9222   9229   9230     1  0.0000000  1.2552000  3
   9226   9222   9229   9231     1  0.0000000  1.2552000  3
   9226   9238   9244   9245     1  0.0000000  0.6508444  3
   9226   9238   9244   9246     1  0.0000000  0.6508444  3
   9227   9226   9222   9229     1  0.0000000  1.2552000  3
   9227   9226   9238   9244     1  0.0000000  0.6508444  3
   9227   9226   9238   9239     1  0.0000000  0.6508444  3
   9227   9226   9238   9240     1  0.0000000  0.6508444  3
   9228   9226   9222   9229     1  0.0000000  1.2552000  3
   9228   9226   9238   9244     1  0.0000000  0.6508444  3
   9228   9226   9238   9239     1  0.0000000  0.6508444  3
   9228   9226   9238   9240     1  0.0000000  0.6508444  3
   9229   9232   9241   9242     1  0.0000000  0.6508444  3
   9229   9232   9241   9243     1  0.0000000  0.6508444  3
   9230   9229   9232   9241     1  0.0000000  0.6508444  3
   9230   9229   9232   9233     1  0.0000000  0.6508444  3
   9230   9229   9232   9234     1  0.0000000  0.6508444  3
   9231   9229   9232   9241     1  0.0000000  0.6508444  3
   9231   9229   9232   9233     1  0.0000000  0.6508444  3
   9231   9229   9232   9234     1  0.0000000  0.6508444  3
   9233   9232   9241   9250     1  0.0000000  1.0460000  1
   9233   9232   9241   9250     1  0.0000000  0.0000000  3
   9233   9232   9241   9242     1  0.0000000  0.6508444  3
   9233   9232   9241   9243     1  0.0000000  0.6508444  3
   9234   9232   9241   9250     1  0.0000000  1.0460000  1
   9234   9232   9241   9250     1  0.0000000  0.0000000  3
   9234   9232   9241   9242     1  0.0000000  0.6508444  3
   9234   9232   9241   9243     1  0.0000000  0.6508444  3
   9236   9235   9247  16999     1  0.0000000  1.0460000  1
   9236   9235   9247  16999     1  0.0000000  0.0000000  3
   9236   9235   9247   9248     1  0.0000000  0.6508444  3
   9236   9235   9247   9249     1  0.0000000  0.6508444  3
   9237   9235   9247  16999     1  0.0000000  1.0460000  1
   9237   9235   9247  16999     1  0.0000000  0.0000000  3
   9237   9235   9247   9248     1  0.0000000  0.6508444  3
   9237   9235   9247   9249     1  0.0000000  0.6508444  3
   9239   9238   9244  16976     1  0.0000000  1.0460000  1
   9239   9238   9244  16976     1  0.0000000  0.0000000  3
   9239   9238   9244   9245     1  0.0000000  0.6508444  3
   9239   9238   9244   9246     1  0.0000000  0.6508444  3
   9240   9238   9244  16976     1  0.0000000  1.0460000  1
   9240   9238   9244  16976     1  0.0000000  0.0000000  3
   9240   9238   9244   9245     1  0.0000000  0.6508444  3
   9240   9238   9244   9246     1  0.0000000  0.6508444  3
   9244  16976  16972  16975     1  0.0000000  1.6038667  3
   9245   9244  16976  16972     1  0.0000000  1.6038667  3
   9246   9244  16976  16972     1  0.0000000  1.6038667  3
   9247  16999  16995  16998     1  0.0000000  1.6038667  3
   9248   9247  16999  16995     1  0.0000000  1.6038667  3
   9249   9247  16999  16995     1  0.0000000  1.6038667  3
   9251   9252   9264   9265     1  0.0000000  0.6508444  3
   9251   9252   9264   9266     1  0.0000000  0.6508444  3
   9251   9255   9267   9268     1  0.0000000  0.6508444  3
   9251   9255   9267   9269     1  0.0000000  0.6508444  3
   9251   9258   9261   9262     1  0.0000000  0.6508444  3
   9251   9258   9261   9263     1  0.0000000  0.6508444  3
   9252   9251   9255   9256     1  0.0000000  1.2552000  3
   9252   9251   9255   9257     1  0.0000000  1.2552000  3
   9252   9251   9258   9259     1  0.0000000  1.2552000  3
   9252   9251   9258   9260     1  0.0000000  1.2552000  3
   9252   9264   9276   9277     1  0.0000000  0.6508444  3
   9252   9264   9276   9278     1  0.0000000  0.6508444  3
   9253   9252   9251   9255     1  0.0000000  1.2552000  3
   9253   9252   9251   9258     1  0.0000000  1.2552000  3
   9253   9252   9264   9276     1  0.0000000  0.6508444  3
   9253   9252   9264   9265     1  0.0000000  0.6508444  3
   9253   9252   9264   9266     1  0.0000000  0.6508444  3
   9254   9252   9251   9255     1  0.0000000  1.2552000  3
   9254   9252   9251   9258     1  0.0000000  1.2552000  3
   9254   9252   9264   9276     1  0.0000000  0.6508444  3
   9254   9252   9264   9265     1  0.0000000  0.6508444  3
   9254   9252   9264   9266     1  0.0000000  0.6508444  3
   9255   9251   9258   9259     1  0.0000000  1.2552000  3
   9255   9251   9258   9260     1  0.0000000  1.2552000  3
   9255   9267   9273   9274     1  0.0000000  0.6508444  3
   9255   9267   9273   9275     1  0.0000000  0.6508444  3
   9256   9255   9251   9258     1  0.0000000  1.2552000  3
   9256   9255   9267   9273     1  0.0000000  0.6508444  3
   9256   9255   9267   9268     1  0.0000000  0.6508444  3
   9256   9255   9267   9269     1  0.0000000  0.6508444  3
   9257   9255   9251   9258     1  0.0000000  1.2552000  3
   9257   9255   9267   9273     1  0.0000000  0.6508444  3
   9257   9255   9267   9268     1  0.0000000  0.6508444  3
   9257   9255   9267   9269     1  0.0000000  0.6508444  3
   9258   9261   9270   9271     1  0.0000000  0.6508444  3
   9258   9261   9270   9272     1  0.0000000  0.6508444  3
   9259   9258   9261   9270     1  0.0000000  0.6508444  3
   9259   9258   9261   9262     1  0.0000000  0.6508444  3
   9259   9258   9261   9263     1  0.0000000  0.6508444  3
   9260   9258   9261   9270     1  0.0000000  0.6508444  3
   9260   9258   9261   9262     1  0.0000000  0.6508444  3
   9260   9258   9261   9263     1  0.0000000  0.6508444  3
   9262   9261   9270   9279     1  0.0000000  1.0460000  1
   9262   9261   9270   9279     1  0.0000000  0.0000000  3
   9262   9261   9270   9271     1  0.0000000  0.6508444  3
   9262   9261   9270   9272     1  0.0000000  0.6508444  3
   9263   9261   9270   9279     1  0.0000000  1.0460000  1
   9263   9261   9270   9279     1  0.0000000  0.0000000  3
   9263   9261   9270   9271     1  0.0000000  0.6508444  3
   9263   9261   9270   9272     1  0.0000000  0.6508444  3
   9265   9264   9276  17045     1  0.0000000  1.0460000  1
   9265   9264   9276  17045     1  0.0000000  0.0000000  3
   9265   9264   9276   9277     1  0.0000000  0.6508444  3
   9265   9264   9276   9278     1  0.0000000  0.6508444  3
   9266   9264   9276  17045     1  0.0000000  1.0460000  1
   9266   9264   9276  17045     1  0.0000000  0.0000000  3
   9266   9264   9276   9277     1  0.0000000  0.6508444  3
   9266   9264   9276   9278     1  0.0000000  0.6508444  3
   9268   9267   9273  17022     1  0.0000000  1.0460000  1
   9268   9267   9273  17022     1  0.0000000  0.0000000  3
   9268   9267   9273   9274     1  0.0000000  0.6508444  3
   9268   9267   9273   9275     1  0.0000000  0.6508444  3
   9269   9267   9273  17022     1  0.0000000  1.0460000  1
   9269   9267   9273  17022     1  0.0000000  0.0000000  3
   9269   9267   9273   9274     1  0.0000000  0.6508444  3
   9269   9267   9273   9275     1  0.0000000  0.6508444  3
   9273  17022  17018  17021     1  0.0000000  1.6038667  3
   9274   9273  17022  17018     1  0.0000000  1.6038667  3
   9275   9273  17022  17018     1  0.0000000  1.6038667  3
   9276  17045  17041  17044     1  0.0000000  1.6038667  3
   9277   9276  17045  17041     1  0.0000000  1.6038667  3
   9278   9276  17045  17041     1  0.0000000  1.6038667  3
   9280   9281   9293   9294     1  0.0000000  0.6508444  3
   9280   9281   9293   9295     1  0.0000000  0.6508444  3
   9280   9284   9296   9297     1  0.0000000  0.6508444  3
   9280   9284   9296   9298     1  0.0000000  0.6508444  3
   9280   9287   9290   9291     1  0.0000000  0.6508444  3
   9280   9287   9290   9292     1  0.0000000  0.6508444  3
   9281   9280   9284   9285     1  0.0000000  1.2552000  3
   9281   9280   9284   9286     1  0.0000000  1.2552000  3
   9281   9280   9287   9288     1  0.0000000  1.2552000  3
   9281   9280   9287   9289     1  0.0000000  1.2552000  3
   9281   9293   9305   9306     1  0.0000000  0.6508444  3
   9281   9293   9305   9307     1  0.0000000  0.6508444  3
   9282   9281   9280   9284     1  0.0000000  1.2552000  3
   9282   9281   9280   9287     1  0.0000000  1.2552000  3
   9282   9281   9293   9305     1  0.0000000  0.6508444  3
   9282   9281   9293   9294     1  0.0000000  0.6508444  3
   9282   9281   9293   9295     1  0.0000000  0.6508444  3
   9283   9281   9280   9284     1  0.0000000  1.2552000  3
   9283   9281   9280   9287     1  0.0000000  1.2552000  3
   9283   9281   9293   9305     1  0.0000000  0.6508444  3
   9283   9281   9293   9294     1  0.0000000  0.6508444  3
   9283   9281   9293   9295     1  0.0000000  0.6508444  3
   9284   9280   9287   9288     1  0.0000000  1.2552000  3
   9284   9280   9287   9289     1  0.0000000  1.2552000  3
   9284   9296   9302   9303     1  0.0000000  0.6508444  3
   9284   9296   9302   9304     1  0.0000000  0.6508444  3
   9285   9284   9280   9287     1  0.0000000  1.2552000  3
   9285   9284   9296   9302     1  0.0000000  0.6508444  3
   9285   9284   9296   9297     1  0.0000000  0.6508444  3
   9285   9284   9296   9298     1  0.0000000  0.6508444  3
   9286   9284   9280   9287     1  0.0000000  1.2552000  3
   9286   9284   9296   9302     1  0.0000000  0.6508444  3
   9286   9284   9296   9297     1  0.0000000  0.6508444  3
   9286   9284   9296   9298     1  0.0000000  0.6508444  3
   9287   9290   9299   9300     1  0.0000000  0.6508444  3
   9287   9290   9299   9301     1  0.0000000  0.6508444  3
   9288   9287   9290   9299     1  0.0000000  0.6508444  3
   9288   9287   9290   9291     1  0.0000000  0.6508444  3
   9288   9287   9290   9292     1  0.0000000  0.6508444  3
   9289   9287   9290   9299     1  0.0000000  0.6508444  3
   9289   9287   9290   9291     1  0.0000000  0.6508444  3
   9289   9287   9290   9292     1  0.0000000  0.6508444  3
   9291   9290   9299   9308     1  0.0000000  1.0460000  1
   9291   9290   9299   9308     1  0.0000000  0.0000000  3
   9291   9290   9299   9300     1  0.0000000  0.6508444  3
   9291   9290   9299   9301     1  0.0000000  0.6508444  3
   9292   9290   9299   9308     1  0.0000000  1.0460000  1
   9292   9290   9299   9308     1  0.0000000  0.0000000  3
   9292   9290   9299   9300     1  0.0000000  0.6508444  3
   9292   9290   9299   9301     1  0.0000000  0.6508444  3
   9294   9293   9305  17091     1  0.0000000  1.0460000  1
   9294   9293   9305  17091     1  0.0000000  0.0000000  3
   9294   9293   9305   9306     1  0.0000000  0.6508444  3
   9294   9293   9305   9307     1  0.0000000  0.6508444  3
   9295   9293   9305  17091     1  0.0000000  1.0460000  1
   9295   9293   9305  17091     1  0.0000000  0.0000000  3
   9295   9293   9305   9306     1  0.0000000  0.6508444  3
   9295   9293   9305   9307     1  0.0000000  0.6508444  3
   9297   9296   9302  17068     1  0.0000000  1.0460000  1
   9297   9296   9302  17068     1  0.0000000  0.0000000  3
   9297   9296   9302   9303     1  0.0000000  0.6508444  3
   9297   9296   9302   9304     1  0.0000000  0.6508444  3
   9298   9296   9302  17068     1  0.0000000  1.0460000  1
   9298   9296   9302  17068     1  0.0000000  0.0000000  3
   9298   9296   9302   9303     1  0.0000000  0.6508444  3
   9298   9296   9302   9304     1  0.0000000  0.6508444  3
   9302  17068  17064  17067     1  0.0000000  1.6038667  3
   9303   9302  17068  17064     1  0.0000000  1.6038667  3
   9304   9302  17068  17064     1  0.0000000  1.6038667  3
   9305  17091  17087  17090     1  0.0000000  1.6038667  3
   9306   9305  17091  17087     1  0.0000000  1.6038667  3
   9307   9305  17091  17087     1  0.0000000  1.6038667  3
   9309   9310   9322   9323     1  0.0000000  0.6508444  3
   9309   9310   9322   9324     1  0.0000000  0.6508444  3
   9309   9313   9325   9326     1  0.0000000  0.6508444  3
   9309   9313   9325   9327     1  0.0000000  0.6508444  3
   9309   9316   9319   9320     1  0.0000000  0.6508444  3
   9309   9316   9319   9321     1  0.0000000  0.6508444  3
   9310   9309   9313   9314     1  0.0000000  1.2552000  3
   9310   9309   9313   9315     1  0.0000000  1.2552000  3
   9310   9309   9316   9317     1  0.0000000  1.2552000  3
   9310   9309   9316   9318     1  0.0000000  1.2552000  3
   9310   9322   9334   9335     1  0.0000000  0.6508444  3
   9310   9322   9334   9336     1  0.0000000  0.6508444  3
   9311   9310   9309   9313     1  0.0000000  1.2552000  3
   9311   9310   9309   9316     1  0.0000000  1.2552000  3
   9311   9310   9322   9334     1  0.0000000  0.6508444  3
   9311   9310   9322   9323     1  0.0000000  0.6508444  3
   9311   9310   9322   9324     1  0.0000000  0.6508444  3
   9312   9310   9309   9313     1  0.0000000  1.2552000  3
   9312   9310   9309   9316     1  0.0000000  1.2552000  3
   9312   9310   9322   9334     1  0.0000000  0.6508444  3
   9312   9310   9322   9323     1  0.0000000  0.6508444  3
   9312   9310   9322   9324     1  0.0000000  0.6508444  3
   9313   9309   9316   9317     1  0.0000000  1.2552000  3
   9313   9309   9316   9318     1  0.0000000  1.2552000  3
   9313   9325   9331   9332     1  0.0000000  0.6508444  3
   9313   9325   9331   9333     1  0.0000000  0.6508444  3
   9314   9313   9309   9316     1  0.0000000  1.2552000  3
   9314   9313   9325   9331     1  0.0000000  0.6508444  3
   9314   9313   9325   9326     1  0.0000000  0.6508444  3
   9314   9313   9325   9327     1  0.0000000  0.6508444  3
   9315   9313   9309   9316     1  0.0000000  1.2552000  3
   9315   9313   9325   9331     1  0.0000000  0.6508444  3
   9315   9313   9325   9326     1  0.0000000  0.6508444  3
   9315   9313   9325   9327     1  0.0000000  0.6508444  3
   9316   9319   9328   9329     1  0.0000000  0.6508444  3
   9316   9319   9328   9330     1  0.0000000  0.6508444  3
   9317   9316   9319   9328     1  0.0000000  0.6508444  3
   9317   9316   9319   9320     1  0.0000000  0.6508444  3
   9317   9316   9319   9321     1  0.0000000  0.6508444  3
   9318   9316   9319   9328     1  0.0000000  0.6508444  3
   9318   9316   9319   9320     1  0.0000000  0.6508444  3
   9318   9316   9319   9321     1  0.0000000  0.6508444  3
   9320   9319   9328   9337     1  0.0000000  1.0460000  1
   9320   9319   9328   9337     1  0.0000000  0.0000000  3
   9320   9319   9328   9329     1  0.0000000  0.6508444  3
   9320   9319   9328   9330     1  0.0000000  0.6508444  3
   9321   9319   9328   9337     1  0.0000000  1.0460000  1
   9321   9319   9328   9337     1  0.0000000  0.0000000  3
   9321   9319   9328   9329     1  0.0000000  0.6508444  3
   9321   9319   9328   9330     1  0.0000000  0.6508444  3
   9323   9322   9334  17137     1  0.0000000  1.0460000  1
   9323   9322   9334  17137     1  0.0000000  0.0000000  3
   9323   9322   9334   9335     1  0.0000000  0.6508444  3
   9323   9322   9334   9336     1  0.0000000  0.6508444  3
   9324   9322   9334  17137     1  0.0000000  1.0460000  1
   9324   9322   9334  17137     1  0.0000000  0.0000000  3
   9324   9322   9334   9335     1  0.0000000  0.6508444  3
   9324   9322   9334   9336     1  0.0000000  0.6508444  3
   9326   9325   9331  17114     1  0.0000000  1.0460000  1
   9326   9325   9331  17114     1  0.0000000  0.0000000  3
   9326   9325   9331   9332     1  0.0000000  0.6508444  3
   9326   9325   9331   9333     1  0.0000000  0.6508444  3
   9327   9325   9331  17114     1  0.0000000  1.0460000  1
   9327   9325   9331  17114     1  0.0000000  0.0000000  3
   9327   9325   9331   9332     1  0.0000000  0.6508444  3
   9327   9325   9331   9333     1  0.0000000  0.6508444  3
   9331  17114  17110  17113     1  0.0000000  1.6038667  3
   9332   9331  17114  17110     1  0.0000000  1.6038667  3
   9333   9331  17114  17110     1  0.0000000  1.6038667  3
   9334  17137  17133  17136     1  0.0000000  1.6038667  3
   9335   9334  17137  17133     1  0.0000000  1.6038667  3
   9336   9334  17137  17133     1  0.0000000  1.6038667  3
   9338   9339   9351   9352     1  0.0000000  0.6508444  3
   9338   9339   9351   9353     1  0.0000000  0.6508444  3
   9338   9342   9354   9355     1  0.0000000  0.6508444  3
   9338   9342   9354   9356     1  0.0000000  0.6508444  3
   9338   9345   9348   9349     1  0.0000000  0.6508444  3
   9338   9345   9348   9350     1  0.0000000  0.6508444  3
   9339   9338   9342   9343     1  0.0000000  1.2552000  3
   9339   9338   9342   9344     1  0.0000000  1.2552000  3
   9339   9338   9345   9346     1  0.0000000  1.2552000  3
   9339   9338   9345   9347     1  0.0000000  1.2552000  3
   9339   9351   9363   9364     1  0.0000000  0.6508444  3
   9339   9351   9363   9365     1  0.0000000  0.6508444  3
   9340   9339   9338   9342     1  0.0000000  1.2552000  3
   9340   9339   9338   9345     1  0.0000000  1.2552000  3
   9340   9339   9351   9363     1  0.0000000  0.6508444  3
   9340   9339   9351   9352     1  0.0000000  0.6508444  3
   9340   9339   9351   9353     1  0.0000000  0.6508444  3
   9341   9339   9338   9342     1  0.0000000  1.2552000  3
   9341   9339   9338   9345     1  0.0000000  1.2552000  3
   9341   9339   9351   9363     1  0.0000000  0.6508444  3
   9341   9339   9351   9352     1  0.0000000  0.6508444  3
   9341   9339   9351   9353     1  0.0000000  0.6508444  3
   9342   9338   9345   9346     1  0.0000000  1.2552000  3
   9342   9338   9345   9347     1  0.0000000  1.2552000  3
   9342   9354   9360   9361     1  0.0000000  0.6508444  3
   9342   9354   9360   9362     1  0.0000000  0.6508444  3
   9343   9342   9338   9345     1  0.0000000  1.2552000  3
   9343   9342   9354   9360     1  0.0000000  0.6508444  3
   9343   9342   9354   9355     1  0.0000000  0.6508444  3
   9343   9342   9354   9356     1  0.0000000  0.6508444  3
   9344   9342   9338   9345     1  0.0000000  1.2552000  3
   9344   9342   9354   9360     1  0.0000000  0.6508444  3
   9344   9342   9354   9355     1  0.0000000  0.6508444  3
   9344   9342   9354   9356     1  0.0000000  0.6508444  3
   9345   9348   9357   9358     1  0.0000000  0.6508444  3
   9345   9348   9357   9359     1  0.0000000  0.6508444  3
   9346   9345   9348   9357     1  0.0000000  0.6508444  3
   9346   9345   9348   9349     1  0.0000000  0.6508444  3
   9346   9345   9348   9350     1  0.0000000  0.6508444  3
   9347   9345   9348   9357     1  0.0000000  0.6508444  3
   9347   9345   9348   9349     1  0.0000000  0.6508444  3
   9347   9345   9348   9350     1  0.0000000  0.6508444  3
   9349   9348   9357   9366     1  0.0000000  1.0460000  1
   9349   9348   9357   9366     1  0.0000000  0.0000000  3
   9349   9348   9357   9358     1  0.0000000  0.6508444  3
   9349   9348   9357   9359     1  0.0000000  0.6508444  3
   9350   9348   9357   9366     1  0.0000000  1.0460000  1
   9350   9348   9357   9366     1  0.0000000  0.0000000  3
   9350   9348   9357   9358     1  0.0000000  0.6508444  3
   9350   9348   9357   9359     1  0.0000000  0.6508444  3
   9352   9351   9363  17183     1  0.0000000  1.0460000  1
   9352   9351   9363  17183     1  0.0000000  0.0000000  3
   9352   9351   9363   9364     1  0.0000000  0.6508444  3
   9352   9351   9363   9365     1  0.0000000  0.6508444  3
   9353   9351   9363  17183     1  0.0000000  1.0460000  1
   9353   9351   9363  17183     1  0.0000000  0.0000000  3
   9353   9351   9363   9364     1  0.0000000  0.6508444  3
   9353   9351   9363   9365     1  0.0000000  0.6508444  3
   9355   9354   9360  17160     1  0.0000000  1.0460000  1
   9355   9354   9360  17160     1  0.0000000  0.0000000  3
   9355   9354   9360   9361     1  0.0000000  0.6508444  3
   9355   9354   9360   9362     1  0.0000000  0.6508444  3
   9356   9354   9360  17160     1  0.0000000  1.0460000  1
   9356   9354   9360  17160     1  0.0000000  0.0000000  3
   9356   9354   9360   9361     1  0.0000000  0.6508444  3
   9356   9354   9360   9362     1  0.0000000  0.6508444  3
   9360  17160  17156  17159     1  0.0000000  1.6038667  3
   9361   9360  17160  17156     1  0.0000000  1.6038667  3
   9362   9360  17160  17156     1  0.0000000  1.6038667  3
   9363  17183  17179  17182     1  0.0000000  1.6038667  3
   9364   9363  17183  17179     1  0.0000000  1.6038667  3
   9365   9363  17183  17179     1  0.0000000  1.6038667  3
   9367   9368   9380   9381     1  0.0000000  0.6508444  3
   9367   9368   9380   9382     1  0.0000000  0.6508444  3
   9367   9371   9383   9384     1  0.0000000  0.6508444  3
   9367   9371   9383   9385     1  0.0000000  0.6508444  3
   9367   9374   9377   9378     1  0.0000000  0.6508444  3
   9367   9374   9377   9379     1  0.0000000  0.6508444  3
   9368   9367   9371   9372     1  0.0000000  1.2552000  3
   9368   9367   9371   9373     1  0.0000000  1.2552000  3
   9368   9367   9374   9375     1  0.0000000  1.2552000  3
   9368   9367   9374   9376     1  0.0000000  1.2552000  3
   9368   9380   9392   9393     1  0.0000000  0.6508444  3
   9368   9380   9392   9394     1  0.0000000  0.6508444  3
   9369   9368   9367   9371     1  0.0000000  1.2552000  3
   9369   9368   9367   9374     1  0.0000000  1.2552000  3
   9369   9368   9380   9392     1  0.0000000  0.6508444  3
   9369   9368   9380   9381     1  0.0000000  0.6508444  3
   9369   9368   9380   9382     1  0.0000000  0.6508444  3
   9370   9368   9367   9371     1  0.0000000  1.2552000  3
   9370   9368   9367   9374     1  0.0000000  1.2552000  3
   9370   9368   9380   9392     1  0.0000000  0.6508444  3
   9370   9368   9380   9381     1  0.0000000  0.6508444  3
   9370   9368   9380   9382     1  0.0000000  0.6508444  3
   9371   9367   9374   9375     1  0.0000000  1.2552000  3
   9371   9367   9374   9376     1  0.0000000  1.2552000  3
   9371   9383   9389   9390     1  0.0000000  0.6508444  3
   9371   9383   9389   9391     1  0.0000000  0.6508444  3
   9372   9371   9367   9374     1  0.0000000  1.2552000  3
   9372   9371   9383   9389     1  0.0000000  0.6508444  3
   9372   9371   9383   9384     1  0.0000000  0.6508444  3
   9372   9371   9383   9385     1  0.0000000  0.6508444  3
   9373   9371   9367   9374     1  0.0000000  1.2552000  3
   9373   9371   9383   9389     1  0.0000000  0.6508444  3
   9373   9371   9383   9384     1  0.0000000  0.6508444  3
   9373   9371   9383   9385     1  0.0000000  0.6508444  3
   9374   9377   9386   9387     1  0.0000000  0.6508444  3
   9374   9377   9386   9388     1  0.0000000  0.6508444  3
   9375   9374   9377   9386     1  0.0000000  0.6508444  3
   9375   9374   9377   9378     1  0.0000000  0.6508444  3
   9375   9374   9377   9379     1  0.0000000  0.6508444  3
   9376   9374   9377   9386     1  0.0000000  0.6508444  3
   9376   9374   9377   9378     1  0.0000000  0.6508444  3
   9376   9374   9377   9379     1  0.0000000  0.6508444  3
   9378   9377   9386   9395     1  0.0000000  1.0460000  1
   9378   9377   9386   9395     1  0.0000000  0.0000000  3
   9378   9377   9386   9387     1  0.0000000  0.6508444  3
   9378   9377   9386   9388     1  0.0000000  0.6508444  3
   9379   9377   9386   9395     1  0.0000000  1.0460000  1
   9379   9377   9386   9395     1  0.0000000  0.0000000  3
   9379   9377   9386   9387     1  0.0000000  0.6508444  3
   9379   9377   9386   9388     1  0.0000000  0.6508444  3
   9381   9380   9392  17229     1  0.0000000  1.0460000  1
   9381   9380   9392  17229     1  0.0000000  0.0000000  3
   9381   9380   9392   9393     1  0.0000000  0.6508444  3
   9381   9380   9392   9394     1  0.0000000  0.6508444  3
   9382   9380   9392  17229     1  0.0000000  1.0460000  1
   9382   9380   9392  17229     1  0.0000000  0.0000000  3
   9382   9380   9392   9393     1  0.0000000  0.6508444  3
   9382   9380   9392   9394     1  0.0000000  0.6508444  3
   9384   9383   9389  17206     1  0.0000000  1.0460000  1
   9384   9383   9389  17206     1  0.0000000  0.0000000  3
   9384   9383   9389   9390     1  0.0000000  0.6508444  3
   9384   9383   9389   9391     1  0.0000000  0.6508444  3
   9385   9383   9389  17206     1  0.0000000  1.0460000  1
   9385   9383   9389  17206     1  0.0000000  0.0000000  3
   9385   9383   9389   9390     1  0.0000000  0.6508444  3
   9385   9383   9389   9391     1  0.0000000  0.6508444  3
   9389  17206  17202  17205     1  0.0000000  1.6038667  3
   9390   9389  17206  17202     1  0.0000000  1.6038667  3
   9391   9389  17206  17202     1  0.0000000  1.6038667  3
   9392  17229  17225  17228     1  0.0000000  1.6038667  3
   9393   9392  17229  17225     1  0.0000000  1.6038667  3
   9394   9392  17229  17225     1  0.0000000  1.6038667  3
   9396   9397   9409   9410     1  0.0000000  0.6508444  3
   9396   9397   9409   9411     1  0.0000000  0.6508444  3
   9396   9400   9412   9413     1  0.0000000  0.6508444  3
   9396   9400   9412   9414     1  0.0000000  0.6508444  3
   9396   9403   9406   9407     1  0.0000000  0.6508444  3
   9396   9403   9406   9408     1  0.0000000  0.6508444  3
   9397   9396   9400   9401     1  0.0000000  1.2552000  3
   9397   9396   9400   9402     1  0.0000000  1.2552000  3
   9397   9396   9403   9404     1  0.0000000  1.2552000  3
   9397   9396   9403   9405     1  0.0000000  1.2552000  3
   9397   9409   9421   9422     1  0.0000000  0.6508444  3
   9397   9409   9421   9423     1  0.0000000  0.6508444  3
   9398   9397   9396   9400     1  0.0000000  1.2552000  3
   9398   9397   9396   9403     1  0.0000000  1.2552000  3
   9398   9397   9409   9421     1  0.0000000  0.6508444  3
   9398   9397   9409   9410     1  0.0000000  0.6508444  3
   9398   9397   9409   9411     1  0.0000000  0.6508444  3
   9399   9397   9396   9400     1  0.0000000  1.2552000  3
   9399   9397   9396   9403     1  0.0000000  1.2552000  3
   9399   9397   9409   9421     1  0.0000000  0.6508444  3
   9399   9397   9409   9410     1  0.0000000  0.6508444  3
   9399   9397   9409   9411     1  0.0000000  0.6508444  3
   9400   9396   9403   9404     1  0.0000000  1.2552000  3
   9400   9396   9403   9405     1  0.0000000  1.2552000  3
   9400   9412   9418   9419     1  0.0000000  0.6508444  3
   9400   9412   9418   9420     1  0.0000000  0.6508444  3
   9401   9400   9396   9403     1  0.0000000  1.2552000  3
   9401   9400   9412   9418     1  0.0000000  0.6508444  3
   9401   9400   9412   9413     1  0.0000000  0.6508444  3
   9401   9400   9412   9414     1  0.0000000  0.6508444  3
   9402   9400   9396   9403     1  0.0000000  1.2552000  3
   9402   9400   9412   9418     1  0.0000000  0.6508444  3
   9402   9400   9412   9413     1  0.0000000  0.6508444  3
   9402   9400   9412   9414     1  0.0000000  0.6508444  3
   9403   9406   9415   9416     1  0.0000000  0.6508444  3
   9403   9406   9415   9417     1  0.0000000  0.6508444  3
   9404   9403   9406   9415     1  0.0000000  0.6508444  3
   9404   9403   9406   9407     1  0.0000000  0.6508444  3
   9404   9403   9406   9408     1  0.0000000  0.6508444  3
   9405   9403   9406   9415     1  0.0000000  0.6508444  3
   9405   9403   9406   9407     1  0.0000000  0.6508444  3
   9405   9403   9406   9408     1  0.0000000  0.6508444  3
   9407   9406   9415   9424     1  0.0000000  1.0460000  1
   9407   9406   9415   9424     1  0.0000000  0.0000000  3
   9407   9406   9415   9416     1  0.0000000  0.6508444  3
   9407   9406   9415   9417     1  0.0000000  0.6508444  3
   9408   9406   9415   9424     1  0.0000000  1.0460000  1
   9408   9406   9415   9424     1  0.0000000  0.0000000  3
   9408   9406   9415   9416     1  0.0000000  0.6508444  3
   9408   9406   9415   9417     1  0.0000000  0.6508444  3
   9410   9409   9421  17275     1  0.0000000  1.0460000  1
   9410   9409   9421  17275     1  0.0000000  0.0000000  3
   9410   9409   9421   9422     1  0.0000000  0.6508444  3
   9410   9409   9421   9423     1  0.0000000  0.6508444  3
   9411   9409   9421  17275     1  0.0000000  1.0460000  1
   9411   9409   9421  17275     1  0.0000000  0.0000000  3
   9411   9409   9421   9422     1  0.0000000  0.6508444  3
   9411   9409   9421   9423     1  0.0000000  0.6508444  3
   9413   9412   9418  17252     1  0.0000000  1.0460000  1
   9413   9412   9418  17252     1  0.0000000  0.0000000  3
   9413   9412   9418   9419     1  0.0000000  0.6508444  3
   9413   9412   9418   9420     1  0.0000000  0.6508444  3
   9414   9412   9418  17252     1  0.0000000  1.0460000  1
   9414   9412   9418  17252     1  0.0000000  0.0000000  3
   9414   9412   9418   9419     1  0.0000000  0.6508444  3
   9414   9412   9418   9420     1  0.0000000  0.6508444  3
   9418  17252  17248  17251     1  0.0000000  1.6038667  3
   9419   9418  17252  17248     1  0.0000000  1.6038667  3
   9420   9418  17252  17248     1  0.0000000  1.6038667  3
   9421  17275  17271  17274     1  0.0000000  1.6038667  3
   9422   9421  17275  17271     1  0.0000000  1.6038667  3
   9423   9421  17275  17271     1  0.0000000  1.6038667  3
   9425   9426   9438   9439     1  0.0000000  0.6508444  3
   9425   9426   9438   9440     1  0.0000000  0.6508444  3
   9425   9429   9441   9442     1  0.0000000  0.6508444  3
   9425   9429   9441   9443     1  0.0000000  0.6508444  3
   9425   9432   9435   9436     1  0.0000000  0.6508444  3
   9425   9432   9435   9437     1  0.0000000  0.6508444  3
   9426   9425   9429   9430     1  0.0000000  1.2552000  3
   9426   9425   9429   9431     1  0.0000000  1.2552000  3
   9426   9425   9432   9433     1  0.0000000  1.2552000  3
   9426   9425   9432   9434     1  0.0000000  1.2552000  3
   9426   9438   9450   9451     1  0.0000000  0.6508444  3
   9426   9438   9450   9452     1  0.0000000  0.6508444  3
   9427   9426   9425   9429     1  0.0000000  1.2552000  3
   9427   9426   9425   9432     1  0.0000000  1.2552000  3
   9427   9426   9438   9450     1  0.0000000  0.6508444  3
   9427   9426   9438   9439     1  0.0000000  0.6508444  3
   9427   9426   9438   9440     1  0.0000000  0.6508444  3
   9428   9426   9425   9429     1  0.0000000  1.2552000  3
   9428   9426   9425   9432     1  0.0000000  1.2552000  3
   9428   9426   9438   9450     1  0.0000000  0.6508444  3
   9428   9426   9438   9439     1  0.0000000  0.6508444  3
   9428   9426   9438   9440     1  0.0000000  0.6508444  3
   9429   9425   9432   9433     1  0.0000000  1.2552000  3
   9429   9425   9432   9434     1  0.0000000  1.2552000  3
   9429   9441   9447   9448     1  0.0000000  0.6508444  3
   9429   9441   9447   9449     1  0.0000000  0.6508444  3
   9430   9429   9425   9432     1  0.0000000  1.2552000  3
   9430   9429   9441   9447     1  0.0000000  0.6508444  3
   9430   9429   9441   9442     1  0.0000000  0.6508444  3
   9430   9429   9441   9443     1  0.0000000  0.6508444  3
   9431   9429   9425   9432     1  0.0000000  1.2552000  3
   9431   9429   9441   9447     1  0.0000000  0.6508444  3
   9431   9429   9441   9442     1  0.0000000  0.6508444  3
   9431   9429   9441   9443     1  0.0000000  0.6508444  3
   9432   9435   9444   9445     1  0.0000000  0.6508444  3
   9432   9435   9444   9446     1  0.0000000  0.6508444  3
   9433   9432   9435   9444     1  0.0000000  0.6508444  3
   9433   9432   9435   9436     1  0.0000000  0.6508444  3
   9433   9432   9435   9437     1  0.0000000  0.6508444  3
   9434   9432   9435   9444     1  0.0000000  0.6508444  3
   9434   9432   9435   9436     1  0.0000000  0.6508444  3
   9434   9432   9435   9437     1  0.0000000  0.6508444  3
   9436   9435   9444   9453     1  0.0000000  1.0460000  1
   9436   9435   9444   9453     1  0.0000000  0.0000000  3
   9436   9435   9444   9445     1  0.0000000  0.6508444  3
   9436   9435   9444   9446     1  0.0000000  0.6508444  3
   9437   9435   9444   9453     1  0.0000000  1.0460000  1
   9437   9435   9444   9453     1  0.0000000  0.0000000  3
   9437   9435   9444   9445     1  0.0000000  0.6508444  3
   9437   9435   9444   9446     1  0.0000000  0.6508444  3
   9439   9438   9450  17321     1  0.0000000  1.0460000  1
   9439   9438   9450  17321     1  0.0000000  0.0000000  3
   9439   9438   9450   9451     1  0.0000000  0.6508444  3
   9439   9438   9450   9452     1  0.0000000  0.6508444  3
   9440   9438   9450  17321     1  0.0000000  1.0460000  1
   9440   9438   9450  17321     1  0.0000000  0.0000000  3
   9440   9438   9450   9451     1  0.0000000  0.6508444  3
   9440   9438   9450   9452     1  0.0000000  0.6508444  3
   9442   9441   9447  17298     1  0.0000000  1.0460000  1
   9442   9441   9447  17298     1  0.0000000  0.0000000  3
   9442   9441   9447   9448     1  0.0000000  0.6508444  3
   9442   9441   9447   9449     1  0.0000000  0.6508444  3
   9443   9441   9447  17298     1  0.0000000  1.0460000  1
   9443   9441   9447  17298     1  0.0000000  0.0000000  3
   9443   9441   9447   9448     1  0.0000000  0.6508444  3
   9443   9441   9447   9449     1  0.0000000  0.6508444  3
   9447  17298  17294  17297     1  0.0000000  1.6038667  3
   9448   9447  17298  17294     1  0.0000000  1.6038667  3
   9449   9447  17298  17294     1  0.0000000  1.6038667  3
   9450  17321  17317  17320     1  0.0000000  1.6038667  3
   9451   9450  17321  17317     1  0.0000000  1.6038667  3
   9452   9450  17321  17317     1  0.0000000  1.6038667  3
   9454   9455   9467   9468     1  0.0000000  0.6508444  3
   9454   9455   9467   9469     1  0.0000000  0.6508444  3
   9454   9458   9470   9471     1  0.0000000  0.6508444  3
   9454   9458   9470   9472     1  0.0000000  0.6508444  3
   9454   9461   9464   9465     1  0.0000000  0.6508444  3
   9454   9461   9464   9466     1  0.0000000  0.6508444  3
   9455   9454   9458   9459     1  0.0000000  1.2552000  3
   9455   9454   9458   9460     1  0.0000000  1.2552000  3
   9455   9454   9461   9462     1  0.0000000  1.2552000  3
   9455   9454   9461   9463     1  0.0000000  1.2552000  3
   9455   9467   9479   9480     1  0.0000000  0.6508444  3
   9455   9467   9479   9481     1  0.0000000  0.6508444  3
   9456   9455   9454   9458     1  0.0000000  1.2552000  3
   9456   9455   9454   9461     1  0.0000000  1.2552000  3
   9456   9455   9467   9479     1  0.0000000  0.6508444  3
   9456   9455   9467   9468     1  0.0000000  0.6508444  3
   9456   9455   9467   9469     1  0.0000000  0.6508444  3
   9457   9455   9454   9458     1  0.0000000  1.2552000  3
   9457   9455   9454   9461     1  0.0000000  1.2552000  3
   9457   9455   9467   9479     1  0.0000000  0.6508444  3
   9457   9455   9467   9468     1  0.0000000  0.6508444  3
   9457   9455   9467   9469     1  0.0000000  0.6508444  3
   9458   9454   9461   9462     1  0.0000000  1.2552000  3
   9458   9454   9461   9463     1  0.0000000  1.2552000  3
   9458   9470   9476   9477     1  0.0000000  0.6508444  3
   9458   9470   9476   9478     1  0.0000000  0.6508444  3
   9459   9458   9454   9461     1  0.0000000  1.2552000  3
   9459   9458   9470   9476     1  0.0000000  0.6508444  3
   9459   9458   9470   9471     1  0.0000000  0.6508444  3
   9459   9458   9470   9472     1  0.0000000  0.6508444  3
   9460   9458   9454   9461     1  0.0000000  1.2552000  3
   9460   9458   9470   9476     1  0.0000000  0.6508444  3
   9460   9458   9470   9471     1  0.0000000  0.6508444  3
   9460   9458   9470   9472     1  0.0000000  0.6508444  3
   9461   9464   9473   9474     1  0.0000000  0.6508444  3
   9461   9464   9473   9475     1  0.0000000  0.6508444  3
   9462   9461   9464   9473     1  0.0000000  0.6508444  3
   9462   9461   9464   9465     1  0.0000000  0.6508444  3
   9462   9461   9464   9466     1  0.0000000  0.6508444  3
   9463   9461   9464   9473     1  0.0000000  0.6508444  3
   9463   9461   9464   9465     1  0.0000000  0.6508444  3
   9463   9461   9464   9466     1  0.0000000  0.6508444  3
   9465   9464   9473   9482     1  0.0000000  1.0460000  1
   9465   9464   9473   9482     1  0.0000000  0.0000000  3
   9465   9464   9473   9474     1  0.0000000  0.6508444  3
   9465   9464   9473   9475     1  0.0000000  0.6508444  3
   9466   9464   9473   9482     1  0.0000000  1.0460000  1
   9466   9464   9473   9482     1  0.0000000  0.0000000  3
   9466   9464   9473   9474     1  0.0000000  0.6508444  3
   9466   9464   9473   9475     1  0.0000000  0.6508444  3
   9468   9467   9479  17367     1  0.0000000  1.0460000  1
   9468   9467   9479  17367     1  0.0000000  0.0000000  3
   9468   9467   9479   9480     1  0.0000000  0.6508444  3
   9468   9467   9479   9481     1  0.0000000  0.6508444  3
   9469   9467   9479  17367     1  0.0000000  1.0460000  1
   9469   9467   9479  17367     1  0.0000000  0.0000000  3
   9469   9467   9479   9480     1  0.0000000  0.6508444  3
   9469   9467   9479   9481     1  0.0000000  0.6508444  3
   9471   9470   9476  17344     1  0.0000000  1.0460000  1
   9471   9470   9476  17344     1  0.0000000  0.0000000  3
   9471   9470   9476   9477     1  0.0000000  0.6508444  3
   9471   9470   9476   9478     1  0.0000000  0.6508444  3
   9472   9470   9476  17344     1  0.0000000  1.0460000  1
   9472   9470   9476  17344     1  0.0000000  0.0000000  3
   9472   9470   9476   9477     1  0.0000000  0.6508444  3
   9472   9470   9476   9478     1  0.0000000  0.6508444  3
   9476  17344  17340  17343     1  0.0000000  1.6038667  3
   9477   9476  17344  17340     1  0.0000000  1.6038667  3
   9478   9476  17344  17340     1  0.0000000  1.6038667  3
   9479  17367  17363  17366     1  0.0000000  1.6038667  3
   9480   9479  17367  17363     1  0.0000000  1.6038667  3
   9481   9479  17367  17363     1  0.0000000  1.6038667  3
   9483   9484   9496   9497     1  0.0000000  0.6508444  3
   9483   9484   9496   9498     1  0.0000000  0.6508444  3
   9483   9487   9499   9500     1  0.0000000  0.6508444  3
   9483   9487   9499   9501     1  0.0000000  0.6508444  3
   9483   9490   9493   9494     1  0.0000000  0.6508444  3
   9483   9490   9493   9495     1  0.0000000  0.6508444  3
   9484   9483   9487   9488     1  0.0000000  1.2552000  3
   9484   9483   9487   9489     1  0.0000000  1.2552000  3
   9484   9483   9490   9491     1  0.0000000  1.2552000  3
   9484   9483   9490   9492     1  0.0000000  1.2552000  3
   9484   9496   9508   9509     1  0.0000000  0.6508444  3
   9484   9496   9508   9510     1  0.0000000  0.6508444  3
   9485   9484   9483   9487     1  0.0000000  1.2552000  3
   9485   9484   9483   9490     1  0.0000000  1.2552000  3
   9485   9484   9496   9508     1  0.0000000  0.6508444  3
   9485   9484   9496   9497     1  0.0000000  0.6508444  3
   9485   9484   9496   9498     1  0.0000000  0.6508444  3
   9486   9484   9483   9487     1  0.0000000  1.2552000  3
   9486   9484   9483   9490     1  0.0000000  1.2552000  3
   9486   9484   9496   9508     1  0.0000000  0.6508444  3
   9486   9484   9496   9497     1  0.0000000  0.6508444  3
   9486   9484   9496   9498     1  0.0000000  0.6508444  3
   9487   9483   9490   9491     1  0.0000000  1.2552000  3
   9487   9483   9490   9492     1  0.0000000  1.2552000  3
   9487   9499   9505   9506     1  0.0000000  0.6508444  3
   9487   9499   9505   9507     1  0.0000000  0.6508444  3
   9488   9487   9483   9490     1  0.0000000  1.2552000  3
   9488   9487   9499   9505     1  0.0000000  0.6508444  3
   9488   9487   9499   9500     1  0.0000000  0.6508444  3
   9488   9487   9499   9501     1  0.0000000  0.6508444  3
   9489   9487   9483   9490     1  0.0000000  1.2552000  3
   9489   9487   9499   9505     1  0.0000000  0.6508444  3
   9489   9487   9499   9500     1  0.0000000  0.6508444  3
   9489   9487   9499   9501     1  0.0000000  0.6508444  3
   9490   9493   9502   9503     1  0.0000000  0.6508444  3
   9490   9493   9502   9504     1  0.0000000  0.6508444  3
   9491   9490   9493   9502     1  0.0000000  0.6508444  3
   9491   9490   9493   9494     1  0.0000000  0.6508444  3
   9491   9490   9493   9495     1  0.0000000  0.6508444  3
   9492   9490   9493   9502     1  0.0000000  0.6508444  3
   9492   9490   9493   9494     1  0.0000000  0.6508444  3
   9492   9490   9493   9495     1  0.0000000  0.6508444  3
   9494   9493   9502   9511     1  0.0000000  1.0460000  1
   9494   9493   9502   9511     1  0.0000000  0.0000000  3
   9494   9493   9502   9503     1  0.0000000  0.6508444  3
   9494   9493   9502   9504     1  0.0000000  0.6508444  3
   9495   9493   9502   9511     1  0.0000000  1.0460000  1
   9495   9493   9502   9511     1  0.0000000  0.0000000  3
   9495   9493   9502   9503     1  0.0000000  0.6508444  3
   9495   9493   9502   9504     1  0.0000000  0.6508444  3
   9497   9496   9508  17413     1  0.0000000  1.0460000  1
   9497   9496   9508  17413     1  0.0000000  0.0000000  3
   9497   9496   9508   9509     1  0.0000000  0.6508444  3
   9497   9496   9508   9510     1  0.0000000  0.6508444  3
   9498   9496   9508  17413     1  0.0000000  1.0460000  1
   9498   9496   9508  17413     1  0.0000000  0.0000000  3
   9498   9496   9508   9509     1  0.0000000  0.6508444  3
   9498   9496   9508   9510     1  0.0000000  0.6508444  3
   9500   9499   9505  17390     1  0.0000000  1.0460000  1
   9500   9499   9505  17390     1  0.0000000  0.0000000  3
   9500   9499   9505   9506     1  0.0000000  0.6508444  3
   9500   9499   9505   9507     1  0.0000000  0.6508444  3
   9501   9499   9505  17390     1  0.0000000  1.0460000  1
   9501   9499   9505  17390     1  0.0000000  0.0000000  3
   9501   9499   9505   9506     1  0.0000000  0.6508444  3
   9501   9499   9505   9507     1  0.0000000  0.6508444  3
   9505  17390  17386  17389     1  0.0000000  1.6038667  3
   9506   9505  17390  17386     1  0.0000000  1.6038667  3
   9507   9505  17390  17386     1  0.0000000  1.6038667  3
   9508  17413  17409  17412     1  0.0000000  1.6038667  3
   9509   9508  17413  17409     1  0.0000000  1.6038667  3
   9510   9508  17413  17409     1  0.0000000  1.6038667  3
   9512   9513   9525   9526     1  0.0000000  0.6508444  3
   9512   9513   9525   9527     1  0.0000000  0.6508444  3
   9512   9516   9528   9529     1  0.0000000  0.6508444  3
   9512   9516   9528   9530     1  0.0000000  0.6508444  3
   9512   9519   9522   9523     1  0.0000000  0.6508444  3
   9512   9519   9522   9524     1  0.0000000  0.6508444  3
   9513   9512   9516   9517     1  0.0000000  1.2552000  3
   9513   9512   9516   9518     1  0.0000000  1.2552000  3
   9513   9512   9519   9520     1  0.0000000  1.2552000  3
   9513   9512   9519   9521     1  0.0000000  1.2552000  3
   9513   9525   9537   9538     1  0.0000000  0.6508444  3
   9513   9525   9537   9539     1  0.0000000  0.6508444  3
   9514   9513   9512   9516     1  0.0000000  1.2552000  3
   9514   9513   9512   9519     1  0.0000000  1.2552000  3
   9514   9513   9525   9537     1  0.0000000  0.6508444  3
   9514   9513   9525   9526     1  0.0000000  0.6508444  3
   9514   9513   9525   9527     1  0.0000000  0.6508444  3
   9515   9513   9512   9516     1  0.0000000  1.2552000  3
   9515   9513   9512   9519     1  0.0000000  1.2552000  3
   9515   9513   9525   9537     1  0.0000000  0.6508444  3
   9515   9513   9525   9526     1  0.0000000  0.6508444  3
   9515   9513   9525   9527     1  0.0000000  0.6508444  3
   9516   9512   9519   9520     1  0.0000000  1.2552000  3
   9516   9512   9519   9521     1  0.0000000  1.2552000  3
   9516   9528   9534   9535     1  0.0000000  0.6508444  3
   9516   9528   9534   9536     1  0.0000000  0.6508444  3
   9517   9516   9512   9519     1  0.0000000  1.2552000  3
   9517   9516   9528   9534     1  0.0000000  0.6508444  3
   9517   9516   9528   9529     1  0.0000000  0.6508444  3
   9517   9516   9528   9530     1  0.0000000  0.6508444  3
   9518   9516   9512   9519     1  0.0000000  1.2552000  3
   9518   9516   9528   9534     1  0.0000000  0.6508444  3
   9518   9516   9528   9529     1  0.0000000  0.6508444  3
   9518   9516   9528   9530     1  0.0000000  0.6508444  3
   9519   9522   9531   9532     1  0.0000000  0.6508444  3
   9519   9522   9531   9533     1  0.0000000  0.6508444  3
   9520   9519   9522   9531     1  0.0000000  0.6508444  3
   9520   9519   9522   9523     1  0.0000000  0.6508444  3
   9520   9519   9522   9524     1  0.0000000  0.6508444  3
   9521   9519   9522   9531     1  0.0000000  0.6508444  3
   9521   9519   9522   9523     1  0.0000000  0.6508444  3
   9521   9519   9522   9524     1  0.0000000  0.6508444  3
   9523   9522   9531   9540     1  0.0000000  1.0460000  1
   9523   9522   9531   9540     1  0.0000000  0.0000000  3
   9523   9522   9531   9532     1  0.0000000  0.6508444  3
   9523   9522   9531   9533     1  0.0000000  0.6508444  3
   9524   9522   9531   9540     1  0.0000000  1.0460000  1
   9524   9522   9531   9540     1  0.0000000  0.0000000  3
   9524   9522   9531   9532     1  0.0000000  0.6508444  3
   9524   9522   9531   9533     1  0.0000000  0.6508444  3
   9526   9525   9537  17459     1  0.0000000  1.0460000  1
   9526   9525   9537  17459     1  0.0000000  0.0000000  3
   9526   9525   9537   9538     1  0.0000000  0.6508444  3
   9526   9525   9537   9539     1  0.0000000  0.6508444  3
   9527   9525   9537  17459     1  0.0000000  1.0460000  1
   9527   9525   9537  17459     1  0.0000000  0.0000000  3
   9527   9525   9537   9538     1  0.0000000  0.6508444  3
   9527   9525   9537   9539     1  0.0000000  0.6508444  3
   9529   9528   9534  17436     1  0.0000000  1.0460000  1
   9529   9528   9534  17436     1  0.0000000  0.0000000  3
   9529   9528   9534   9535     1  0.0000000  0.6508444  3
   9529   9528   9534   9536     1  0.0000000  0.6508444  3
   9530   9528   9534  17436     1  0.0000000  1.0460000  1
   9530   9528   9534  17436     1  0.0000000  0.0000000  3
   9530   9528   9534   9535     1  0.0000000  0.6508444  3
   9530   9528   9534   9536     1  0.0000000  0.6508444  3
   9534  17436  17432  17435     1  0.0000000  1.6038667  3
   9535   9534  17436  17432     1  0.0000000  1.6038667  3
   9536   9534  17436  17432     1  0.0000000  1.6038667  3
   9537  17459  17455  17458     1  0.0000000  1.6038667  3
   9538   9537  17459  17455     1  0.0000000  1.6038667  3
   9539   9537  17459  17455     1  0.0000000  1.6038667  3
   9541   9542   9554   9555     1  0.0000000  0.6508444  3
   9541   9542   9554   9556     1  0.0000000  0.6508444  3
   9541   9545   9557   9558     1  0.0000000  0.6508444  3
   9541   9545   9557   9559     1  0.0000000  0.6508444  3
   9541   9548   9551   9552     1  0.0000000  0.6508444  3
   9541   9548   9551   9553     1  0.0000000  0.6508444  3
   9542   9541   9545   9546     1  0.0000000  1.2552000  3
   9542   9541   9545   9547     1  0.0000000  1.2552000  3
   9542   9541   9548   9549     1  0.0000000  1.2552000  3
   9542   9541   9548   9550     1  0.0000000  1.2552000  3
   9542   9554   9566   9567     1  0.0000000  0.6508444  3
   9542   9554   9566   9568     1  0.0000000  0.6508444  3
   9543   9542   9541   9545     1  0.0000000  1.2552000  3
   9543   9542   9541   9548     1  0.0000000  1.2552000  3
   9543   9542   9554   9566     1  0.0000000  0.6508444  3
   9543   9542   9554   9555     1  0.0000000  0.6508444  3
   9543   9542   9554   9556     1  0.0000000  0.6508444  3
   9544   9542   9541   9545     1  0.0000000  1.2552000  3
   9544   9542   9541   9548     1  0.0000000  1.2552000  3
   9544   9542   9554   9566     1  0.0000000  0.6508444  3
   9544   9542   9554   9555     1  0.0000000  0.6508444  3
   9544   9542   9554   9556     1  0.0000000  0.6508444  3
   9545   9541   9548   9549     1  0.0000000  1.2552000  3
   9545   9541   9548   9550     1  0.0000000  1.2552000  3
   9545   9557   9563   9564     1  0.0000000  0.6508444  3
   9545   9557   9563   9565     1  0.0000000  0.6508444  3
   9546   9545   9541   9548     1  0.0000000  1.2552000  3
   9546   9545   9557   9563     1  0.0000000  0.6508444  3
   9546   9545   9557   9558     1  0.0000000  0.6508444  3
   9546   9545   9557   9559     1  0.0000000  0.6508444  3
   9547   9545   9541   9548     1  0.0000000  1.2552000  3
   9547   9545   9557   9563     1  0.0000000  0.6508444  3
   9547   9545   9557   9558     1  0.0000000  0.6508444  3
   9547   9545   9557   9559     1  0.0000000  0.6508444  3
   9548   9551   9560   9561     1  0.0000000  0.6508444  3
   9548   9551   9560   9562     1  0.0000000  0.6508444  3
   9549   9548   9551   9560     1  0.0000000  0.6508444  3
   9549   9548   9551   9552     1  0.0000000  0.6508444  3
   9549   9548   9551   9553     1  0.0000000  0.6508444  3
   9550   9548   9551   9560     1  0.0000000  0.6508444  3
   9550   9548   9551   9552     1  0.0000000  0.6508444  3
   9550   9548   9551   9553     1  0.0000000  0.6508444  3
   9552   9551   9560   9569     1  0.0000000  1.0460000  1
   9552   9551   9560   9569     1  0.0000000  0.0000000  3
   9552   9551   9560   9561     1  0.0000000  0.6508444  3
   9552   9551   9560   9562     1  0.0000000  0.6508444  3
   9553   9551   9560   9569     1  0.0000000  1.0460000  1
   9553   9551   9560   9569     1  0.0000000  0.0000000  3
   9553   9551   9560   9561     1  0.0000000  0.6508444  3
   9553   9551   9560   9562     1  0.0000000  0.6508444  3
   9555   9554   9566  17505     1  0.0000000  1.0460000  1
   9555   9554   9566  17505     1  0.0000000  0.0000000  3
   9555   9554   9566   9567     1  0.0000000  0.6508444  3
   9555   9554   9566   9568     1  0.0000000  0.6508444  3
   9556   9554   9566  17505     1  0.0000000  1.0460000  1
   9556   9554   9566  17505     1  0.0000000  0.0000000  3
   9556   9554   9566   9567     1  0.0000000  0.6508444  3
   9556   9554   9566   9568     1  0.0000000  0.6508444  3
   9558   9557   9563  17482     1  0.0000000  1.0460000  1
   9558   9557   9563  17482     1  0.0000000  0.0000000  3
   9558   9557   9563   9564     1  0.0000000  0.6508444  3
   9558   9557   9563   9565     1  0.0000000  0.6508444  3
   9559   9557   9563  17482     1  0.0000000  1.0460000  1
   9559   9557   9563  17482     1  0.0000000  0.0000000  3
   9559   9557   9563   9564     1  0.0000000  0.6508444  3
   9559   9557   9563   9565     1  0.0000000  0.6508444  3
   9563  17482  17478  17481     1  0.0000000  1.6038667  3
   9564   9563  17482  17478     1  0.0000000  1.6038667  3
   9565   9563  17482  17478     1  0.0000000  1.6038667  3
   9566  17505  17501  17504     1  0.0000000  1.6038667  3
   9567   9566  17505  17501     1  0.0000000  1.6038667  3
   9568   9566  17505  17501     1  0.0000000  1.6038667  3
   9570   9571   9583   9584     1  0.0000000  0.6508444  3
   9570   9571   9583   9585     1  0.0000000  0.6508444  3
   9570   9574   9586   9587     1  0.0000000  0.6508444  3
   9570   9574   9586   9588     1  0.0000000  0.6508444  3
   9570   9577   9580   9581     1  0.0000000  0.6508444  3
   9570   9577   9580   9582     1  0.0000000  0.6508444  3
   9571   9570   9574   9575     1  0.0000000  1.2552000  3
   9571   9570   9574   9576     1  0.0000000  1.2552000  3
   9571   9570   9577   9578     1  0.0000000  1.2552000  3
   9571   9570   9577   9579     1  0.0000000  1.2552000  3
   9571   9583   9595   9596     1  0.0000000  0.6508444  3
   9571   9583   9595   9597     1  0.0000000  0.6508444  3
   9572   9571   9570   9574     1  0.0000000  1.2552000  3
   9572   9571   9570   9577     1  0.0000000  1.2552000  3
   9572   9571   9583   9595     1  0.0000000  0.6508444  3
   9572   9571   9583   9584     1  0.0000000  0.6508444  3
   9572   9571   9583   9585     1  0.0000000  0.6508444  3
   9573   9571   9570   9574     1  0.0000000  1.2552000  3
   9573   9571   9570   9577     1  0.0000000  1.2552000  3
   9573   9571   9583   9595     1  0.0000000  0.6508444  3
   9573   9571   9583   9584     1  0.0000000  0.6508444  3
   9573   9571   9583   9585     1  0.0000000  0.6508444  3
   9574   9570   9577   9578     1  0.0000000  1.2552000  3
   9574   9570   9577   9579     1  0.0000000  1.2552000  3
   9574   9586   9592   9593     1  0.0000000  0.6508444  3
   9574   9586   9592   9594     1  0.0000000  0.6508444  3
   9575   9574   9570   9577     1  0.0000000  1.2552000  3
   9575   9574   9586   9592     1  0.0000000  0.6508444  3
   9575   9574   9586   9587     1  0.0000000  0.6508444  3
   9575   9574   9586   9588     1  0.0000000  0.6508444  3
   9576   9574   9570   9577     1  0.0000000  1.2552000  3
   9576   9574   9586   9592     1  0.0000000  0.6508444  3
   9576   9574   9586   9587     1  0.0000000  0.6508444  3
   9576   9574   9586   9588     1  0.0000000  0.6508444  3
   9577   9580   9589   9590     1  0.0000000  0.6508444  3
   9577   9580   9589   9591     1  0.0000000  0.6508444  3
   9578   9577   9580   9589     1  0.0000000  0.6508444  3
   9578   9577   9580   9581     1  0.0000000  0.6508444  3
   9578   9577   9580   9582     1  0.0000000  0.6508444  3
   9579   9577   9580   9589     1  0.0000000  0.6508444  3
   9579   9577   9580   9581     1  0.0000000  0.6508444  3
   9579   9577   9580   9582     1  0.0000000  0.6508444  3
   9581   9580   9589   9598     1  0.0000000  1.0460000  1
   9581   9580   9589   9598     1  0.0000000  0.0000000  3
   9581   9580   9589   9590     1  0.0000000  0.6508444  3
   9581   9580   9589   9591     1  0.0000000  0.6508444  3
   9582   9580   9589   9598     1  0.0000000  1.0460000  1
   9582   9580   9589   9598     1  0.0000000  0.0000000  3
   9582   9580   9589   9590     1  0.0000000  0.6508444  3
   9582   9580   9589   9591     1  0.0000000  0.6508444  3
   9584   9583   9595  17551     1  0.0000000  1.0460000  1
   9584   9583   9595  17551     1  0.0000000  0.0000000  3
   9584   9583   9595   9596     1  0.0000000  0.6508444  3
   9584   9583   9595   9597     1  0.0000000  0.6508444  3
   9585   9583   9595  17551     1  0.0000000  1.0460000  1
   9585   9583   9595  17551     1  0.0000000  0.0000000  3
   9585   9583   9595   9596     1  0.0000000  0.6508444  3
   9585   9583   9595   9597     1  0.0000000  0.6508444  3
   9587   9586   9592  17528     1  0.0000000  1.0460000  1
   9587   9586   9592  17528     1  0.0000000  0.0000000  3
   9587   9586   9592   9593     1  0.0000000  0.6508444  3
   9587   9586   9592   9594     1  0.0000000  0.6508444  3
   9588   9586   9592  17528     1  0.0000000  1.0460000  1
   9588   9586   9592  17528     1  0.0000000  0.0000000  3
   9588   9586   9592   9593     1  0.0000000  0.6508444  3
   9588   9586   9592   9594     1  0.0000000  0.6508444  3
   9592  17528  17524  17527     1  0.0000000  1.6038667  3
   9593   9592  17528  17524     1  0.0000000  1.6038667  3
   9594   9592  17528  17524     1  0.0000000  1.6038667  3
   9595  17551  17547  17550     1  0.0000000  1.6038667  3
   9596   9595  17551  17547     1  0.0000000  1.6038667  3
   9597   9595  17551  17547     1  0.0000000  1.6038667  3
   9599   9600   9612   9613     1  0.0000000  0.6508444  3
   9599   9600   9612   9614     1  0.0000000  0.6508444  3
   9599   9603   9615   9616     1  0.0000000  0.6508444  3
   9599   9603   9615   9617     1  0.0000000  0.6508444  3
   9599   9606   9609   9610     1  0.0000000  0.6508444  3
   9599   9606   9609   9611     1  0.0000000  0.6508444  3
   9600   9599   9603   9604     1  0.0000000  1.2552000  3
   9600   9599   9603   9605     1  0.0000000  1.2552000  3
   9600   9599   9606   9607     1  0.0000000  1.2552000  3
   9600   9599   9606   9608     1  0.0000000  1.2552000  3
   9600   9612   9624   9625     1  0.0000000  0.6508444  3
   9600   9612   9624   9626     1  0.0000000  0.6508444  3
   9601   9600   9599   9603     1  0.0000000  1.2552000  3
   9601   9600   9599   9606     1  0.0000000  1.2552000  3
   9601   9600   9612   9624     1  0.0000000  0.6508444  3
   9601   9600   9612   9613     1  0.0000000  0.6508444  3
   9601   9600   9612   9614     1  0.0000000  0.6508444  3
   9602   9600   9599   9603     1  0.0000000  1.2552000  3
   9602   9600   9599   9606     1  0.0000000  1.2552000  3
   9602   9600   9612   9624     1  0.0000000  0.6508444  3
   9602   9600   9612   9613     1  0.0000000  0.6508444  3
   9602   9600   9612   9614     1  0.0000000  0.6508444  3
   9603   9599   9606   9607     1  0.0000000  1.2552000  3
   9603   9599   9606   9608     1  0.0000000  1.2552000  3
   9603   9615   9621   9622     1  0.0000000  0.6508444  3
   9603   9615   9621   9623     1  0.0000000  0.6508444  3
   9604   9603   9599   9606     1  0.0000000  1.2552000  3
   9604   9603   9615   9621     1  0.0000000  0.6508444  3
   9604   9603   9615   9616     1  0.0000000  0.6508444  3
   9604   9603   9615   9617     1  0.0000000  0.6508444  3
   9605   9603   9599   9606     1  0.0000000  1.2552000  3
   9605   9603   9615   9621     1  0.0000000  0.6508444  3
   9605   9603   9615   9616     1  0.0000000  0.6508444  3
   9605   9603   9615   9617     1  0.0000000  0.6508444  3
   9606   9609   9618   9619     1  0.0000000  0.6508444  3
   9606   9609   9618   9620     1  0.0000000  0.6508444  3
   9607   9606   9609   9618     1  0.0000000  0.6508444  3
   9607   9606   9609   9610     1  0.0000000  0.6508444  3
   9607   9606   9609   9611     1  0.0000000  0.6508444  3
   9608   9606   9609   9618     1  0.0000000  0.6508444  3
   9608   9606   9609   9610     1  0.0000000  0.6508444  3
   9608   9606   9609   9611     1  0.0000000  0.6508444  3
   9610   9609   9618   9627     1  0.0000000  1.0460000  1
   9610   9609   9618   9627     1  0.0000000  0.0000000  3
   9610   9609   9618   9619     1  0.0000000  0.6508444  3
   9610   9609   9618   9620     1  0.0000000  0.6508444  3
   9611   9609   9618   9627     1  0.0000000  1.0460000  1
   9611   9609   9618   9627     1  0.0000000  0.0000000  3
   9611   9609   9618   9619     1  0.0000000  0.6508444  3
   9611   9609   9618   9620     1  0.0000000  0.6508444  3
   9613   9612   9624  17597     1  0.0000000  1.0460000  1
   9613   9612   9624  17597     1  0.0000000  0.0000000  3
   9613   9612   9624   9625     1  0.0000000  0.6508444  3
   9613   9612   9624   9626     1  0.0000000  0.6508444  3
   9614   9612   9624  17597     1  0.0000000  1.0460000  1
   9614   9612   9624  17597     1  0.0000000  0.0000000  3
   9614   9612   9624   9625     1  0.0000000  0.6508444  3
   9614   9612   9624   9626     1  0.0000000  0.6508444  3
   9616   9615   9621  17574     1  0.0000000  1.0460000  1
   9616   9615   9621  17574     1  0.0000000  0.0000000  3
   9616   9615   9621   9622     1  0.0000000  0.6508444  3
   9616   9615   9621   9623     1  0.0000000  0.6508444  3
   9617   9615   9621  17574     1  0.0000000  1.0460000  1
   9617   9615   9621  17574     1  0.0000000  0.0000000  3
   9617   9615   9621   9622     1  0.0000000  0.6508444  3
   9617   9615   9621   9623     1  0.0000000  0.6508444  3
   9621  17574  17570  17573     1  0.0000000  1.6038667  3
   9622   9621  17574  17570     1  0.0000000  1.6038667  3
   9623   9621  17574  17570     1  0.0000000  1.6038667  3
   9624  17597  17593  17596     1  0.0000000  1.6038667  3
   9625   9624  17597  17593     1  0.0000000  1.6038667  3
   9626   9624  17597  17593     1  0.0000000  1.6038667  3
   9628   9629   9641   9642     1  0.0000000  0.6508444  3
   9628   9629   9641   9643     1  0.0000000  0.6508444  3
   9628   9632   9644   9645     1  0.0000000  0.6508444  3
   9628   9632   9644   9646     1  0.0000000  0.6508444  3
   9628   9635   9638   9639     1  0.0000000  0.6508444  3
   9628   9635   9638   9640     1  0.0000000  0.6508444  3
   9629   9628   9632   9633     1  0.0000000  1.2552000  3
   9629   9628   9632   9634     1  0.0000000  1.2552000  3
   9629   9628   9635   9636     1  0.0000000  1.2552000  3
   9629   9628   9635   9637     1  0.0000000  1.2552000  3
   9629   9641   9653   9654     1  0.0000000  0.6508444  3
   9629   9641   9653   9655     1  0.0000000  0.6508444  3
   9630   9629   9628   9632     1  0.0000000  1.2552000  3
   9630   9629   9628   9635     1  0.0000000  1.2552000  3
   9630   9629   9641   9653     1  0.0000000  0.6508444  3
   9630   9629   9641   9642     1  0.0000000  0.6508444  3
   9630   9629   9641   9643     1  0.0000000  0.6508444  3
   9631   9629   9628   9632     1  0.0000000  1.2552000  3
   9631   9629   9628   9635     1  0.0000000  1.2552000  3
   9631   9629   9641   9653     1  0.0000000  0.6508444  3
   9631   9629   9641   9642     1  0.0000000  0.6508444  3
   9631   9629   9641   9643     1  0.0000000  0.6508444  3
   9632   9628   9635   9636     1  0.0000000  1.2552000  3
   9632   9628   9635   9637     1  0.0000000  1.2552000  3
   9632   9644   9650   9651     1  0.0000000  0.6508444  3
   9632   9644   9650   9652     1  0.0000000  0.6508444  3
   9633   9632   9628   9635     1  0.0000000  1.2552000  3
   9633   9632   9644   9650     1  0.0000000  0.6508444  3
   9633   9632   9644   9645     1  0.0000000  0.6508444  3
   9633   9632   9644   9646     1  0.0000000  0.6508444  3
   9634   9632   9628   9635     1  0.0000000  1.2552000  3
   9634   9632   9644   9650     1  0.0000000  0.6508444  3
   9634   9632   9644   9645     1  0.0000000  0.6508444  3
   9634   9632   9644   9646     1  0.0000000  0.6508444  3
   9635   9638   9647   9648     1  0.0000000  0.6508444  3
   9635   9638   9647   9649     1  0.0000000  0.6508444  3
   9636   9635   9638   9647     1  0.0000000  0.6508444  3
   9636   9635   9638   9639     1  0.0000000  0.6508444  3
   9636   9635   9638   9640     1  0.0000000  0.6508444  3
   9637   9635   9638   9647     1  0.0000000  0.6508444  3
   9637   9635   9638   9639     1  0.0000000  0.6508444  3
   9637   9635   9638   9640     1  0.0000000  0.6508444  3
   9639   9638   9647   9656     1  0.0000000  1.0460000  1
   9639   9638   9647   9656     1  0.0000000  0.0000000  3
   9639   9638   9647   9648     1  0.0000000  0.6508444  3
   9639   9638   9647   9649     1  0.0000000  0.6508444  3
   9640   9638   9647   9656     1  0.0000000  1.0460000  1
   9640   9638   9647   9656     1  0.0000000  0.0000000  3
   9640   9638   9647   9648     1  0.0000000  0.6508444  3
   9640   9638   9647   9649     1  0.0000000  0.6508444  3
   9642   9641   9653  17643     1  0.0000000  1.0460000  1
   9642   9641   9653  17643     1  0.0000000  0.0000000  3
   9642   9641   9653   9654     1  0.0000000  0.6508444  3
   9642   9641   9653   9655     1  0.0000000  0.6508444  3
   9643   9641   9653  17643     1  0.0000000  1.0460000  1
   9643   9641   9653  17643     1  0.0000000  0.0000000  3
   9643   9641   9653   9654     1  0.0000000  0.6508444  3
   9643   9641   9653   9655     1  0.0000000  0.6508444  3
   9645   9644   9650  17620     1  0.0000000  1.0460000  1
   9645   9644   9650  17620     1  0.0000000  0.0000000  3
   9645   9644   9650   9651     1  0.0000000  0.6508444  3
   9645   9644   9650   9652     1  0.0000000  0.6508444  3
   9646   9644   9650  17620     1  0.0000000  1.0460000  1
   9646   9644   9650  17620     1  0.0000000  0.0000000  3
   9646   9644   9650   9651     1  0.0000000  0.6508444  3
   9646   9644   9650   9652     1  0.0000000  0.6508444  3
   9650  17620  17616  17619     1  0.0000000  1.6038667  3
   9651   9650  17620  17616     1  0.0000000  1.6038667  3
   9652   9650  17620  17616     1  0.0000000  1.6038667  3
   9653  17643  17639  17642     1  0.0000000  1.6038667  3
   9654   9653  17643  17639     1  0.0000000  1.6038667  3
   9655   9653  17643  17639     1  0.0000000  1.6038667  3
   9657   9658   9670   9671     1  0.0000000  0.6508444  3
   9657   9658   9670   9672     1  0.0000000  0.6508444  3
   9657   9661   9673   9674     1  0.0000000  0.6508444  3
   9657   9661   9673   9675     1  0.0000000  0.6508444  3
   9657   9664   9667   9668     1  0.0000000  0.6508444  3
   9657   9664   9667   9669     1  0.0000000  0.6508444  3
   9658   9657   9661   9662     1  0.0000000  1.2552000  3
   9658   9657   9661   9663     1  0.0000000  1.2552000  3
   9658   9657   9664   9665     1  0.0000000  1.2552000  3
   9658   9657   9664   9666     1  0.0000000  1.2552000  3
   9658   9670   9682   9683     1  0.0000000  0.6508444  3
   9658   9670   9682   9684     1  0.0000000  0.6508444  3
   9659   9658   9657   9661     1  0.0000000  1.2552000  3
   9659   9658   9657   9664     1  0.0000000  1.2552000  3
   9659   9658   9670   9682     1  0.0000000  0.6508444  3
   9659   9658   9670   9671     1  0.0000000  0.6508444  3
   9659   9658   9670   9672     1  0.0000000  0.6508444  3
   9660   9658   9657   9661     1  0.0000000  1.2552000  3
   9660   9658   9657   9664     1  0.0000000  1.2552000  3
   9660   9658   9670   9682     1  0.0000000  0.6508444  3
   9660   9658   9670   9671     1  0.0000000  0.6508444  3
   9660   9658   9670   9672     1  0.0000000  0.6508444  3
   9661   9657   9664   9665     1  0.0000000  1.2552000  3
   9661   9657   9664   9666     1  0.0000000  1.2552000  3
   9661   9673   9679   9680     1  0.0000000  0.6508444  3
   9661   9673   9679   9681     1  0.0000000  0.6508444  3
   9662   9661   9657   9664     1  0.0000000  1.2552000  3
   9662   9661   9673   9679     1  0.0000000  0.6508444  3
   9662   9661   9673   9674     1  0.0000000  0.6508444  3
   9662   9661   9673   9675     1  0.0000000  0.6508444  3
   9663   9661   9657   9664     1  0.0000000  1.2552000  3
   9663   9661   9673   9679     1  0.0000000  0.6508444  3
   9663   9661   9673   9674     1  0.0000000  0.6508444  3
   9663   9661   9673   9675     1  0.0000000  0.6508444  3
   9664   9667   9676   9677     1  0.0000000  0.6508444  3
   9664   9667   9676   9678     1  0.0000000  0.6508444  3
   9665   9664   9667   9676     1  0.0000000  0.6508444  3
   9665   9664   9667   9668     1  0.0000000  0.6508444  3
   9665   9664   9667   9669     1  0.0000000  0.6508444  3
   9666   9664   9667   9676     1  0.0000000  0.6508444  3
   9666   9664   9667   9668     1  0.0000000  0.6508444  3
   9666   9664   9667   9669     1  0.0000000  0.6508444  3
   9668   9667   9676   9685     1  0.0000000  1.0460000  1
   9668   9667   9676   9685     1  0.0000000  0.0000000  3
   9668   9667   9676   9677     1  0.0000000  0.6508444  3
   9668   9667   9676   9678     1  0.0000000  0.6508444  3
   9669   9667   9676   9685     1  0.0000000  1.0460000  1
   9669   9667   9676   9685     1  0.0000000  0.0000000  3
   9669   9667   9676   9677     1  0.0000000  0.6508444  3
   9669   9667   9676   9678     1  0.0000000  0.6508444  3
   9671   9670   9682  17689     1  0.0000000  1.0460000  1
   9671   9670   9682  17689     1  0.0000000  0.0000000  3
   9671   9670   9682   9683     1  0.0000000  0.6508444  3
   9671   9670   9682   9684     1  0.0000000  0.6508444  3
   9672   9670   9682  17689     1  0.0000000  1.0460000  1
   9672   9670   9682  17689     1  0.0000000  0.0000000  3
   9672   9670   9682   9683     1  0.0000000  0.6508444  3
   9672   9670   9682   9684     1  0.0000000  0.6508444  3
   9674   9673   9679  17666     1  0.0000000  1.0460000  1
   9674   9673   9679  17666     1  0.0000000  0.0000000  3
   9674   9673   9679   9680     1  0.0000000  0.6508444  3
   9674   9673   9679   9681     1  0.0000000  0.6508444  3
   9675   9673   9679  17666     1  0.0000000  1.0460000  1
   9675   9673   9679  17666     1  0.0000000  0.0000000  3
   9675   9673   9679   9680     1  0.0000000  0.6508444  3
   9675   9673   9679   9681     1  0.0000000  0.6508444  3
   9679  17666  17662  17665     1  0.0000000  1.6038667  3
   9680   9679  17666  17662     1  0.0000000  1.6038667  3
   9681   9679  17666  17662     1  0.0000000  1.6038667  3
   9682  17689  17685  17688     1  0.0000000  1.6038667  3
   9683   9682  17689  17685     1  0.0000000  1.6038667  3
   9684   9682  17689  17685     1  0.0000000  1.6038667  3
   9686   9687   9699   9700     1  0.0000000  0.6508444  3
   9686   9687   9699   9701     1  0.0000000  0.6508444  3
   9686   9690   9702   9703     1  0.0000000  0.6508444  3
   9686   9690   9702   9704     1  0.0000000  0.6508444  3
   9686   9693   9696   9697     1  0.0000000  0.6508444  3
   9686   9693   9696   9698     1  0.0000000  0.6508444  3
   9687   9686   9690   9691     1  0.0000000  1.2552000  3
   9687   9686   9690   9692     1  0.0000000  1.2552000  3
   9687   9686   9693   9694     1  0.0000000  1.2552000  3
   9687   9686   9693   9695     1  0.0000000  1.2552000  3
   9687   9699   9711   9712     1  0.0000000  0.6508444  3
   9687   9699   9711   9713     1  0.0000000  0.6508444  3
   9688   9687   9686   9690     1  0.0000000  1.2552000  3
   9688   9687   9686   9693     1  0.0000000  1.2552000  3
   9688   9687   9699   9711     1  0.0000000  0.6508444  3
   9688   9687   9699   9700     1  0.0000000  0.6508444  3
   9688   9687   9699   9701     1  0.0000000  0.6508444  3
   9689   9687   9686   9690     1  0.0000000  1.2552000  3
   9689   9687   9686   9693     1  0.0000000  1.2552000  3
   9689   9687   9699   9711     1  0.0000000  0.6508444  3
   9689   9687   9699   9700     1  0.0000000  0.6508444  3
   9689   9687   9699   9701     1  0.0000000  0.6508444  3
   9690   9686   9693   9694     1  0.0000000  1.2552000  3
   9690   9686   9693   9695     1  0.0000000  1.2552000  3
   9690   9702   9708   9709     1  0.0000000  0.6508444  3
   9690   9702   9708   9710     1  0.0000000  0.6508444  3
   9691   9690   9686   9693     1  0.0000000  1.2552000  3
   9691   9690   9702   9708     1  0.0000000  0.6508444  3
   9691   9690   9702   9703     1  0.0000000  0.6508444  3
   9691   9690   9702   9704     1  0.0000000  0.6508444  3
   9692   9690   9686   9693     1  0.0000000  1.2552000  3
   9692   9690   9702   9708     1  0.0000000  0.6508444  3
   9692   9690   9702   9703     1  0.0000000  0.6508444  3
   9692   9690   9702   9704     1  0.0000000  0.6508444  3
   9693   9696   9705   9706     1  0.0000000  0.6508444  3
   9693   9696   9705   9707     1  0.0000000  0.6508444  3
   9694   9693   9696   9705     1  0.0000000  0.6508444  3
   9694   9693   9696   9697     1  0.0000000  0.6508444  3
   9694   9693   9696   9698     1  0.0000000  0.6508444  3
   9695   9693   9696   9705     1  0.0000000  0.6508444  3
   9695   9693   9696   9697     1  0.0000000  0.6508444  3
   9695   9693   9696   9698     1  0.0000000  0.6508444  3
   9697   9696   9705   9714     1  0.0000000  1.0460000  1
   9697   9696   9705   9714     1  0.0000000  0.0000000  3
   9697   9696   9705   9706     1  0.0000000  0.6508444  3
   9697   9696   9705   9707     1  0.0000000  0.6508444  3
   9698   9696   9705   9714     1  0.0000000  1.0460000  1
   9698   9696   9705   9714     1  0.0000000  0.0000000  3
   9698   9696   9705   9706     1  0.0000000  0.6508444  3
   9698   9696   9705   9707     1  0.0000000  0.6508444  3
   9700   9699   9711  17735     1  0.0000000  1.0460000  1
   9700   9699   9711  17735     1  0.0000000  0.0000000  3
   9700   9699   9711   9712     1  0.0000000  0.6508444  3
   9700   9699   9711   9713     1  0.0000000  0.6508444  3
   9701   9699   9711  17735     1  0.0000000  1.0460000  1
   9701   9699   9711  17735     1  0.0000000  0.0000000  3
   9701   9699   9711   9712     1  0.0000000  0.6508444  3
   9701   9699   9711   9713     1  0.0000000  0.6508444  3
   9703   9702   9708  17712     1  0.0000000  1.0460000  1
   9703   9702   9708  17712     1  0.0000000  0.0000000  3
   9703   9702   9708   9709     1  0.0000000  0.6508444  3
   9703   9702   9708   9710     1  0.0000000  0.6508444  3
   9704   9702   9708  17712     1  0.0000000  1.0460000  1
   9704   9702   9708  17712     1  0.0000000  0.0000000  3
   9704   9702   9708   9709     1  0.0000000  0.6508444  3
   9704   9702   9708   9710     1  0.0000000  0.6508444  3
   9708  17712  17708  17711     1  0.0000000  1.6038667  3
   9709   9708  17712  17708     1  0.0000000  1.6038667  3
   9710   9708  17712  17708     1  0.0000000  1.6038667  3
   9711  17735  17731  17734     1  0.0000000  1.6038667  3
   9712   9711  17735  17731     1  0.0000000  1.6038667  3
   9713   9711  17735  17731     1  0.0000000  1.6038667  3
   9715   9716   9728   9729     1  0.0000000  0.6508444  3
   9715   9716   9728   9730     1  0.0000000  0.6508444  3
   9715   9719   9731   9732     1  0.0000000  0.6508444  3
   9715   9719   9731   9733     1  0.0000000  0.6508444  3
   9715   9722   9725   9726     1  0.0000000  0.6508444  3
   9715   9722   9725   9727     1  0.0000000  0.6508444  3
   9716   9715   9719   9720     1  0.0000000  1.2552000  3
   9716   9715   9719   9721     1  0.0000000  1.2552000  3
   9716   9715   9722   9723     1  0.0000000  1.2552000  3
   9716   9715   9722   9724     1  0.0000000  1.2552000  3
   9716   9728   9740   9741     1  0.0000000  0.6508444  3
   9716   9728   9740   9742     1  0.0000000  0.6508444  3
   9717   9716   9715   9719     1  0.0000000  1.2552000  3
   9717   9716   9715   9722     1  0.0000000  1.2552000  3
   9717   9716   9728   9740     1  0.0000000  0.6508444  3
   9717   9716   9728   9729     1  0.0000000  0.6508444  3
   9717   9716   9728   9730     1  0.0000000  0.6508444  3
   9718   9716   9715   9719     1  0.0000000  1.2552000  3
   9718   9716   9715   9722     1  0.0000000  1.2552000  3
   9718   9716   9728   9740     1  0.0000000  0.6508444  3
   9718   9716   9728   9729     1  0.0000000  0.6508444  3
   9718   9716   9728   9730     1  0.0000000  0.6508444  3
   9719   9715   9722   9723     1  0.0000000  1.2552000  3
   9719   9715   9722   9724     1  0.0000000  1.2552000  3
   9719   9731   9737   9738     1  0.0000000  0.6508444  3
   9719   9731   9737   9739     1  0.0000000  0.6508444  3
   9720   9719   9715   9722     1  0.0000000  1.2552000  3
   9720   9719   9731   9737     1  0.0000000  0.6508444  3
   9720   9719   9731   9732     1  0.0000000  0.6508444  3
   9720   9719   9731   9733     1  0.0000000  0.6508444  3
   9721   9719   9715   9722     1  0.0000000  1.2552000  3
   9721   9719   9731   9737     1  0.0000000  0.6508444  3
   9721   9719   9731   9732     1  0.0000000  0.6508444  3
   9721   9719   9731   9733     1  0.0000000  0.6508444  3
   9722   9725   9734   9735     1  0.0000000  0.6508444  3
   9722   9725   9734   9736     1  0.0000000  0.6508444  3
   9723   9722   9725   9734     1  0.0000000  0.6508444  3
   9723   9722   9725   9726     1  0.0000000  0.6508444  3
   9723   9722   9725   9727     1  0.0000000  0.6508444  3
   9724   9722   9725   9734     1  0.0000000  0.6508444  3
   9724   9722   9725   9726     1  0.0000000  0.6508444  3
   9724   9722   9725   9727     1  0.0000000  0.6508444  3
   9726   9725   9734   9743     1  0.0000000  1.0460000  1
   9726   9725   9734   9743     1  0.0000000  0.0000000  3
   9726   9725   9734   9735     1  0.0000000  0.6508444  3
   9726   9725   9734   9736     1  0.0000000  0.6508444  3
   9727   9725   9734   9743     1  0.0000000  1.0460000  1
   9727   9725   9734   9743     1  0.0000000  0.0000000  3
   9727   9725   9734   9735     1  0.0000000  0.6508444  3
   9727   9725   9734   9736     1  0.0000000  0.6508444  3
   9729   9728   9740  17781     1  0.0000000  1.0460000  1
   9729   9728   9740  17781     1  0.0000000  0.0000000  3
   9729   9728   9740   9741     1  0.0000000  0.6508444  3
   9729   9728   9740   9742     1  0.0000000  0.6508444  3
   9730   9728   9740  17781     1  0.0000000  1.0460000  1
   9730   9728   9740  17781     1  0.0000000  0.0000000  3
   9730   9728   9740   9741     1  0.0000000  0.6508444  3
   9730   9728   9740   9742     1  0.0000000  0.6508444  3
   9732   9731   9737  17758     1  0.0000000  1.0460000  1
   9732   9731   9737  17758     1  0.0000000  0.0000000  3
   9732   9731   9737   9738     1  0.0000000  0.6508444  3
   9732   9731   9737   9739     1  0.0000000  0.6508444  3
   9733   9731   9737  17758     1  0.0000000  1.0460000  1
   9733   9731   9737  17758     1  0.0000000  0.0000000  3
   9733   9731   9737   9738     1  0.0000000  0.6508444  3
   9733   9731   9737   9739     1  0.0000000  0.6508444  3
   9737  17758  17754  17757     1  0.0000000  1.6038667  3
   9738   9737  17758  17754     1  0.0000000  1.6038667  3
   9739   9737  17758  17754     1  0.0000000  1.6038667  3
   9740  17781  17777  17780     1  0.0000000  1.6038667  3
   9741   9740  17781  17777     1  0.0000000  1.6038667  3
   9742   9740  17781  17777     1  0.0000000  1.6038667  3
   9744   9745   9757   9758     1  0.0000000  0.6508444  3
   9744   9745   9757   9759     1  0.0000000  0.6508444  3
   9744   9748   9760   9761     1  0.0000000  0.6508444  3
   9744   9748   9760   9762     1  0.0000000  0.6508444  3
   9744   9751   9754   9755     1  0.0000000  0.6508444  3
   9744   9751   9754   9756     1  0.0000000  0.6508444  3
   9745   9744   9748   9749     1  0.0000000  1.2552000  3
   9745   9744   9748   9750     1  0.0000000  1.2552000  3
   9745   9744   9751   9752     1  0.0000000  1.2552000  3
   9745   9744   9751   9753     1  0.0000000  1.2552000  3
   9745   9757   9769   9770     1  0.0000000  0.6508444  3
   9745   9757   9769   9771     1  0.0000000  0.6508444  3
   9746   9745   9744   9748     1  0.0000000  1.2552000  3
   9746   9745   9744   9751     1  0.0000000  1.2552000  3
   9746   9745   9757   9769     1  0.0000000  0.6508444  3
   9746   9745   9757   9758     1  0.0000000  0.6508444  3
   9746   9745   9757   9759     1  0.0000000  0.6508444  3
   9747   9745   9744   9748     1  0.0000000  1.2552000  3
   9747   9745   9744   9751     1  0.0000000  1.2552000  3
   9747   9745   9757   9769     1  0.0000000  0.6508444  3
   9747   9745   9757   9758     1  0.0000000  0.6508444  3
   9747   9745   9757   9759     1  0.0000000  0.6508444  3
   9748   9744   9751   9752     1  0.0000000  1.2552000  3
   9748   9744   9751   9753     1  0.0000000  1.2552000  3
   9748   9760   9766   9767     1  0.0000000  0.6508444  3
   9748   9760   9766   9768     1  0.0000000  0.6508444  3
   9749   9748   9744   9751     1  0.0000000  1.2552000  3
   9749   9748   9760   9766     1  0.0000000  0.6508444  3
   9749   9748   9760   9761     1  0.0000000  0.6508444  3
   9749   9748   9760   9762     1  0.0000000  0.6508444  3
   9750   9748   9744   9751     1  0.0000000  1.2552000  3
   9750   9748   9760   9766     1  0.0000000  0.6508444  3
   9750   9748   9760   9761     1  0.0000000  0.6508444  3
   9750   9748   9760   9762     1  0.0000000  0.6508444  3
   9751   9754   9763   9764     1  0.0000000  0.6508444  3
   9751   9754   9763   9765     1  0.0000000  0.6508444  3
   9752   9751   9754   9763     1  0.0000000  0.6508444  3
   9752   9751   9754   9755     1  0.0000000  0.6508444  3
   9752   9751   9754   9756     1  0.0000000  0.6508444  3
   9753   9751   9754   9763     1  0.0000000  0.6508444  3
   9753   9751   9754   9755     1  0.0000000  0.6508444  3
   9753   9751   9754   9756     1  0.0000000  0.6508444  3
   9755   9754   9763   9772     1  0.0000000  1.0460000  1
   9755   9754   9763   9772     1  0.0000000  0.0000000  3
   9755   9754   9763   9764     1  0.0000000  0.6508444  3
   9755   9754   9763   9765     1  0.0000000  0.6508444  3
   9756   9754   9763   9772     1  0.0000000  1.0460000  1
   9756   9754   9763   9772     1  0.0000000  0.0000000  3
   9756   9754   9763   9764     1  0.0000000  0.6508444  3
   9756   9754   9763   9765     1  0.0000000  0.6508444  3
   9758   9757   9769  17827     1  0.0000000  1.0460000  1
   9758   9757   9769  17827     1  0.0000000  0.0000000  3
   9758   9757   9769   9770     1  0.0000000  0.6508444  3
   9758   9757   9769   9771     1  0.0000000  0.6508444  3
   9759   9757   9769  17827     1  0.0000000  1.0460000  1
   9759   9757   9769  17827     1  0.0000000  0.0000000  3
   9759   9757   9769   9770     1  0.0000000  0.6508444  3
   9759   9757   9769   9771     1  0.0000000  0.6508444  3
   9761   9760   9766  17804     1  0.0000000  1.0460000  1
   9761   9760   9766  17804     1  0.0000000  0.0000000  3
   9761   9760   9766   9767     1  0.0000000  0.6508444  3
   9761   9760   9766   9768     1  0.0000000  0.6508444  3
   9762   9760   9766  17804     1  0.0000000  1.0460000  1
   9762   9760   9766  17804     1  0.0000000  0.0000000  3
   9762   9760   9766   9767     1  0.0000000  0.6508444  3
   9762   9760   9766   9768     1  0.0000000  0.6508444  3
   9766  17804  17800  17803     1  0.0000000  1.6038667  3
   9767   9766  17804  17800     1  0.0000000  1.6038667  3
   9768   9766  17804  17800     1  0.0000000  1.6038667  3
   9769  17827  17823  17826     1  0.0000000  1.6038667  3
   9770   9769  17827  17823     1  0.0000000  1.6038667  3
   9771   9769  17827  17823     1  0.0000000  1.6038667  3
   9773   9774   9786   9787     1  0.0000000  0.6508444  3
   9773   9774   9786   9788     1  0.0000000  0.6508444  3
   9773   9777   9789   9790     1  0.0000000  0.6508444  3
   9773   9777   9789   9791     1  0.0000000  0.6508444  3
   9773   9780   9783   9784     1  0.0000000  0.6508444  3
   9773   9780   9783   9785     1  0.0000000  0.6508444  3
   9774   9773   9777   9778     1  0.0000000  1.2552000  3
   9774   9773   9777   9779     1  0.0000000  1.2552000  3
   9774   9773   9780   9781     1  0.0000000  1.2552000  3
   9774   9773   9780   9782     1  0.0000000  1.2552000  3
   9774   9786   9798   9799     1  0.0000000  0.6508444  3
   9774   9786   9798   9800     1  0.0000000  0.6508444  3
   9775   9774   9773   9777     1  0.0000000  1.2552000  3
   9775   9774   9773   9780     1  0.0000000  1.2552000  3
   9775   9774   9786   9798     1  0.0000000  0.6508444  3
   9775   9774   9786   9787     1  0.0000000  0.6508444  3
   9775   9774   9786   9788     1  0.0000000  0.6508444  3
   9776   9774   9773   9777     1  0.0000000  1.2552000  3
   9776   9774   9773   9780     1  0.0000000  1.2552000  3
   9776   9774   9786   9798     1  0.0000000  0.6508444  3
   9776   9774   9786   9787     1  0.0000000  0.6508444  3
   9776   9774   9786   9788     1  0.0000000  0.6508444  3
   9777   9773   9780   9781     1  0.0000000  1.2552000  3
   9777   9773   9780   9782     1  0.0000000  1.2552000  3
   9777   9789   9795   9796     1  0.0000000  0.6508444  3
   9777   9789   9795   9797     1  0.0000000  0.6508444  3
   9778   9777   9773   9780     1  0.0000000  1.2552000  3
   9778   9777   9789   9795     1  0.0000000  0.6508444  3
   9778   9777   9789   9790     1  0.0000000  0.6508444  3
   9778   9777   9789   9791     1  0.0000000  0.6508444  3
   9779   9777   9773   9780     1  0.0000000  1.2552000  3
   9779   9777   9789   9795     1  0.0000000  0.6508444  3
   9779   9777   9789   9790     1  0.0000000  0.6508444  3
   9779   9777   9789   9791     1  0.0000000  0.6508444  3
   9780   9783   9792   9793     1  0.0000000  0.6508444  3
   9780   9783   9792   9794     1  0.0000000  0.6508444  3
   9781   9780   9783   9792     1  0.0000000  0.6508444  3
   9781   9780   9783   9784     1  0.0000000  0.6508444  3
   9781   9780   9783   9785     1  0.0000000  0.6508444  3
   9782   9780   9783   9792     1  0.0000000  0.6508444  3
   9782   9780   9783   9784     1  0.0000000  0.6508444  3
   9782   9780   9783   9785     1  0.0000000  0.6508444  3
   9784   9783   9792   9801     1  0.0000000  1.0460000  1
   9784   9783   9792   9801     1  0.0000000  0.0000000  3
   9784   9783   9792   9793     1  0.0000000  0.6508444  3
   9784   9783   9792   9794     1  0.0000000  0.6508444  3
   9785   9783   9792   9801     1  0.0000000  1.0460000  1
   9785   9783   9792   9801     1  0.0000000  0.0000000  3
   9785   9783   9792   9793     1  0.0000000  0.6508444  3
   9785   9783   9792   9794     1  0.0000000  0.6508444  3
   9787   9786   9798  17873     1  0.0000000  1.0460000  1
   9787   9786   9798  17873     1  0.0000000  0.0000000  3
   9787   9786   9798   9799     1  0.0000000  0.6508444  3
   9787   9786   9798   9800     1  0.0000000  0.6508444  3
   9788   9786   9798  17873     1  0.0000000  1.0460000  1
   9788   9786   9798  17873     1  0.0000000  0.0000000  3
   9788   9786   9798   9799     1  0.0000000  0.6508444  3
   9788   9786   9798   9800     1  0.0000000  0.6508444  3
   9790   9789   9795  17850     1  0.0000000  1.0460000  1
   9790   9789   9795  17850     1  0.0000000  0.0000000  3
   9790   9789   9795   9796     1  0.0000000  0.6508444  3
   9790   9789   9795   9797     1  0.0000000  0.6508444  3
   9791   9789   9795  17850     1  0.0000000  1.0460000  1
   9791   9789   9795  17850     1  0.0000000  0.0000000  3
   9791   9789   9795   9796     1  0.0000000  0.6508444  3
   9791   9789   9795   9797     1  0.0000000  0.6508444  3
   9795  17850  17846  17849     1  0.0000000  1.6038667  3
   9796   9795  17850  17846     1  0.0000000  1.6038667  3
   9797   9795  17850  17846     1  0.0000000  1.6038667  3
   9798  17873  17869  17872     1  0.0000000  1.6038667  3
   9799   9798  17873  17869     1  0.0000000  1.6038667  3
   9800   9798  17873  17869     1  0.0000000  1.6038667  3
   9802   9803   9815   9816     1  0.0000000  0.6508444  3
   9802   9803   9815   9817     1  0.0000000  0.6508444  3
   9802   9806   9818   9819     1  0.0000000  0.6508444  3
   9802   9806   9818   9820     1  0.0000000  0.6508444  3
   9802   9809   9812   9813     1  0.0000000  0.6508444  3
   9802   9809   9812   9814     1  0.0000000  0.6508444  3
   9803   9802   9806   9807     1  0.0000000  1.2552000  3
   9803   9802   9806   9808     1  0.0000000  1.2552000  3
   9803   9802   9809   9810     1  0.0000000  1.2552000  3
   9803   9802   9809   9811     1  0.0000000  1.2552000  3
   9803   9815   9827   9828     1  0.0000000  0.6508444  3
   9803   9815   9827   9829     1  0.0000000  0.6508444  3
   9804   9803   9802   9806     1  0.0000000  1.2552000  3
   9804   9803   9802   9809     1  0.0000000  1.2552000  3
   9804   9803   9815   9827     1  0.0000000  0.6508444  3
   9804   9803   9815   9816     1  0.0000000  0.6508444  3
   9804   9803   9815   9817     1  0.0000000  0.6508444  3
   9805   9803   9802   9806     1  0.0000000  1.2552000  3
   9805   9803   9802   9809     1  0.0000000  1.2552000  3
   9805   9803   9815   9827     1  0.0000000  0.6508444  3
   9805   9803   9815   9816     1  0.0000000  0.6508444  3
   9805   9803   9815   9817     1  0.0000000  0.6508444  3
   9806   9802   9809   9810     1  0.0000000  1.2552000  3
   9806   9802   9809   9811     1  0.0000000  1.2552000  3
   9806   9818   9824   9825     1  0.0000000  0.6508444  3
   9806   9818   9824   9826     1  0.0000000  0.6508444  3
   9807   9806   9802   9809     1  0.0000000  1.2552000  3
   9807   9806   9818   9824     1  0.0000000  0.6508444  3
   9807   9806   9818   9819     1  0.0000000  0.6508444  3
   9807   9806   9818   9820     1  0.0000000  0.6508444  3
   9808   9806   9802   9809     1  0.0000000  1.2552000  3
   9808   9806   9818   9824     1  0.0000000  0.6508444  3
   9808   9806   9818   9819     1  0.0000000  0.6508444  3
   9808   9806   9818   9820     1  0.0000000  0.6508444  3
   9809   9812   9821   9822     1  0.0000000  0.6508444  3
   9809   9812   9821   9823     1  0.0000000  0.6508444  3
   9810   9809   9812   9821     1  0.0000000  0.6508444  3
   9810   9809   9812   9813     1  0.0000000  0.6508444  3
   9810   9809   9812   9814     1  0.0000000  0.6508444  3
   9811   9809   9812   9821     1  0.0000000  0.6508444  3
   9811   9809   9812   9813     1  0.0000000  0.6508444  3
   9811   9809   9812   9814     1  0.0000000  0.6508444  3
   9813   9812   9821   9830     1  0.0000000  1.0460000  1
   9813   9812   9821   9830     1  0.0000000  0.0000000  3
   9813   9812   9821   9822     1  0.0000000  0.6508444  3
   9813   9812   9821   9823     1  0.0000000  0.6508444  3
   9814   9812   9821   9830     1  0.0000000  1.0460000  1
   9814   9812   9821   9830     1  0.0000000  0.0000000  3
   9814   9812   9821   9822     1  0.0000000  0.6508444  3
   9814   9812   9821   9823     1  0.0000000  0.6508444  3
   9816   9815   9827  17919     1  0.0000000  1.0460000  1
   9816   9815   9827  17919     1  0.0000000  0.0000000  3
   9816   9815   9827   9828     1  0.0000000  0.6508444  3
   9816   9815   9827   9829     1  0.0000000  0.6508444  3
   9817   9815   9827  17919     1  0.0000000  1.0460000  1
   9817   9815   9827  17919     1  0.0000000  0.0000000  3
   9817   9815   9827   9828     1  0.0000000  0.6508444  3
   9817   9815   9827   9829     1  0.0000000  0.6508444  3
   9819   9818   9824  17896     1  0.0000000  1.0460000  1
   9819   9818   9824  17896     1  0.0000000  0.0000000  3
   9819   9818   9824   9825     1  0.0000000  0.6508444  3
   9819   9818   9824   9826     1  0.0000000  0.6508444  3
   9820   9818   9824  17896     1  0.0000000  1.0460000  1
   9820   9818   9824  17896     1  0.0000000  0.0000000  3
   9820   9818   9824   9825     1  0.0000000  0.6508444  3
   9820   9818   9824   9826     1  0.0000000  0.6508444  3
   9824  17896  17892  17895     1  0.0000000  1.6038667  3
   9825   9824  17896  17892     1  0.0000000  1.6038667  3
   9826   9824  17896  17892     1  0.0000000  1.6038667  3
   9827  17919  17915  17918     1  0.0000000  1.6038667  3
   9828   9827  17919  17915     1  0.0000000  1.6038667  3
   9829   9827  17919  17915     1  0.0000000  1.6038667  3
   9831   9832   9844   9845     1  0.0000000  0.6508444  3
   9831   9832   9844   9846     1  0.0000000  0.6508444  3
   9831   9835   9847   9848     1  0.0000000  0.6508444  3
   9831   9835   9847   9849     1  0.0000000  0.6508444  3
   9831   9838   9841   9842     1  0.0000000  0.6508444  3
   9831   9838   9841   9843     1  0.0000000  0.6508444  3
   9832   9831   9835   9836     1  0.0000000  1.2552000  3
   9832   9831   9835   9837     1  0.0000000  1.2552000  3
   9832   9831   9838   9839     1  0.0000000  1.2552000  3
   9832   9831   9838   9840     1  0.0000000  1.2552000  3
   9832   9844   9856   9857     1  0.0000000  0.6508444  3
   9832   9844   9856   9858     1  0.0000000  0.6508444  3
   9833   9832   9831   9835     1  0.0000000  1.2552000  3
   9833   9832   9831   9838     1  0.0000000  1.2552000  3
   9833   9832   9844   9856     1  0.0000000  0.6508444  3
   9833   9832   9844   9845     1  0.0000000  0.6508444  3
   9833   9832   9844   9846     1  0.0000000  0.6508444  3
   9834   9832   9831   9835     1  0.0000000  1.2552000  3
   9834   9832   9831   9838     1  0.0000000  1.2552000  3
   9834   9832   9844   9856     1  0.0000000  0.6508444  3
   9834   9832   9844   9845     1  0.0000000  0.6508444  3
   9834   9832   9844   9846     1  0.0000000  0.6508444  3
   9835   9831   9838   9839     1  0.0000000  1.2552000  3
   9835   9831   9838   9840     1  0.0000000  1.2552000  3
   9835   9847   9853   9854     1  0.0000000  0.6508444  3
   9835   9847   9853   9855     1  0.0000000  0.6508444  3
   9836   9835   9831   9838     1  0.0000000  1.2552000  3
   9836   9835   9847   9853     1  0.0000000  0.6508444  3
   9836   9835   9847   9848     1  0.0000000  0.6508444  3
   9836   9835   9847   9849     1  0.0000000  0.6508444  3
   9837   9835   9831   9838     1  0.0000000  1.2552000  3
   9837   9835   9847   9853     1  0.0000000  0.6508444  3
   9837   9835   9847   9848     1  0.0000000  0.6508444  3
   9837   9835   9847   9849     1  0.0000000  0.6508444  3
   9838   9841   9850   9851     1  0.0000000  0.6508444  3
   9838   9841   9850   9852     1  0.0000000  0.6508444  3
   9839   9838   9841   9850     1  0.0000000  0.6508444  3
   9839   9838   9841   9842     1  0.0000000  0.6508444  3
   9839   9838   9841   9843     1  0.0000000  0.6508444  3
   9840   9838   9841   9850     1  0.0000000  0.6508444  3
   9840   9838   9841   9842     1  0.0000000  0.6508444  3
   9840   9838   9841   9843     1  0.0000000  0.6508444  3
   9842   9841   9850   9859     1  0.0000000  1.0460000  1
   9842   9841   9850   9859     1  0.0000000  0.0000000  3
   9842   9841   9850   9851     1  0.0000000  0.6508444  3
   9842   9841   9850   9852     1  0.0000000  0.6508444  3
   9843   9841   9850   9859     1  0.0000000  1.0460000  1
   9843   9841   9850   9859     1  0.0000000  0.0000000  3
   9843   9841   9850   9851     1  0.0000000  0.6508444  3
   9843   9841   9850   9852     1  0.0000000  0.6508444  3
   9845   9844   9856  17965     1  0.0000000  1.0460000  1
   9845   9844   9856  17965     1  0.0000000  0.0000000  3
   9845   9844   9856   9857     1  0.0000000  0.6508444  3
   9845   9844   9856   9858     1  0.0000000  0.6508444  3
   9846   9844   9856  17965     1  0.0000000  1.0460000  1
   9846   9844   9856  17965     1  0.0000000  0.0000000  3
   9846   9844   9856   9857     1  0.0000000  0.6508444  3
   9846   9844   9856   9858     1  0.0000000  0.6508444  3
   9848   9847   9853  17942     1  0.0000000  1.0460000  1
   9848   9847   9853  17942     1  0.0000000  0.0000000  3
   9848   9847   9853   9854     1  0.0000000  0.6508444  3
   9848   9847   9853   9855     1  0.0000000  0.6508444  3
   9849   9847   9853  17942     1  0.0000000  1.0460000  1
   9849   9847   9853  17942     1  0.0000000  0.0000000  3
   9849   9847   9853   9854     1  0.0000000  0.6508444  3
   9849   9847   9853   9855     1  0.0000000  0.6508444  3
   9853  17942  17938  17941     1  0.0000000  1.6038667  3
   9854   9853  17942  17938     1  0.0000000  1.6038667  3
   9855   9853  17942  17938     1  0.0000000  1.6038667  3
   9856  17965  17961  17964     1  0.0000000  1.6038667  3
   9857   9856  17965  17961     1  0.0000000  1.6038667  3
   9858   9856  17965  17961     1  0.0000000  1.6038667  3
   9860   9861   9873   9874     1  0.0000000  0.6508444  3
   9860   9861   9873   9875     1  0.0000000  0.6508444  3
   9860   9864   9876   9877     1  0.0000000  0.6508444  3
   9860   9864   9876   9878     1  0.0000000  0.6508444  3
   9860   9867   9870   9871     1  0.0000000  0.6508444  3
   9860   9867   9870   9872     1  0.0000000  0.6508444  3
   9861   9860   9864   9865     1  0.0000000  1.2552000  3
   9861   9860   9864   9866     1  0.0000000  1.2552000  3
   9861   9860   9867   9868     1  0.0000000  1.2552000  3
   9861   9860   9867   9869     1  0.0000000  1.2552000  3
   9861   9873   9885   9886     1  0.0000000  0.6508444  3
   9861   9873   9885   9887     1  0.0000000  0.6508444  3
   9862   9861   9860   9864     1  0.0000000  1.2552000  3
   9862   9861   9860   9867     1  0.0000000  1.2552000  3
   9862   9861   9873   9885     1  0.0000000  0.6508444  3
   9862   9861   9873   9874     1  0.0000000  0.6508444  3
   9862   9861   9873   9875     1  0.0000000  0.6508444  3
   9863   9861   9860   9864     1  0.0000000  1.2552000  3
   9863   9861   9860   9867     1  0.0000000  1.2552000  3
   9863   9861   9873   9885     1  0.0000000  0.6508444  3
   9863   9861   9873   9874     1  0.0000000  0.6508444  3
   9863   9861   9873   9875     1  0.0000000  0.6508444  3
   9864   9860   9867   9868     1  0.0000000  1.2552000  3
   9864   9860   9867   9869     1  0.0000000  1.2552000  3
   9864   9876   9882   9883     1  0.0000000  0.6508444  3
   9864   9876   9882   9884     1  0.0000000  0.6508444  3
   9865   9864   9860   9867     1  0.0000000  1.2552000  3
   9865   9864   9876   9882     1  0.0000000  0.6508444  3
   9865   9864   9876   9877     1  0.0000000  0.6508444  3
   9865   9864   9876   9878     1  0.0000000  0.6508444  3
   9866   9864   9860   9867     1  0.0000000  1.2552000  3
   9866   9864   9876   9882     1  0.0000000  0.6508444  3
   9866   9864   9876   9877     1  0.0000000  0.6508444  3
   9866   9864   9876   9878     1  0.0000000  0.6508444  3
   9867   9870   9879   9880     1  0.0000000  0.6508444  3
   9867   9870   9879   9881     1  0.0000000  0.6508444  3
   9868   9867   9870   9879     1  0.0000000  0.6508444  3
   9868   9867   9870   9871     1  0.0000000  0.6508444  3
   9868   9867   9870   9872     1  0.0000000  0.6508444  3
   9869   9867   9870   9879     1  0.0000000  0.6508444  3
   9869   9867   9870   9871     1  0.0000000  0.6508444  3
   9869   9867   9870   9872     1  0.0000000  0.6508444  3
   9871   9870   9879   9888     1  0.0000000  1.0460000  1
   9871   9870   9879   9888     1  0.0000000  0.0000000  3
   9871   9870   9879   9880     1  0.0000000  0.6508444  3
   9871   9870   9879   9881     1  0.0000000  0.6508444  3
   9872   9870   9879   9888     1  0.0000000  1.0460000  1
   9872   9870   9879   9888     1  0.0000000  0.0000000  3
   9872   9870   9879   9880     1  0.0000000  0.6508444  3
   9872   9870   9879   9881     1  0.0000000  0.6508444  3
   9874   9873   9885  18011     1  0.0000000  1.0460000  1
   9874   9873   9885  18011     1  0.0000000  0.0000000  3
   9874   9873   9885   9886     1  0.0000000  0.6508444  3
   9874   9873   9885   9887     1  0.0000000  0.6508444  3
   9875   9873   9885  18011     1  0.0000000  1.0460000  1
   9875   9873   9885  18011     1  0.0000000  0.0000000  3
   9875   9873   9885   9886     1  0.0000000  0.6508444  3
   9875   9873   9885   9887     1  0.0000000  0.6508444  3
   9877   9876   9882  17988     1  0.0000000  1.0460000  1
   9877   9876   9882  17988     1  0.0000000  0.0000000  3
   9877   9876   9882   9883     1  0.0000000  0.6508444  3
   9877   9876   9882   9884     1  0.0000000  0.6508444  3
   9878   9876   9882  17988     1  0.0000000  1.0460000  1
   9878   9876   9882  17988     1  0.0000000  0.0000000  3
   9878   9876   9882   9883     1  0.0000000  0.6508444  3
   9878   9876   9882   9884     1  0.0000000  0.6508444  3
   9882  17988  17984  17987     1  0.0000000  1.6038667  3
   9883   9882  17988  17984     1  0.0000000  1.6038667  3
   9884   9882  17988  17984     1  0.0000000  1.6038667  3
   9885  18011  18007  18010     1  0.0000000  1.6038667  3
   9886   9885  18011  18007     1  0.0000000  1.6038667  3
   9887   9885  18011  18007     1  0.0000000  1.6038667  3
   9889   9890   9902   9903     1  0.0000000  0.6508444  3
   9889   9890   9902   9904     1  0.0000000  0.6508444  3
   9889   9893   9905   9906     1  0.0000000  0.6508444  3
   9889   9893   9905   9907     1  0.0000000  0.6508444  3
   9889   9896   9899   9900     1  0.0000000  0.6508444  3
   9889   9896   9899   9901     1  0.0000000  0.6508444  3
   9890   9889   9893   9894     1  0.0000000  1.2552000  3
   9890   9889   9893   9895     1  0.0000000  1.2552000  3
   9890   9889   9896   9897     1  0.0000000  1.2552000  3
   9890   9889   9896   9898     1  0.0000000  1.2552000  3
   9890   9902   9914   9915     1  0.0000000  0.6508444  3
   9890   9902   9914   9916     1  0.0000000  0.6508444  3
   9891   9890   9889   9893     1  0.0000000  1.2552000  3
   9891   9890   9889   9896     1  0.0000000  1.2552000  3
   9891   9890   9902   9914     1  0.0000000  0.6508444  3
   9891   9890   9902   9903     1  0.0000000  0.6508444  3
   9891   9890   9902   9904     1  0.0000000  0.6508444  3
   9892   9890   9889   9893     1  0.0000000  1.2552000  3
   9892   9890   9889   9896     1  0.0000000  1.2552000  3
   9892   9890   9902   9914     1  0.0000000  0.6508444  3
   9892   9890   9902   9903     1  0.0000000  0.6508444  3
   9892   9890   9902   9904     1  0.0000000  0.6508444  3
   9893   9889   9896   9897     1  0.0000000  1.2552000  3
   9893   9889   9896   9898     1  0.0000000  1.2552000  3
   9893   9905   9911   9912     1  0.0000000  0.6508444  3
   9893   9905   9911   9913     1  0.0000000  0.6508444  3
   9894   9893   9889   9896     1  0.0000000  1.2552000  3
   9894   9893   9905   9911     1  0.0000000  0.6508444  3
   9894   9893   9905   9906     1  0.0000000  0.6508444  3
   9894   9893   9905   9907     1  0.0000000  0.6508444  3
   9895   9893   9889   9896     1  0.0000000  1.2552000  3
   9895   9893   9905   9911     1  0.0000000  0.6508444  3
   9895   9893   9905   9906     1  0.0000000  0.6508444  3
   9895   9893   9905   9907     1  0.0000000  0.6508444  3
   9896   9899   9908   9909     1  0.0000000  0.6508444  3
   9896   9899   9908   9910     1  0.0000000  0.6508444  3
   9897   9896   9899   9908     1  0.0000000  0.6508444  3
   9897   9896   9899   9900     1  0.0000000  0.6508444  3
   9897   9896   9899   9901     1  0.0000000  0.6508444  3
   9898   9896   9899   9908     1  0.0000000  0.6508444  3
   9898   9896   9899   9900     1  0.0000000  0.6508444  3
   9898   9896   9899   9901     1  0.0000000  0.6508444  3
   9900   9899   9908   9917     1  0.0000000  1.0460000  1
   9900   9899   9908   9917     1  0.0000000  0.0000000  3
   9900   9899   9908   9909     1  0.0000000  0.6508444  3
   9900   9899   9908   9910     1  0.0000000  0.6508444  3
   9901   9899   9908   9917     1  0.0000000  1.0460000  1
   9901   9899   9908   9917     1  0.0000000  0.0000000  3
   9901   9899   9908   9909     1  0.0000000  0.6508444  3
   9901   9899   9908   9910     1  0.0000000  0.6508444  3
   9903   9902   9914  18057     1  0.0000000  1.0460000  1
   9903   9902   9914  18057     1  0.0000000  0.0000000  3
   9903   9902   9914   9915     1  0.0000000  0.6508444  3
   9903   9902   9914   9916     1  0.0000000  0.6508444  3
   9904   9902   9914  18057     1  0.0000000  1.0460000  1
   9904   9902   9914  18057     1  0.0000000  0.0000000  3
   9904   9902   9914   9915     1  0.0000000  0.6508444  3
   9904   9902   9914   9916     1  0.0000000  0.6508444  3
   9906   9905   9911  18034     1  0.0000000  1.0460000  1
   9906   9905   9911  18034     1  0.0000000  0.0000000  3
   9906   9905   9911   9912     1  0.0000000  0.6508444  3
   9906   9905   9911   9913     1  0.0000000  0.6508444  3
   9907   9905   9911  18034     1  0.0000000  1.0460000  1
   9907   9905   9911  18034     1  0.0000000  0.0000000  3
   9907   9905   9911   9912     1  0.0000000  0.6508444  3
   9907   9905   9911   9913     1  0.0000000  0.6508444  3
   9911  18034  18030  18033     1  0.0000000  1.6038667  3
   9912   9911  18034  18030     1  0.0000000  1.6038667  3
   9913   9911  18034  18030     1  0.0000000  1.6038667  3
   9914  18057  18053  18056     1  0.0000000  1.6038667  3
   9915   9914  18057  18053     1  0.0000000  1.6038667  3
   9916   9914  18057  18053     1  0.0000000  1.6038667  3
   9918   9919   9931   9932     1  0.0000000  0.6508444  3
   9918   9919   9931   9933     1  0.0000000  0.6508444  3
   9918   9922   9934   9935     1  0.0000000  0.6508444  3
   9918   9922   9934   9936     1  0.0000000  0.6508444  3
   9918   9925   9928   9929     1  0.0000000  0.6508444  3
   9918   9925   9928   9930     1  0.0000000  0.6508444  3
   9919   9918   9922   9923     1  0.0000000  1.2552000  3
   9919   9918   9922   9924     1  0.0000000  1.2552000  3
   9919   9918   9925   9926     1  0.0000000  1.2552000  3
   9919   9918   9925   9927     1  0.0000000  1.2552000  3
   9919   9931   9943   9944     1  0.0000000  0.6508444  3
   9919   9931   9943   9945     1  0.0000000  0.6508444  3
   9920   9919   9918   9922     1  0.0000000  1.2552000  3
   9920   9919   9918   9925     1  0.0000000  1.2552000  3
   9920   9919   9931   9943     1  0.0000000  0.6508444  3
   9920   9919   9931   9932     1  0.0000000  0.6508444  3
   9920   9919   9931   9933     1  0.0000000  0.6508444  3
   9921   9919   9918   9922     1  0.0000000  1.2552000  3
   9921   9919   9918   9925     1  0.0000000  1.2552000  3
   9921   9919   9931   9943     1  0.0000000  0.6508444  3
   9921   9919   9931   9932     1  0.0000000  0.6508444  3
   9921   9919   9931   9933     1  0.0000000  0.6508444  3
   9922   9918   9925   9926     1  0.0000000  1.2552000  3
   9922   9918   9925   9927     1  0.0000000  1.2552000  3
   9922   9934   9940   9941     1  0.0000000  0.6508444  3
   9922   9934   9940   9942     1  0.0000000  0.6508444  3
   9923   9922   9918   9925     1  0.0000000  1.2552000  3
   9923   9922   9934   9940     1  0.0000000  0.6508444  3
   9923   9922   9934   9935     1  0.0000000  0.6508444  3
   9923   9922   9934   9936     1  0.0000000  0.6508444  3
   9924   9922   9918   9925     1  0.0000000  1.2552000  3
   9924   9922   9934   9940     1  0.0000000  0.6508444  3
   9924   9922   9934   9935     1  0.0000000  0.6508444  3
   9924   9922   9934   9936     1  0.0000000  0.6508444  3
   9925   9928   9937   9938     1  0.0000000  0.6508444  3
   9925   9928   9937   9939     1  0.0000000  0.6508444  3
   9926   9925   9928   9937     1  0.0000000  0.6508444  3
   9926   9925   9928   9929     1  0.0000000  0.6508444  3
   9926   9925   9928   9930     1  0.0000000  0.6508444  3
   9927   9925   9928   9937     1  0.0000000  0.6508444  3
   9927   9925   9928   9929     1  0.0000000  0.6508444  3
   9927   9925   9928   9930     1  0.0000000  0.6508444  3
   9929   9928   9937   9946     1  0.0000000  1.0460000  1
   9929   9928   9937   9946     1  0.0000000  0.0000000  3
   9929   9928   9937   9938     1  0.0000000  0.6508444  3
   9929   9928   9937   9939     1  0.0000000  0.6508444  3
   9930   9928   9937   9946     1  0.0000000  1.0460000  1
   9930   9928   9937   9946     1  0.0000000  0.0000000  3
   9930   9928   9937   9938     1  0.0000000  0.6508444  3
   9930   9928   9937   9939     1  0.0000000  0.6508444  3
   9932   9931   9943  18103     1  0.0000000  1.0460000  1
   9932   9931   9943  18103     1  0.0000000  0.0000000  3
   9932   9931   9943   9944     1  0.0000000  0.6508444  3
   9932   9931   9943   9945     1  0.0000000  0.6508444  3
   9933   9931   9943  18103     1  0.0000000  1.0460000  1
   9933   9931   9943  18103     1  0.0000000  0.0000000  3
   9933   9931   9943   9944     1  0.0000000  0.6508444  3
   9933   9931   9943   9945     1  0.0000000  0.6508444  3
   9935   9934   9940  18080     1  0.0000000  1.0460000  1
   9935   9934   9940  18080     1  0.0000000  0.0000000  3
   9935   9934   9940   9941     1  0.0000000  0.6508444  3
   9935   9934   9940   9942     1  0.0000000  0.6508444  3
   9936   9934   9940  18080     1  0.0000000  1.0460000  1
   9936   9934   9940  18080     1  0.0000000  0.0000000  3
   9936   9934   9940   9941     1  0.0000000  0.6508444  3
   9936   9934   9940   9942     1  0.0000000  0.6508444  3
   9940  18080  18076  18079     1  0.0000000  1.6038667  3
   9941   9940  18080  18076     1  0.0000000  1.6038667  3
   9942   9940  18080  18076     1  0.0000000  1.6038667  3
   9943  18103  18099  18102     1  0.0000000  1.6038667  3
   9944   9943  18103  18099     1  0.0000000  1.6038667  3
   9945   9943  18103  18099     1  0.0000000  1.6038667  3
   9947   9948   9960   9961     1  0.0000000  0.6508444  3
   9947   9948   9960   9962     1  0.0000000  0.6508444  3
   9947   9951   9963   9964     1  0.0000000  0.6508444  3
   9947   9951   9963   9965     1  0.0000000  0.6508444  3
   9947   9954   9957   9958     1  0.0000000  0.6508444  3
   9947   9954   9957   9959     1  0.0000000  0.6508444  3
   9948   9947   9951   9952     1  0.0000000  1.2552000  3
   9948   9947   9951   9953     1  0.0000000  1.2552000  3
   9948   9947   9954   9955     1  0.0000000  1.2552000  3
   9948   9947   9954   9956     1  0.0000000  1.2552000  3
   9948   9960   9972   9973     1  0.0000000  0.6508444  3
   9948   9960   9972   9974     1  0.0000000  0.6508444  3
   9949   9948   9947   9951     1  0.0000000  1.2552000  3
   9949   9948   9947   9954     1  0.0000000  1.2552000  3
   9949   9948   9960   9972     1  0.0000000  0.6508444  3
   9949   9948   9960   9961     1  0.0000000  0.6508444  3
   9949   9948   9960   9962     1  0.0000000  0.6508444  3
   9950   9948   9947   9951     1  0.0000000  1.2552000  3
   9950   9948   9947   9954     1  0.0000000  1.2552000  3
   9950   9948   9960   9972     1  0.0000000  0.6508444  3
   9950   9948   9960   9961     1  0.0000000  0.6508444  3
   9950   9948   9960   9962     1  0.0000000  0.6508444  3
   9951   9947   9954   9955     1  0.0000000  1.2552000  3
   9951   9947   9954   9956     1  0.0000000  1.2552000  3
   9951   9963   9969   9970     1  0.0000000  0.6508444  3
   9951   9963   9969   9971     1  0.0000000  0.6508444  3
   9952   9951   9947   9954     1  0.0000000  1.2552000  3
   9952   9951   9963   9969     1  0.0000000  0.6508444  3
   9952   9951   9963   9964     1  0.0000000  0.6508444  3
   9952   9951   9963   9965     1  0.0000000  0.6508444  3
   9953   9951   9947   9954     1  0.0000000  1.2552000  3
   9953   9951   9963   9969     1  0.0000000  0.6508444  3
   9953   9951   9963   9964     1  0.0000000  0.6508444  3
   9953   9951   9963   9965     1  0.0000000  0.6508444  3
   9954   9957   9966   9967     1  0.0000000  0.6508444  3
   9954   9957   9966   9968     1  0.0000000  0.6508444  3
   9955   9954   9957   9966     1  0.0000000  0.6508444  3
   9955   9954   9957   9958     1  0.0000000  0.6508444  3
   9955   9954   9957   9959     1  0.0000000  0.6508444  3
   9956   9954   9957   9966     1  0.0000000  0.6508444  3
   9956   9954   9957   9958     1  0.0000000  0.6508444  3
   9956   9954   9957   9959     1  0.0000000  0.6508444  3
   9958   9957   9966   9975     1  0.0000000  1.0460000  1
   9958   9957   9966   9975     1  0.0000000  0.0000000  3
   9958   9957   9966   9967     1  0.0000000  0.6508444  3
   9958   9957   9966   9968     1  0.0000000  0.6508444  3
   9959   9957   9966   9975     1  0.0000000  1.0460000  1
   9959   9957   9966   9975     1  0.0000000  0.0000000  3
   9959   9957   9966   9967     1  0.0000000  0.6508444  3
   9959   9957   9966   9968     1  0.0000000  0.6508444  3
   9961   9960   9972  18149     1  0.0000000  1.0460000  1
   9961   9960   9972  18149     1  0.0000000  0.0000000  3
   9961   9960   9972   9973     1  0.0000000  0.6508444  3
   9961   9960   9972   9974     1  0.0000000  0.6508444  3
   9962   9960   9972  18149     1  0.0000000  1.0460000  1
   9962   9960   9972  18149     1  0.0000000  0.0000000  3
   9962   9960   9972   9973     1  0.0000000  0.6508444  3
   9962   9960   9972   9974     1  0.0000000  0.6508444  3
   9964   9963   9969  18126     1  0.0000000  1.0460000  1
   9964   9963   9969  18126     1  0.0000000  0.0000000  3
   9964   9963   9969   9970     1  0.0000000  0.6508444  3
   9964   9963   9969   9971     1  0.0000000  0.6508444  3
   9965   9963   9969  18126     1  0.0000000  1.0460000  1
   9965   9963   9969  18126     1  0.0000000  0.0000000  3
   9965   9963   9969   9970     1  0.0000000  0.6508444  3
   9965   9963   9969   9971     1  0.0000000  0.6508444  3
   9969  18126  18122  18125     1  0.0000000  1.6038667  3
   9970   9969  18126  18122     1  0.0000000  1.6038667  3
   9971   9969  18126  18122     1  0.0000000  1.6038667  3
   9972  18149  18145  18148     1  0.0000000  1.6038667  3
   9973   9972  18149  18145     1  0.0000000  1.6038667  3
   9974   9972  18149  18145     1  0.0000000  1.6038667  3
   9976   9977   9989   9990     1  0.0000000  0.6508444  3
   9976   9977   9989   9991     1  0.0000000  0.6508444  3
   9976   9980   9992   9993     1  0.0000000  0.6508444  3
   9976   9980   9992   9994     1  0.0000000  0.6508444  3
   9976   9983   9986   9987     1  0.0000000  0.6508444  3
   9976   9983   9986   9988     1  0.0000000  0.6508444  3
   9977   9976   9980   9981     1  0.0000000  1.2552000  3
   9977   9976   9980   9982     1  0.0000000  1.2552000  3
   9977   9976   9983   9984     1  0.0000000  1.2552000  3
   9977   9976   9983   9985     1  0.0000000  1.2552000  3
   9977   9989  10001  10002     1  0.0000000  0.6508444  3
   9977   9989  10001  10003     1  0.0000000  0.6508444  3
   9978   9977   9976   9980     1  0.0000000  1.2552000  3
   9978   9977   9976   9983     1  0.0000000  1.2552000  3
   9978   9977   9989  10001     1  0.0000000  0.6508444  3
   9978   9977   9989   9990     1  0.0000000  0.6508444  3
   9978   9977   9989   9991     1  0.0000000  0.6508444  3
   9979   9977   9976   9980     1  0.0000000  1.2552000  3
   9979   9977   9976   9983     1  0.0000000  1.2552000  3
   9979   9977   9989  10001     1  0.0000000  0.6508444  3
   9979   9977   9989   9990     1  0.0000000  0.6508444  3
   9979   9977   9989   9991     1  0.0000000  0.6508444  3
   9980   9976   9983   9984     1  0.0000000  1.2552000  3
   9980   9976   9983   9985     1  0.0000000  1.2552000  3
   9980   9992   9998   9999     1  0.0000000  0.6508444  3
   9980   9992   9998  10000     1  0.0000000  0.6508444  3
   9981   9980   9976   9983     1  0.0000000  1.2552000  3
   9981   9980   9992   9998     1  0.0000000  0.6508444  3
   9981   9980   9992   9993     1  0.0000000  0.6508444  3
   9981   9980   9992   9994     1  0.0000000  0.6508444  3
   9982   9980   9976   9983     1  0.0000000  1.2552000  3
   9982   9980   9992   9998     1  0.0000000  0.6508444  3
   9982   9980   9992   9993     1  0.0000000  0.6508444  3
   9982   9980   9992   9994     1  0.0000000  0.6508444  3
   9983   9986   9995   9996     1  0.0000000  0.6508444  3
   9983   9986   9995   9997     1  0.0000000  0.6508444  3
   9984   9983   9986   9995     1  0.0000000  0.6508444  3
   9984   9983   9986   9987     1  0.0000000  0.6508444  3
   9984   9983   9986   9988     1  0.0000000  0.6508444  3
   9985   9983   9986   9995     1  0.0000000  0.6508444  3
   9985   9983   9986   9987     1  0.0000000  0.6508444  3
   9985   9983   9986   9988     1  0.0000000  0.6508444  3
   9987   9986   9995  10004     1  0.0000000  1.0460000  1
   9987   9986   9995  10004     1  0.0000000  0.0000000  3
   9987   9986   9995   9996     1  0.0000000  0.6508444  3
   9987   9986   9995   9997     1  0.0000000  0.6508444  3
   9988   9986   9995  10004     1  0.0000000  1.0460000  1
   9988   9986   9995  10004     1  0.0000000  0.0000000  3
   9988   9986   9995   9996     1  0.0000000  0.6508444  3
   9988   9986   9995   9997     1  0.0000000  0.6508444  3
   9990   9989  10001  18195     1  0.0000000  1.0460000  1
   9990   9989  10001  18195     1  0.0000000  0.0000000  3
   9990   9989  10001  10002     1  0.0000000  0.6508444  3
   9990   9989  10001  10003     1  0.0000000  0.6508444  3
   9991   9989  10001  18195     1  0.0000000  1.0460000  1
   9991   9989  10001  18195     1  0.0000000  0.0000000  3
   9991   9989  10001  10002     1  0.0000000  0.6508444  3
   9991   9989  10001  10003     1  0.0000000  0.6508444  3
   9993   9992   9998  18172     1  0.0000000  1.0460000  1
   9993   9992   9998  18172     1  0.0000000  0.0000000  3
   9993   9992   9998   9999     1  0.0000000  0.6508444  3
   9993   9992   9998  10000     1  0.0000000  0.6508444  3
   9994   9992   9998  18172     1  0.0000000  1.0460000  1
   9994   9992   9998  18172     1  0.0000000  0.0000000  3
   9994   9992   9998   9999     1  0.0000000  0.6508444  3
   9994   9992   9998  10000     1  0.0000000  0.6508444  3
   9998  18172  18168  18171     1  0.0000000  1.6038667  3
   9999   9998  18172  18168     1  0.0000000  1.6038667  3
  10000   9998  18172  18168     1  0.0000000  1.6038667  3
  10001  18195  18191  18194     1  0.0000000  1.6038667  3
  10002  10001  18195  18191     1  0.0000000  1.6038667  3
  10003  10001  18195  18191     1  0.0000000  1.6038667  3
  10005  10006  10018  10019     1  0.0000000  0.6508444  3
  10005  10006  10018  10020     1  0.0000000  0.6508444  3
  10005  10009  10021  10022     1  0.0000000  0.6508444  3
  10005  10009  10021  10023     1  0.0000000  0.6508444  3
  10005  10012  10015  10016     1  0.0000000  0.6508444  3
  10005  10012  10015  10017     1  0.0000000  0.6508444  3
  10006  10005  10009  10010     1  0.0000000  1.2552000  3
  10006  10005  10009  10011     1  0.0000000  1.2552000  3
  10006  10005  10012  10013     1  0.0000000  1.2552000  3
  10006  10005  10012  10014     1  0.0000000  1.2552000  3
  10006  10018  10030  10031     1  0.0000000  0.6508444  3
  10006  10018  10030  10032     1  0.0000000  0.6508444  3
  10007  10006  10005  10009     1  0.0000000  1.2552000  3
  10007  10006  10005  10012     1  0.0000000  1.2552000  3
  10007  10006  10018  10030     1  0.0000000  0.6508444  3
  10007  10006  10018  10019     1  0.0000000  0.6508444  3
  10007  10006  10018  10020     1  0.0000000  0.6508444  3
  10008  10006  10005  10009     1  0.0000000  1.2552000  3
  10008  10006  10005  10012     1  0.0000000  1.2552000  3
  10008  10006  10018  10030     1  0.0000000  0.6508444  3
  10008  10006  10018  10019     1  0.0000000  0.6508444  3
  10008  10006  10018  10020     1  0.0000000  0.6508444  3
  10009  10005  10012  10013     1  0.0000000  1.2552000  3
  10009  10005  10012  10014     1  0.0000000  1.2552000  3
  10009  10021  10027  10028     1  0.0000000  0.6508444  3
  10009  10021  10027  10029     1  0.0000000  0.6508444  3
  10010  10009  10005  10012     1  0.0000000  1.2552000  3
  10010  10009  10021  10027     1  0.0000000  0.6508444  3
  10010  10009  10021  10022     1  0.0000000  0.6508444  3
  10010  10009  10021  10023     1  0.0000000  0.6508444  3
  10011  10009  10005  10012     1  0.0000000  1.2552000  3
  10011  10009  10021  10027     1  0.0000000  0.6508444  3
  10011  10009  10021  10022     1  0.0000000  0.6508444  3
  10011  10009  10021  10023     1  0.0000000  0.6508444  3
  10012  10015  10024  10025     1  0.0000000  0.6508444  3
  10012  10015  10024  10026     1  0.0000000  0.6508444  3
  10013  10012  10015  10024     1  0.0000000  0.6508444  3
  10013  10012  10015  10016     1  0.0000000  0.6508444  3
  10013  10012  10015  10017     1  0.0000000  0.6508444  3
  10014  10012  10015  10024     1  0.0000000  0.6508444  3
  10014  10012  10015  10016     1  0.0000000  0.6508444  3
  10014  10012  10015  10017     1  0.0000000  0.6508444  3
  10016  10015  10024  10033     1  0.0000000  1.0460000  1
  10016  10015  10024  10033     1  0.0000000  0.0000000  3
  10016  10015  10024  10025     1  0.0000000  0.6508444  3
  10016  10015  10024  10026     1  0.0000000  0.6508444  3
  10017  10015  10024  10033     1  0.0000000  1.0460000  1
  10017  10015  10024  10033     1  0.0000000  0.0000000  3
  10017  10015  10024  10025     1  0.0000000  0.6508444  3
  10017  10015  10024  10026     1  0.0000000  0.6508444  3
  10019  10018  10030  18241     1  0.0000000  1.0460000  1
  10019  10018  10030  18241     1  0.0000000  0.0000000  3
  10019  10018  10030  10031     1  0.0000000  0.6508444  3
  10019  10018  10030  10032     1  0.0000000  0.6508444  3
  10020  10018  10030  18241     1  0.0000000  1.0460000  1
  10020  10018  10030  18241     1  0.0000000  0.0000000  3
  10020  10018  10030  10031     1  0.0000000  0.6508444  3
  10020  10018  10030  10032     1  0.0000000  0.6508444  3
  10022  10021  10027  18218     1  0.0000000  1.0460000  1
  10022  10021  10027  18218     1  0.0000000  0.0000000  3
  10022  10021  10027  10028     1  0.0000000  0.6508444  3
  10022  10021  10027  10029     1  0.0000000  0.6508444  3
  10023  10021  10027  18218     1  0.0000000  1.0460000  1
  10023  10021  10027  18218     1  0.0000000  0.0000000  3
  10023  10021  10027  10028     1  0.0000000  0.6508444  3
  10023  10021  10027  10029     1  0.0000000  0.6508444  3
  10027  18218  18214  18217     1  0.0000000  1.6038667  3
  10028  10027  18218  18214     1  0.0000000  1.6038667  3
  10029  10027  18218  18214     1  0.0000000  1.6038667  3
  10030  18241  18237  18240     1  0.0000000  1.6038667  3
  10031  10030  18241  18237     1  0.0000000  1.6038667  3
  10032  10030  18241  18237     1  0.0000000  1.6038667  3
  10034  10035  10047  10048     1  0.0000000  0.6508444  3
  10034  10035  10047  10049     1  0.0000000  0.6508444  3
  10034  10038  10050  10051     1  0.0000000  0.6508444  3
  10034  10038  10050  10052     1  0.0000000  0.6508444  3
  10034  10041  10044  10045     1  0.0000000  0.6508444  3
  10034  10041  10044  10046     1  0.0000000  0.6508444  3
  10035  10034  10038  10039     1  0.0000000  1.2552000  3
  10035  10034  10038  10040     1  0.0000000  1.2552000  3
  10035  10034  10041  10042     1  0.0000000  1.2552000  3
  10035  10034  10041  10043     1  0.0000000  1.2552000  3
  10035  10047  10059  10060     1  0.0000000  0.6508444  3
  10035  10047  10059  10061     1  0.0000000  0.6508444  3
  10036  10035  10034  10038     1  0.0000000  1.2552000  3
  10036  10035  10034  10041     1  0.0000000  1.2552000  3
  10036  10035  10047  10059     1  0.0000000  0.6508444  3
  10036  10035  10047  10048     1  0.0000000  0.6508444  3
  10036  10035  10047  10049     1  0.0000000  0.6508444  3
  10037  10035  10034  10038     1  0.0000000  1.2552000  3
  10037  10035  10034  10041     1  0.0000000  1.2552000  3
  10037  10035  10047  10059     1  0.0000000  0.6508444  3
  10037  10035  10047  10048     1  0.0000000  0.6508444  3
  10037  10035  10047  10049     1  0.0000000  0.6508444  3
  10038  10034  10041  10042     1  0.0000000  1.2552000  3
  10038  10034  10041  10043     1  0.0000000  1.2552000  3
  10038  10050  10056  10057     1  0.0000000  0.6508444  3
  10038  10050  10056  10058     1  0.0000000  0.6508444  3
  10039  10038  10034  10041     1  0.0000000  1.2552000  3
  10039  10038  10050  10056     1  0.0000000  0.6508444  3
  10039  10038  10050  10051     1  0.0000000  0.6508444  3
  10039  10038  10050  10052     1  0.0000000  0.6508444  3
  10040  10038  10034  10041     1  0.0000000  1.2552000  3
  10040  10038  10050  10056     1  0.0000000  0.6508444  3
  10040  10038  10050  10051     1  0.0000000  0.6508444  3
  10040  10038  10050  10052     1  0.0000000  0.6508444  3
  10041  10044  10053  10054     1  0.0000000  0.6508444  3
  10041  10044  10053  10055     1  0.0000000  0.6508444  3
  10042  10041  10044  10053     1  0.0000000  0.6508444  3
  10042  10041  10044  10045     1  0.0000000  0.6508444  3
  10042  10041  10044  10046     1  0.0000000  0.6508444  3
  10043  10041  10044  10053     1  0.0000000  0.6508444  3
  10043  10041  10044  10045     1  0.0000000  0.6508444  3
  10043  10041  10044  10046     1  0.0000000  0.6508444  3
  10045  10044  10053  10062     1  0.0000000  1.0460000  1
  10045  10044  10053  10062     1  0.0000000  0.0000000  3
  10045  10044  10053  10054     1  0.0000000  0.6508444  3
  10045  10044  10053  10055     1  0.0000000  0.6508444  3
  10046  10044  10053  10062     1  0.0000000  1.0460000  1
  10046  10044  10053  10062     1  0.0000000  0.0000000  3
  10046  10044  10053  10054     1  0.0000000  0.6508444  3
  10046  10044  10053  10055     1  0.0000000  0.6508444  3
  10048  10047  10059  18287     1  0.0000000  1.0460000  1
  10048  10047  10059  18287     1  0.0000000  0.0000000  3
  10048  10047  10059  10060     1  0.0000000  0.6508444  3
  10048  10047  10059  10061     1  0.0000000  0.6508444  3
  10049  10047  10059  18287     1  0.0000000  1.0460000  1
  10049  10047  10059  18287     1  0.0000000  0.0000000  3
  10049  10047  10059  10060     1  0.0000000  0.6508444  3
  10049  10047  10059  10061     1  0.0000000  0.6508444  3
  10051  10050  10056  18264     1  0.0000000  1.0460000  1
  10051  10050  10056  18264     1  0.0000000  0.0000000  3
  10051  10050  10056  10057     1  0.0000000  0.6508444  3
  10051  10050  10056  10058     1  0.0000000  0.6508444  3
  10052  10050  10056  18264     1  0.0000000  1.0460000  1
  10052  10050  10056  18264     1  0.0000000  0.0000000  3
  10052  10050  10056  10057     1  0.0000000  0.6508444  3
  10052  10050  10056  10058     1  0.0000000  0.6508444  3
  10056  18264  18260  18263     1  0.0000000  1.6038667  3
  10057  10056  18264  18260     1  0.0000000  1.6038667  3
  10058  10056  18264  18260     1  0.0000000  1.6038667  3
  10059  18287  18283  18286     1  0.0000000  1.6038667  3
  10060  10059  18287  18283     1  0.0000000  1.6038667  3
  10061  10059  18287  18283     1  0.0000000  1.6038667  3
  10063  10064  10076  10077     1  0.0000000  0.6508444  3
  10063  10064  10076  10078     1  0.0000000  0.6508444  3
  10063  10067  10079  10080     1  0.0000000  0.6508444  3
  10063  10067  10079  10081     1  0.0000000  0.6508444  3
  10063  10070  10073  10074     1  0.0000000  0.6508444  3
  10063  10070  10073  10075     1  0.0000000  0.6508444  3
  10064  10063  10067  10068     1  0.0000000  1.2552000  3
  10064  10063  10067  10069     1  0.0000000  1.2552000  3
  10064  10063  10070  10071     1  0.0000000  1.2552000  3
  10064  10063  10070  10072     1  0.0000000  1.2552000  3
  10064  10076  10088  10089     1  0.0000000  0.6508444  3
  10064  10076  10088  10090     1  0.0000000  0.6508444  3
  10065  10064  10063  10067     1  0.0000000  1.2552000  3
  10065  10064  10063  10070     1  0.0000000  1.2552000  3
  10065  10064  10076  10088     1  0.0000000  0.6508444  3
  10065  10064  10076  10077     1  0.0000000  0.6508444  3
  10065  10064  10076  10078     1  0.0000000  0.6508444  3
  10066  10064  10063  10067     1  0.0000000  1.2552000  3
  10066  10064  10063  10070     1  0.0000000  1.2552000  3
  10066  10064  10076  10088     1  0.0000000  0.6508444  3
  10066  10064  10076  10077     1  0.0000000  0.6508444  3
  10066  10064  10076  10078     1  0.0000000  0.6508444  3
  10067  10063  10070  10071     1  0.0000000  1.2552000  3
  10067  10063  10070  10072     1  0.0000000  1.2552000  3
  10067  10079  10085  10086     1  0.0000000  0.6508444  3
  10067  10079  10085  10087     1  0.0000000  0.6508444  3
  10068  10067  10063  10070     1  0.0000000  1.2552000  3
  10068  10067  10079  10085     1  0.0000000  0.6508444  3
  10068  10067  10079  10080     1  0.0000000  0.6508444  3
  10068  10067  10079  10081     1  0.0000000  0.6508444  3
  10069  10067  10063  10070     1  0.0000000  1.2552000  3
  10069  10067  10079  10085     1  0.0000000  0.6508444  3
  10069  10067  10079  10080     1  0.0000000  0.6508444  3
  10069  10067  10079  10081     1  0.0000000  0.6508444  3
  10070  10073  10082  10083     1  0.0000000  0.6508444  3
  10070  10073  10082  10084     1  0.0000000  0.6508444  3
  10071  10070  10073  10082     1  0.0000000  0.6508444  3
  10071  10070  10073  10074     1  0.0000000  0.6508444  3
  10071  10070  10073  10075     1  0.0000000  0.6508444  3
  10072  10070  10073  10082     1  0.0000000  0.6508444  3
  10072  10070  10073  10074     1  0.0000000  0.6508444  3
  10072  10070  10073  10075     1  0.0000000  0.6508444  3
  10074  10073  10082  10091     1  0.0000000  1.0460000  1
  10074  10073  10082  10091     1  0.0000000  0.0000000  3
  10074  10073  10082  10083     1  0.0000000  0.6508444  3
  10074  10073  10082  10084     1  0.0000000  0.6508444  3
  10075  10073  10082  10091     1  0.0000000  1.0460000  1
  10075  10073  10082  10091     1  0.0000000  0.0000000  3
  10075  10073  10082  10083     1  0.0000000  0.6508444  3
  10075  10073  10082  10084     1  0.0000000  0.6508444  3
  10077  10076  10088  18333     1  0.0000000  1.0460000  1
  10077  10076  10088  18333     1  0.0000000  0.0000000  3
  10077  10076  10088  10089     1  0.0000000  0.6508444  3
  10077  10076  10088  10090     1  0.0000000  0.6508444  3
  10078  10076  10088  18333     1  0.0000000  1.0460000  1
  10078  10076  10088  18333     1  0.0000000  0.0000000  3
  10078  10076  10088  10089     1  0.0000000  0.6508444  3
  10078  10076  10088  10090     1  0.0000000  0.6508444  3
  10080  10079  10085  18310     1  0.0000000  1.0460000  1
  10080  10079  10085  18310     1  0.0000000  0.0000000  3
  10080  10079  10085  10086     1  0.0000000  0.6508444  3
  10080  10079  10085  10087     1  0.0000000  0.6508444  3
  10081  10079  10085  18310     1  0.0000000  1.0460000  1
  10081  10079  10085  18310     1  0.0000000  0.0000000  3
  10081  10079  10085  10086     1  0.0000000  0.6508444  3
  10081  10079  10085  10087     1  0.0000000  0.6508444  3
  10085  18310  18306  18309     1  0.0000000  1.6038667  3
  10086  10085  18310  18306     1  0.0000000  1.6038667  3
  10087  10085  18310  18306     1  0.0000000  1.6038667  3
  10088  18333  18329  18332     1  0.0000000  1.6038667  3
  10089  10088  18333  18329     1  0.0000000  1.6038667  3
  10090  10088  18333  18329     1  0.0000000  1.6038667  3
  10092  10093  10105  10106     1  0.0000000  0.6508444  3
  10092  10093  10105  10107     1  0.0000000  0.6508444  3
  10092  10096  10108  10109     1  0.0000000  0.6508444  3
  10092  10096  10108  10110     1  0.0000000  0.6508444  3
  10092  10099  10102  10103     1  0.0000000  0.6508444  3
  10092  10099  10102  10104     1  0.0000000  0.6508444  3
  10093  10092  10096  10097     1  0.0000000  1.2552000  3
  10093  10092  10096  10098     1  0.0000000  1.2552000  3
  10093  10092  10099  10100     1  0.0000000  1.2552000  3
  10093  10092  10099  10101     1  0.0000000  1.2552000  3
  10093  10105  10117  10118     1  0.0000000  0.6508444  3
  10093  10105  10117  10119     1  0.0000000  0.6508444  3
  10094  10093  10092  10096     1  0.0000000  1.2552000  3
  10094  10093  10092  10099     1  0.0000000  1.2552000  3
  10094  10093  10105  10117     1  0.0000000  0.6508444  3
  10094  10093  10105  10106     1  0.0000000  0.6508444  3
  10094  10093  10105  10107     1  0.0000000  0.6508444  3
  10095  10093  10092  10096     1  0.0000000  1.2552000  3
  10095  10093  10092  10099     1  0.0000000  1.2552000  3
  10095  10093  10105  10117     1  0.0000000  0.6508444  3
  10095  10093  10105  10106     1  0.0000000  0.6508444  3
  10095  10093  10105  10107     1  0.0000000  0.6508444  3
  10096  10092  10099  10100     1  0.0000000  1.2552000  3
  10096  10092  10099  10101     1  0.0000000  1.2552000  3
  10096  10108  10114  10115     1  0.0000000  0.6508444  3
  10096  10108  10114  10116     1  0.0000000  0.6508444  3
  10097  10096  10092  10099     1  0.0000000  1.2552000  3
  10097  10096  10108  10114     1  0.0000000  0.6508444  3
  10097  10096  10108  10109     1  0.0000000  0.6508444  3
  10097  10096  10108  10110     1  0.0000000  0.6508444  3
  10098  10096  10092  10099     1  0.0000000  1.2552000  3
  10098  10096  10108  10114     1  0.0000000  0.6508444  3
  10098  10096  10108  10109     1  0.0000000  0.6508444  3
  10098  10096  10108  10110     1  0.0000000  0.6508444  3
  10099  10102  10111  10112     1  0.0000000  0.6508444  3
  10099  10102  10111  10113     1  0.0000000  0.6508444  3
  10100  10099  10102  10111     1  0.0000000  0.6508444  3
  10100  10099  10102  10103     1  0.0000000  0.6508444  3
  10100  10099  10102  10104     1  0.0000000  0.6508444  3
  10101  10099  10102  10111     1  0.0000000  0.6508444  3
  10101  10099  10102  10103     1  0.0000000  0.6508444  3
  10101  10099  10102  10104     1  0.0000000  0.6508444  3
  10103  10102  10111  10120     1  0.0000000  1.0460000  1
  10103  10102  10111  10120     1  0.0000000  0.0000000  3
  10103  10102  10111  10112     1  0.0000000  0.6508444  3
  10103  10102  10111  10113     1  0.0000000  0.6508444  3
  10104  10102  10111  10120     1  0.0000000  1.0460000  1
  10104  10102  10111  10120     1  0.0000000  0.0000000  3
  10104  10102  10111  10112     1  0.0000000  0.6508444  3
  10104  10102  10111  10113     1  0.0000000  0.6508444  3
  10106  10105  10117  18379     1  0.0000000  1.0460000  1
  10106  10105  10117  18379     1  0.0000000  0.0000000  3
  10106  10105  10117  10118     1  0.0000000  0.6508444  3
  10106  10105  10117  10119     1  0.0000000  0.6508444  3
  10107  10105  10117  18379     1  0.0000000  1.0460000  1
  10107  10105  10117  18379     1  0.0000000  0.0000000  3
  10107  10105  10117  10118     1  0.0000000  0.6508444  3
  10107  10105  10117  10119     1  0.0000000  0.6508444  3
  10109  10108  10114  18356     1  0.0000000  1.0460000  1
  10109  10108  10114  18356     1  0.0000000  0.0000000  3
  10109  10108  10114  10115     1  0.0000000  0.6508444  3
  10109  10108  10114  10116     1  0.0000000  0.6508444  3
  10110  10108  10114  18356     1  0.0000000  1.0460000  1
  10110  10108  10114  18356     1  0.0000000  0.0000000  3
  10110  10108  10114  10115     1  0.0000000  0.6508444  3
  10110  10108  10114  10116     1  0.0000000  0.6508444  3
  10114  18356  18352  18355     1  0.0000000  1.6038667  3
  10115  10114  18356  18352     1  0.0000000  1.6038667  3
  10116  10114  18356  18352     1  0.0000000  1.6038667  3
  10117  18379  18375  18378     1  0.0000000  1.6038667  3
  10118  10117  18379  18375     1  0.0000000  1.6038667  3
  10119  10117  18379  18375     1  0.0000000  1.6038667  3
  10121  10122  10134  10135     1  0.0000000  0.6508444  3
  10121  10122  10134  10136     1  0.0000000  0.6508444  3
  10121  10125  10137  10138     1  0.0000000  0.6508444  3
  10121  10125  10137  10139     1  0.0000000  0.6508444  3
  10121  10128  10131  10132     1  0.0000000  0.6508444  3
  10121  10128  10131  10133     1  0.0000000  0.6508444  3
  10122  10121  10125  10126     1  0.0000000  1.2552000  3
  10122  10121  10125  10127     1  0.0000000  1.2552000  3
  10122  10121  10128  10129     1  0.0000000  1.2552000  3
  10122  10121  10128  10130     1  0.0000000  1.2552000  3
  10122  10134  10146  10147     1  0.0000000  0.6508444  3
  10122  10134  10146  10148     1  0.0000000  0.6508444  3
  10123  10122  10121  10125     1  0.0000000  1.2552000  3
  10123  10122  10121  10128     1  0.0000000  1.2552000  3
  10123  10122  10134  10146     1  0.0000000  0.6508444  3
  10123  10122  10134  10135     1  0.0000000  0.6508444  3
  10123  10122  10134  10136     1  0.0000000  0.6508444  3
  10124  10122  10121  10125     1  0.0000000  1.2552000  3
  10124  10122  10121  10128     1  0.0000000  1.2552000  3
  10124  10122  10134  10146     1  0.0000000  0.6508444  3
  10124  10122  10134  10135     1  0.0000000  0.6508444  3
  10124  10122  10134  10136     1  0.0000000  0.6508444  3
  10125  10121  10128  10129     1  0.0000000  1.2552000  3
  10125  10121  10128  10130     1  0.0000000  1.2552000  3
  10125  10137  10143  10144     1  0.0000000  0.6508444  3
  10125  10137  10143  10145     1  0.0000000  0.6508444  3
  10126  10125  10121  10128     1  0.0000000  1.2552000  3
  10126  10125  10137  10143     1  0.0000000  0.6508444  3
  10126  10125  10137  10138     1  0.0000000  0.6508444  3
  10126  10125  10137  10139     1  0.0000000  0.6508444  3
  10127  10125  10121  10128     1  0.0000000  1.2552000  3
  10127  10125  10137  10143     1  0.0000000  0.6508444  3
  10127  10125  10137  10138     1  0.0000000  0.6508444  3
  10127  10125  10137  10139     1  0.0000000  0.6508444  3
  10128  10131  10140  10141     1  0.0000000  0.6508444  3
  10128  10131  10140  10142     1  0.0000000  0.6508444  3
  10129  10128  10131  10140     1  0.0000000  0.6508444  3
  10129  10128  10131  10132     1  0.0000000  0.6508444  3
  10129  10128  10131  10133     1  0.0000000  0.6508444  3
  10130  10128  10131  10140     1  0.0000000  0.6508444  3
  10130  10128  10131  10132     1  0.0000000  0.6508444  3
  10130  10128  10131  10133     1  0.0000000  0.6508444  3
  10132  10131  10140  10149     1  0.0000000  1.0460000  1
  10132  10131  10140  10149     1  0.0000000  0.0000000  3
  10132  10131  10140  10141     1  0.0000000  0.6508444  3
  10132  10131  10140  10142     1  0.0000000  0.6508444  3
  10133  10131  10140  10149     1  0.0000000  1.0460000  1
  10133  10131  10140  10149     1  0.0000000  0.0000000  3
  10133  10131  10140  10141     1  0.0000000  0.6508444  3
  10133  10131  10140  10142     1  0.0000000  0.6508444  3
  10135  10134  10146  18425     1  0.0000000  1.0460000  1
  10135  10134  10146  18425     1  0.0000000  0.0000000  3
  10135  10134  10146  10147     1  0.0000000  0.6508444  3
  10135  10134  10146  10148     1  0.0000000  0.6508444  3
  10136  10134  10146  18425     1  0.0000000  1.0460000  1
  10136  10134  10146  18425     1  0.0000000  0.0000000  3
  10136  10134  10146  10147     1  0.0000000  0.6508444  3
  10136  10134  10146  10148     1  0.0000000  0.6508444  3
  10138  10137  10143  18402     1  0.0000000  1.0460000  1
  10138  10137  10143  18402     1  0.0000000  0.0000000  3
  10138  10137  10143  10144     1  0.0000000  0.6508444  3
  10138  10137  10143  10145     1  0.0000000  0.6508444  3
  10139  10137  10143  18402     1  0.0000000  1.0460000  1
  10139  10137  10143  18402     1  0.0000000  0.0000000  3
  10139  10137  10143  10144     1  0.0000000  0.6508444  3
  10139  10137  10143  10145     1  0.0000000  0.6508444  3
  10143  18402  18398  18401     1  0.0000000  1.6038667  3
  10144  10143  18402  18398     1  0.0000000  1.6038667  3
  10145  10143  18402  18398     1  0.0000000  1.6038667  3
  10146  18425  18421  18424     1  0.0000000  1.6038667  3
  10147  10146  18425  18421     1  0.0000000  1.6038667  3
  10148  10146  18425  18421     1  0.0000000  1.6038667  3
  10150  10151  10163  10164     1  0.0000000  0.6508444  3
  10150  10151  10163  10165     1  0.0000000  0.6508444  3
  10150  10154  10166  10167     1  0.0000000  0.6508444  3
  10150  10154  10166  10168     1  0.0000000  0.6508444  3
  10150  10157  10160  10161     1  0.0000000  0.6508444  3
  10150  10157  10160  10162     1  0.0000000  0.6508444  3
  10151  10150  10154  10155     1  0.0000000  1.2552000  3
  10151  10150  10154  10156     1  0.0000000  1.2552000  3
  10151  10150  10157  10158     1  0.0000000  1.2552000  3
  10151  10150  10157  10159     1  0.0000000  1.2552000  3
  10151  10163  10175  10176     1  0.0000000  0.6508444  3
  10151  10163  10175  10177     1  0.0000000  0.6508444  3
  10152  10151  10150  10154     1  0.0000000  1.2552000  3
  10152  10151  10150  10157     1  0.0000000  1.2552000  3
  10152  10151  10163  10175     1  0.0000000  0.6508444  3
  10152  10151  10163  10164     1  0.0000000  0.6508444  3
  10152  10151  10163  10165     1  0.0000000  0.6508444  3
  10153  10151  10150  10154     1  0.0000000  1.2552000  3
  10153  10151  10150  10157     1  0.0000000  1.2552000  3
  10153  10151  10163  10175     1  0.0000000  0.6508444  3
  10153  10151  10163  10164     1  0.0000000  0.6508444  3
  10153  10151  10163  10165     1  0.0000000  0.6508444  3
  10154  10150  10157  10158     1  0.0000000  1.2552000  3
  10154  10150  10157  10159     1  0.0000000  1.2552000  3
  10154  10166  10172  10173     1  0.0000000  0.6508444  3
  10154  10166  10172  10174     1  0.0000000  0.6508444  3
  10155  10154  10150  10157     1  0.0000000  1.2552000  3
  10155  10154  10166  10172     1  0.0000000  0.6508444  3
  10155  10154  10166  10167     1  0.0000000  0.6508444  3
  10155  10154  10166  10168     1  0.0000000  0.6508444  3
  10156  10154  10150  10157     1  0.0000000  1.2552000  3
  10156  10154  10166  10172     1  0.0000000  0.6508444  3
  10156  10154  10166  10167     1  0.0000000  0.6508444  3
  10156  10154  10166  10168     1  0.0000000  0.6508444  3
  10157  10160  10169  10170     1  0.0000000  0.6508444  3
  10157  10160  10169  10171     1  0.0000000  0.6508444  3
  10158  10157  10160  10169     1  0.0000000  0.6508444  3
  10158  10157  10160  10161     1  0.0000000  0.6508444  3
  10158  10157  10160  10162     1  0.0000000  0.6508444  3
  10159  10157  10160  10169     1  0.0000000  0.6508444  3
  10159  10157  10160  10161     1  0.0000000  0.6508444  3
  10159  10157  10160  10162     1  0.0000000  0.6508444  3
  10161  10160  10169  10178     1  0.0000000  1.0460000  1
  10161  10160  10169  10178     1  0.0000000  0.0000000  3
  10161  10160  10169  10170     1  0.0000000  0.6508444  3
  10161  10160  10169  10171     1  0.0000000  0.6508444  3
  10162  10160  10169  10178     1  0.0000000  1.0460000  1
  10162  10160  10169  10178     1  0.0000000  0.0000000  3
  10162  10160  10169  10170     1  0.0000000  0.6508444  3
  10162  10160  10169  10171     1  0.0000000  0.6508444  3
  10164  10163  10175  18471     1  0.0000000  1.0460000  1
  10164  10163  10175  18471     1  0.0000000  0.0000000  3
  10164  10163  10175  10176     1  0.0000000  0.6508444  3
  10164  10163  10175  10177     1  0.0000000  0.6508444  3
  10165  10163  10175  18471     1  0.0000000  1.0460000  1
  10165  10163  10175  18471     1  0.0000000  0.0000000  3
  10165  10163  10175  10176     1  0.0000000  0.6508444  3
  10165  10163  10175  10177     1  0.0000000  0.6508444  3
  10167  10166  10172  18448     1  0.0000000  1.0460000  1
  10167  10166  10172  18448     1  0.0000000  0.0000000  3
  10167  10166  10172  10173     1  0.0000000  0.6508444  3
  10167  10166  10172  10174     1  0.0000000  0.6508444  3
  10168  10166  10172  18448     1  0.0000000  1.0460000  1
  10168  10166  10172  18448     1  0.0000000  0.0000000  3
  10168  10166  10172  10173     1  0.0000000  0.6508444  3
  10168  10166  10172  10174     1  0.0000000  0.6508444  3
  10172  18448  18444  18447     1  0.0000000  1.6038667  3
  10173  10172  18448  18444     1  0.0000000  1.6038667  3
  10174  10172  18448  18444     1  0.0000000  1.6038667  3
  10175  18471  18467  18470     1  0.0000000  1.6038667  3
  10176  10175  18471  18467     1  0.0000000  1.6038667  3
  10177  10175  18471  18467     1  0.0000000  1.6038667  3
  10179  10180  10192  10193     1  0.0000000  0.6508444  3
  10179  10180  10192  10194     1  0.0000000  0.6508444  3
  10179  10183  10195  10196     1  0.0000000  0.6508444  3
  10179  10183  10195  10197     1  0.0000000  0.6508444  3
  10179  10186  10189  10190     1  0.0000000  0.6508444  3
  10179  10186  10189  10191     1  0.0000000  0.6508444  3
  10180  10179  10183  10184     1  0.0000000  1.2552000  3
  10180  10179  10183  10185     1  0.0000000  1.2552000  3
  10180  10179  10186  10187     1  0.0000000  1.2552000  3
  10180  10179  10186  10188     1  0.0000000  1.2552000  3
  10180  10192  10204  10205     1  0.0000000  0.6508444  3
  10180  10192  10204  10206     1  0.0000000  0.6508444  3
  10181  10180  10179  10183     1  0.0000000  1.2552000  3
  10181  10180  10179  10186     1  0.0000000  1.2552000  3
  10181  10180  10192  10204     1  0.0000000  0.6508444  3
  10181  10180  10192  10193     1  0.0000000  0.6508444  3
  10181  10180  10192  10194     1  0.0000000  0.6508444  3
  10182  10180  10179  10183     1  0.0000000  1.2552000  3
  10182  10180  10179  10186     1  0.0000000  1.2552000  3
  10182  10180  10192  10204     1  0.0000000  0.6508444  3
  10182  10180  10192  10193     1  0.0000000  0.6508444  3
  10182  10180  10192  10194     1  0.0000000  0.6508444  3
  10183  10179  10186  10187     1  0.0000000  1.2552000  3
  10183  10179  10186  10188     1  0.0000000  1.2552000  3
  10183  10195  10201  10202     1  0.0000000  0.6508444  3
  10183  10195  10201  10203     1  0.0000000  0.6508444  3
  10184  10183  10179  10186     1  0.0000000  1.2552000  3
  10184  10183  10195  10201     1  0.0000000  0.6508444  3
  10184  10183  10195  10196     1  0.0000000  0.6508444  3
  10184  10183  10195  10197     1  0.0000000  0.6508444  3
  10185  10183  10179  10186     1  0.0000000  1.2552000  3
  10185  10183  10195  10201     1  0.0000000  0.6508444  3
  10185  10183  10195  10196     1  0.0000000  0.6508444  3
  10185  10183  10195  10197     1  0.0000000  0.6508444  3
  10186  10189  10198  10199     1  0.0000000  0.6508444  3
  10186  10189  10198  10200     1  0.0000000  0.6508444  3
  10187  10186  10189  10198     1  0.0000000  0.6508444  3
  10187  10186  10189  10190     1  0.0000000  0.6508444  3
  10187  10186  10189  10191     1  0.0000000  0.6508444  3
  10188  10186  10189  10198     1  0.0000000  0.6508444  3
  10188  10186  10189  10190     1  0.0000000  0.6508444  3
  10188  10186  10189  10191     1  0.0000000  0.6508444  3
  10190  10189  10198  10207     1  0.0000000  1.0460000  1
  10190  10189  10198  10207     1  0.0000000  0.0000000  3
  10190  10189  10198  10199     1  0.0000000  0.6508444  3
  10190  10189  10198  10200     1  0.0000000  0.6508444  3
  10191  10189  10198  10207     1  0.0000000  1.0460000  1
  10191  10189  10198  10207     1  0.0000000  0.0000000  3
  10191  10189  10198  10199     1  0.0000000  0.6508444  3
  10191  10189  10198  10200     1  0.0000000  0.6508444  3
  10193  10192  10204  18517     1  0.0000000  1.0460000  1
  10193  10192  10204  18517     1  0.0000000  0.0000000  3
  10193  10192  10204  10205     1  0.0000000  0.6508444  3
  10193  10192  10204  10206     1  0.0000000  0.6508444  3
  10194  10192  10204  18517     1  0.0000000  1.0460000  1
  10194  10192  10204  18517     1  0.0000000  0.0000000  3
  10194  10192  10204  10205     1  0.0000000  0.6508444  3
  10194  10192  10204  10206     1  0.0000000  0.6508444  3
  10196  10195  10201  18494     1  0.0000000  1.0460000  1
  10196  10195  10201  18494     1  0.0000000  0.0000000  3
  10196  10195  10201  10202     1  0.0000000  0.6508444  3
  10196  10195  10201  10203     1  0.0000000  0.6508444  3
  10197  10195  10201  18494     1  0.0000000  1.0460000  1
  10197  10195  10201  18494     1  0.0000000  0.0000000  3
  10197  10195  10201  10202     1  0.0000000  0.6508444  3
  10197  10195  10201  10203     1  0.0000000  0.6508444  3
  10201  18494  18490  18493     1  0.0000000  1.6038667  3
  10202  10201  18494  18490     1  0.0000000  1.6038667  3
  10203  10201  18494  18490     1  0.0000000  1.6038667  3
  10204  18517  18513  18516     1  0.0000000  1.6038667  3
  10205  10204  18517  18513     1  0.0000000  1.6038667  3
  10206  10204  18517  18513     1  0.0000000  1.6038667  3
  10208  10209  10221  10222     1  0.0000000  0.6508444  3
  10208  10209  10221  10223     1  0.0000000  0.6508444  3
  10208  10212  10224  10225     1  0.0000000  0.6508444  3
  10208  10212  10224  10226     1  0.0000000  0.6508444  3
  10208  10215  10218  10219     1  0.0000000  0.6508444  3
  10208  10215  10218  10220     1  0.0000000  0.6508444  3
  10209  10208  10212  10213     1  0.0000000  1.2552000  3
  10209  10208  10212  10214     1  0.0000000  1.2552000  3
  10209  10208  10215  10216     1  0.0000000  1.2552000  3
  10209  10208  10215  10217     1  0.0000000  1.2552000  3
  10209  10221  10233  10234     1  0.0000000  0.6508444  3
  10209  10221  10233  10235     1  0.0000000  0.6508444  3
  10210  10209  10208  10212     1  0.0000000  1.2552000  3
  10210  10209  10208  10215     1  0.0000000  1.2552000  3
  10210  10209  10221  10233     1  0.0000000  0.6508444  3
  10210  10209  10221  10222     1  0.0000000  0.6508444  3
  10210  10209  10221  10223     1  0.0000000  0.6508444  3
  10211  10209  10208  10212     1  0.0000000  1.2552000  3
  10211  10209  10208  10215     1  0.0000000  1.2552000  3
  10211  10209  10221  10233     1  0.0000000  0.6508444  3
  10211  10209  10221  10222     1  0.0000000  0.6508444  3
  10211  10209  10221  10223     1  0.0000000  0.6508444  3
  10212  10208  10215  10216     1  0.0000000  1.2552000  3
  10212  10208  10215  10217     1  0.0000000  1.2552000  3
  10212  10224  10230  10231     1  0.0000000  0.6508444  3
  10212  10224  10230  10232     1  0.0000000  0.6508444  3
  10213  10212  10208  10215     1  0.0000000  1.2552000  3
  10213  10212  10224  10230     1  0.0000000  0.6508444  3
  10213  10212  10224  10225     1  0.0000000  0.6508444  3
  10213  10212  10224  10226     1  0.0000000  0.6508444  3
  10214  10212  10208  10215     1  0.0000000  1.2552000  3
  10214  10212  10224  10230     1  0.0000000  0.6508444  3
  10214  10212  10224  10225     1  0.0000000  0.6508444  3
  10214  10212  10224  10226     1  0.0000000  0.6508444  3
  10215  10218  10227  10228     1  0.0000000  0.6508444  3
  10215  10218  10227  10229     1  0.0000000  0.6508444  3
  10216  10215  10218  10227     1  0.0000000  0.6508444  3
  10216  10215  10218  10219     1  0.0000000  0.6508444  3
  10216  10215  10218  10220     1  0.0000000  0.6508444  3
  10217  10215  10218  10227     1  0.0000000  0.6508444  3
  10217  10215  10218  10219     1  0.0000000  0.6508444  3
  10217  10215  10218  10220     1  0.0000000  0.6508444  3
  10219  10218  10227  10236     1  0.0000000  1.0460000  1
  10219  10218  10227  10236     1  0.0000000  0.0000000  3
  10219  10218  10227  10228     1  0.0000000  0.6508444  3
  10219  10218  10227  10229     1  0.0000000  0.6508444  3
  10220  10218  10227  10236     1  0.0000000  1.0460000  1
  10220  10218  10227  10236     1  0.0000000  0.0000000  3
  10220  10218  10227  10228     1  0.0000000  0.6508444  3
  10220  10218  10227  10229     1  0.0000000  0.6508444  3
  10222  10221  10233  18563     1  0.0000000  1.0460000  1
  10222  10221  10233  18563     1  0.0000000  0.0000000  3
  10222  10221  10233  10234     1  0.0000000  0.6508444  3
  10222  10221  10233  10235     1  0.0000000  0.6508444  3
  10223  10221  10233  18563     1  0.0000000  1.0460000  1
  10223  10221  10233  18563     1  0.0000000  0.0000000  3
  10223  10221  10233  10234     1  0.0000000  0.6508444  3
  10223  10221  10233  10235     1  0.0000000  0.6508444  3
  10225  10224  10230  18540     1  0.0000000  1.0460000  1
  10225  10224  10230  18540     1  0.0000000  0.0000000  3
  10225  10224  10230  10231     1  0.0000000  0.6508444  3
  10225  10224  10230  10232     1  0.0000000  0.6508444  3
  10226  10224  10230  18540     1  0.0000000  1.0460000  1
  10226  10224  10230  18540     1  0.0000000  0.0000000  3
  10226  10224  10230  10231     1  0.0000000  0.6508444  3
  10226  10224  10230  10232     1  0.0000000  0.6508444  3
  10230  18540  18536  18539     1  0.0000000  1.6038667  3
  10231  10230  18540  18536     1  0.0000000  1.6038667  3
  10232  10230  18540  18536     1  0.0000000  1.6038667  3
  10233  18563  18559  18562     1  0.0000000  1.6038667  3
  10234  10233  18563  18559     1  0.0000000  1.6038667  3
  10235  10233  18563  18559     1  0.0000000  1.6038667  3
  10237  10238  10250  10251     1  0.0000000  0.6508444  3
  10237  10238  10250  10252     1  0.0000000  0.6508444  3
  10237  10241  10253  10254     1  0.0000000  0.6508444  3
  10237  10241  10253  10255     1  0.0000000  0.6508444  3
  10237  10244  10247  10248     1  0.0000000  0.6508444  3
  10237  10244  10247  10249     1  0.0000000  0.6508444  3
  10238  10237  10241  10242     1  0.0000000  1.2552000  3
  10238  10237  10241  10243     1  0.0000000  1.2552000  3
  10238  10237  10244  10245     1  0.0000000  1.2552000  3
  10238  10237  10244  10246     1  0.0000000  1.2552000  3
  10238  10250  10262  10263     1  0.0000000  0.6508444  3
  10238  10250  10262  10264     1  0.0000000  0.6508444  3
  10239  10238  10237  10241     1  0.0000000  1.2552000  3
  10239  10238  10237  10244     1  0.0000000  1.2552000  3
  10239  10238  10250  10262     1  0.0000000  0.6508444  3
  10239  10238  10250  10251     1  0.0000000  0.6508444  3
  10239  10238  10250  10252     1  0.0000000  0.6508444  3
  10240  10238  10237  10241     1  0.0000000  1.2552000  3
  10240  10238  10237  10244     1  0.0000000  1.2552000  3
  10240  10238  10250  10262     1  0.0000000  0.6508444  3
  10240  10238  10250  10251     1  0.0000000  0.6508444  3
  10240  10238  10250  10252     1  0.0000000  0.6508444  3
  10241  10237  10244  10245     1  0.0000000  1.2552000  3
  10241  10237  10244  10246     1  0.0000000  1.2552000  3
  10241  10253  10259  10260     1  0.0000000  0.6508444  3
  10241  10253  10259  10261     1  0.0000000  0.6508444  3
  10242  10241  10237  10244     1  0.0000000  1.2552000  3
  10242  10241  10253  10259     1  0.0000000  0.6508444  3
  10242  10241  10253  10254     1  0.0000000  0.6508444  3
  10242  10241  10253  10255     1  0.0000000  0.6508444  3
  10243  10241  10237  10244     1  0.0000000  1.2552000  3
  10243  10241  10253  10259     1  0.0000000  0.6508444  3
  10243  10241  10253  10254     1  0.0000000  0.6508444  3
  10243  10241  10253  10255     1  0.0000000  0.6508444  3
  10244  10247  10256  10257     1  0.0000000  0.6508444  3
  10244  10247  10256  10258     1  0.0000000  0.6508444  3
  10245  10244  10247  10256     1  0.0000000  0.6508444  3
  10245  10244  10247  10248     1  0.0000000  0.6508444  3
  10245  10244  10247  10249     1  0.0000000  0.6508444  3
  10246  10244  10247  10256     1  0.0000000  0.6508444  3
  10246  10244  10247  10248     1  0.0000000  0.6508444  3
  10246  10244  10247  10249     1  0.0000000  0.6508444  3
  10248  10247  10256  10265     1  0.0000000  1.0460000  1
  10248  10247  10256  10265     1  0.0000000  0.0000000  3
  10248  10247  10256  10257     1  0.0000000  0.6508444  3
  10248  10247  10256  10258     1  0.0000000  0.6508444  3
  10249  10247  10256  10265     1  0.0000000  1.0460000  1
  10249  10247  10256  10265     1  0.0000000  0.0000000  3
  10249  10247  10256  10257     1  0.0000000  0.6508444  3
  10249  10247  10256  10258     1  0.0000000  0.6508444  3
  10251  10250  10262  18609     1  0.0000000  1.0460000  1
  10251  10250  10262  18609     1  0.0000000  0.0000000  3
  10251  10250  10262  10263     1  0.0000000  0.6508444  3
  10251  10250  10262  10264     1  0.0000000  0.6508444  3
  10252  10250  10262  18609     1  0.0000000  1.0460000  1
  10252  10250  10262  18609     1  0.0000000  0.0000000  3
  10252  10250  10262  10263     1  0.0000000  0.6508444  3
  10252  10250  10262  10264     1  0.0000000  0.6508444  3
  10254  10253  10259  18586     1  0.0000000  1.0460000  1
  10254  10253  10259  18586     1  0.0000000  0.0000000  3
  10254  10253  10259  10260     1  0.0000000  0.6508444  3
  10254  10253  10259  10261     1  0.0000000  0.6508444  3
  10255  10253  10259  18586     1  0.0000000  1.0460000  1
  10255  10253  10259  18586     1  0.0000000  0.0000000  3
  10255  10253  10259  10260     1  0.0000000  0.6508444  3
  10255  10253  10259  10261     1  0.0000000  0.6508444  3
  10259  18586  18582  18585     1  0.0000000  1.6038667  3
  10260  10259  18586  18582     1  0.0000000  1.6038667  3
  10261  10259  18586  18582     1  0.0000000  1.6038667  3
  10262  18609  18605  18608     1  0.0000000  1.6038667  3
  10263  10262  18609  18605     1  0.0000000  1.6038667  3
  10264  10262  18609  18605     1  0.0000000  1.6038667  3
  10266  10267  10279  10280     1  0.0000000  0.6508444  3
  10266  10267  10279  10281     1  0.0000000  0.6508444  3
  10266  10270  10282  10283     1  0.0000000  0.6508444  3
  10266  10270  10282  10284     1  0.0000000  0.6508444  3
  10266  10273  10276  10277     1  0.0000000  0.6508444  3
  10266  10273  10276  10278     1  0.0000000  0.6508444  3
  10267  10266  10270  10271     1  0.0000000  1.2552000  3
  10267  10266  10270  10272     1  0.0000000  1.2552000  3
  10267  10266  10273  10274     1  0.0000000  1.2552000  3
  10267  10266  10273  10275     1  0.0000000  1.2552000  3
  10267  10279  10291  10292     1  0.0000000  0.6508444  3
  10267  10279  10291  10293     1  0.0000000  0.6508444  3
  10268  10267  10266  10270     1  0.0000000  1.2552000  3
  10268  10267  10266  10273     1  0.0000000  1.2552000  3
  10268  10267  10279  10291     1  0.0000000  0.6508444  3
  10268  10267  10279  10280     1  0.0000000  0.6508444  3
  10268  10267  10279  10281     1  0.0000000  0.6508444  3
  10269  10267  10266  10270     1  0.0000000  1.2552000  3
  10269  10267  10266  10273     1  0.0000000  1.2552000  3
  10269  10267  10279  10291     1  0.0000000  0.6508444  3
  10269  10267  10279  10280     1  0.0000000  0.6508444  3
  10269  10267  10279  10281     1  0.0000000  0.6508444  3
  10270  10266  10273  10274     1  0.0000000  1.2552000  3
  10270  10266  10273  10275     1  0.0000000  1.2552000  3
  10270  10282  10288  10289     1  0.0000000  0.6508444  3
  10270  10282  10288  10290     1  0.0000000  0.6508444  3
  10271  10270  10266  10273     1  0.0000000  1.2552000  3
  10271  10270  10282  10288     1  0.0000000  0.6508444  3
  10271  10270  10282  10283     1  0.0000000  0.6508444  3
  10271  10270  10282  10284     1  0.0000000  0.6508444  3
  10272  10270  10266  10273     1  0.0000000  1.2552000  3
  10272  10270  10282  10288     1  0.0000000  0.6508444  3
  10272  10270  10282  10283     1  0.0000000  0.6508444  3
  10272  10270  10282  10284     1  0.0000000  0.6508444  3
  10273  10276  10285  10286     1  0.0000000  0.6508444  3
  10273  10276  10285  10287     1  0.0000000  0.6508444  3
  10274  10273  10276  10285     1  0.0000000  0.6508444  3
  10274  10273  10276  10277     1  0.0000000  0.6508444  3
  10274  10273  10276  10278     1  0.0000000  0.6508444  3
  10275  10273  10276  10285     1  0.0000000  0.6508444  3
  10275  10273  10276  10277     1  0.0000000  0.6508444  3
  10275  10273  10276  10278     1  0.0000000  0.6508444  3
  10277  10276  10285  10294     1  0.0000000  1.0460000  1
  10277  10276  10285  10294     1  0.0000000  0.0000000  3
  10277  10276  10285  10286     1  0.0000000  0.6508444  3
  10277  10276  10285  10287     1  0.0000000  0.6508444  3
  10278  10276  10285  10294     1  0.0000000  1.0460000  1
  10278  10276  10285  10294     1  0.0000000  0.0000000  3
  10278  10276  10285  10286     1  0.0000000  0.6508444  3
  10278  10276  10285  10287     1  0.0000000  0.6508444  3
  10280  10279  10291  18655     1  0.0000000  1.0460000  1
  10280  10279  10291  18655     1  0.0000000  0.0000000  3
  10280  10279  10291  10292     1  0.0000000  0.6508444  3
  10280  10279  10291  10293     1  0.0000000  0.6508444  3
  10281  10279  10291  18655     1  0.0000000  1.0460000  1
  10281  10279  10291  18655     1  0.0000000  0.0000000  3
  10281  10279  10291  10292     1  0.0000000  0.6508444  3
  10281  10279  10291  10293     1  0.0000000  0.6508444  3
  10283  10282  10288  18632     1  0.0000000  1.0460000  1
  10283  10282  10288  18632     1  0.0000000  0.0000000  3
  10283  10282  10288  10289     1  0.0000000  0.6508444  3
  10283  10282  10288  10290     1  0.0000000  0.6508444  3
  10284  10282  10288  18632     1  0.0000000  1.0460000  1
  10284  10282  10288  18632     1  0.0000000  0.0000000  3
  10284  10282  10288  10289     1  0.0000000  0.6508444  3
  10284  10282  10288  10290     1  0.0000000  0.6508444  3
  10288  18632  18628  18631     1  0.0000000  1.6038667  3
  10289  10288  18632  18628     1  0.0000000  1.6038667  3
  10290  10288  18632  18628     1  0.0000000  1.6038667  3
  10291  18655  18651  18654     1  0.0000000  1.6038667  3
  10292  10291  18655  18651     1  0.0000000  1.6038667  3
  10293  10291  18655  18651     1  0.0000000  1.6038667  3
  10295  10296  10308  10309     1  0.0000000  0.6508444  3
  10295  10296  10308  10310     1  0.0000000  0.6508444  3
  10295  10299  10311  10312     1  0.0000000  0.6508444  3
  10295  10299  10311  10313     1  0.0000000  0.6508444  3
  10295  10302  10305  10306     1  0.0000000  0.6508444  3
  10295  10302  10305  10307     1  0.0000000  0.6508444  3
  10296  10295  10299  10300     1  0.0000000  1.2552000  3
  10296  10295  10299  10301     1  0.0000000  1.2552000  3
  10296  10295  10302  10303     1  0.0000000  1.2552000  3
  10296  10295  10302  10304     1  0.0000000  1.2552000  3
  10296  10308  10320  10321     1  0.0000000  0.6508444  3
  10296  10308  10320  10322     1  0.0000000  0.6508444  3
  10297  10296  10295  10299     1  0.0000000  1.2552000  3
  10297  10296  10295  10302     1  0.0000000  1.2552000  3
  10297  10296  10308  10320     1  0.0000000  0.6508444  3
  10297  10296  10308  10309     1  0.0000000  0.6508444  3
  10297  10296  10308  10310     1  0.0000000  0.6508444  3
  10298  10296  10295  10299     1  0.0000000  1.2552000  3
  10298  10296  10295  10302     1  0.0000000  1.2552000  3
  10298  10296  10308  10320     1  0.0000000  0.6508444  3
  10298  10296  10308  10309     1  0.0000000  0.6508444  3
  10298  10296  10308  10310     1  0.0000000  0.6508444  3
  10299  10295  10302  10303     1  0.0000000  1.2552000  3
  10299  10295  10302  10304     1  0.0000000  1.2552000  3
  10299  10311  10317  10318     1  0.0000000  0.6508444  3
  10299  10311  10317  10319     1  0.0000000  0.6508444  3
  10300  10299  10295  10302     1  0.0000000  1.2552000  3
  10300  10299  10311  10317     1  0.0000000  0.6508444  3
  10300  10299  10311  10312     1  0.0000000  0.6508444  3
  10300  10299  10311  10313     1  0.0000000  0.6508444  3
  10301  10299  10295  10302     1  0.0000000  1.2552000  3
  10301  10299  10311  10317     1  0.0000000  0.6508444  3
  10301  10299  10311  10312     1  0.0000000  0.6508444  3
  10301  10299  10311  10313     1  0.0000000  0.6508444  3
  10302  10305  10314  10315     1  0.0000000  0.6508444  3
  10302  10305  10314  10316     1  0.0000000  0.6508444  3
  10303  10302  10305  10314     1  0.0000000  0.6508444  3
  10303  10302  10305  10306     1  0.0000000  0.6508444  3
  10303  10302  10305  10307     1  0.0000000  0.6508444  3
  10304  10302  10305  10314     1  0.0000000  0.6508444  3
  10304  10302  10305  10306     1  0.0000000  0.6508444  3
  10304  10302  10305  10307     1  0.0000000  0.6508444  3
  10306  10305  10314  10323     1  0.0000000  1.0460000  1
  10306  10305  10314  10323     1  0.0000000  0.0000000  3
  10306  10305  10314  10315     1  0.0000000  0.6508444  3
  10306  10305  10314  10316     1  0.0000000  0.6508444  3
  10307  10305  10314  10323     1  0.0000000  1.0460000  1
  10307  10305  10314  10323     1  0.0000000  0.0000000  3
  10307  10305  10314  10315     1  0.0000000  0.6508444  3
  10307  10305  10314  10316     1  0.0000000  0.6508444  3
  10309  10308  10320  18701     1  0.0000000  1.0460000  1
  10309  10308  10320  18701     1  0.0000000  0.0000000  3
  10309  10308  10320  10321     1  0.0000000  0.6508444  3
  10309  10308  10320  10322     1  0.0000000  0.6508444  3
  10310  10308  10320  18701     1  0.0000000  1.0460000  1
  10310  10308  10320  18701     1  0.0000000  0.0000000  3
  10310  10308  10320  10321     1  0.0000000  0.6508444  3
  10310  10308  10320  10322     1  0.0000000  0.6508444  3
  10312  10311  10317  18678     1  0.0000000  1.0460000  1
  10312  10311  10317  18678     1  0.0000000  0.0000000  3
  10312  10311  10317  10318     1  0.0000000  0.6508444  3
  10312  10311  10317  10319     1  0.0000000  0.6508444  3
  10313  10311  10317  18678     1  0.0000000  1.0460000  1
  10313  10311  10317  18678     1  0.0000000  0.0000000  3
  10313  10311  10317  10318     1  0.0000000  0.6508444  3
  10313  10311  10317  10319     1  0.0000000  0.6508444  3
  10317  18678  18674  18677     1  0.0000000  1.6038667  3
  10318  10317  18678  18674     1  0.0000000  1.6038667  3
  10319  10317  18678  18674     1  0.0000000  1.6038667  3
  10320  18701  18697  18700     1  0.0000000  1.6038667  3
  10321  10320  18701  18697     1  0.0000000  1.6038667  3
  10322  10320  18701  18697     1  0.0000000  1.6038667  3
  10324  10325  10337  10338     1  0.0000000  0.6508444  3
  10324  10325  10337  10339     1  0.0000000  0.6508444  3
  10324  10328  10340  10341     1  0.0000000  0.6508444  3
  10324  10328  10340  10342     1  0.0000000  0.6508444  3
  10324  10331  10334  10335     1  0.0000000  0.6508444  3
  10324  10331  10334  10336     1  0.0000000  0.6508444  3
  10325  10324  10328  10329     1  0.0000000  1.2552000  3
  10325  10324  10328  10330     1  0.0000000  1.2552000  3
  10325  10324  10331  10332     1  0.0000000  1.2552000  3
  10325  10324  10331  10333     1  0.0000000  1.2552000  3
  10325  10337  10349  10350     1  0.0000000  0.6508444  3
  10325  10337  10349  10351     1  0.0000000  0.6508444  3
  10326  10325  10324  10328     1  0.0000000  1.2552000  3
  10326  10325  10324  10331     1  0.0000000  1.2552000  3
  10326  10325  10337  10349     1  0.0000000  0.6508444  3
  10326  10325  10337  10338     1  0.0000000  0.6508444  3
  10326  10325  10337  10339     1  0.0000000  0.6508444  3
  10327  10325  10324  10328     1  0.0000000  1.2552000  3
  10327  10325  10324  10331     1  0.0000000  1.2552000  3
  10327  10325  10337  10349     1  0.0000000  0.6508444  3
  10327  10325  10337  10338     1  0.0000000  0.6508444  3
  10327  10325  10337  10339     1  0.0000000  0.6508444  3
  10328  10324  10331  10332     1  0.0000000  1.2552000  3
  10328  10324  10331  10333     1  0.0000000  1.2552000  3
  10328  10340  10346  10347     1  0.0000000  0.6508444  3
  10328  10340  10346  10348     1  0.0000000  0.6508444  3
  10329  10328  10324  10331     1  0.0000000  1.2552000  3
  10329  10328  10340  10346     1  0.0000000  0.6508444  3
  10329  10328  10340  10341     1  0.0000000  0.6508444  3
  10329  10328  10340  10342     1  0.0000000  0.6508444  3
  10330  10328  10324  10331     1  0.0000000  1.2552000  3
  10330  10328  10340  10346     1  0.0000000  0.6508444  3
  10330  10328  10340  10341     1  0.0000000  0.6508444  3
  10330  10328  10340  10342     1  0.0000000  0.6508444  3
  10331  10334  10343  10344     1  0.0000000  0.6508444  3
  10331  10334  10343  10345     1  0.0000000  0.6508444  3
  10332  10331  10334  10343     1  0.0000000  0.6508444  3
  10332  10331  10334  10335     1  0.0000000  0.6508444  3
  10332  10331  10334  10336     1  0.0000000  0.6508444  3
  10333  10331  10334  10343     1  0.0000000  0.6508444  3
  10333  10331  10334  10335     1  0.0000000  0.6508444  3
  10333  10331  10334  10336     1  0.0000000  0.6508444  3
  10335  10334  10343  10352     1  0.0000000  1.0460000  1
  10335  10334  10343  10352     1  0.0000000  0.0000000  3
  10335  10334  10343  10344     1  0.0000000  0.6508444  3
  10335  10334  10343  10345     1  0.0000000  0.6508444  3
  10336  10334  10343  10352     1  0.0000000  1.0460000  1
  10336  10334  10343  10352     1  0.0000000  0.0000000  3
  10336  10334  10343  10344     1  0.0000000  0.6508444  3
  10336  10334  10343  10345     1  0.0000000  0.6508444  3
  10338  10337  10349  18747     1  0.0000000  1.0460000  1
  10338  10337  10349  18747     1  0.0000000  0.0000000  3
  10338  10337  10349  10350     1  0.0000000  0.6508444  3
  10338  10337  10349  10351     1  0.0000000  0.6508444  3
  10339  10337  10349  18747     1  0.0000000  1.0460000  1
  10339  10337  10349  18747     1  0.0000000  0.0000000  3
  10339  10337  10349  10350     1  0.0000000  0.6508444  3
  10339  10337  10349  10351     1  0.0000000  0.6508444  3
  10341  10340  10346  18724     1  0.0000000  1.0460000  1
  10341  10340  10346  18724     1  0.0000000  0.0000000  3
  10341  10340  10346  10347     1  0.0000000  0.6508444  3
  10341  10340  10346  10348     1  0.0000000  0.6508444  3
  10342  10340  10346  18724     1  0.0000000  1.0460000  1
  10342  10340  10346  18724     1  0.0000000  0.0000000  3
  10342  10340  10346  10347     1  0.0000000  0.6508444  3
  10342  10340  10346  10348     1  0.0000000  0.6508444  3
  10346  18724  18720  18723     1  0.0000000  1.6038667  3
  10347  10346  18724  18720     1  0.0000000  1.6038667  3
  10348  10346  18724  18720     1  0.0000000  1.6038667  3
  10349  18747  18743  18746     1  0.0000000  1.6038667  3
  10350  10349  18747  18743     1  0.0000000  1.6038667  3
  10351  10349  18747  18743     1  0.0000000  1.6038667  3
  10353  10354  10366  10367     1  0.0000000  0.6508444  3
  10353  10354  10366  10368     1  0.0000000  0.6508444  3
  10353  10357  10369  10370     1  0.0000000  0.6508444  3
  10353  10357  10369  10371     1  0.0000000  0.6508444  3
  10353  10360  10363  10364     1  0.0000000  0.6508444  3
  10353  10360  10363  10365     1  0.0000000  0.6508444  3
  10354  10353  10357  10358     1  0.0000000  1.2552000  3
  10354  10353  10357  10359     1  0.0000000  1.2552000  3
  10354  10353  10360  10361     1  0.0000000  1.2552000  3
  10354  10353  10360  10362     1  0.0000000  1.2552000  3
  10354  10366  10378  10379     1  0.0000000  0.6508444  3
  10354  10366  10378  10380     1  0.0000000  0.6508444  3
  10355  10354  10353  10357     1  0.0000000  1.2552000  3
  10355  10354  10353  10360     1  0.0000000  1.2552000  3
  10355  10354  10366  10378     1  0.0000000  0.6508444  3
  10355  10354  10366  10367     1  0.0000000  0.6508444  3
  10355  10354  10366  10368     1  0.0000000  0.6508444  3
  10356  10354  10353  10357     1  0.0000000  1.2552000  3
  10356  10354  10353  10360     1  0.0000000  1.2552000  3
  10356  10354  10366  10378     1  0.0000000  0.6508444  3
  10356  10354  10366  10367     1  0.0000000  0.6508444  3
  10356  10354  10366  10368     1  0.0000000  0.6508444  3
  10357  10353  10360  10361     1  0.0000000  1.2552000  3
  10357  10353  10360  10362     1  0.0000000  1.2552000  3
  10357  10369  10375  10376     1  0.0000000  0.6508444  3
  10357  10369  10375  10377     1  0.0000000  0.6508444  3
  10358  10357  10353  10360     1  0.0000000  1.2552000  3
  10358  10357  10369  10375     1  0.0000000  0.6508444  3
  10358  10357  10369  10370     1  0.0000000  0.6508444  3
  10358  10357  10369  10371     1  0.0000000  0.6508444  3
  10359  10357  10353  10360     1  0.0000000  1.2552000  3
  10359  10357  10369  10375     1  0.0000000  0.6508444  3
  10359  10357  10369  10370     1  0.0000000  0.6508444  3
  10359  10357  10369  10371     1  0.0000000  0.6508444  3
  10360  10363  10372  10373     1  0.0000000  0.6508444  3
  10360  10363  10372  10374     1  0.0000000  0.6508444  3
  10361  10360  10363  10372     1  0.0000000  0.6508444  3
  10361  10360  10363  10364     1  0.0000000  0.6508444  3
  10361  10360  10363  10365     1  0.0000000  0.6508444  3
  10362  10360  10363  10372     1  0.0000000  0.6508444  3
  10362  10360  10363  10364     1  0.0000000  0.6508444  3
  10362  10360  10363  10365     1  0.0000000  0.6508444  3
  10364  10363  10372  10381     1  0.0000000  1.0460000  1
  10364  10363  10372  10381     1  0.0000000  0.0000000  3
  10364  10363  10372  10373     1  0.0000000  0.6508444  3
  10364  10363  10372  10374     1  0.0000000  0.6508444  3
  10365  10363  10372  10381     1  0.0000000  1.0460000  1
  10365  10363  10372  10381     1  0.0000000  0.0000000  3
  10365  10363  10372  10373     1  0.0000000  0.6508444  3
  10365  10363  10372  10374     1  0.0000000  0.6508444  3
  10367  10366  10378  18793     1  0.0000000  1.0460000  1
  10367  10366  10378  18793     1  0.0000000  0.0000000  3
  10367  10366  10378  10379     1  0.0000000  0.6508444  3
  10367  10366  10378  10380     1  0.0000000  0.6508444  3
  10368  10366  10378  18793     1  0.0000000  1.0460000  1
  10368  10366  10378  18793     1  0.0000000  0.0000000  3
  10368  10366  10378  10379     1  0.0000000  0.6508444  3
  10368  10366  10378  10380     1  0.0000000  0.6508444  3
  10370  10369  10375  18770     1  0.0000000  1.0460000  1
  10370  10369  10375  18770     1  0.0000000  0.0000000  3
  10370  10369  10375  10376     1  0.0000000  0.6508444  3
  10370  10369  10375  10377     1  0.0000000  0.6508444  3
  10371  10369  10375  18770     1  0.0000000  1.0460000  1
  10371  10369  10375  18770     1  0.0000000  0.0000000  3
  10371  10369  10375  10376     1  0.0000000  0.6508444  3
  10371  10369  10375  10377     1  0.0000000  0.6508444  3
  10375  18770  18766  18769     1  0.0000000  1.6038667  3
  10376  10375  18770  18766     1  0.0000000  1.6038667  3
  10377  10375  18770  18766     1  0.0000000  1.6038667  3
  10378  18793  18789  18792     1  0.0000000  1.6038667  3
  10379  10378  18793  18789     1  0.0000000  1.6038667  3
  10380  10378  18793  18789     1  0.0000000  1.6038667  3
  10382  10383  10395  10396     1  0.0000000  0.6508444  3
  10382  10383  10395  10397     1  0.0000000  0.6508444  3
  10382  10386  10398  10399     1  0.0000000  0.6508444  3
  10382  10386  10398  10400     1  0.0000000  0.6508444  3
  10382  10389  10392  10393     1  0.0000000  0.6508444  3
  10382  10389  10392  10394     1  0.0000000  0.6508444  3
  10383  10382  10386  10387     1  0.0000000  1.2552000  3
  10383  10382  10386  10388     1  0.0000000  1.2552000  3
  10383  10382  10389  10390     1  0.0000000  1.2552000  3
  10383  10382  10389  10391     1  0.0000000  1.2552000  3
  10383  10395  10407  10408     1  0.0000000  0.6508444  3
  10383  10395  10407  10409     1  0.0000000  0.6508444  3
  10384  10383  10382  10386     1  0.0000000  1.2552000  3
  10384  10383  10382  10389     1  0.0000000  1.2552000  3
  10384  10383  10395  10407     1  0.0000000  0.6508444  3
  10384  10383  10395  10396     1  0.0000000  0.6508444  3
  10384  10383  10395  10397     1  0.0000000  0.6508444  3
  10385  10383  10382  10386     1  0.0000000  1.2552000  3
  10385  10383  10382  10389     1  0.0000000  1.2552000  3
  10385  10383  10395  10407     1  0.0000000  0.6508444  3
  10385  10383  10395  10396     1  0.0000000  0.6508444  3
  10385  10383  10395  10397     1  0.0000000  0.6508444  3
  10386  10382  10389  10390     1  0.0000000  1.2552000  3
  10386  10382  10389  10391     1  0.0000000  1.2552000  3
  10386  10398  10404  10405     1  0.0000000  0.6508444  3
  10386  10398  10404  10406     1  0.0000000  0.6508444  3
  10387  10386  10382  10389     1  0.0000000  1.2552000  3
  10387  10386  10398  10404     1  0.0000000  0.6508444  3
  10387  10386  10398  10399     1  0.0000000  0.6508444  3
  10387  10386  10398  10400     1  0.0000000  0.6508444  3
  10388  10386  10382  10389     1  0.0000000  1.2552000  3
  10388  10386  10398  10404     1  0.0000000  0.6508444  3
  10388  10386  10398  10399     1  0.0000000  0.6508444  3
  10388  10386  10398  10400     1  0.0000000  0.6508444  3
  10389  10392  10401  10402     1  0.0000000  0.6508444  3
  10389  10392  10401  10403     1  0.0000000  0.6508444  3
  10390  10389  10392  10401     1  0.0000000  0.6508444  3
  10390  10389  10392  10393     1  0.0000000  0.6508444  3
  10390  10389  10392  10394     1  0.0000000  0.6508444  3
  10391  10389  10392  10401     1  0.0000000  0.6508444  3
  10391  10389  10392  10393     1  0.0000000  0.6508444  3
  10391  10389  10392  10394     1  0.0000000  0.6508444  3
  10393  10392  10401  10410     1  0.0000000  1.0460000  1
  10393  10392  10401  10410     1  0.0000000  0.0000000  3
  10393  10392  10401  10402     1  0.0000000  0.6508444  3
  10393  10392  10401  10403     1  0.0000000  0.6508444  3
  10394  10392  10401  10410     1  0.0000000  1.0460000  1
  10394  10392  10401  10410     1  0.0000000  0.0000000  3
  10394  10392  10401  10402     1  0.0000000  0.6508444  3
  10394  10392  10401  10403     1  0.0000000  0.6508444  3
  10396  10395  10407  18839     1  0.0000000  1.0460000  1
  10396  10395  10407  18839     1  0.0000000  0.0000000  3
  10396  10395  10407  10408     1  0.0000000  0.6508444  3
  10396  10395  10407  10409     1  0.0000000  0.6508444  3
  10397  10395  10407  18839     1  0.0000000  1.0460000  1
  10397  10395  10407  18839     1  0.0000000  0.0000000  3
  10397  10395  10407  10408     1  0.0000000  0.6508444  3
  10397  10395  10407  10409     1  0.0000000  0.6508444  3
  10399  10398  10404  18816     1  0.0000000  1.0460000  1
  10399  10398  10404  18816     1  0.0000000  0.0000000  3
  10399  10398  10404  10405     1  0.0000000  0.6508444  3
  10399  10398  10404  10406     1  0.0000000  0.6508444  3
  10400  10398  10404  18816     1  0.0000000  1.0460000  1
  10400  10398  10404  18816     1  0.0000000  0.0000000  3
  10400  10398  10404  10405     1  0.0000000  0.6508444  3
  10400  10398  10404  10406     1  0.0000000  0.6508444  3
  10404  18816  18812  18815     1  0.0000000  1.6038667  3
  10405  10404  18816  18812     1  0.0000000  1.6038667  3
  10406  10404  18816  18812     1  0.0000000  1.6038667  3
  10407  18839  18835  18838     1  0.0000000  1.6038667  3
  10408  10407  18839  18835     1  0.0000000  1.6038667  3
  10409  10407  18839  18835     1  0.0000000  1.6038667  3
  10411  10412  10424  10425     1  0.0000000  0.6508444  3
  10411  10412  10424  10426     1  0.0000000  0.6508444  3
  10411  10415  10427  10428     1  0.0000000  0.6508444  3
  10411  10415  10427  10429     1  0.0000000  0.6508444  3
  10411  10418  10421  10422     1  0.0000000  0.6508444  3
  10411  10418  10421  10423     1  0.0000000  0.6508444  3
  10412  10411  10415  10416     1  0.0000000  1.2552000  3
  10412  10411  10415  10417     1  0.0000000  1.2552000  3
  10412  10411  10418  10419     1  0.0000000  1.2552000  3
  10412  10411  10418  10420     1  0.0000000  1.2552000  3
  10412  10424  10436  10437     1  0.0000000  0.6508444  3
  10412  10424  10436  10438     1  0.0000000  0.6508444  3
  10413  10412  10411  10415     1  0.0000000  1.2552000  3
  10413  10412  10411  10418     1  0.0000000  1.2552000  3
  10413  10412  10424  10436     1  0.0000000  0.6508444  3
  10413  10412  10424  10425     1  0.0000000  0.6508444  3
  10413  10412  10424  10426     1  0.0000000  0.6508444  3
  10414  10412  10411  10415     1  0.0000000  1.2552000  3
  10414  10412  10411  10418     1  0.0000000  1.2552000  3
  10414  10412  10424  10436     1  0.0000000  0.6508444  3
  10414  10412  10424  10425     1  0.0000000  0.6508444  3
  10414  10412  10424  10426     1  0.0000000  0.6508444  3
  10415  10411  10418  10419     1  0.0000000  1.2552000  3
  10415  10411  10418  10420     1  0.0000000  1.2552000  3
  10415  10427  10433  10434     1  0.0000000  0.6508444  3
  10415  10427  10433  10435     1  0.0000000  0.6508444  3
  10416  10415  10411  10418     1  0.0000000  1.2552000  3
  10416  10415  10427  10433     1  0.0000000  0.6508444  3
  10416  10415  10427  10428     1  0.0000000  0.6508444  3
  10416  10415  10427  10429     1  0.0000000  0.6508444  3
  10417  10415  10411  10418     1  0.0000000  1.2552000  3
  10417  10415  10427  10433     1  0.0000000  0.6508444  3
  10417  10415  10427  10428     1  0.0000000  0.6508444  3
  10417  10415  10427  10429     1  0.0000000  0.6508444  3
  10418  10421  10430  10431     1  0.0000000  0.6508444  3
  10418  10421  10430  10432     1  0.0000000  0.6508444  3
  10419  10418  10421  10430     1  0.0000000  0.6508444  3
  10419  10418  10421  10422     1  0.0000000  0.6508444  3
  10419  10418  10421  10423     1  0.0000000  0.6508444  3
  10420  10418  10421  10430     1  0.0000000  0.6508444  3
  10420  10418  10421  10422     1  0.0000000  0.6508444  3
  10420  10418  10421  10423     1  0.0000000  0.6508444  3
  10422  10421  10430  10439     1  0.0000000  1.0460000  1
  10422  10421  10430  10439     1  0.0000000  0.0000000  3
  10422  10421  10430  10431     1  0.0000000  0.6508444  3
  10422  10421  10430  10432     1  0.0000000  0.6508444  3
  10423  10421  10430  10439     1  0.0000000  1.0460000  1
  10423  10421  10430  10439     1  0.0000000  0.0000000  3
  10423  10421  10430  10431     1  0.0000000  0.6508444  3
  10423  10421  10430  10432     1  0.0000000  0.6508444  3
  10425  10424  10436  18885     1  0.0000000  1.0460000  1
  10425  10424  10436  18885     1  0.0000000  0.0000000  3
  10425  10424  10436  10437     1  0.0000000  0.6508444  3
  10425  10424  10436  10438     1  0.0000000  0.6508444  3
  10426  10424  10436  18885     1  0.0000000  1.0460000  1
  10426  10424  10436  18885     1  0.0000000  0.0000000  3
  10426  10424  10436  10437     1  0.0000000  0.6508444  3
  10426  10424  10436  10438     1  0.0000000  0.6508444  3
  10428  10427  10433  18862     1  0.0000000  1.0460000  1
  10428  10427  10433  18862     1  0.0000000  0.0000000  3
  10428  10427  10433  10434     1  0.0000000  0.6508444  3
  10428  10427  10433  10435     1  0.0000000  0.6508444  3
  10429  10427  10433  18862     1  0.0000000  1.0460000  1
  10429  10427  10433  18862     1  0.0000000  0.0000000  3
  10429  10427  10433  10434     1  0.0000000  0.6508444  3
  10429  10427  10433  10435     1  0.0000000  0.6508444  3
  10433  18862  18858  18861     1  0.0000000  1.6038667  3
  10434  10433  18862  18858     1  0.0000000  1.6038667  3
  10435  10433  18862  18858     1  0.0000000  1.6038667  3
  10436  18885  18881  18884     1  0.0000000  1.6038667  3
  10437  10436  18885  18881     1  0.0000000  1.6038667  3
  10438  10436  18885  18881     1  0.0000000  1.6038667  3
  10440  10441  10453  10454     1  0.0000000  0.6508444  3
  10440  10441  10453  10455     1  0.0000000  0.6508444  3
  10440  10444  10456  10457     1  0.0000000  0.6508444  3
  10440  10444  10456  10458     1  0.0000000  0.6508444  3
  10440  10447  10450  10451     1  0.0000000  0.6508444  3
  10440  10447  10450  10452     1  0.0000000  0.6508444  3
  10441  10440  10444  10445     1  0.0000000  1.2552000  3
  10441  10440  10444  10446     1  0.0000000  1.2552000  3
  10441  10440  10447  10448     1  0.0000000  1.2552000  3
  10441  10440  10447  10449     1  0.0000000  1.2552000  3
  10441  10453  10465  10466     1  0.0000000  0.6508444  3
  10441  10453  10465  10467     1  0.0000000  0.6508444  3
  10442  10441  10440  10444     1  0.0000000  1.2552000  3
  10442  10441  10440  10447     1  0.0000000  1.2552000  3
  10442  10441  10453  10465     1  0.0000000  0.6508444  3
  10442  10441  10453  10454     1  0.0000000  0.6508444  3
  10442  10441  10453  10455     1  0.0000000  0.6508444  3
  10443  10441  10440  10444     1  0.0000000  1.2552000  3
  10443  10441  10440  10447     1  0.0000000  1.2552000  3
  10443  10441  10453  10465     1  0.0000000  0.6508444  3
  10443  10441  10453  10454     1  0.0000000  0.6508444  3
  10443  10441  10453  10455     1  0.0000000  0.6508444  3
  10444  10440  10447  10448     1  0.0000000  1.2552000  3
  10444  10440  10447  10449     1  0.0000000  1.2552000  3
  10444  10456  10462  10463     1  0.0000000  0.6508444  3
  10444  10456  10462  10464     1  0.0000000  0.6508444  3
  10445  10444  10440  10447     1  0.0000000  1.2552000  3
  10445  10444  10456  10462     1  0.0000000  0.6508444  3
  10445  10444  10456  10457     1  0.0000000  0.6508444  3
  10445  10444  10456  10458     1  0.0000000  0.6508444  3
  10446  10444  10440  10447     1  0.0000000  1.2552000  3
  10446  10444  10456  10462     1  0.0000000  0.6508444  3
  10446  10444  10456  10457     1  0.0000000  0.6508444  3
  10446  10444  10456  10458     1  0.0000000  0.6508444  3
  10447  10450  10459  10460     1  0.0000000  0.6508444  3
  10447  10450  10459  10461     1  0.0000000  0.6508444  3
  10448  10447  10450  10459     1  0.0000000  0.6508444  3
  10448  10447  10450  10451     1  0.0000000  0.6508444  3
  10448  10447  10450  10452     1  0.0000000  0.6508444  3
  10449  10447  10450  10459     1  0.0000000  0.6508444  3
  10449  10447  10450  10451     1  0.0000000  0.6508444  3
  10449  10447  10450  10452     1  0.0000000  0.6508444  3
  10451  10450  10459  10468     1  0.0000000  1.0460000  1
  10451  10450  10459  10468     1  0.0000000  0.0000000  3
  10451  10450  10459  10460     1  0.0000000  0.6508444  3
  10451  10450  10459  10461     1  0.0000000  0.6508444  3
  10452  10450  10459  10468     1  0.0000000  1.0460000  1
  10452  10450  10459  10468     1  0.0000000  0.0000000  3
  10452  10450  10459  10460     1  0.0000000  0.6508444  3
  10452  10450  10459  10461     1  0.0000000  0.6508444  3
  10454  10453  10465  18931     1  0.0000000  1.0460000  1
  10454  10453  10465  18931     1  0.0000000  0.0000000  3
  10454  10453  10465  10466     1  0.0000000  0.6508444  3
  10454  10453  10465  10467     1  0.0000000  0.6508444  3
  10455  10453  10465  18931     1  0.0000000  1.0460000  1
  10455  10453  10465  18931     1  0.0000000  0.0000000  3
  10455  10453  10465  10466     1  0.0000000  0.6508444  3
  10455  10453  10465  10467     1  0.0000000  0.6508444  3
  10457  10456  10462  18908     1  0.0000000  1.0460000  1
  10457  10456  10462  18908     1  0.0000000  0.0000000  3
  10457  10456  10462  10463     1  0.0000000  0.6508444  3
  10457  10456  10462  10464     1  0.0000000  0.6508444  3
  10458  10456  10462  18908     1  0.0000000  1.0460000  1
  10458  10456  10462  18908     1  0.0000000  0.0000000  3
  10458  10456  10462  10463     1  0.0000000  0.6508444  3
  10458  10456  10462  10464     1  0.0000000  0.6508444  3
  10462  18908  18904  18907     1  0.0000000  1.6038667  3
  10463  10462  18908  18904     1  0.0000000  1.6038667  3
  10464  10462  18908  18904     1  0.0000000  1.6038667  3
  10465  18931  18927  18930     1  0.0000000  1.6038667  3
  10466  10465  18931  18927     1  0.0000000  1.6038667  3
  10467  10465  18931  18927     1  0.0000000  1.6038667  3
  10469  10470  10482  10483     1  0.0000000  0.6508444  3
  10469  10470  10482  10484     1  0.0000000  0.6508444  3
  10469  10473  10485  10486     1  0.0000000  0.6508444  3
  10469  10473  10485  10487     1  0.0000000  0.6508444  3
  10469  10476  10479  10480     1  0.0000000  0.6508444  3
  10469  10476  10479  10481     1  0.0000000  0.6508444  3
  10470  10469  10473  10474     1  0.0000000  1.2552000  3
  10470  10469  10473  10475     1  0.0000000  1.2552000  3
  10470  10469  10476  10477     1  0.0000000  1.2552000  3
  10470  10469  10476  10478     1  0.0000000  1.2552000  3
  10470  10482  10494  10495     1  0.0000000  0.6508444  3
  10470  10482  10494  10496     1  0.0000000  0.6508444  3
  10471  10470  10469  10473     1  0.0000000  1.2552000  3
  10471  10470  10469  10476     1  0.0000000  1.2552000  3
  10471  10470  10482  10494     1  0.0000000  0.6508444  3
  10471  10470  10482  10483     1  0.0000000  0.6508444  3
  10471  10470  10482  10484     1  0.0000000  0.6508444  3
  10472  10470  10469  10473     1  0.0000000  1.2552000  3
  10472  10470  10469  10476     1  0.0000000  1.2552000  3
  10472  10470  10482  10494     1  0.0000000  0.6508444  3
  10472  10470  10482  10483     1  0.0000000  0.6508444  3
  10472  10470  10482  10484     1  0.0000000  0.6508444  3
  10473  10469  10476  10477     1  0.0000000  1.2552000  3
  10473  10469  10476  10478     1  0.0000000  1.2552000  3
  10473  10485  10491  10492     1  0.0000000  0.6508444  3
  10473  10485  10491  10493     1  0.0000000  0.6508444  3
  10474  10473  10469  10476     1  0.0000000  1.2552000  3
  10474  10473  10485  10491     1  0.0000000  0.6508444  3
  10474  10473  10485  10486     1  0.0000000  0.6508444  3
  10474  10473  10485  10487     1  0.0000000  0.6508444  3
  10475  10473  10469  10476     1  0.0000000  1.2552000  3
  10475  10473  10485  10491     1  0.0000000  0.6508444  3
  10475  10473  10485  10486     1  0.0000000  0.6508444  3
  10475  10473  10485  10487     1  0.0000000  0.6508444  3
  10476  10479  10488  10489     1  0.0000000  0.6508444  3
  10476  10479  10488  10490     1  0.0000000  0.6508444  3
  10477  10476  10479  10488     1  0.0000000  0.6508444  3
  10477  10476  10479  10480     1  0.0000000  0.6508444  3
  10477  10476  10479  10481     1  0.0000000  0.6508444  3
  10478  10476  10479  10488     1  0.0000000  0.6508444  3
  10478  10476  10479  10480     1  0.0000000  0.6508444  3
  10478  10476  10479  10481     1  0.0000000  0.6508444  3
  10480  10479  10488  10497     1  0.0000000  1.0460000  1
  10480  10479  10488  10497     1  0.0000000  0.0000000  3
  10480  10479  10488  10489     1  0.0000000  0.6508444  3
  10480  10479  10488  10490     1  0.0000000  0.6508444  3
  10481  10479  10488  10497     1  0.0000000  1.0460000  1
  10481  10479  10488  10497     1  0.0000000  0.0000000  3
  10481  10479  10488  10489     1  0.0000000  0.6508444  3
  10481  10479  10488  10490     1  0.0000000  0.6508444  3
  10483  10482  10494  18977     1  0.0000000  1.0460000  1
  10483  10482  10494  18977     1  0.0000000  0.0000000  3
  10483  10482  10494  10495     1  0.0000000  0.6508444  3
  10483  10482  10494  10496     1  0.0000000  0.6508444  3
  10484  10482  10494  18977     1  0.0000000  1.0460000  1
  10484  10482  10494  18977     1  0.0000000  0.0000000  3
  10484  10482  10494  10495     1  0.0000000  0.6508444  3
  10484  10482  10494  10496     1  0.0000000  0.6508444  3
  10486  10485  10491  18954     1  0.0000000  1.0460000  1
  10486  10485  10491  18954     1  0.0000000  0.0000000  3
  10486  10485  10491  10492     1  0.0000000  0.6508444  3
  10486  10485  10491  10493     1  0.0000000  0.6508444  3
  10487  10485  10491  18954     1  0.0000000  1.0460000  1
  10487  10485  10491  18954     1  0.0000000  0.0000000  3
  10487  10485  10491  10492     1  0.0000000  0.6508444  3
  10487  10485  10491  10493     1  0.0000000  0.6508444  3
  10491  18954  18950  18953     1  0.0000000  1.6038667  3
  10492  10491  18954  18950     1  0.0000000  1.6038667  3
  10493  10491  18954  18950     1  0.0000000  1.6038667  3
  10494  18977  18973  18976     1  0.0000000  1.6038667  3
  10495  10494  18977  18973     1  0.0000000  1.6038667  3
  10496  10494  18977  18973     1  0.0000000  1.6038667  3
  10498  10499  10511  10512     1  0.0000000  0.6508444  3
  10498  10499  10511  10513     1  0.0000000  0.6508444  3
  10498  10502  10514  10515     1  0.0000000  0.6508444  3
  10498  10502  10514  10516     1  0.0000000  0.6508444  3
  10498  10505  10508  10509     1  0.0000000  0.6508444  3
  10498  10505  10508  10510     1  0.0000000  0.6508444  3
  10499  10498  10502  10503     1  0.0000000  1.2552000  3
  10499  10498  10502  10504     1  0.0000000  1.2552000  3
  10499  10498  10505  10506     1  0.0000000  1.2552000  3
  10499  10498  10505  10507     1  0.0000000  1.2552000  3
  10499  10511  10523  10524     1  0.0000000  0.6508444  3
  10499  10511  10523  10525     1  0.0000000  0.6508444  3
  10500  10499  10498  10502     1  0.0000000  1.2552000  3
  10500  10499  10498  10505     1  0.0000000  1.2552000  3
  10500  10499  10511  10523     1  0.0000000  0.6508444  3
  10500  10499  10511  10512     1  0.0000000  0.6508444  3
  10500  10499  10511  10513     1  0.0000000  0.6508444  3
  10501  10499  10498  10502     1  0.0000000  1.2552000  3
  10501  10499  10498  10505     1  0.0000000  1.2552000  3
  10501  10499  10511  10523     1  0.0000000  0.6508444  3
  10501  10499  10511  10512     1  0.0000000  0.6508444  3
  10501  10499  10511  10513     1  0.0000000  0.6508444  3
  10502  10498  10505  10506     1  0.0000000  1.2552000  3
  10502  10498  10505  10507     1  0.0000000  1.2552000  3
  10502  10514  10520  10521     1  0.0000000  0.6508444  3
  10502  10514  10520  10522     1  0.0000000  0.6508444  3
  10503  10502  10498  10505     1  0.0000000  1.2552000  3
  10503  10502  10514  10520     1  0.0000000  0.6508444  3
  10503  10502  10514  10515     1  0.0000000  0.6508444  3
  10503  10502  10514  10516     1  0.0000000  0.6508444  3
  10504  10502  10498  10505     1  0.0000000  1.2552000  3
  10504  10502  10514  10520     1  0.0000000  0.6508444  3
  10504  10502  10514  10515     1  0.0000000  0.6508444  3
  10504  10502  10514  10516     1  0.0000000  0.6508444  3
  10505  10508  10517  10518     1  0.0000000  0.6508444  3
  10505  10508  10517  10519     1  0.0000000  0.6508444  3
  10506  10505  10508  10517     1  0.0000000  0.6508444  3
  10506  10505  10508  10509     1  0.0000000  0.6508444  3
  10506  10505  10508  10510     1  0.0000000  0.6508444  3
  10507  10505  10508  10517     1  0.0000000  0.6508444  3
  10507  10505  10508  10509     1  0.0000000  0.6508444  3
  10507  10505  10508  10510     1  0.0000000  0.6508444  3
  10509  10508  10517  10526     1  0.0000000  1.0460000  1
  10509  10508  10517  10526     1  0.0000000  0.0000000  3
  10509  10508  10517  10518     1  0.0000000  0.6508444  3
  10509  10508  10517  10519     1  0.0000000  0.6508444  3
  10510  10508  10517  10526     1  0.0000000  1.0460000  1
  10510  10508  10517  10526     1  0.0000000  0.0000000  3
  10510  10508  10517  10518     1  0.0000000  0.6508444  3
  10510  10508  10517  10519     1  0.0000000  0.6508444  3
  10512  10511  10523  19023     1  0.0000000  1.0460000  1
  10512  10511  10523  19023     1  0.0000000  0.0000000  3
  10512  10511  10523  10524     1  0.0000000  0.6508444  3
  10512  10511  10523  10525     1  0.0000000  0.6508444  3
  10513  10511  10523  19023     1  0.0000000  1.0460000  1
  10513  10511  10523  19023     1  0.0000000  0.0000000  3
  10513  10511  10523  10524     1  0.0000000  0.6508444  3
  10513  10511  10523  10525     1  0.0000000  0.6508444  3
  10515  10514  10520  19000     1  0.0000000  1.0460000  1
  10515  10514  10520  19000     1  0.0000000  0.0000000  3
  10515  10514  10520  10521     1  0.0000000  0.6508444  3
  10515  10514  10520  10522     1  0.0000000  0.6508444  3
  10516  10514  10520  19000     1  0.0000000  1.0460000  1
  10516  10514  10520  19000     1  0.0000000  0.0000000  3
  10516  10514  10520  10521     1  0.0000000  0.6508444  3
  10516  10514  10520  10522     1  0.0000000  0.6508444  3
  10520  19000  18996  18999     1  0.0000000  1.6038667  3
  10521  10520  19000  18996     1  0.0000000  1.6038667  3
  10522  10520  19000  18996     1  0.0000000  1.6038667  3
  10523  19023  19019  19022     1  0.0000000  1.6038667  3
  10524  10523  19023  19019     1  0.0000000  1.6038667  3
  10525  10523  19023  19019     1  0.0000000  1.6038667  3
  10527  10528  10540  10541     1  0.0000000  0.6508444  3
  10527  10528  10540  10542     1  0.0000000  0.6508444  3
  10527  10531  10543  10544     1  0.0000000  0.6508444  3
  10527  10531  10543  10545     1  0.0000000  0.6508444  3
  10527  10534  10537  10538     1  0.0000000  0.6508444  3
  10527  10534  10537  10539     1  0.0000000  0.6508444  3
  10528  10527  10531  10532     1  0.0000000  1.2552000  3
  10528  10527  10531  10533     1  0.0000000  1.2552000  3
  10528  10527  10534  10535     1  0.0000000  1.2552000  3
  10528  10527  10534  10536     1  0.0000000  1.2552000  3
  10528  10540  10552  10553     1  0.0000000  0.6508444  3
  10528  10540  10552  10554     1  0.0000000  0.6508444  3
  10529  10528  10527  10531     1  0.0000000  1.2552000  3
  10529  10528  10527  10534     1  0.0000000  1.2552000  3
  10529  10528  10540  10552     1  0.0000000  0.6508444  3
  10529  10528  10540  10541     1  0.0000000  0.6508444  3
  10529  10528  10540  10542     1  0.0000000  0.6508444  3
  10530  10528  10527  10531     1  0.0000000  1.2552000  3
  10530  10528  10527  10534     1  0.0000000  1.2552000  3
  10530  10528  10540  10552     1  0.0000000  0.6508444  3
  10530  10528  10540  10541     1  0.0000000  0.6508444  3
  10530  10528  10540  10542     1  0.0000000  0.6508444  3
  10531  10527  10534  10535     1  0.0000000  1.2552000  3
  10531  10527  10534  10536     1  0.0000000  1.2552000  3
  10531  10543  10549  10550     1  0.0000000  0.6508444  3
  10531  10543  10549  10551     1  0.0000000  0.6508444  3
  10532  10531  10527  10534     1  0.0000000  1.2552000  3
  10532  10531  10543  10549     1  0.0000000  0.6508444  3
  10532  10531  10543  10544     1  0.0000000  0.6508444  3
  10532  10531  10543  10545     1  0.0000000  0.6508444  3
  10533  10531  10527  10534     1  0.0000000  1.2552000  3
  10533  10531  10543  10549     1  0.0000000  0.6508444  3
  10533  10531  10543  10544     1  0.0000000  0.6508444  3
  10533  10531  10543  10545     1  0.0000000  0.6508444  3
  10534  10537  10546  10547     1  0.0000000  0.6508444  3
  10534  10537  10546  10548     1  0.0000000  0.6508444  3
  10535  10534  10537  10546     1  0.0000000  0.6508444  3
  10535  10534  10537  10538     1  0.0000000  0.6508444  3
  10535  10534  10537  10539     1  0.0000000  0.6508444  3
  10536  10534  10537  10546     1  0.0000000  0.6508444  3
  10536  10534  10537  10538     1  0.0000000  0.6508444  3
  10536  10534  10537  10539     1  0.0000000  0.6508444  3
  10538  10537  10546  10555     1  0.0000000  1.0460000  1
  10538  10537  10546  10555     1  0.0000000  0.0000000  3
  10538  10537  10546  10547     1  0.0000000  0.6508444  3
  10538  10537  10546  10548     1  0.0000000  0.6508444  3
  10539  10537  10546  10555     1  0.0000000  1.0460000  1
  10539  10537  10546  10555     1  0.0000000  0.0000000  3
  10539  10537  10546  10547     1  0.0000000  0.6508444  3
  10539  10537  10546  10548     1  0.0000000  0.6508444  3
  10541  10540  10552  19069     1  0.0000000  1.0460000  1
  10541  10540  10552  19069     1  0.0000000  0.0000000  3
  10541  10540  10552  10553     1  0.0000000  0.6508444  3
  10541  10540  10552  10554     1  0.0000000  0.6508444  3
  10542  10540  10552  19069     1  0.0000000  1.0460000  1
  10542  10540  10552  19069     1  0.0000000  0.0000000  3
  10542  10540  10552  10553     1  0.0000000  0.6508444  3
  10542  10540  10552  10554     1  0.0000000  0.6508444  3
  10544  10543  10549  19046     1  0.0000000  1.0460000  1
  10544  10543  10549  19046     1  0.0000000  0.0000000  3
  10544  10543  10549  10550     1  0.0000000  0.6508444  3
  10544  10543  10549  10551     1  0.0000000  0.6508444  3
  10545  10543  10549  19046     1  0.0000000  1.0460000  1
  10545  10543  10549  19046     1  0.0000000  0.0000000  3
  10545  10543  10549  10550     1  0.0000000  0.6508444  3
  10545  10543  10549  10551     1  0.0000000  0.6508444  3
  10549  19046  19042  19045     1  0.0000000  1.6038667  3
  10550  10549  19046  19042     1  0.0000000  1.6038667  3
  10551  10549  19046  19042     1  0.0000000  1.6038667  3
  10552  19069  19065  19068     1  0.0000000  1.6038667  3
  10553  10552  19069  19065     1  0.0000000  1.6038667  3
  10554  10552  19069  19065     1  0.0000000  1.6038667  3
  10556  10557  10569  10570     1  0.0000000  0.6508444  3
  10556  10557  10569  10571     1  0.0000000  0.6508444  3
  10556  10560  10572  10573     1  0.0000000  0.6508444  3
  10556  10560  10572  10574     1  0.0000000  0.6508444  3
  10556  10563  10566  10567     1  0.0000000  0.6508444  3
  10556  10563  10566  10568     1  0.0000000  0.6508444  3
  10557  10556  10560  10561     1  0.0000000  1.2552000  3
  10557  10556  10560  10562     1  0.0000000  1.2552000  3
  10557  10556  10563  10564     1  0.0000000  1.2552000  3
  10557  10556  10563  10565     1  0.0000000  1.2552000  3
  10557  10569  10581  10582     1  0.0000000  0.6508444  3
  10557  10569  10581  10583     1  0.0000000  0.6508444  3
  10558  10557  10556  10560     1  0.0000000  1.2552000  3
  10558  10557  10556  10563     1  0.0000000  1.2552000  3
  10558  10557  10569  10581     1  0.0000000  0.6508444  3
  10558  10557  10569  10570     1  0.0000000  0.6508444  3
  10558  10557  10569  10571     1  0.0000000  0.6508444  3
  10559  10557  10556  10560     1  0.0000000  1.2552000  3
  10559  10557  10556  10563     1  0.0000000  1.2552000  3
  10559  10557  10569  10581     1  0.0000000  0.6508444  3
  10559  10557  10569  10570     1  0.0000000  0.6508444  3
  10559  10557  10569  10571     1  0.0000000  0.6508444  3
  10560  10556  10563  10564     1  0.0000000  1.2552000  3
  10560  10556  10563  10565     1  0.0000000  1.2552000  3
  10560  10572  10578  10579     1  0.0000000  0.6508444  3
  10560  10572  10578  10580     1  0.0000000  0.6508444  3
  10561  10560  10556  10563     1  0.0000000  1.2552000  3
  10561  10560  10572  10578     1  0.0000000  0.6508444  3
  10561  10560  10572  10573     1  0.0000000  0.6508444  3
  10561  10560  10572  10574     1  0.0000000  0.6508444  3
  10562  10560  10556  10563     1  0.0000000  1.2552000  3
  10562  10560  10572  10578     1  0.0000000  0.6508444  3
  10562  10560  10572  10573     1  0.0000000  0.6508444  3
  10562  10560  10572  10574     1  0.0000000  0.6508444  3
  10563  10566  10575  10576     1  0.0000000  0.6508444  3
  10563  10566  10575  10577     1  0.0000000  0.6508444  3
  10564  10563  10566  10575     1  0.0000000  0.6508444  3
  10564  10563  10566  10567     1  0.0000000  0.6508444  3
  10564  10563  10566  10568     1  0.0000000  0.6508444  3
  10565  10563  10566  10575     1  0.0000000  0.6508444  3
  10565  10563  10566  10567     1  0.0000000  0.6508444  3
  10565  10563  10566  10568     1  0.0000000  0.6508444  3
  10567  10566  10575  10584     1  0.0000000  1.0460000  1
  10567  10566  10575  10584     1  0.0000000  0.0000000  3
  10567  10566  10575  10576     1  0.0000000  0.6508444  3
  10567  10566  10575  10577     1  0.0000000  0.6508444  3
  10568  10566  10575  10584     1  0.0000000  1.0460000  1
  10568  10566  10575  10584     1  0.0000000  0.0000000  3
  10568  10566  10575  10576     1  0.0000000  0.6508444  3
  10568  10566  10575  10577     1  0.0000000  0.6508444  3
  10570  10569  10581  19115     1  0.0000000  1.0460000  1
  10570  10569  10581  19115     1  0.0000000  0.0000000  3
  10570  10569  10581  10582     1  0.0000000  0.6508444  3
  10570  10569  10581  10583     1  0.0000000  0.6508444  3
  10571  10569  10581  19115     1  0.0000000  1.0460000  1
  10571  10569  10581  19115     1  0.0000000  0.0000000  3
  10571  10569  10581  10582     1  0.0000000  0.6508444  3
  10571  10569  10581  10583     1  0.0000000  0.6508444  3
  10573  10572  10578  19092     1  0.0000000  1.0460000  1
  10573  10572  10578  19092     1  0.0000000  0.0000000  3
  10573  10572  10578  10579     1  0.0000000  0.6508444  3
  10573  10572  10578  10580     1  0.0000000  0.6508444  3
  10574  10572  10578  19092     1  0.0000000  1.0460000  1
  10574  10572  10578  19092     1  0.0000000  0.0000000  3
  10574  10572  10578  10579     1  0.0000000  0.6508444  3
  10574  10572  10578  10580     1  0.0000000  0.6508444  3
  10578  19092  19088  19091     1  0.0000000  1.6038667  3
  10579  10578  19092  19088     1  0.0000000  1.6038667  3
  10580  10578  19092  19088     1  0.0000000  1.6038667  3
  10581  19115  19111  19114     1  0.0000000  1.6038667  3
  10582  10581  19115  19111     1  0.0000000  1.6038667  3
  10583  10581  19115  19111     1  0.0000000  1.6038667  3
  10585  10586  10598  10599     1  0.0000000  0.6508444  3
  10585  10586  10598  10600     1  0.0000000  0.6508444  3
  10585  10589  10601  10602     1  0.0000000  0.6508444  3
  10585  10589  10601  10603     1  0.0000000  0.6508444  3
  10585  10592  10595  10596     1  0.0000000  0.6508444  3
  10585  10592  10595  10597     1  0.0000000  0.6508444  3
  10586  10585  10589  10590     1  0.0000000  1.2552000  3
  10586  10585  10589  10591     1  0.0000000  1.2552000  3
  10586  10585  10592  10593     1  0.0000000  1.2552000  3
  10586  10585  10592  10594     1  0.0000000  1.2552000  3
  10586  10598  10610  10611     1  0.0000000  0.6508444  3
  10586  10598  10610  10612     1  0.0000000  0.6508444  3
  10587  10586  10585  10589     1  0.0000000  1.2552000  3
  10587  10586  10585  10592     1  0.0000000  1.2552000  3
  10587  10586  10598  10610     1  0.0000000  0.6508444  3
  10587  10586  10598  10599     1  0.0000000  0.6508444  3
  10587  10586  10598  10600     1  0.0000000  0.6508444  3
  10588  10586  10585  10589     1  0.0000000  1.2552000  3
  10588  10586  10585  10592     1  0.0000000  1.2552000  3
  10588  10586  10598  10610     1  0.0000000  0.6508444  3
  10588  10586  10598  10599     1  0.0000000  0.6508444  3
  10588  10586  10598  10600     1  0.0000000  0.6508444  3
  10589  10585  10592  10593     1  0.0000000  1.2552000  3
  10589  10585  10592  10594     1  0.0000000  1.2552000  3
  10589  10601  10607  10608     1  0.0000000  0.6508444  3
  10589  10601  10607  10609     1  0.0000000  0.6508444  3
  10590  10589  10585  10592     1  0.0000000  1.2552000  3
  10590  10589  10601  10607     1  0.0000000  0.6508444  3
  10590  10589  10601  10602     1  0.0000000  0.6508444  3
  10590  10589  10601  10603     1  0.0000000  0.6508444  3
  10591  10589  10585  10592     1  0.0000000  1.2552000  3
  10591  10589  10601  10607     1  0.0000000  0.6508444  3
  10591  10589  10601  10602     1  0.0000000  0.6508444  3
  10591  10589  10601  10603     1  0.0000000  0.6508444  3
  10592  10595  10604  10605     1  0.0000000  0.6508444  3
  10592  10595  10604  10606     1  0.0000000  0.6508444  3
  10593  10592  10595  10604     1  0.0000000  0.6508444  3
  10593  10592  10595  10596     1  0.0000000  0.6508444  3
  10593  10592  10595  10597     1  0.0000000  0.6508444  3
  10594  10592  10595  10604     1  0.0000000  0.6508444  3
  10594  10592  10595  10596     1  0.0000000  0.6508444  3
  10594  10592  10595  10597     1  0.0000000  0.6508444  3
  10596  10595  10604  10613     1  0.0000000  1.0460000  1
  10596  10595  10604  10613     1  0.0000000  0.0000000  3
  10596  10595  10604  10605     1  0.0000000  0.6508444  3
  10596  10595  10604  10606     1  0.0000000  0.6508444  3
  10597  10595  10604  10613     1  0.0000000  1.0460000  1
  10597  10595  10604  10613     1  0.0000000  0.0000000  3
  10597  10595  10604  10605     1  0.0000000  0.6508444  3
  10597  10595  10604  10606     1  0.0000000  0.6508444  3
  10599  10598  10610  19161     1  0.0000000  1.0460000  1
  10599  10598  10610  19161     1  0.0000000  0.0000000  3
  10599  10598  10610  10611     1  0.0000000  0.6508444  3
  10599  10598  10610  10612     1  0.0000000  0.6508444  3
  10600  10598  10610  19161     1  0.0000000  1.0460000  1
  10600  10598  10610  19161     1  0.0000000  0.0000000  3
  10600  10598  10610  10611     1  0.0000000  0.6508444  3
  10600  10598  10610  10612     1  0.0000000  0.6508444  3
  10602  10601  10607  19138     1  0.0000000  1.0460000  1
  10602  10601  10607  19138     1  0.0000000  0.0000000  3
  10602  10601  10607  10608     1  0.0000000  0.6508444  3
  10602  10601  10607  10609     1  0.0000000  0.6508444  3
  10603  10601  10607  19138     1  0.0000000  1.0460000  1
  10603  10601  10607  19138     1  0.0000000  0.0000000  3
  10603  10601  10607  10608     1  0.0000000  0.6508444  3
  10603  10601  10607  10609     1  0.0000000  0.6508444  3
  10607  19138  19134  19137     1  0.0000000  1.6038667  3
  10608  10607  19138  19134     1  0.0000000  1.6038667  3
  10609  10607  19138  19134     1  0.0000000  1.6038667  3
  10610  19161  19157  19160     1  0.0000000  1.6038667  3
  10611  10610  19161  19157     1  0.0000000  1.6038667  3
  10612  10610  19161  19157     1  0.0000000  1.6038667  3
  10614  10615  10627  10628     1  0.0000000  0.6508444  3
  10614  10615  10627  10629     1  0.0000000  0.6508444  3
  10614  10618  10630  10631     1  0.0000000  0.6508444  3
  10614  10618  10630  10632     1  0.0000000  0.6508444  3
  10614  10621  10624  10625     1  0.0000000  0.6508444  3
  10614  10621  10624  10626     1  0.0000000  0.6508444  3
  10615  10614  10618  10619     1  0.0000000  1.2552000  3
  10615  10614  10618  10620     1  0.0000000  1.2552000  3
  10615  10614  10621  10622     1  0.0000000  1.2552000  3
  10615  10614  10621  10623     1  0.0000000  1.2552000  3
  10615  10627  10639  10640     1  0.0000000  0.6508444  3
  10615  10627  10639  10641     1  0.0000000  0.6508444  3
  10616  10615  10614  10618     1  0.0000000  1.2552000  3
  10616  10615  10614  10621     1  0.0000000  1.2552000  3
  10616  10615  10627  10639     1  0.0000000  0.6508444  3
  10616  10615  10627  10628     1  0.0000000  0.6508444  3
  10616  10615  10627  10629     1  0.0000000  0.6508444  3
  10617  10615  10614  10618     1  0.0000000  1.2552000  3
  10617  10615  10614  10621     1  0.0000000  1.2552000  3
  10617  10615  10627  10639     1  0.0000000  0.6508444  3
  10617  10615  10627  10628     1  0.0000000  0.6508444  3
  10617  10615  10627  10629     1  0.0000000  0.6508444  3
  10618  10614  10621  10622     1  0.0000000  1.2552000  3
  10618  10614  10621  10623     1  0.0000000  1.2552000  3
  10618  10630  10636  10637     1  0.0000000  0.6508444  3
  10618  10630  10636  10638     1  0.0000000  0.6508444  3
  10619  10618  10614  10621     1  0.0000000  1.2552000  3
  10619  10618  10630  10636     1  0.0000000  0.6508444  3
  10619  10618  10630  10631     1  0.0000000  0.6508444  3
  10619  10618  10630  10632     1  0.0000000  0.6508444  3
  10620  10618  10614  10621     1  0.0000000  1.2552000  3
  10620  10618  10630  10636     1  0.0000000  0.6508444  3
  10620  10618  10630  10631     1  0.0000000  0.6508444  3
  10620  10618  10630  10632     1  0.0000000  0.6508444  3
  10621  10624  10633  10634     1  0.0000000  0.6508444  3
  10621  10624  10633  10635     1  0.0000000  0.6508444  3
  10622  10621  10624  10633     1  0.0000000  0.6508444  3
  10622  10621  10624  10625     1  0.0000000  0.6508444  3
  10622  10621  10624  10626     1  0.0000000  0.6508444  3
  10623  10621  10624  10633     1  0.0000000  0.6508444  3
  10623  10621  10624  10625     1  0.0000000  0.6508444  3
  10623  10621  10624  10626     1  0.0000000  0.6508444  3
  10625  10624  10633  10642     1  0.0000000  1.0460000  1
  10625  10624  10633  10642     1  0.0000000  0.0000000  3
  10625  10624  10633  10634     1  0.0000000  0.6508444  3
  10625  10624  10633  10635     1  0.0000000  0.6508444  3
  10626  10624  10633  10642     1  0.0000000  1.0460000  1
  10626  10624  10633  10642     1  0.0000000  0.0000000  3
  10626  10624  10633  10634     1  0.0000000  0.6508444  3
  10626  10624  10633  10635     1  0.0000000  0.6508444  3
  10628  10627  10639  19207     1  0.0000000  1.0460000  1
  10628  10627  10639  19207     1  0.0000000  0.0000000  3
  10628  10627  10639  10640     1  0.0000000  0.6508444  3
  10628  10627  10639  10641     1  0.0000000  0.6508444  3
  10629  10627  10639  19207     1  0.0000000  1.0460000  1
  10629  10627  10639  19207     1  0.0000000  0.0000000  3
  10629  10627  10639  10640     1  0.0000000  0.6508444  3
  10629  10627  10639  10641     1  0.0000000  0.6508444  3
  10631  10630  10636  19184     1  0.0000000  1.0460000  1
  10631  10630  10636  19184     1  0.0000000  0.0000000  3
  10631  10630  10636  10637     1  0.0000000  0.6508444  3
  10631  10630  10636  10638     1  0.0000000  0.6508444  3
  10632  10630  10636  19184     1  0.0000000  1.0460000  1
  10632  10630  10636  19184     1  0.0000000  0.0000000  3
  10632  10630  10636  10637     1  0.0000000  0.6508444  3
  10632  10630  10636  10638     1  0.0000000  0.6508444  3
  10636  19184  19180  19183     1  0.0000000  1.6038667  3
  10637  10636  19184  19180     1  0.0000000  1.6038667  3
  10638  10636  19184  19180     1  0.0000000  1.6038667  3
  10639  19207  19203  19206     1  0.0000000  1.6038667  3
  10640  10639  19207  19203     1  0.0000000  1.6038667  3
  10641  10639  19207  19203     1  0.0000000  1.6038667  3
  10643  10644  10656  10657     1  0.0000000  0.6508444  3
  10643  10644  10656  10658     1  0.0000000  0.6508444  3
  10643  10647  10659  10660     1  0.0000000  0.6508444  3
  10643  10647  10659  10661     1  0.0000000  0.6508444  3
  10643  10650  10653  10654     1  0.0000000  0.6508444  3
  10643  10650  10653  10655     1  0.0000000  0.6508444  3
  10644  10643  10647  10648     1  0.0000000  1.2552000  3
  10644  10643  10647  10649     1  0.0000000  1.2552000  3
  10644  10643  10650  10651     1  0.0000000  1.2552000  3
  10644  10643  10650  10652     1  0.0000000  1.2552000  3
  10644  10656  10668  10669     1  0.0000000  0.6508444  3
  10644  10656  10668  10670     1  0.0000000  0.6508444  3
  10645  10644  10643  10647     1  0.0000000  1.2552000  3
  10645  10644  10643  10650     1  0.0000000  1.2552000  3
  10645  10644  10656  10668     1  0.0000000  0.6508444  3
  10645  10644  10656  10657     1  0.0000000  0.6508444  3
  10645  10644  10656  10658     1  0.0000000  0.6508444  3
  10646  10644  10643  10647     1  0.0000000  1.2552000  3
  10646  10644  10643  10650     1  0.0000000  1.2552000  3
  10646  10644  10656  10668     1  0.0000000  0.6508444  3
  10646  10644  10656  10657     1  0.0000000  0.6508444  3
  10646  10644  10656  10658     1  0.0000000  0.6508444  3
  10647  10643  10650  10651     1  0.0000000  1.2552000  3
  10647  10643  10650  10652     1  0.0000000  1.2552000  3
  10647  10659  10665  10666     1  0.0000000  0.6508444  3
  10647  10659  10665  10667     1  0.0000000  0.6508444  3
  10648  10647  10643  10650     1  0.0000000  1.2552000  3
  10648  10647  10659  10665     1  0.0000000  0.6508444  3
  10648  10647  10659  10660     1  0.0000000  0.6508444  3
  10648  10647  10659  10661     1  0.0000000  0.6508444  3
  10649  10647  10643  10650     1  0.0000000  1.2552000  3
  10649  10647  10659  10665     1  0.0000000  0.6508444  3
  10649  10647  10659  10660     1  0.0000000  0.6508444  3
  10649  10647  10659  10661     1  0.0000000  0.6508444  3
  10650  10653  10662  10663     1  0.0000000  0.6508444  3
  10650  10653  10662  10664     1  0.0000000  0.6508444  3
  10651  10650  10653  10662     1  0.0000000  0.6508444  3
  10651  10650  10653  10654     1  0.0000000  0.6508444  3
  10651  10650  10653  10655     1  0.0000000  0.6508444  3
  10652  10650  10653  10662     1  0.0000000  0.6508444  3
  10652  10650  10653  10654     1  0.0000000  0.6508444  3
  10652  10650  10653  10655     1  0.0000000  0.6508444  3
  10654  10653  10662  10671     1  0.0000000  1.0460000  1
  10654  10653  10662  10671     1  0.0000000  0.0000000  3
  10654  10653  10662  10663     1  0.0000000  0.6508444  3
  10654  10653  10662  10664     1  0.0000000  0.6508444  3
  10655  10653  10662  10671     1  0.0000000  1.0460000  1
  10655  10653  10662  10671     1  0.0000000  0.0000000  3
  10655  10653  10662  10663     1  0.0000000  0.6508444  3
  10655  10653  10662  10664     1  0.0000000  0.6508444  3
  10657  10656  10668  19253     1  0.0000000  1.0460000  1
  10657  10656  10668  19253     1  0.0000000  0.0000000  3
  10657  10656  10668  10669     1  0.0000000  0.6508444  3
  10657  10656  10668  10670     1  0.0000000  0.6508444  3
  10658  10656  10668  19253     1  0.0000000  1.0460000  1
  10658  10656  10668  19253     1  0.0000000  0.0000000  3
  10658  10656  10668  10669     1  0.0000000  0.6508444  3
  10658  10656  10668  10670     1  0.0000000  0.6508444  3
  10660  10659  10665  19230     1  0.0000000  1.0460000  1
  10660  10659  10665  19230     1  0.0000000  0.0000000  3
  10660  10659  10665  10666     1  0.0000000  0.6508444  3
  10660  10659  10665  10667     1  0.0000000  0.6508444  3
  10661  10659  10665  19230     1  0.0000000  1.0460000  1
  10661  10659  10665  19230     1  0.0000000  0.0000000  3
  10661  10659  10665  10666     1  0.0000000  0.6508444  3
  10661  10659  10665  10667     1  0.0000000  0.6508444  3
  10665  19230  19226  19229     1  0.0000000  1.6038667  3
  10666  10665  19230  19226     1  0.0000000  1.6038667  3
  10667  10665  19230  19226     1  0.0000000  1.6038667  3
  10668  19253  19249  19252     1  0.0000000  1.6038667  3
  10669  10668  19253  19249     1  0.0000000  1.6038667  3
  10670  10668  19253  19249     1  0.0000000  1.6038667  3
  10672  10673  10685  10686     1  0.0000000  0.6508444  3
  10672  10673  10685  10687     1  0.0000000  0.6508444  3
  10672  10676  10688  10689     1  0.0000000  0.6508444  3
  10672  10676  10688  10690     1  0.0000000  0.6508444  3
  10672  10679  10682  10683     1  0.0000000  0.6508444  3
  10672  10679  10682  10684     1  0.0000000  0.6508444  3
  10673  10672  10676  10677     1  0.0000000  1.2552000  3
  10673  10672  10676  10678     1  0.0000000  1.2552000  3
  10673  10672  10679  10680     1  0.0000000  1.2552000  3
  10673  10672  10679  10681     1  0.0000000  1.2552000  3
  10673  10685  10697  10698     1  0.0000000  0.6508444  3
  10673  10685  10697  10699     1  0.0000000  0.6508444  3
  10674  10673  10672  10676     1  0.0000000  1.2552000  3
  10674  10673  10672  10679     1  0.0000000  1.2552000  3
  10674  10673  10685  10697     1  0.0000000  0.6508444  3
  10674  10673  10685  10686     1  0.0000000  0.6508444  3
  10674  10673  10685  10687     1  0.0000000  0.6508444  3
  10675  10673  10672  10676     1  0.0000000  1.2552000  3
  10675  10673  10672  10679     1  0.0000000  1.2552000  3
  10675  10673  10685  10697     1  0.0000000  0.6508444  3
  10675  10673  10685  10686     1  0.0000000  0.6508444  3
  10675  10673  10685  10687     1  0.0000000  0.6508444  3
  10676  10672  10679  10680     1  0.0000000  1.2552000  3
  10676  10672  10679  10681     1  0.0000000  1.2552000  3
  10676  10688  10694  10695     1  0.0000000  0.6508444  3
  10676  10688  10694  10696     1  0.0000000  0.6508444  3
  10677  10676  10672  10679     1  0.0000000  1.2552000  3
  10677  10676  10688  10694     1  0.0000000  0.6508444  3
  10677  10676  10688  10689     1  0.0000000  0.6508444  3
  10677  10676  10688  10690     1  0.0000000  0.6508444  3
  10678  10676  10672  10679     1  0.0000000  1.2552000  3
  10678  10676  10688  10694     1  0.0000000  0.6508444  3
  10678  10676  10688  10689     1  0.0000000  0.6508444  3
  10678  10676  10688  10690     1  0.0000000  0.6508444  3
  10679  10682  10691  10692     1  0.0000000  0.6508444  3
  10679  10682  10691  10693     1  0.0000000  0.6508444  3
  10680  10679  10682  10691     1  0.0000000  0.6508444  3
  10680  10679  10682  10683     1  0.0000000  0.6508444  3
  10680  10679  10682  10684     1  0.0000000  0.6508444  3
  10681  10679  10682  10691     1  0.0000000  0.6508444  3
  10681  10679  10682  10683     1  0.0000000  0.6508444  3
  10681  10679  10682  10684     1  0.0000000  0.6508444  3
  10683  10682  10691  10700     1  0.0000000  1.0460000  1
  10683  10682  10691  10700     1  0.0000000  0.0000000  3
  10683  10682  10691  10692     1  0.0000000  0.6508444  3
  10683  10682  10691  10693     1  0.0000000  0.6508444  3
  10684  10682  10691  10700     1  0.0000000  1.0460000  1
  10684  10682  10691  10700     1  0.0000000  0.0000000  3
  10684  10682  10691  10692     1  0.0000000  0.6508444  3
  10684  10682  10691  10693     1  0.0000000  0.6508444  3
  10686  10685  10697  19299     1  0.0000000  1.0460000  1
  10686  10685  10697  19299     1  0.0000000  0.0000000  3
  10686  10685  10697  10698     1  0.0000000  0.6508444  3
  10686  10685  10697  10699     1  0.0000000  0.6508444  3
  10687  10685  10697  19299     1  0.0000000  1.0460000  1
  10687  10685  10697  19299     1  0.0000000  0.0000000  3
  10687  10685  10697  10698     1  0.0000000  0.6508444  3
  10687  10685  10697  10699     1  0.0000000  0.6508444  3
  10689  10688  10694  19276     1  0.0000000  1.0460000  1
  10689  10688  10694  19276     1  0.0000000  0.0000000  3
  10689  10688  10694  10695     1  0.0000000  0.6508444  3
  10689  10688  10694  10696     1  0.0000000  0.6508444  3
  10690  10688  10694  19276     1  0.0000000  1.0460000  1
  10690  10688  10694  19276     1  0.0000000  0.0000000  3
  10690  10688  10694  10695     1  0.0000000  0.6508444  3
  10690  10688  10694  10696     1  0.0000000  0.6508444  3
  10694  19276  19272  19275     1  0.0000000  1.6038667  3
  10695  10694  19276  19272     1  0.0000000  1.6038667  3
  10696  10694  19276  19272     1  0.0000000  1.6038667  3
  10697  19299  19295  19298     1  0.0000000  1.6038667  3
  10698  10697  19299  19295     1  0.0000000  1.6038667  3
  10699  10697  19299  19295     1  0.0000000  1.6038667  3
  10701  10702  10714  10715     1  0.0000000  0.6508444  3
  10701  10702  10714  10716     1  0.0000000  0.6508444  3
  10701  10705  10717  10718     1  0.0000000  0.6508444  3
  10701  10705  10717  10719     1  0.0000000  0.6508444  3
  10701  10708  10711  10712     1  0.0000000  0.6508444  3
  10701  10708  10711  10713     1  0.0000000  0.6508444  3
  10702  10701  10705  10706     1  0.0000000  1.2552000  3
  10702  10701  10705  10707     1  0.0000000  1.2552000  3
  10702  10701  10708  10709     1  0.0000000  1.2552000  3
  10702  10701  10708  10710     1  0.0000000  1.2552000  3
  10702  10714  10726  10727     1  0.0000000  0.6508444  3
  10702  10714  10726  10728     1  0.0000000  0.6508444  3
  10703  10702  10701  10705     1  0.0000000  1.2552000  3
  10703  10702  10701  10708     1  0.0000000  1.2552000  3
  10703  10702  10714  10726     1  0.0000000  0.6508444  3
  10703  10702  10714  10715     1  0.0000000  0.6508444  3
  10703  10702  10714  10716     1  0.0000000  0.6508444  3
  10704  10702  10701  10705     1  0.0000000  1.2552000  3
  10704  10702  10701  10708     1  0.0000000  1.2552000  3
  10704  10702  10714  10726     1  0.0000000  0.6508444  3
  10704  10702  10714  10715     1  0.0000000  0.6508444  3
  10704  10702  10714  10716     1  0.0000000  0.6508444  3
  10705  10701  10708  10709     1  0.0000000  1.2552000  3
  10705  10701  10708  10710     1  0.0000000  1.2552000  3
  10705  10717  10723  10724     1  0.0000000  0.6508444  3
  10705  10717  10723  10725     1  0.0000000  0.6508444  3
  10706  10705  10701  10708     1  0.0000000  1.2552000  3
  10706  10705  10717  10723     1  0.0000000  0.6508444  3
  10706  10705  10717  10718     1  0.0000000  0.6508444  3
  10706  10705  10717  10719     1  0.0000000  0.6508444  3
  10707  10705  10701  10708     1  0.0000000  1.2552000  3
  10707  10705  10717  10723     1  0.0000000  0.6508444  3
  10707  10705  10717  10718     1  0.0000000  0.6508444  3
  10707  10705  10717  10719     1  0.0000000  0.6508444  3
  10708  10711  10720  10721     1  0.0000000  0.6508444  3
  10708  10711  10720  10722     1  0.0000000  0.6508444  3
  10709  10708  10711  10720     1  0.0000000  0.6508444  3
  10709  10708  10711  10712     1  0.0000000  0.6508444  3
  10709  10708  10711  10713     1  0.0000000  0.6508444  3
  10710  10708  10711  10720     1  0.0000000  0.6508444  3
  10710  10708  10711  10712     1  0.0000000  0.6508444  3
  10710  10708  10711  10713     1  0.0000000  0.6508444  3
  10712  10711  10720  10729     1  0.0000000  1.0460000  1
  10712  10711  10720  10729     1  0.0000000  0.0000000  3
  10712  10711  10720  10721     1  0.0000000  0.6508444  3
  10712  10711  10720  10722     1  0.0000000  0.6508444  3
  10713  10711  10720  10729     1  0.0000000  1.0460000  1
  10713  10711  10720  10729     1  0.0000000  0.0000000  3
  10713  10711  10720  10721     1  0.0000000  0.6508444  3
  10713  10711  10720  10722     1  0.0000000  0.6508444  3
  10715  10714  10726  19345     1  0.0000000  1.0460000  1
  10715  10714  10726  19345     1  0.0000000  0.0000000  3
  10715  10714  10726  10727     1  0.0000000  0.6508444  3
  10715  10714  10726  10728     1  0.0000000  0.6508444  3
  10716  10714  10726  19345     1  0.0000000  1.0460000  1
  10716  10714  10726  19345     1  0.0000000  0.0000000  3
  10716  10714  10726  10727     1  0.0000000  0.6508444  3
  10716  10714  10726  10728     1  0.0000000  0.6508444  3
  10718  10717  10723  19322     1  0.0000000  1.0460000  1
  10718  10717  10723  19322     1  0.0000000  0.0000000  3
  10718  10717  10723  10724     1  0.0000000  0.6508444  3
  10718  10717  10723  10725     1  0.0000000  0.6508444  3
  10719  10717  10723  19322     1  0.0000000  1.0460000  1
  10719  10717  10723  19322     1  0.0000000  0.0000000  3
  10719  10717  10723  10724     1  0.0000000  0.6508444  3
  10719  10717  10723  10725     1  0.0000000  0.6508444  3
  10723  19322  19318  19321     1  0.0000000  1.6038667  3
  10724  10723  19322  19318     1  0.0000000  1.6038667  3
  10725  10723  19322  19318     1  0.0000000  1.6038667  3
  10726  19345  19341  19344     1  0.0000000  1.6038667  3
  10727  10726  19345  19341     1  0.0000000  1.6038667  3
  10728  10726  19345  19341     1  0.0000000  1.6038667  3
  10730  10731  10743  10744     1  0.0000000  0.6508444  3
  10730  10731  10743  10745     1  0.0000000  0.6508444  3
  10730  10734  10746  10747     1  0.0000000  0.6508444  3
  10730  10734  10746  10748     1  0.0000000  0.6508444  3
  10730  10737  10740  10741     1  0.0000000  0.6508444  3
  10730  10737  10740  10742     1  0.0000000  0.6508444  3
  10731  10730  10734  10735     1  0.0000000  1.2552000  3
  10731  10730  10734  10736     1  0.0000000  1.2552000  3
  10731  10730  10737  10738     1  0.0000000  1.2552000  3
  10731  10730  10737  10739     1  0.0000000  1.2552000  3
  10731  10743  10755  10756     1  0.0000000  0.6508444  3
  10731  10743  10755  10757     1  0.0000000  0.6508444  3
  10732  10731  10730  10734     1  0.0000000  1.2552000  3
  10732  10731  10730  10737     1  0.0000000  1.2552000  3
  10732  10731  10743  10755     1  0.0000000  0.6508444  3
  10732  10731  10743  10744     1  0.0000000  0.6508444  3
  10732  10731  10743  10745     1  0.0000000  0.6508444  3
  10733  10731  10730  10734     1  0.0000000  1.2552000  3
  10733  10731  10730  10737     1  0.0000000  1.2552000  3
  10733  10731  10743  10755     1  0.0000000  0.6508444  3
  10733  10731  10743  10744     1  0.0000000  0.6508444  3
  10733  10731  10743  10745     1  0.0000000  0.6508444  3
  10734  10730  10737  10738     1  0.0000000  1.2552000  3
  10734  10730  10737  10739     1  0.0000000  1.2552000  3
  10734  10746  10752  10753     1  0.0000000  0.6508444  3
  10734  10746  10752  10754     1  0.0000000  0.6508444  3
  10735  10734  10730  10737     1  0.0000000  1.2552000  3
  10735  10734  10746  10752     1  0.0000000  0.6508444  3
  10735  10734  10746  10747     1  0.0000000  0.6508444  3
  10735  10734  10746  10748     1  0.0000000  0.6508444  3
  10736  10734  10730  10737     1  0.0000000  1.2552000  3
  10736  10734  10746  10752     1  0.0000000  0.6508444  3
  10736  10734  10746  10747     1  0.0000000  0.6508444  3
  10736  10734  10746  10748     1  0.0000000  0.6508444  3
  10737  10740  10749  10750     1  0.0000000  0.6508444  3
  10737  10740  10749  10751     1  0.0000000  0.6508444  3
  10738  10737  10740  10749     1  0.0000000  0.6508444  3
  10738  10737  10740  10741     1  0.0000000  0.6508444  3
  10738  10737  10740  10742     1  0.0000000  0.6508444  3
  10739  10737  10740  10749     1  0.0000000  0.6508444  3
  10739  10737  10740  10741     1  0.0000000  0.6508444  3
  10739  10737  10740  10742     1  0.0000000  0.6508444  3
  10741  10740  10749  10758     1  0.0000000  1.0460000  1
  10741  10740  10749  10758     1  0.0000000  0.0000000  3
  10741  10740  10749  10750     1  0.0000000  0.6508444  3
  10741  10740  10749  10751     1  0.0000000  0.6508444  3
  10742  10740  10749  10758     1  0.0000000  1.0460000  1
  10742  10740  10749  10758     1  0.0000000  0.0000000  3
  10742  10740  10749  10750     1  0.0000000  0.6508444  3
  10742  10740  10749  10751     1  0.0000000  0.6508444  3
  10744  10743  10755  19391     1  0.0000000  1.0460000  1
  10744  10743  10755  19391     1  0.0000000  0.0000000  3
  10744  10743  10755  10756     1  0.0000000  0.6508444  3
  10744  10743  10755  10757     1  0.0000000  0.6508444  3
  10745  10743  10755  19391     1  0.0000000  1.0460000  1
  10745  10743  10755  19391     1  0.0000000  0.0000000  3
  10745  10743  10755  10756     1  0.0000000  0.6508444  3
  10745  10743  10755  10757     1  0.0000000  0.6508444  3
  10747  10746  10752  19368     1  0.0000000  1.0460000  1
  10747  10746  10752  19368     1  0.0000000  0.0000000  3
  10747  10746  10752  10753     1  0.0000000  0.6508444  3
  10747  10746  10752  10754     1  0.0000000  0.6508444  3
  10748  10746  10752  19368     1  0.0000000  1.0460000  1
  10748  10746  10752  19368     1  0.0000000  0.0000000  3
  10748  10746  10752  10753     1  0.0000000  0.6508444  3
  10748  10746  10752  10754     1  0.0000000  0.6508444  3
  10752  19368  19364  19367     1  0.0000000  1.6038667  3
  10753  10752  19368  19364     1  0.0000000  1.6038667  3
  10754  10752  19368  19364     1  0.0000000  1.6038667  3
  10755  19391  19387  19390     1  0.0000000  1.6038667  3
  10756  10755  19391  19387     1  0.0000000  1.6038667  3
  10757  10755  19391  19387     1  0.0000000  1.6038667  3
  10759  10760  10772  10773     1  0.0000000  0.6508444  3
  10759  10760  10772  10774     1  0.0000000  0.6508444  3
  10759  10763  10775  10776     1  0.0000000  0.6508444  3
  10759  10763  10775  10777     1  0.0000000  0.6508444  3
  10759  10766  10769  10770     1  0.0000000  0.6508444  3
  10759  10766  10769  10771     1  0.0000000  0.6508444  3
  10760  10759  10763  10764     1  0.0000000  1.2552000  3
  10760  10759  10763  10765     1  0.0000000  1.2552000  3
  10760  10759  10766  10767     1  0.0000000  1.2552000  3
  10760  10759  10766  10768     1  0.0000000  1.2552000  3
  10760  10772  10784  10785     1  0.0000000  0.6508444  3
  10760  10772  10784  10786     1  0.0000000  0.6508444  3
  10761  10760  10759  10763     1  0.0000000  1.2552000  3
  10761  10760  10759  10766     1  0.0000000  1.2552000  3
  10761  10760  10772  10784     1  0.0000000  0.6508444  3
  10761  10760  10772  10773     1  0.0000000  0.6508444  3
  10761  10760  10772  10774     1  0.0000000  0.6508444  3
  10762  10760  10759  10763     1  0.0000000  1.2552000  3
  10762  10760  10759  10766     1  0.0000000  1.2552000  3
  10762  10760  10772  10784     1  0.0000000  0.6508444  3
  10762  10760  10772  10773     1  0.0000000  0.6508444  3
  10762  10760  10772  10774     1  0.0000000  0.6508444  3
  10763  10759  10766  10767     1  0.0000000  1.2552000  3
  10763  10759  10766  10768     1  0.0000000  1.2552000  3
  10763  10775  10781  10782     1  0.0000000  0.6508444  3
  10763  10775  10781  10783     1  0.0000000  0.6508444  3
  10764  10763  10759  10766     1  0.0000000  1.2552000  3
  10764  10763  10775  10781     1  0.0000000  0.6508444  3
  10764  10763  10775  10776     1  0.0000000  0.6508444  3
  10764  10763  10775  10777     1  0.0000000  0.6508444  3
  10765  10763  10759  10766     1  0.0000000  1.2552000  3
  10765  10763  10775  10781     1  0.0000000  0.6508444  3
  10765  10763  10775  10776     1  0.0000000  0.6508444  3
  10765  10763  10775  10777     1  0.0000000  0.6508444  3
  10766  10769  10778  10779     1  0.0000000  0.6508444  3
  10766  10769  10778  10780     1  0.0000000  0.6508444  3
  10767  10766  10769  10778     1  0.0000000  0.6508444  3
  10767  10766  10769  10770     1  0.0000000  0.6508444  3
  10767  10766  10769  10771     1  0.0000000  0.6508444  3
  10768  10766  10769  10778     1  0.0000000  0.6508444  3
  10768  10766  10769  10770     1  0.0000000  0.6508444  3
  10768  10766  10769  10771     1  0.0000000  0.6508444  3
  10770  10769  10778  10787     1  0.0000000  1.0460000  1
  10770  10769  10778  10787     1  0.0000000  0.0000000  3
  10770  10769  10778  10779     1  0.0000000  0.6508444  3
  10770  10769  10778  10780     1  0.0000000  0.6508444  3
  10771  10769  10778  10787     1  0.0000000  1.0460000  1
  10771  10769  10778  10787     1  0.0000000  0.0000000  3
  10771  10769  10778  10779     1  0.0000000  0.6508444  3
  10771  10769  10778  10780     1  0.0000000  0.6508444  3
  10773  10772  10784  19437     1  0.0000000  1.0460000  1
  10773  10772  10784  19437     1  0.0000000  0.0000000  3
  10773  10772  10784  10785     1  0.0000000  0.6508444  3
  10773  10772  10784  10786     1  0.0000000  0.6508444  3
  10774  10772  10784  19437     1  0.0000000  1.0460000  1
  10774  10772  10784  19437     1  0.0000000  0.0000000  3
  10774  10772  10784  10785     1  0.0000000  0.6508444  3
  10774  10772  10784  10786     1  0.0000000  0.6508444  3
  10776  10775  10781  19414     1  0.0000000  1.0460000  1
  10776  10775  10781  19414     1  0.0000000  0.0000000  3
  10776  10775  10781  10782     1  0.0000000  0.6508444  3
  10776  10775  10781  10783     1  0.0000000  0.6508444  3
  10777  10775  10781  19414     1  0.0000000  1.0460000  1
  10777  10775  10781  19414     1  0.0000000  0.0000000  3
  10777  10775  10781  10782     1  0.0000000  0.6508444  3
  10777  10775  10781  10783     1  0.0000000  0.6508444  3
  10781  19414  19410  19413     1  0.0000000  1.6038667  3
  10782  10781  19414  19410     1  0.0000000  1.6038667  3
  10783  10781  19414  19410     1  0.0000000  1.6038667  3
  10784  19437  19433  19436     1  0.0000000  1.6038667  3
  10785  10784  19437  19433     1  0.0000000  1.6038667  3
  10786  10784  19437  19433     1  0.0000000  1.6038667  3
  10788  10789  10801  10802     1  0.0000000  0.6508444  3
  10788  10789  10801  10803     1  0.0000000  0.6508444  3
  10788  10792  10804  10805     1  0.0000000  0.6508444  3
  10788  10792  10804  10806     1  0.0000000  0.6508444  3
  10788  10795  10798  10799     1  0.0000000  0.6508444  3
  10788  10795  10798  10800     1  0.0000000  0.6508444  3
  10789  10788  10792  10793     1  0.0000000  1.2552000  3
  10789  10788  10792  10794     1  0.0000000  1.2552000  3
  10789  10788  10795  10796     1  0.0000000  1.2552000  3
  10789  10788  10795  10797     1  0.0000000  1.2552000  3
  10789  10801  10813  10814     1  0.0000000  0.6508444  3
  10789  10801  10813  10815     1  0.0000000  0.6508444  3
  10790  10789  10788  10792     1  0.0000000  1.2552000  3
  10790  10789  10788  10795     1  0.0000000  1.2552000  3
  10790  10789  10801  10813     1  0.0000000  0.6508444  3
  10790  10789  10801  10802     1  0.0000000  0.6508444  3
  10790  10789  10801  10803     1  0.0000000  0.6508444  3
  10791  10789  10788  10792     1  0.0000000  1.2552000  3
  10791  10789  10788  10795     1  0.0000000  1.2552000  3
  10791  10789  10801  10813     1  0.0000000  0.6508444  3
  10791  10789  10801  10802     1  0.0000000  0.6508444  3
  10791  10789  10801  10803     1  0.0000000  0.6508444  3
  10792  10788  10795  10796     1  0.0000000  1.2552000  3
  10792  10788  10795  10797     1  0.0000000  1.2552000  3
  10792  10804  10810  10811     1  0.0000000  0.6508444  3
  10792  10804  10810  10812     1  0.0000000  0.6508444  3
  10793  10792  10788  10795     1  0.0000000  1.2552000  3
  10793  10792  10804  10810     1  0.0000000  0.6508444  3
  10793  10792  10804  10805     1  0.0000000  0.6508444  3
  10793  10792  10804  10806     1  0.0000000  0.6508444  3
  10794  10792  10788  10795     1  0.0000000  1.2552000  3
  10794  10792  10804  10810     1  0.0000000  0.6508444  3
  10794  10792  10804  10805     1  0.0000000  0.6508444  3
  10794  10792  10804  10806     1  0.0000000  0.6508444  3
  10795  10798  10807  10808     1  0.0000000  0.6508444  3
  10795  10798  10807  10809     1  0.0000000  0.6508444  3
  10796  10795  10798  10807     1  0.0000000  0.6508444  3
  10796  10795  10798  10799     1  0.0000000  0.6508444  3
  10796  10795  10798  10800     1  0.0000000  0.6508444  3
  10797  10795  10798  10807     1  0.0000000  0.6508444  3
  10797  10795  10798  10799     1  0.0000000  0.6508444  3
  10797  10795  10798  10800     1  0.0000000  0.6508444  3
  10799  10798  10807  10816     1  0.0000000  1.0460000  1
  10799  10798  10807  10816     1  0.0000000  0.0000000  3
  10799  10798  10807  10808     1  0.0000000  0.6508444  3
  10799  10798  10807  10809     1  0.0000000  0.6508444  3
  10800  10798  10807  10816     1  0.0000000  1.0460000  1
  10800  10798  10807  10816     1  0.0000000  0.0000000  3
  10800  10798  10807  10808     1  0.0000000  0.6508444  3
  10800  10798  10807  10809     1  0.0000000  0.6508444  3
  10802  10801  10813  19483     1  0.0000000  1.0460000  1
  10802  10801  10813  19483     1  0.0000000  0.0000000  3
  10802  10801  10813  10814     1  0.0000000  0.6508444  3
  10802  10801  10813  10815     1  0.0000000  0.6508444  3
  10803  10801  10813  19483     1  0.0000000  1.0460000  1
  10803  10801  10813  19483     1  0.0000000  0.0000000  3
  10803  10801  10813  10814     1  0.0000000  0.6508444  3
  10803  10801  10813  10815     1  0.0000000  0.6508444  3
  10805  10804  10810  19460     1  0.0000000  1.0460000  1
  10805  10804  10810  19460     1  0.0000000  0.0000000  3
  10805  10804  10810  10811     1  0.0000000  0.6508444  3
  10805  10804  10810  10812     1  0.0000000  0.6508444  3
  10806  10804  10810  19460     1  0.0000000  1.0460000  1
  10806  10804  10810  19460     1  0.0000000  0.0000000  3
  10806  10804  10810  10811     1  0.0000000  0.6508444  3
  10806  10804  10810  10812     1  0.0000000  0.6508444  3
  10810  19460  19456  19459     1  0.0000000  1.6038667  3
  10811  10810  19460  19456     1  0.0000000  1.6038667  3
  10812  10810  19460  19456     1  0.0000000  1.6038667  3
  10813  19483  19479  19482     1  0.0000000  1.6038667  3
  10814  10813  19483  19479     1  0.0000000  1.6038667  3
  10815  10813  19483  19479     1  0.0000000  1.6038667  3
  10817  10818  10830  10831     1  0.0000000  0.6508444  3
  10817  10818  10830  10832     1  0.0000000  0.6508444  3
  10817  10821  10833  10834     1  0.0000000  0.6508444  3
  10817  10821  10833  10835     1  0.0000000  0.6508444  3
  10817  10824  10827  10828     1  0.0000000  0.6508444  3
  10817  10824  10827  10829     1  0.0000000  0.6508444  3
  10818  10817  10821  10822     1  0.0000000  1.2552000  3
  10818  10817  10821  10823     1  0.0000000  1.2552000  3
  10818  10817  10824  10825     1  0.0000000  1.2552000  3
  10818  10817  10824  10826     1  0.0000000  1.2552000  3
  10818  10830  10842  10843     1  0.0000000  0.6508444  3
  10818  10830  10842  10844     1  0.0000000  0.6508444  3
  10819  10818  10817  10821     1  0.0000000  1.2552000  3
  10819  10818  10817  10824     1  0.0000000  1.2552000  3
  10819  10818  10830  10842     1  0.0000000  0.6508444  3
  10819  10818  10830  10831     1  0.0000000  0.6508444  3
  10819  10818  10830  10832     1  0.0000000  0.6508444  3
  10820  10818  10817  10821     1  0.0000000  1.2552000  3
  10820  10818  10817  10824     1  0.0000000  1.2552000  3
  10820  10818  10830  10842     1  0.0000000  0.6508444  3
  10820  10818  10830  10831     1  0.0000000  0.6508444  3
  10820  10818  10830  10832     1  0.0000000  0.6508444  3
  10821  10817  10824  10825     1  0.0000000  1.2552000  3
  10821  10817  10824  10826     1  0.0000000  1.2552000  3
  10821  10833  10839  10840     1  0.0000000  0.6508444  3
  10821  10833  10839  10841     1  0.0000000  0.6508444  3
  10822  10821  10817  10824     1  0.0000000  1.2552000  3
  10822  10821  10833  10839     1  0.0000000  0.6508444  3
  10822  10821  10833  10834     1  0.0000000  0.6508444  3
  10822  10821  10833  10835     1  0.0000000  0.6508444  3
  10823  10821  10817  10824     1  0.0000000  1.2552000  3
  10823  10821  10833  10839     1  0.0000000  0.6508444  3
  10823  10821  10833  10834     1  0.0000000  0.6508444  3
  10823  10821  10833  10835     1  0.0000000  0.6508444  3
  10824  10827  10836  10837     1  0.0000000  0.6508444  3
  10824  10827  10836  10838     1  0.0000000  0.6508444  3
  10825  10824  10827  10836     1  0.0000000  0.6508444  3
  10825  10824  10827  10828     1  0.0000000  0.6508444  3
  10825  10824  10827  10829     1  0.0000000  0.6508444  3
  10826  10824  10827  10836     1  0.0000000  0.6508444  3
  10826  10824  10827  10828     1  0.0000000  0.6508444  3
  10826  10824  10827  10829     1  0.0000000  0.6508444  3
  10828  10827  10836  10845     1  0.0000000  1.0460000  1
  10828  10827  10836  10845     1  0.0000000  0.0000000  3
  10828  10827  10836  10837     1  0.0000000  0.6508444  3
  10828  10827  10836  10838     1  0.0000000  0.6508444  3
  10829  10827  10836  10845     1  0.0000000  1.0460000  1
  10829  10827  10836  10845     1  0.0000000  0.0000000  3
  10829  10827  10836  10837     1  0.0000000  0.6508444  3
  10829  10827  10836  10838     1  0.0000000  0.6508444  3
  10831  10830  10842  19529     1  0.0000000  1.0460000  1
  10831  10830  10842  19529     1  0.0000000  0.0000000  3
  10831  10830  10842  10843     1  0.0000000  0.6508444  3
  10831  10830  10842  10844     1  0.0000000  0.6508444  3
  10832  10830  10842  19529     1  0.0000000  1.0460000  1
  10832  10830  10842  19529     1  0.0000000  0.0000000  3
  10832  10830  10842  10843     1  0.0000000  0.6508444  3
  10832  10830  10842  10844     1  0.0000000  0.6508444  3
  10834  10833  10839  19506     1  0.0000000  1.0460000  1
  10834  10833  10839  19506     1  0.0000000  0.0000000  3
  10834  10833  10839  10840     1  0.0000000  0.6508444  3
  10834  10833  10839  10841     1  0.0000000  0.6508444  3
  10835  10833  10839  19506     1  0.0000000  1.0460000  1
  10835  10833  10839  19506     1  0.0000000  0.0000000  3
  10835  10833  10839  10840     1  0.0000000  0.6508444  3
  10835  10833  10839  10841     1  0.0000000  0.6508444  3
  10839  19506  19502  19505     1  0.0000000  1.6038667  3
  10840  10839  19506  19502     1  0.0000000  1.6038667  3
  10841  10839  19506  19502     1  0.0000000  1.6038667  3
  10842  19529  19525  19528     1  0.0000000  1.6038667  3
  10843  10842  19529  19525     1  0.0000000  1.6038667  3
  10844  10842  19529  19525     1  0.0000000  1.6038667  3
  10846  10847  10859  10860     1  0.0000000  0.6508444  3
  10846  10847  10859  10861     1  0.0000000  0.6508444  3
  10846  10850  10862  10863     1  0.0000000  0.6508444  3
  10846  10850  10862  10864     1  0.0000000  0.6508444  3
  10846  10853  10856  10857     1  0.0000000  0.6508444  3
  10846  10853  10856  10858     1  0.0000000  0.6508444  3
  10847  10846  10850  10851     1  0.0000000  1.2552000  3
  10847  10846  10850  10852     1  0.0000000  1.2552000  3
  10847  10846  10853  10854     1  0.0000000  1.2552000  3
  10847  10846  10853  10855     1  0.0000000  1.2552000  3
  10847  10859  10871  10872     1  0.0000000  0.6508444  3
  10847  10859  10871  10873     1  0.0000000  0.6508444  3
  10848  10847  10846  10850     1  0.0000000  1.2552000  3
  10848  10847  10846  10853     1  0.0000000  1.2552000  3
  10848  10847  10859  10871     1  0.0000000  0.6508444  3
  10848  10847  10859  10860     1  0.0000000  0.6508444  3
  10848  10847  10859  10861     1  0.0000000  0.6508444  3
  10849  10847  10846  10850     1  0.0000000  1.2552000  3
  10849  10847  10846  10853     1  0.0000000  1.2552000  3
  10849  10847  10859  10871     1  0.0000000  0.6508444  3
  10849  10847  10859  10860     1  0.0000000  0.6508444  3
  10849  10847  10859  10861     1  0.0000000  0.6508444  3
  10850  10846  10853  10854     1  0.0000000  1.2552000  3
  10850  10846  10853  10855     1  0.0000000  1.2552000  3
  10850  10862  10868  10869     1  0.0000000  0.6508444  3
  10850  10862  10868  10870     1  0.0000000  0.6508444  3
  10851  10850  10846  10853     1  0.0000000  1.2552000  3
  10851  10850  10862  10868     1  0.0000000  0.6508444  3
  10851  10850  10862  10863     1  0.0000000  0.6508444  3
  10851  10850  10862  10864     1  0.0000000  0.6508444  3
  10852  10850  10846  10853     1  0.0000000  1.2552000  3
  10852  10850  10862  10868     1  0.0000000  0.6508444  3
  10852  10850  10862  10863     1  0.0000000  0.6508444  3
  10852  10850  10862  10864     1  0.0000000  0.6508444  3
  10853  10856  10865  10866     1  0.0000000  0.6508444  3
  10853  10856  10865  10867     1  0.0000000  0.6508444  3
  10854  10853  10856  10865     1  0.0000000  0.6508444  3
  10854  10853  10856  10857     1  0.0000000  0.6508444  3
  10854  10853  10856  10858     1  0.0000000  0.6508444  3
  10855  10853  10856  10865     1  0.0000000  0.6508444  3
  10855  10853  10856  10857     1  0.0000000  0.6508444  3
  10855  10853  10856  10858     1  0.0000000  0.6508444  3
  10857  10856  10865  10874     1  0.0000000  1.0460000  1
  10857  10856  10865  10874     1  0.0000000  0.0000000  3
  10857  10856  10865  10866     1  0.0000000  0.6508444  3
  10857  10856  10865  10867     1  0.0000000  0.6508444  3
  10858  10856  10865  10874     1  0.0000000  1.0460000  1
  10858  10856  10865  10874     1  0.0000000  0.0000000  3
  10858  10856  10865  10866     1  0.0000000  0.6508444  3
  10858  10856  10865  10867     1  0.0000000  0.6508444  3
  10860  10859  10871  19575     1  0.0000000  1.0460000  1
  10860  10859  10871  19575     1  0.0000000  0.0000000  3
  10860  10859  10871  10872     1  0.0000000  0.6508444  3
  10860  10859  10871  10873     1  0.0000000  0.6508444  3
  10861  10859  10871  19575     1  0.0000000  1.0460000  1
  10861  10859  10871  19575     1  0.0000000  0.0000000  3
  10861  10859  10871  10872     1  0.0000000  0.6508444  3
  10861  10859  10871  10873     1  0.0000000  0.6508444  3
  10863  10862  10868  19552     1  0.0000000  1.0460000  1
  10863  10862  10868  19552     1  0.0000000  0.0000000  3
  10863  10862  10868  10869     1  0.0000000  0.6508444  3
  10863  10862  10868  10870     1  0.0000000  0.6508444  3
  10864  10862  10868  19552     1  0.0000000  1.0460000  1
  10864  10862  10868  19552     1  0.0000000  0.0000000  3
  10864  10862  10868  10869     1  0.0000000  0.6508444  3
  10864  10862  10868  10870     1  0.0000000  0.6508444  3
  10868  19552  19548  19551     1  0.0000000  1.6038667  3
  10869  10868  19552  19548     1  0.0000000  1.6038667  3
  10870  10868  19552  19548     1  0.0000000  1.6038667  3
  10871  19575  19571  19574     1  0.0000000  1.6038667  3
  10872  10871  19575  19571     1  0.0000000  1.6038667  3
  10873  10871  19575  19571     1  0.0000000  1.6038667  3
  10875  10876  10888  10889     1  0.0000000  0.6508444  3
  10875  10876  10888  10890     1  0.0000000  0.6508444  3
  10875  10879  10891  10892     1  0.0000000  0.6508444  3
  10875  10879  10891  10893     1  0.0000000  0.6508444  3
  10875  10882  10885  10886     1  0.0000000  0.6508444  3
  10875  10882  10885  10887     1  0.0000000  0.6508444  3
  10876  10875  10879  10880     1  0.0000000  1.2552000  3
  10876  10875  10879  10881     1  0.0000000  1.2552000  3
  10876  10875  10882  10883     1  0.0000000  1.2552000  3
  10876  10875  10882  10884     1  0.0000000  1.2552000  3
  10876  10888  10900  10901     1  0.0000000  0.6508444  3
  10876  10888  10900  10902     1  0.0000000  0.6508444  3
  10877  10876  10875  10879     1  0.0000000  1.2552000  3
  10877  10876  10875  10882     1  0.0000000  1.2552000  3
  10877  10876  10888  10900     1  0.0000000  0.6508444  3
  10877  10876  10888  10889     1  0.0000000  0.6508444  3
  10877  10876  10888  10890     1  0.0000000  0.6508444  3
  10878  10876  10875  10879     1  0.0000000  1.2552000  3
  10878  10876  10875  10882     1  0.0000000  1.2552000  3
  10878  10876  10888  10900     1  0.0000000  0.6508444  3
  10878  10876  10888  10889     1  0.0000000  0.6508444  3
  10878  10876  10888  10890     1  0.0000000  0.6508444  3
  10879  10875  10882  10883     1  0.0000000  1.2552000  3
  10879  10875  10882  10884     1  0.0000000  1.2552000  3
  10879  10891  10897  10898     1  0.0000000  0.6508444  3
  10879  10891  10897  10899     1  0.0000000  0.6508444  3
  10880  10879  10875  10882     1  0.0000000  1.2552000  3
  10880  10879  10891  10897     1  0.0000000  0.6508444  3
  10880  10879  10891  10892     1  0.0000000  0.6508444  3
  10880  10879  10891  10893     1  0.0000000  0.6508444  3
  10881  10879  10875  10882     1  0.0000000  1.2552000  3
  10881  10879  10891  10897     1  0.0000000  0.6508444  3
  10881  10879  10891  10892     1  0.0000000  0.6508444  3
  10881  10879  10891  10893     1  0.0000000  0.6508444  3
  10882  10885  10894  10895     1  0.0000000  0.6508444  3
  10882  10885  10894  10896     1  0.0000000  0.6508444  3
  10883  10882  10885  10894     1  0.0000000  0.6508444  3
  10883  10882  10885  10886     1  0.0000000  0.6508444  3
  10883  10882  10885  10887     1  0.0000000  0.6508444  3
  10884  10882  10885  10894     1  0.0000000  0.6508444  3
  10884  10882  10885  10886     1  0.0000000  0.6508444  3
  10884  10882  10885  10887     1  0.0000000  0.6508444  3
  10886  10885  10894  10903     1  0.0000000  1.0460000  1
  10886  10885  10894  10903     1  0.0000000  0.0000000  3
  10886  10885  10894  10895     1  0.0000000  0.6508444  3
  10886  10885  10894  10896     1  0.0000000  0.6508444  3
  10887  10885  10894  10903     1  0.0000000  1.0460000  1
  10887  10885  10894  10903     1  0.0000000  0.0000000  3
  10887  10885  10894  10895     1  0.0000000  0.6508444  3
  10887  10885  10894  10896     1  0.0000000  0.6508444  3
  10889  10888  10900  19621     1  0.0000000  1.0460000  1
  10889  10888  10900  19621     1  0.0000000  0.0000000  3
  10889  10888  10900  10901     1  0.0000000  0.6508444  3
  10889  10888  10900  10902     1  0.0000000  0.6508444  3
  10890  10888  10900  19621     1  0.0000000  1.0460000  1
  10890  10888  10900  19621     1  0.0000000  0.0000000  3
  10890  10888  10900  10901     1  0.0000000  0.6508444  3
  10890  10888  10900  10902     1  0.0000000  0.6508444  3
  10892  10891  10897  19598     1  0.0000000  1.0460000  1
  10892  10891  10897  19598     1  0.0000000  0.0000000  3
  10892  10891  10897  10898     1  0.0000000  0.6508444  3
  10892  10891  10897  10899     1  0.0000000  0.6508444  3
  10893  10891  10897  19598     1  0.0000000  1.0460000  1
  10893  10891  10897  19598     1  0.0000000  0.0000000  3
  10893  10891  10897  10898     1  0.0000000  0.6508444  3
  10893  10891  10897  10899     1  0.0000000  0.6508444  3
  10897  19598  19594  19597     1  0.0000000  1.6038667  3
  10898  10897  19598  19594     1  0.0000000  1.6038667  3
  10899  10897  19598  19594     1  0.0000000  1.6038667  3
  10900  19621  19617  19620     1  0.0000000  1.6038667  3
  10901  10900  19621  19617     1  0.0000000  1.6038667  3
  10902  10900  19621  19617     1  0.0000000  1.6038667  3
  10904  10905  10917  10918     1  0.0000000  0.6508444  3
  10904  10905  10917  10919     1  0.0000000  0.6508444  3
  10904  10908  10920  10921     1  0.0000000  0.6508444  3
  10904  10908  10920  10922     1  0.0000000  0.6508444  3
  10904  10911  10914  10915     1  0.0000000  0.6508444  3
  10904  10911  10914  10916     1  0.0000000  0.6508444  3
  10905  10904  10908  10909     1  0.0000000  1.2552000  3
  10905  10904  10908  10910     1  0.0000000  1.2552000  3
  10905  10904  10911  10912     1  0.0000000  1.2552000  3
  10905  10904  10911  10913     1  0.0000000  1.2552000  3
  10905  10917  10929  10930     1  0.0000000  0.6508444  3
  10905  10917  10929  10931     1  0.0000000  0.6508444  3
  10906  10905  10904  10908     1  0.0000000  1.2552000  3
  10906  10905  10904  10911     1  0.0000000  1.2552000  3
  10906  10905  10917  10929     1  0.0000000  0.6508444  3
  10906  10905  10917  10918     1  0.0000000  0.6508444  3
  10906  10905  10917  10919     1  0.0000000  0.6508444  3
  10907  10905  10904  10908     1  0.0000000  1.2552000  3
  10907  10905  10904  10911     1  0.0000000  1.2552000  3
  10907  10905  10917  10929     1  0.0000000  0.6508444  3
  10907  10905  10917  10918     1  0.0000000  0.6508444  3
  10907  10905  10917  10919     1  0.0000000  0.6508444  3
  10908  10904  10911  10912     1  0.0000000  1.2552000  3
  10908  10904  10911  10913     1  0.0000000  1.2552000  3
  10908  10920  10926  10927     1  0.0000000  0.6508444  3
  10908  10920  10926  10928     1  0.0000000  0.6508444  3
  10909  10908  10904  10911     1  0.0000000  1.2552000  3
  10909  10908  10920  10926     1  0.0000000  0.6508444  3
  10909  10908  10920  10921     1  0.0000000  0.6508444  3
  10909  10908  10920  10922     1  0.0000000  0.6508444  3
  10910  10908  10904  10911     1  0.0000000  1.2552000  3
  10910  10908  10920  10926     1  0.0000000  0.6508444  3
  10910  10908  10920  10921     1  0.0000000  0.6508444  3
  10910  10908  10920  10922     1  0.0000000  0.6508444  3
  10911  10914  10923  10924     1  0.0000000  0.6508444  3
  10911  10914  10923  10925     1  0.0000000  0.6508444  3
  10912  10911  10914  10923     1  0.0000000  0.6508444  3
  10912  10911  10914  10915     1  0.0000000  0.6508444  3
  10912  10911  10914  10916     1  0.0000000  0.6508444  3
  10913  10911  10914  10923     1  0.0000000  0.6508444  3
  10913  10911  10914  10915     1  0.0000000  0.6508444  3
  10913  10911  10914  10916     1  0.0000000  0.6508444  3
  10915  10914  10923  10932     1  0.0000000  1.0460000  1
  10915  10914  10923  10932     1  0.0000000  0.0000000  3
  10915  10914  10923  10924     1  0.0000000  0.6508444  3
  10915  10914  10923  10925     1  0.0000000  0.6508444  3
  10916  10914  10923  10932     1  0.0000000  1.0460000  1
  10916  10914  10923  10932     1  0.0000000  0.0000000  3
  10916  10914  10923  10924     1  0.0000000  0.6508444  3
  10916  10914  10923  10925     1  0.0000000  0.6508444  3
  10918  10917  10929  19667     1  0.0000000  1.0460000  1
  10918  10917  10929  19667     1  0.0000000  0.0000000  3
  10918  10917  10929  10930     1  0.0000000  0.6508444  3
  10918  10917  10929  10931     1  0.0000000  0.6508444  3
  10919  10917  10929  19667     1  0.0000000  1.0460000  1
  10919  10917  10929  19667     1  0.0000000  0.0000000  3
  10919  10917  10929  10930     1  0.0000000  0.6508444  3
  10919  10917  10929  10931     1  0.0000000  0.6508444  3
  10921  10920  10926  19644     1  0.0000000  1.0460000  1
  10921  10920  10926  19644     1  0.0000000  0.0000000  3
  10921  10920  10926  10927     1  0.0000000  0.6508444  3
  10921  10920  10926  10928     1  0.0000000  0.6508444  3
  10922  10920  10926  19644     1  0.0000000  1.0460000  1
  10922  10920  10926  19644     1  0.0000000  0.0000000  3
  10922  10920  10926  10927     1  0.0000000  0.6508444  3
  10922  10920  10926  10928     1  0.0000000  0.6508444  3
  10926  19644  19640  19643     1  0.0000000  1.6038667  3
  10927  10926  19644  19640     1  0.0000000  1.6038667  3
  10928  10926  19644  19640     1  0.0000000  1.6038667  3
  10929  19667  19663  19666     1  0.0000000  1.6038667  3
  10930  10929  19667  19663     1  0.0000000  1.6038667  3
  10931  10929  19667  19663     1  0.0000000  1.6038667  3
  10933  10934  10946  10947     1  0.0000000  0.6508444  3
  10933  10934  10946  10948     1  0.0000000  0.6508444  3
  10933  10937  10949  10950     1  0.0000000  0.6508444  3
  10933  10937  10949  10951     1  0.0000000  0.6508444  3
  10933  10940  10943  10944     1  0.0000000  0.6508444  3
  10933  10940  10943  10945     1  0.0000000  0.6508444  3
  10934  10933  10937  10938     1  0.0000000  1.2552000  3
  10934  10933  10937  10939     1  0.0000000  1.2552000  3
  10934  10933  10940  10941     1  0.0000000  1.2552000  3
  10934  10933  10940  10942     1  0.0000000  1.2552000  3
  10934  10946  10958  10959     1  0.0000000  0.6508444  3
  10934  10946  10958  10960     1  0.0000000  0.6508444  3
  10935  10934  10933  10937     1  0.0000000  1.2552000  3
  10935  10934  10933  10940     1  0.0000000  1.2552000  3
  10935  10934  10946  10958     1  0.0000000  0.6508444  3
  10935  10934  10946  10947     1  0.0000000  0.6508444  3
  10935  10934  10946  10948     1  0.0000000  0.6508444  3
  10936  10934  10933  10937     1  0.0000000  1.2552000  3
  10936  10934  10933  10940     1  0.0000000  1.2552000  3
  10936  10934  10946  10958     1  0.0000000  0.6508444  3
  10936  10934  10946  10947     1  0.0000000  0.6508444  3
  10936  10934  10946  10948     1  0.0000000  0.6508444  3
  10937  10933  10940  10941     1  0.0000000  1.2552000  3
  10937  10933  10940  10942     1  0.0000000  1.2552000  3
  10937  10949  10955  10956     1  0.0000000  0.6508444  3
  10937  10949  10955  10957     1  0.0000000  0.6508444  3
  10938  10937  10933  10940     1  0.0000000  1.2552000  3
  10938  10937  10949  10955     1  0.0000000  0.6508444  3
  10938  10937  10949  10950     1  0.0000000  0.6508444  3
  10938  10937  10949  10951     1  0.0000000  0.6508444  3
  10939  10937  10933  10940     1  0.0000000  1.2552000  3
  10939  10937  10949  10955     1  0.0000000  0.6508444  3
  10939  10937  10949  10950     1  0.0000000  0.6508444  3
  10939  10937  10949  10951     1  0.0000000  0.6508444  3
  10940  10943  10952  10953     1  0.0000000  0.6508444  3
  10940  10943  10952  10954     1  0.0000000  0.6508444  3
  10941  10940  10943  10952     1  0.0000000  0.6508444  3
  10941  10940  10943  10944     1  0.0000000  0.6508444  3
  10941  10940  10943  10945     1  0.0000000  0.6508444  3
  10942  10940  10943  10952     1  0.0000000  0.6508444  3
  10942  10940  10943  10944     1  0.0000000  0.6508444  3
  10942  10940  10943  10945     1  0.0000000  0.6508444  3
  10944  10943  10952  10961     1  0.0000000  1.0460000  1
  10944  10943  10952  10961     1  0.0000000  0.0000000  3
  10944  10943  10952  10953     1  0.0000000  0.6508444  3
  10944  10943  10952  10954     1  0.0000000  0.6508444  3
  10945  10943  10952  10961     1  0.0000000  1.0460000  1
  10945  10943  10952  10961     1  0.0000000  0.0000000  3
  10945  10943  10952  10953     1  0.0000000  0.6508444  3
  10945  10943  10952  10954     1  0.0000000  0.6508444  3
  10947  10946  10958  19713     1  0.0000000  1.0460000  1
  10947  10946  10958  19713     1  0.0000000  0.0000000  3
  10947  10946  10958  10959     1  0.0000000  0.6508444  3
  10947  10946  10958  10960     1  0.0000000  0.6508444  3
  10948  10946  10958  19713     1  0.0000000  1.0460000  1
  10948  10946  10958  19713     1  0.0000000  0.0000000  3
  10948  10946  10958  10959     1  0.0000000  0.6508444  3
  10948  10946  10958  10960     1  0.0000000  0.6508444  3
  10950  10949  10955  19690     1  0.0000000  1.0460000  1
  10950  10949  10955  19690     1  0.0000000  0.0000000  3
  10950  10949  10955  10956     1  0.0000000  0.6508444  3
  10950  10949  10955  10957     1  0.0000000  0.6508444  3
  10951  10949  10955  19690     1  0.0000000  1.0460000  1
  10951  10949  10955  19690     1  0.0000000  0.0000000  3
  10951  10949  10955  10956     1  0.0000000  0.6508444  3
  10951  10949  10955  10957     1  0.0000000  0.6508444  3
  10955  19690  19686  19689     1  0.0000000  1.6038667  3
  10956  10955  19690  19686     1  0.0000000  1.6038667  3
  10957  10955  19690  19686     1  0.0000000  1.6038667  3
  10958  19713  19709  19712     1  0.0000000  1.6038667  3
  10959  10958  19713  19709     1  0.0000000  1.6038667  3
  10960  10958  19713  19709     1  0.0000000  1.6038667  3
  10962  10963  10975  10976     1  0.0000000  0.6508444  3
  10962  10963  10975  10977     1  0.0000000  0.6508444  3
  10962  10966  10978  10979     1  0.0000000  0.6508444  3
  10962  10966  10978  10980     1  0.0000000  0.6508444  3
  10962  10969  10972  10973     1  0.0000000  0.6508444  3
  10962  10969  10972  10974     1  0.0000000  0.6508444  3
  10963  10962  10966  10967     1  0.0000000  1.2552000  3
  10963  10962  10966  10968     1  0.0000000  1.2552000  3
  10963  10962  10969  10970     1  0.0000000  1.2552000  3
  10963  10962  10969  10971     1  0.0000000  1.2552000  3
  10963  10975  10987  10988     1  0.0000000  0.6508444  3
  10963  10975  10987  10989     1  0.0000000  0.6508444  3
  10964  10963  10962  10966     1  0.0000000  1.2552000  3
  10964  10963  10962  10969     1  0.0000000  1.2552000  3
  10964  10963  10975  10987     1  0.0000000  0.6508444  3
  10964  10963  10975  10976     1  0.0000000  0.6508444  3
  10964  10963  10975  10977     1  0.0000000  0.6508444  3
  10965  10963  10962  10966     1  0.0000000  1.2552000  3
  10965  10963  10962  10969     1  0.0000000  1.2552000  3
  10965  10963  10975  10987     1  0.0000000  0.6508444  3
  10965  10963  10975  10976     1  0.0000000  0.6508444  3
  10965  10963  10975  10977     1  0.0000000  0.6508444  3
  10966  10962  10969  10970     1  0.0000000  1.2552000  3
  10966  10962  10969  10971     1  0.0000000  1.2552000  3
  10966  10978  10984  10985     1  0.0000000  0.6508444  3
  10966  10978  10984  10986     1  0.0000000  0.6508444  3
  10967  10966  10962  10969     1  0.0000000  1.2552000  3
  10967  10966  10978  10984     1  0.0000000  0.6508444  3
  10967  10966  10978  10979     1  0.0000000  0.6508444  3
  10967  10966  10978  10980     1  0.0000000  0.6508444  3
  10968  10966  10962  10969     1  0.0000000  1.2552000  3
  10968  10966  10978  10984     1  0.0000000  0.6508444  3
  10968  10966  10978  10979     1  0.0000000  0.6508444  3
  10968  10966  10978  10980     1  0.0000000  0.6508444  3
  10969  10972  10981  10982     1  0.0000000  0.6508444  3
  10969  10972  10981  10983     1  0.0000000  0.6508444  3
  10970  10969  10972  10981     1  0.0000000  0.6508444  3
  10970  10969  10972  10973     1  0.0000000  0.6508444  3
  10970  10969  10972  10974     1  0.0000000  0.6508444  3
  10971  10969  10972  10981     1  0.0000000  0.6508444  3
  10971  10969  10972  10973     1  0.0000000  0.6508444  3
  10971  10969  10972  10974     1  0.0000000  0.6508444  3
  10973  10972  10981  10990     1  0.0000000  1.0460000  1
  10973  10972  10981  10990     1  0.0000000  0.0000000  3
  10973  10972  10981  10982     1  0.0000000  0.6508444  3
  10973  10972  10981  10983     1  0.0000000  0.6508444  3
  10974  10972  10981  10990     1  0.0000000  1.0460000  1
  10974  10972  10981  10990     1  0.0000000  0.0000000  3
  10974  10972  10981  10982     1  0.0000000  0.6508444  3
  10974  10972  10981  10983     1  0.0000000  0.6508444  3
  10976  10975  10987  19759     1  0.0000000  1.0460000  1
  10976  10975  10987  19759     1  0.0000000  0.0000000  3
  10976  10975  10987  10988     1  0.0000000  0.6508444  3
  10976  10975  10987  10989     1  0.0000000  0.6508444  3
  10977  10975  10987  19759     1  0.0000000  1.0460000  1
  10977  10975  10987  19759     1  0.0000000  0.0000000  3
  10977  10975  10987  10988     1  0.0000000  0.6508444  3
  10977  10975  10987  10989     1  0.0000000  0.6508444  3
  10979  10978  10984  19736     1  0.0000000  1.0460000  1
  10979  10978  10984  19736     1  0.0000000  0.0000000  3
  10979  10978  10984  10985     1  0.0000000  0.6508444  3
  10979  10978  10984  10986     1  0.0000000  0.6508444  3
  10980  10978  10984  19736     1  0.0000000  1.0460000  1
  10980  10978  10984  19736     1  0.0000000  0.0000000  3
  10980  10978  10984  10985     1  0.0000000  0.6508444  3
  10980  10978  10984  10986     1  0.0000000  0.6508444  3
  10984  19736  19732  19735     1  0.0000000  1.6038667  3
  10985  10984  19736  19732     1  0.0000000  1.6038667  3
  10986  10984  19736  19732     1  0.0000000  1.6038667  3
  10987  19759  19755  19758     1  0.0000000  1.6038667  3
  10988  10987  19759  19755     1  0.0000000  1.6038667  3
  10989  10987  19759  19755     1  0.0000000  1.6038667  3
  10991  10992  11004  11005     1  0.0000000  0.6508444  3
  10991  10992  11004  11006     1  0.0000000  0.6508444  3
  10991  10995  11007  11008     1  0.0000000  0.6508444  3
  10991  10995  11007  11009     1  0.0000000  0.6508444  3
  10991  10998  11001  11002     1  0.0000000  0.6508444  3
  10991  10998  11001  11003     1  0.0000000  0.6508444  3
  10992  10991  10995  10996     1  0.0000000  1.2552000  3
  10992  10991  10995  10997     1  0.0000000  1.2552000  3
  10992  10991  10998  10999     1  0.0000000  1.2552000  3
  10992  10991  10998  11000     1  0.0000000  1.2552000  3
  10992  11004  11016  11017     1  0.0000000  0.6508444  3
  10992  11004  11016  11018     1  0.0000000  0.6508444  3
  10993  10992  10991  10995     1  0.0000000  1.2552000  3
  10993  10992  10991  10998     1  0.0000000  1.2552000  3
  10993  10992  11004  11016     1  0.0000000  0.6508444  3
  10993  10992  11004  11005     1  0.0000000  0.6508444  3
  10993  10992  11004  11006     1  0.0000000  0.6508444  3
  10994  10992  10991  10995     1  0.0000000  1.2552000  3
  10994  10992  10991  10998     1  0.0000000  1.2552000  3
  10994  10992  11004  11016     1  0.0000000  0.6508444  3
  10994  10992  11004  11005     1  0.0000000  0.6508444  3
  10994  10992  11004  11006     1  0.0000000  0.6508444  3
  10995  10991  10998  10999     1  0.0000000  1.2552000  3
  10995  10991  10998  11000     1  0.0000000  1.2552000  3
  10995  11007  11013  11014     1  0.0000000  0.6508444  3
  10995  11007  11013  11015     1  0.0000000  0.6508444  3
  10996  10995  10991  10998     1  0.0000000  1.2552000  3
  10996  10995  11007  11013     1  0.0000000  0.6508444  3
  10996  10995  11007  11008     1  0.0000000  0.6508444  3
  10996  10995  11007  11009     1  0.0000000  0.6508444  3
  10997  10995  10991  10998     1  0.0000000  1.2552000  3
  10997  10995  11007  11013     1  0.0000000  0.6508444  3
  10997  10995  11007  11008     1  0.0000000  0.6508444  3
  10997  10995  11007  11009     1  0.0000000  0.6508444  3
  10998  11001  11010  11011     1  0.0000000  0.6508444  3
  10998  11001  11010  11012     1  0.0000000  0.6508444  3
  10999  10998  11001  11010     1  0.0000000  0.6508444  3
  10999  10998  11001  11002     1  0.0000000  0.6508444  3
  10999  10998  11001  11003     1  0.0000000  0.6508444  3
  11000  10998  11001  11010     1  0.0000000  0.6508444  3
  11000  10998  11001  11002     1  0.0000000  0.6508444  3
  11000  10998  11001  11003     1  0.0000000  0.6508444  3
  11002  11001  11010  11019     1  0.0000000  1.0460000  1
  11002  11001  11010  11019     1  0.0000000  0.0000000  3
  11002  11001  11010  11011     1  0.0000000  0.6508444  3
  11002  11001  11010  11012     1  0.0000000  0.6508444  3
  11003  11001  11010  11019     1  0.0000000  1.0460000  1
  11003  11001  11010  11019     1  0.0000000  0.0000000  3
  11003  11001  11010  11011     1  0.0000000  0.6508444  3
  11003  11001  11010  11012     1  0.0000000  0.6508444  3
  11005  11004  11016  19805     1  0.0000000  1.0460000  1
  11005  11004  11016  19805     1  0.0000000  0.0000000  3
  11005  11004  11016  11017     1  0.0000000  0.6508444  3
  11005  11004  11016  11018     1  0.0000000  0.6508444  3
  11006  11004  11016  19805     1  0.0000000  1.0460000  1
  11006  11004  11016  19805     1  0.0000000  0.0000000  3
  11006  11004  11016  11017     1  0.0000000  0.6508444  3
  11006  11004  11016  11018     1  0.0000000  0.6508444  3
  11008  11007  11013  19782     1  0.0000000  1.0460000  1
  11008  11007  11013  19782     1  0.0000000  0.0000000  3
  11008  11007  11013  11014     1  0.0000000  0.6508444  3
  11008  11007  11013  11015     1  0.0000000  0.6508444  3
  11009  11007  11013  19782     1  0.0000000  1.0460000  1
  11009  11007  11013  19782     1  0.0000000  0.0000000  3
  11009  11007  11013  11014     1  0.0000000  0.6508444  3
  11009  11007  11013  11015     1  0.0000000  0.6508444  3
  11013  19782  19778  19781     1  0.0000000  1.6038667  3
  11014  11013  19782  19778     1  0.0000000  1.6038667  3
  11015  11013  19782  19778     1  0.0000000  1.6038667  3
  11016  19805  19801  19804     1  0.0000000  1.6038667  3
  11017  11016  19805  19801     1  0.0000000  1.6038667  3
  11018  11016  19805  19801     1  0.0000000  1.6038667  3
  11020  11021  11033  11034     1  0.0000000  0.6508444  3
  11020  11021  11033  11035     1  0.0000000  0.6508444  3
  11020  11024  11036  11037     1  0.0000000  0.6508444  3
  11020  11024  11036  11038     1  0.0000000  0.6508444  3
  11020  11027  11030  11031     1  0.0000000  0.6508444  3
  11020  11027  11030  11032     1  0.0000000  0.6508444  3
  11021  11020  11024  11025     1  0.0000000  1.2552000  3
  11021  11020  11024  11026     1  0.0000000  1.2552000  3
  11021  11020  11027  11028     1  0.0000000  1.2552000  3
  11021  11020  11027  11029     1  0.0000000  1.2552000  3
  11021  11033  11045  11046     1  0.0000000  0.6508444  3
  11021  11033  11045  11047     1  0.0000000  0.6508444  3
  11022  11021  11020  11024     1  0.0000000  1.2552000  3
  11022  11021  11020  11027     1  0.0000000  1.2552000  3
  11022  11021  11033  11045     1  0.0000000  0.6508444  3
  11022  11021  11033  11034     1  0.0000000  0.6508444  3
  11022  11021  11033  11035     1  0.0000000  0.6508444  3
  11023  11021  11020  11024     1  0.0000000  1.2552000  3
  11023  11021  11020  11027     1  0.0000000  1.2552000  3
  11023  11021  11033  11045     1  0.0000000  0.6508444  3
  11023  11021  11033  11034     1  0.0000000  0.6508444  3
  11023  11021  11033  11035     1  0.0000000  0.6508444  3
  11024  11020  11027  11028     1  0.0000000  1.2552000  3
  11024  11020  11027  11029     1  0.0000000  1.2552000  3
  11024  11036  11042  11043     1  0.0000000  0.6508444  3
  11024  11036  11042  11044     1  0.0000000  0.6508444  3
  11025  11024  11020  11027     1  0.0000000  1.2552000  3
  11025  11024  11036  11042     1  0.0000000  0.6508444  3
  11025  11024  11036  11037     1  0.0000000  0.6508444  3
  11025  11024  11036  11038     1  0.0000000  0.6508444  3
  11026  11024  11020  11027     1  0.0000000  1.2552000  3
  11026  11024  11036  11042     1  0.0000000  0.6508444  3
  11026  11024  11036  11037     1  0.0000000  0.6508444  3
  11026  11024  11036  11038     1  0.0000000  0.6508444  3
  11027  11030  11039  11040     1  0.0000000  0.6508444  3
  11027  11030  11039  11041     1  0.0000000  0.6508444  3
  11028  11027  11030  11039     1  0.0000000  0.6508444  3
  11028  11027  11030  11031     1  0.0000000  0.6508444  3
  11028  11027  11030  11032     1  0.0000000  0.6508444  3
  11029  11027  11030  11039     1  0.0000000  0.6508444  3
  11029  11027  11030  11031     1  0.0000000  0.6508444  3
  11029  11027  11030  11032     1  0.0000000  0.6508444  3
  11031  11030  11039  11048     1  0.0000000  1.0460000  1
  11031  11030  11039  11048     1  0.0000000  0.0000000  3
  11031  11030  11039  11040     1  0.0000000  0.6508444  3
  11031  11030  11039  11041     1  0.0000000  0.6508444  3
  11032  11030  11039  11048     1  0.0000000  1.0460000  1
  11032  11030  11039  11048     1  0.0000000  0.0000000  3
  11032  11030  11039  11040     1  0.0000000  0.6508444  3
  11032  11030  11039  11041     1  0.0000000  0.6508444  3
  11034  11033  11045  19851     1  0.0000000  1.0460000  1
  11034  11033  11045  19851     1  0.0000000  0.0000000  3
  11034  11033  11045  11046     1  0.0000000  0.6508444  3
  11034  11033  11045  11047     1  0.0000000  0.6508444  3
  11035  11033  11045  19851     1  0.0000000  1.0460000  1
  11035  11033  11045  19851     1  0.0000000  0.0000000  3
  11035  11033  11045  11046     1  0.0000000  0.6508444  3
  11035  11033  11045  11047     1  0.0000000  0.6508444  3
  11037  11036  11042  19828     1  0.0000000  1.0460000  1
  11037  11036  11042  19828     1  0.0000000  0.0000000  3
  11037  11036  11042  11043     1  0.0000000  0.6508444  3
  11037  11036  11042  11044     1  0.0000000  0.6508444  3
  11038  11036  11042  19828     1  0.0000000  1.0460000  1
  11038  11036  11042  19828     1  0.0000000  0.0000000  3
  11038  11036  11042  11043     1  0.0000000  0.6508444  3
  11038  11036  11042  11044     1  0.0000000  0.6508444  3
  11042  19828  19824  19827     1  0.0000000  1.6038667  3
  11043  11042  19828  19824     1  0.0000000  1.6038667  3
  11044  11042  19828  19824     1  0.0000000  1.6038667  3
  11045  19851  19847  19850     1  0.0000000  1.6038667  3
  11046  11045  19851  19847     1  0.0000000  1.6038667  3
  11047  11045  19851  19847     1  0.0000000  1.6038667  3
  11049  11050  11062  11063     1  0.0000000  0.6508444  3
  11049  11050  11062  11064     1  0.0000000  0.6508444  3
  11049  11053  11065  11066     1  0.0000000  0.6508444  3
  11049  11053  11065  11067     1  0.0000000  0.6508444  3
  11049  11056  11059  11060     1  0.0000000  0.6508444  3
  11049  11056  11059  11061     1  0.0000000  0.6508444  3
  11050  11049  11053  11054     1  0.0000000  1.2552000  3
  11050  11049  11053  11055     1  0.0000000  1.2552000  3
  11050  11049  11056  11057     1  0.0000000  1.2552000  3
  11050  11049  11056  11058     1  0.0000000  1.2552000  3
  11050  11062  11074  11075     1  0.0000000  0.6508444  3
  11050  11062  11074  11076     1  0.0000000  0.6508444  3
  11051  11050  11049  11053     1  0.0000000  1.2552000  3
  11051  11050  11049  11056     1  0.0000000  1.2552000  3
  11051  11050  11062  11074     1  0.0000000  0.6508444  3
  11051  11050  11062  11063     1  0.0000000  0.6508444  3
  11051  11050  11062  11064     1  0.0000000  0.6508444  3
  11052  11050  11049  11053     1  0.0000000  1.2552000  3
  11052  11050  11049  11056     1  0.0000000  1.2552000  3
  11052  11050  11062  11074     1  0.0000000  0.6508444  3
  11052  11050  11062  11063     1  0.0000000  0.6508444  3
  11052  11050  11062  11064     1  0.0000000  0.6508444  3
  11053  11049  11056  11057     1  0.0000000  1.2552000  3
  11053  11049  11056  11058     1  0.0000000  1.2552000  3
  11053  11065  11071  11072     1  0.0000000  0.6508444  3
  11053  11065  11071  11073     1  0.0000000  0.6508444  3
  11054  11053  11049  11056     1  0.0000000  1.2552000  3
  11054  11053  11065  11071     1  0.0000000  0.6508444  3
  11054  11053  11065  11066     1  0.0000000  0.6508444  3
  11054  11053  11065  11067     1  0.0000000  0.6508444  3
  11055  11053  11049  11056     1  0.0000000  1.2552000  3
  11055  11053  11065  11071     1  0.0000000  0.6508444  3
  11055  11053  11065  11066     1  0.0000000  0.6508444  3
  11055  11053  11065  11067     1  0.0000000  0.6508444  3
  11056  11059  11068  11069     1  0.0000000  0.6508444  3
  11056  11059  11068  11070     1  0.0000000  0.6508444  3
  11057  11056  11059  11068     1  0.0000000  0.6508444  3
  11057  11056  11059  11060     1  0.0000000  0.6508444  3
  11057  11056  11059  11061     1  0.0000000  0.6508444  3
  11058  11056  11059  11068     1  0.0000000  0.6508444  3
  11058  11056  11059  11060     1  0.0000000  0.6508444  3
  11058  11056  11059  11061     1  0.0000000  0.6508444  3
  11060  11059  11068  11077     1  0.0000000  1.0460000  1
  11060  11059  11068  11077     1  0.0000000  0.0000000  3
  11060  11059  11068  11069     1  0.0000000  0.6508444  3
  11060  11059  11068  11070     1  0.0000000  0.6508444  3
  11061  11059  11068  11077     1  0.0000000  1.0460000  1
  11061  11059  11068  11077     1  0.0000000  0.0000000  3
  11061  11059  11068  11069     1  0.0000000  0.6508444  3
  11061  11059  11068  11070     1  0.0000000  0.6508444  3
  11063  11062  11074  19897     1  0.0000000  1.0460000  1
  11063  11062  11074  19897     1  0.0000000  0.0000000  3
  11063  11062  11074  11075     1  0.0000000  0.6508444  3
  11063  11062  11074  11076     1  0.0000000  0.6508444  3
  11064  11062  11074  19897     1  0.0000000  1.0460000  1
  11064  11062  11074  19897     1  0.0000000  0.0000000  3
  11064  11062  11074  11075     1  0.0000000  0.6508444  3
  11064  11062  11074  11076     1  0.0000000  0.6508444  3
  11066  11065  11071  19874     1  0.0000000  1.0460000  1
  11066  11065  11071  19874     1  0.0000000  0.0000000  3
  11066  11065  11071  11072     1  0.0000000  0.6508444  3
  11066  11065  11071  11073     1  0.0000000  0.6508444  3
  11067  11065  11071  19874     1  0.0000000  1.0460000  1
  11067  11065  11071  19874     1  0.0000000  0.0000000  3
  11067  11065  11071  11072     1  0.0000000  0.6508444  3
  11067  11065  11071  11073     1  0.0000000  0.6508444  3
  11071  19874  19870  19873     1  0.0000000  1.6038667  3
  11072  11071  19874  19870     1  0.0000000  1.6038667  3
  11073  11071  19874  19870     1  0.0000000  1.6038667  3
  11074  19897  19893  19896     1  0.0000000  1.6038667  3
  11075  11074  19897  19893     1  0.0000000  1.6038667  3
  11076  11074  19897  19893     1  0.0000000  1.6038667  3
  11078  11079  11082  11086     1  0.0000000  0.6508444  3
  11078  11079  11091  11094     1  0.0000000  1.0460000  1
  11078  11079  11091  11094     1  0.0000000  0.6694400  3
  11078  11092  11098  11099     1  0.0000000  1.0460000  1
  11078  11092  11098  11099     1  0.0000000  0.6694400  3
  11078  11100  11084  11087     1  0.0000000  1.6038667  3
  11079  11078  11092  11096     1  0.0000000  0.6508444  3
  11079  11078  11092  11097     1  0.0000000  0.6508444  3
  11079  11082  11083  11085     1  0.0000000  0.6508444  3
  11079  11082  11090  11093     1  0.0000000  1.0460000  1
  11079  11082  11090  11093     1  0.0000000  0.6694400  3
  11080  11078  11079  11082     1  0.0000000  0.6508444  3
  11080  11078  11079  11091     1  0.0000000  1.0460000  1
  11080  11078  11079  11091     1  0.0000000  0.0000000  3
  11080  11078  11079  11081     1  0.0000000  0.6508444  3
  11080  11078  11092  11098     1  0.0000000  1.0460000  1
  11080  11078  11092  11098     1  0.0000000  0.0000000  3
  11080  11078  11092  11096     1  0.0000000  0.6508444  3
  11080  11078  11092  11097     1  0.0000000  0.6508444  3
  11080  11078  11100  11084     1  0.0000000  1.6038667  3
  11081  11079  11078  11092     1  0.0000000  0.6508444  3
  11081  11079  11078  11100     1  0.0000000  1.0460000  1
  11081  11079  11078  11100     1  0.0000000  0.0000000  3
  11081  11079  11082  11083     1  0.0000000  0.6508444  3
  11081  11079  11082  11090     1  0.0000000  1.0460000  1
  11081  11079  11082  11090     1  0.0000000  0.0000000  3
  11081  11079  11082  11086     1  0.0000000  0.6508444  3
  11081  11079  11091  11094     1  0.0000000  0.6973333  3
  11082  11079  11091  11094     1  0.0000000  1.0460000  1
  11082  11079  11091  11094     1  0.0000000  0.6694400  3
  11082  11083  11084  11087     1  0.0000000  0.6508444  3
  11082  11083  11089  11095     1  0.0000000  1.0460000  1
  11082  11083  11089  11095     1  0.0000000  0.6694400  3
  11083  11082  11090  11093     1  0.0000000  1.0460000  1
  11083  11082  11090  11093     1  0.0000000  0.6694400  3
  11084  11083  11082  11086     1  0.0000000  0.6508444  3
  11084  11083  11089  11095     1  0.0000000  1.0460000  1
  11084  11083  11089  11095     1  0.0000000  0.6694400  3
  11085  11083  11082  11090     1  0.0000000  1.0460000  1
  11085  11083  11082  11090     1  0.0000000  0.0000000  3
  11085  11083  11082  11086     1  0.0000000  0.6508444  3
  11085  11083  11084  11088     1  0.0000000  1.0460000  1
  11085  11083  11084  11088     1  0.0000000  0.0000000  3
  11085  11083  11084  11100     1  0.0000000  1.0460000  1
  11085  11083  11084  11100     1  0.0000000  0.0000000  3
  11085  11083  11084  11087     1  0.0000000  0.6508444  3
  11085  11083  11089  11095     1  0.0000000  0.6973333  3
  11086  11082  11079  11091     1  0.0000000  1.0460000  1
  11086  11082  11079  11091     1  0.0000000  0.0000000  3
  11086  11082  11083  11089     1  0.0000000  1.0460000  1
  11086  11082  11083  11089     1  0.0000000  0.0000000  3
  11086  11082  11090  11093     1  0.0000000  0.6973333  3
  11087  11084  11083  11089     1  0.0000000  0.6508444  3
  11096  11092  11078  11100     1  0.0000000  1.0460000  1
  11096  11092  11078  11100     1  0.0000000  0.0000000  3
  11096  11092  11098  11099     1  0.0000000  0.6973333  3
  11097  11092  11078  11100     1  0.0000000  1.0460000  1
  11097  11092  11078  11100     1  0.0000000  0.0000000  3
  11097  11092  11098  11099     1  0.0000000  0.6973333  3
  11101  11102  11105  11109     1  0.0000000  0.6508444  3
  11101  11102  11114  11117     1  0.0000000  1.0460000  1
  11101  11102  11114  11117     1  0.0000000  0.6694400  3
  11101  11115  11121  11122     1  0.0000000  1.0460000  1
  11101  11115  11121  11122     1  0.0000000  0.6694400  3
  11101  11123  11107  11110     1  0.0000000  1.6038667  3
  11102  11105  11106  11108     1  0.0000000  0.6508444  3
  11102  11105  11113  11116     1  0.0000000  1.0460000  1
  11102  11105  11113  11116     1  0.0000000  0.6694400  3
  11102  11101  11115  11119     1  0.0000000  0.6508444  3
  11102  11101  11115  11120     1  0.0000000  0.6508444  3
  11103  11101  11102  11105     1  0.0000000  0.6508444  3
  11103  11101  11102  11114     1  0.0000000  1.0460000  1
  11103  11101  11102  11114     1  0.0000000  0.0000000  3
  11103  11101  11102  11104     1  0.0000000  0.6508444  3
  11103  11101  11115  11121     1  0.0000000  1.0460000  1
  11103  11101  11115  11121     1  0.0000000  0.0000000  3
  11103  11101  11115  11119     1  0.0000000  0.6508444  3
  11103  11101  11115  11120     1  0.0000000  0.6508444  3
  11103  11101  11123  11107     1  0.0000000  1.6038667  3
  11104  11102  11105  11106     1  0.0000000  0.6508444  3
  11104  11102  11105  11113     1  0.0000000  1.0460000  1
  11104  11102  11105  11113     1  0.0000000  0.0000000  3
  11104  11102  11105  11109     1  0.0000000  0.6508444  3
  11104  11102  11114  11117     1  0.0000000  0.6973333  3
  11104  11102  11101  11115     1  0.0000000  0.6508444  3
  11104  11102  11101  11123     1  0.0000000  1.0460000  1
  11104  11102  11101  11123     1  0.0000000  0.0000000  3
  11105  11106  11107  11110     1  0.0000000  0.6508444  3
  11105  11106  11112  11118     1  0.0000000  1.0460000  1
  11105  11106  11112  11118     1  0.0000000  0.6694400  3
  11105  11102  11114  11117     1  0.0000000  1.0460000  1
  11105  11102  11114  11117     1  0.0000000  0.6694400  3
  11106  11105  11113  11116     1  0.0000000  1.0460000  1
  11106  11105  11113  11116     1  0.0000000  0.6694400  3
  11107  11106  11112  11118     1  0.0000000  1.0460000  1
  11107  11106  11112  11118     1  0.0000000  0.6694400  3
  11107  11106  11105  11109     1  0.0000000  0.6508444  3
  11108  11106  11107  11111     1  0.0000000  1.0460000  1
  11108  11106  11107  11111     1  0.0000000  0.0000000  3
  11108  11106  11107  11123     1  0.0000000  1.0460000  1
  11108  11106  11107  11123     1  0.0000000  0.0000000  3
  11108  11106  11107  11110     1  0.0000000  0.6508444  3
  11108  11106  11112  11118     1  0.0000000  0.6973333  3
  11108  11106  11105  11113     1  0.0000000  1.0460000  1
  11108  11106  11105  11113     1  0.0000000  0.0000000  3
  11108  11106  11105  11109     1  0.0000000  0.6508444  3
  11109  11105  11106  11112     1  0.0000000  1.0460000  1
  11109  11105  11106  11112     1  0.0000000  0.0000000  3
  11109  11105  11113  11116     1  0.0000000  0.6973333  3
  11109  11105  11102  11114     1  0.0000000  1.0460000  1
  11109  11105  11102  11114     1  0.0000000  0.0000000  3
  11110  11107  11106  11112     1  0.0000000  0.6508444  3
  11119  11115  11121  11122     1  0.0000000  0.6973333  3
  11119  11115  11101  11123     1  0.0000000  1.0460000  1
  11119  11115  11101  11123     1  0.0000000  0.0000000  3
  11120  11115  11121  11122     1  0.0000000  0.6973333  3
  11120  11115  11101  11123     1  0.0000000  1.0460000  1
  11120  11115  11101  11123     1  0.0000000  0.0000000  3
  11124  11125  11128  11132     1  0.0000000  0.6508444  3
  11124  11125  11137  11140     1  0.0000000  1.0460000  1
  11124  11125  11137  11140     1  0.0000000  0.6694400  3
  11124  11138  11144  11145     1  0.0000000  1.0460000  1
  11124  11138  11144  11145     1  0.0000000  0.6694400  3
  11124  11146  11130  11133     1  0.0000000  1.6038667  3
  11125  11124  11138  11142     1  0.0000000  0.6508444  3
  11125  11124  11138  11143     1  0.0000000  0.6508444  3
  11125  11128  11129  11131     1  0.0000000  0.6508444  3
  11125  11128  11136  11139     1  0.0000000  1.0460000  1
  11125  11128  11136  11139     1  0.0000000  0.6694400  3
  11126  11124  11125  11128     1  0.0000000  0.6508444  3
  11126  11124  11125  11137     1  0.0000000  1.0460000  1
  11126  11124  11125  11137     1  0.0000000  0.0000000  3
  11126  11124  11125  11127     1  0.0000000  0.6508444  3
  11126  11124  11138  11144     1  0.0000000  1.0460000  1
  11126  11124  11138  11144     1  0.0000000  0.0000000  3
  11126  11124  11138  11142     1  0.0000000  0.6508444  3
  11126  11124  11138  11143     1  0.0000000  0.6508444  3
  11126  11124  11146  11130     1  0.0000000  1.6038667  3
  11127  11125  11124  11138     1  0.0000000  0.6508444  3
  11127  11125  11124  11146     1  0.0000000  1.0460000  1
  11127  11125  11124  11146     1  0.0000000  0.0000000  3
  11127  11125  11128  11129     1  0.0000000  0.6508444  3
  11127  11125  11128  11136     1  0.0000000  1.0460000  1
  11127  11125  11128  11136     1  0.0000000  0.0000000  3
  11127  11125  11128  11132     1  0.0000000  0.6508444  3
  11127  11125  11137  11140     1  0.0000000  0.6973333  3
  11128  11125  11137  11140     1  0.0000000  1.0460000  1
  11128  11125  11137  11140     1  0.0000000  0.6694400  3
  11128  11129  11130  11133     1  0.0000000  0.6508444  3
  11128  11129  11135  11141     1  0.0000000  1.0460000  1
  11128  11129  11135  11141     1  0.0000000  0.6694400  3
  11129  11128  11136  11139     1  0.0000000  1.0460000  1
  11129  11128  11136  11139     1  0.0000000  0.6694400  3
  11130  11129  11128  11132     1  0.0000000  0.6508444  3
  11130  11129  11135  11141     1  0.0000000  1.0460000  1
  11130  11129  11135  11141     1  0.0000000  0.6694400  3
  11131  11129  11128  11136     1  0.0000000  1.0460000  1
  11131  11129  11128  11136     1  0.0000000  0.0000000  3
  11131  11129  11128  11132     1  0.0000000  0.6508444  3
  11131  11129  11130  11134     1  0.0000000  1.0460000  1
  11131  11129  11130  11134     1  0.0000000  0.0000000  3
  11131  11129  11130  11146     1  0.0000000  1.0460000  1
  11131  11129  11130  11146     1  0.0000000  0.0000000  3
  11131  11129  11130  11133     1  0.0000000  0.6508444  3
  11131  11129  11135  11141     1  0.0000000  0.6973333  3
  11132  11128  11125  11137     1  0.0000000  1.0460000  1
  11132  11128  11125  11137     1  0.0000000  0.0000000  3
  11132  11128  11129  11135     1  0.0000000  1.0460000  1
  11132  11128  11129  11135     1  0.0000000  0.0000000  3
  11132  11128  11136  11139     1  0.0000000  0.6973333  3
  11133  11130  11129  11135     1  0.0000000  0.6508444  3
  11142  11138  11124  11146     1  0.0000000  1.0460000  1
  11142  11138  11124  11146     1  0.0000000  0.0000000  3
  11142  11138  11144  11145     1  0.0000000  0.6973333  3
  11143  11138  11124  11146     1  0.0000000  1.0460000  1
  11143  11138  11124  11146     1  0.0000000  0.0000000  3
  11143  11138  11144  11145     1  0.0000000  0.6973333  3
  11147  11148  11151  11155     1  0.0000000  0.6508444  3
  11147  11148  11160  11163     1  0.0000000  1.0460000  1
  11147  11148  11160  11163     1  0.0000000  0.6694400  3
  11147  11161  11167  11168     1  0.0000000  1.0460000  1
  11147  11161  11167  11168     1  0.0000000  0.6694400  3
  11147  11169  11153  11156     1  0.0000000  1.6038667  3
  11148  11151  11152  11154     1  0.0000000  0.6508444  3
  11148  11151  11159  11162     1  0.0000000  1.0460000  1
  11148  11151  11159  11162     1  0.0000000  0.6694400  3
  11148  11147  11161  11165     1  0.0000000  0.6508444  3
  11148  11147  11161  11166     1  0.0000000  0.6508444  3
  11149  11147  11148  11151     1  0.0000000  0.6508444  3
  11149  11147  11148  11160     1  0.0000000  1.0460000  1
  11149  11147  11148  11160     1  0.0000000  0.0000000  3
  11149  11147  11148  11150     1  0.0000000  0.6508444  3
  11149  11147  11161  11167     1  0.0000000  1.0460000  1
  11149  11147  11161  11167     1  0.0000000  0.0000000  3
  11149  11147  11161  11165     1  0.0000000  0.6508444  3
  11149  11147  11161  11166     1  0.0000000  0.6508444  3
  11149  11147  11169  11153     1  0.0000000  1.6038667  3
  11150  11148  11151  11152     1  0.0000000  0.6508444  3
  11150  11148  11151  11159     1  0.0000000  1.0460000  1
  11150  11148  11151  11159     1  0.0000000  0.0000000  3
  11150  11148  11151  11155     1  0.0000000  0.6508444  3
  11150  11148  11160  11163     1  0.0000000  0.6973333  3
  11150  11148  11147  11161     1  0.0000000  0.6508444  3
  11150  11148  11147  11169     1  0.0000000  1.0460000  1
  11150  11148  11147  11169     1  0.0000000  0.0000000  3
  11151  11152  11153  11156     1  0.0000000  0.6508444  3
  11151  11152  11158  11164     1  0.0000000  1.0460000  1
  11151  11152  11158  11164     1  0.0000000  0.6694400  3
  11151  11148  11160  11163     1  0.0000000  1.0460000  1
  11151  11148  11160  11163     1  0.0000000  0.6694400  3
  11152  11151  11159  11162     1  0.0000000  1.0460000  1
  11152  11151  11159  11162     1  0.0000000  0.6694400  3
  11153  11152  11158  11164     1  0.0000000  1.0460000  1
  11153  11152  11158  11164     1  0.0000000  0.6694400  3
  11153  11152  11151  11155     1  0.0000000  0.6508444  3
  11154  11152  11153  11157     1  0.0000000  1.0460000  1
  11154  11152  11153  11157     1  0.0000000  0.0000000  3
  11154  11152  11153  11169     1  0.0000000  1.0460000  1
  11154  11152  11153  11169     1  0.0000000  0.0000000  3
  11154  11152  11153  11156     1  0.0000000  0.6508444  3
  11154  11152  11158  11164     1  0.0000000  0.6973333  3
  11154  11152  11151  11159     1  0.0000000  1.0460000  1
  11154  11152  11151  11159     1  0.0000000  0.0000000  3
  11154  11152  11151  11155     1  0.0000000  0.6508444  3
  11155  11151  11152  11158     1  0.0000000  1.0460000  1
  11155  11151  11152  11158     1  0.0000000  0.0000000  3
  11155  11151  11159  11162     1  0.0000000  0.6973333  3
  11155  11151  11148  11160     1  0.0000000  1.0460000  1
  11155  11151  11148  11160     1  0.0000000  0.0000000  3
  11156  11153  11152  11158     1  0.0000000  0.6508444  3
  11165  11161  11167  11168     1  0.0000000  0.6973333  3
  11165  11161  11147  11169     1  0.0000000  1.0460000  1
  11165  11161  11147  11169     1  0.0000000  0.0000000  3
  11166  11161  11167  11168     1  0.0000000  0.6973333  3
  11166  11161  11147  11169     1  0.0000000  1.0460000  1
  11166  11161  11147  11169     1  0.0000000  0.0000000  3
  11170  11171  11174  11178     1  0.0000000  0.6508444  3
  11170  11171  11183  11186     1  0.0000000  1.0460000  1
  11170  11171  11183  11186     1  0.0000000  0.6694400  3
  11170  11184  11190  11191     1  0.0000000  1.0460000  1
  11170  11184  11190  11191     1  0.0000000  0.6694400  3
  11170  11192  11176  11179     1  0.0000000  1.6038667  3
  11171  11170  11184  11188     1  0.0000000  0.6508444  3
  11171  11170  11184  11189     1  0.0000000  0.6508444  3
  11171  11174  11175  11177     1  0.0000000  0.6508444  3
  11171  11174  11182  11185     1  0.0000000  1.0460000  1
  11171  11174  11182  11185     1  0.0000000  0.6694400  3
  11172  11170  11171  11174     1  0.0000000  0.6508444  3
  11172  11170  11171  11183     1  0.0000000  1.0460000  1
  11172  11170  11171  11183     1  0.0000000  0.0000000  3
  11172  11170  11171  11173     1  0.0000000  0.6508444  3
  11172  11170  11184  11190     1  0.0000000  1.0460000  1
  11172  11170  11184  11190     1  0.0000000  0.0000000  3
  11172  11170  11184  11188     1  0.0000000  0.6508444  3
  11172  11170  11184  11189     1  0.0000000  0.6508444  3
  11172  11170  11192  11176     1  0.0000000  1.6038667  3
  11173  11171  11170  11184     1  0.0000000  0.6508444  3
  11173  11171  11170  11192     1  0.0000000  1.0460000  1
  11173  11171  11170  11192     1  0.0000000  0.0000000  3
  11173  11171  11174  11175     1  0.0000000  0.6508444  3
  11173  11171  11174  11182     1  0.0000000  1.0460000  1
  11173  11171  11174  11182     1  0.0000000  0.0000000  3
  11173  11171  11174  11178     1  0.0000000  0.6508444  3
  11173  11171  11183  11186     1  0.0000000  0.6973333  3
  11174  11171  11183  11186     1  0.0000000  1.0460000  1
  11174  11171  11183  11186     1  0.0000000  0.6694400  3
  11174  11175  11176  11179     1  0.0000000  0.6508444  3
  11174  11175  11181  11187     1  0.0000000  1.0460000  1
  11174  11175  11181  11187     1  0.0000000  0.6694400  3
  11175  11174  11182  11185     1  0.0000000  1.0460000  1
  11175  11174  11182  11185     1  0.0000000  0.6694400  3
  11176  11175  11174  11178     1  0.0000000  0.6508444  3
  11176  11175  11181  11187     1  0.0000000  1.0460000  1
  11176  11175  11181  11187     1  0.0000000  0.6694400  3
  11177  11175  11174  11182     1  0.0000000  1.0460000  1
  11177  11175  11174  11182     1  0.0000000  0.0000000  3
  11177  11175  11174  11178     1  0.0000000  0.6508444  3
  11177  11175  11176  11180     1  0.0000000  1.0460000  1
  11177  11175  11176  11180     1  0.0000000  0.0000000  3
  11177  11175  11176  11192     1  0.0000000  1.0460000  1
  11177  11175  11176  11192     1  0.0000000  0.0000000  3
  11177  11175  11176  11179     1  0.0000000  0.6508444  3
  11177  11175  11181  11187     1  0.0000000  0.6973333  3
  11178  11174  11171  11183     1  0.0000000  1.0460000  1
  11178  11174  11171  11183     1  0.0000000  0.0000000  3
  11178  11174  11175  11181     1  0.0000000  1.0460000  1
  11178  11174  11175  11181     1  0.0000000  0.0000000  3
  11178  11174  11182  11185     1  0.0000000  0.6973333  3
  11179  11176  11175  11181     1  0.0000000  0.6508444  3
  11188  11184  11170  11192     1  0.0000000  1.0460000  1
  11188  11184  11170  11192     1  0.0000000  0.0000000  3
  11188  11184  11190  11191     1  0.0000000  0.6973333  3
  11189  11184  11170  11192     1  0.0000000  1.0460000  1
  11189  11184  11170  11192     1  0.0000000  0.0000000  3
  11189  11184  11190  11191     1  0.0000000  0.6973333  3
  11193  11194  11197  11201     1  0.0000000  0.6508444  3
  11193  11194  11206  11209     1  0.0000000  1.0460000  1
  11193  11194  11206  11209     1  0.0000000  0.6694400  3
  11193  11207  11213  11214     1  0.0000000  1.0460000  1
  11193  11207  11213  11214     1  0.0000000  0.6694400  3
  11193  11215  11199  11202     1  0.0000000  1.6038667  3
  11194  11197  11198  11200     1  0.0000000  0.6508444  3
  11194  11197  11205  11208     1  0.0000000  1.0460000  1
  11194  11197  11205  11208     1  0.0000000  0.6694400  3
  11194  11193  11207  11211     1  0.0000000  0.6508444  3
  11194  11193  11207  11212     1  0.0000000  0.6508444  3
  11195  11193  11194  11197     1  0.0000000  0.6508444  3
  11195  11193  11194  11206     1  0.0000000  1.0460000  1
  11195  11193  11194  11206     1  0.0000000  0.0000000  3
  11195  11193  11194  11196     1  0.0000000  0.6508444  3
  11195  11193  11207  11213     1  0.0000000  1.0460000  1
  11195  11193  11207  11213     1  0.0000000  0.0000000  3
  11195  11193  11207  11211     1  0.0000000  0.6508444  3
  11195  11193  11207  11212     1  0.0000000  0.6508444  3
  11195  11193  11215  11199     1  0.0000000  1.6038667  3
  11196  11194  11197  11198     1  0.0000000  0.6508444  3
  11196  11194  11197  11205     1  0.0000000  1.0460000  1
  11196  11194  11197  11205     1  0.0000000  0.0000000  3
  11196  11194  11197  11201     1  0.0000000  0.6508444  3
  11196  11194  11206  11209     1  0.0000000  0.6973333  3
  11196  11194  11193  11207     1  0.0000000  0.6508444  3
  11196  11194  11193  11215     1  0.0000000  1.0460000  1
  11196  11194  11193  11215     1  0.0000000  0.0000000  3
  11197  11198  11199  11202     1  0.0000000  0.6508444  3
  11197  11198  11204  11210     1  0.0000000  1.0460000  1
  11197  11198  11204  11210     1  0.0000000  0.6694400  3
  11197  11194  11206  11209     1  0.0000000  1.0460000  1
  11197  11194  11206  11209     1  0.0000000  0.6694400  3
  11198  11197  11205  11208     1  0.0000000  1.0460000  1
  11198  11197  11205  11208     1  0.0000000  0.6694400  3
  11199  11198  11204  11210     1  0.0000000  1.0460000  1
  11199  11198  11204  11210     1  0.0000000  0.6694400  3
  11199  11198  11197  11201     1  0.0000000  0.6508444  3
  11200  11198  11199  11203     1  0.0000000  1.0460000  1
  11200  11198  11199  11203     1  0.0000000  0.0000000  3
  11200  11198  11199  11215     1  0.0000000  1.0460000  1
  11200  11198  11199  11215     1  0.0000000  0.0000000  3
  11200  11198  11199  11202     1  0.0000000  0.6508444  3
  11200  11198  11204  11210     1  0.0000000  0.6973333  3
  11200  11198  11197  11205     1  0.0000000  1.0460000  1
  11200  11198  11197  11205     1  0.0000000  0.0000000  3
  11200  11198  11197  11201     1  0.0000000  0.6508444  3
  11201  11197  11198  11204     1  0.0000000  1.0460000  1
  11201  11197  11198  11204     1  0.0000000  0.0000000  3
  11201  11197  11205  11208     1  0.0000000  0.6973333  3
  11201  11197  11194  11206     1  0.0000000  1.0460000  1
  11201  11197  11194  11206     1  0.0000000  0.0000000  3
  11202  11199  11198  11204     1  0.0000000  0.6508444  3
  11211  11207  11213  11214     1  0.0000000  0.6973333  3
  11211  11207  11193  11215     1  0.0000000  1.0460000  1
  11211  11207  11193  11215     1  0.0000000  0.0000000  3
  11212  11207  11213  11214     1  0.0000000  0.6973333  3
  11212  11207  11193  11215     1  0.0000000  1.0460000  1
  11212  11207  11193  11215     1  0.0000000  0.0000000  3
  11216  11217  11220  11224     1  0.0000000  0.6508444  3
  11216  11217  11229  11232     1  0.0000000  1.0460000  1
  11216  11217  11229  11232     1  0.0000000  0.6694400  3
  11216  11230  11236  11237     1  0.0000000  1.0460000  1
  11216  11230  11236  11237     1  0.0000000  0.6694400  3
  11216  11238  11222  11225     1  0.0000000  1.6038667  3
  11217  11216  11230  11234     1  0.0000000  0.6508444  3
  11217  11216  11230  11235     1  0.0000000  0.6508444  3
  11217  11220  11221  11223     1  0.0000000  0.6508444  3
  11217  11220  11228  11231     1  0.0000000  1.0460000  1
  11217  11220  11228  11231     1  0.0000000  0.6694400  3
  11218  11216  11217  11220     1  0.0000000  0.6508444  3
  11218  11216  11217  11229     1  0.0000000  1.0460000  1
  11218  11216  11217  11229     1  0.0000000  0.0000000  3
  11218  11216  11217  11219     1  0.0000000  0.6508444  3
  11218  11216  11230  11236     1  0.0000000  1.0460000  1
  11218  11216  11230  11236     1  0.0000000  0.0000000  3
  11218  11216  11230  11234     1  0.0000000  0.6508444  3
  11218  11216  11230  11235     1  0.0000000  0.6508444  3
  11218  11216  11238  11222     1  0.0000000  1.6038667  3
  11219  11217  11216  11230     1  0.0000000  0.6508444  3
  11219  11217  11216  11238     1  0.0000000  1.0460000  1
  11219  11217  11216  11238     1  0.0000000  0.0000000  3
  11219  11217  11220  11221     1  0.0000000  0.6508444  3
  11219  11217  11220  11228     1  0.0000000  1.0460000  1
  11219  11217  11220  11228     1  0.0000000  0.0000000  3
  11219  11217  11220  11224     1  0.0000000  0.6508444  3
  11219  11217  11229  11232     1  0.0000000  0.6973333  3
  11220  11217  11229  11232     1  0.0000000  1.0460000  1
  11220  11217  11229  11232     1  0.0000000  0.6694400  3
  11220  11221  11222  11225     1  0.0000000  0.6508444  3
  11220  11221  11227  11233     1  0.0000000  1.0460000  1
  11220  11221  11227  11233     1  0.0000000  0.6694400  3
  11221  11220  11228  11231     1  0.0000000  1.0460000  1
  11221  11220  11228  11231     1  0.0000000  0.6694400  3
  11222  11221  11220  11224     1  0.0000000  0.6508444  3
  11222  11221  11227  11233     1  0.0000000  1.0460000  1
  11222  11221  11227  11233     1  0.0000000  0.6694400  3
  11223  11221  11220  11228     1  0.0000000  1.0460000  1
  11223  11221  11220  11228     1  0.0000000  0.0000000  3
  11223  11221  11220  11224     1  0.0000000  0.6508444  3
  11223  11221  11222  11226     1  0.0000000  1.0460000  1
  11223  11221  11222  11226     1  0.0000000  0.0000000  3
  11223  11221  11222  11238     1  0.0000000  1.0460000  1
  11223  11221  11222  11238     1  0.0000000  0.0000000  3
  11223  11221  11222  11225     1  0.0000000  0.6508444  3
  11223  11221  11227  11233     1  0.0000000  0.6973333  3
  11224  11220  11217  11229     1  0.0000000  1.0460000  1
  11224  11220  11217  11229     1  0.0000000  0.0000000  3
  11224  11220  11221  11227     1  0.0000000  1.0460000  1
  11224  11220  11221  11227     1  0.0000000  0.0000000  3
  11224  11220  11228  11231     1  0.0000000  0.6973333  3
  11225  11222  11221  11227     1  0.0000000  0.6508444  3
  11234  11230  11216  11238     1  0.0000000  1.0460000  1
  11234  11230  11216  11238     1  0.0000000  0.0000000  3
  11234  11230  11236  11237     1  0.0000000  0.6973333  3
  11235  11230  11216  11238     1  0.0000000  1.0460000  1
  11235  11230  11216  11238     1  0.0000000  0.0000000  3
  11235  11230  11236  11237     1  0.0000000  0.6973333  3
  11239  11240  11243  11247     1  0.0000000  0.6508444  3
  11239  11240  11252  11255     1  0.0000000  1.0460000  1
  11239  11240  11252  11255     1  0.0000000  0.6694400  3
  11239  11253  11259  11260     1  0.0000000  1.0460000  1
  11239  11253  11259  11260     1  0.0000000  0.6694400  3
  11239  11261  11245  11248     1  0.0000000  1.6038667  3
  11240  11243  11244  11246     1  0.0000000  0.6508444  3
  11240  11243  11251  11254     1  0.0000000  1.0460000  1
  11240  11243  11251  11254     1  0.0000000  0.6694400  3
  11240  11239  11253  11257     1  0.0000000  0.6508444  3
  11240  11239  11253  11258     1  0.0000000  0.6508444  3
  11241  11239  11240  11243     1  0.0000000  0.6508444  3
  11241  11239  11240  11252     1  0.0000000  1.0460000  1
  11241  11239  11240  11252     1  0.0000000  0.0000000  3
  11241  11239  11240  11242     1  0.0000000  0.6508444  3
  11241  11239  11253  11259     1  0.0000000  1.0460000  1
  11241  11239  11253  11259     1  0.0000000  0.0000000  3
  11241  11239  11253  11257     1  0.0000000  0.6508444  3
  11241  11239  11253  11258     1  0.0000000  0.6508444  3
  11241  11239  11261  11245     1  0.0000000  1.6038667  3
  11242  11240  11243  11244     1  0.0000000  0.6508444  3
  11242  11240  11243  11251     1  0.0000000  1.0460000  1
  11242  11240  11243  11251     1  0.0000000  0.0000000  3
  11242  11240  11243  11247     1  0.0000000  0.6508444  3
  11242  11240  11252  11255     1  0.0000000  0.6973333  3
  11242  11240  11239  11253     1  0.0000000  0.6508444  3
  11242  11240  11239  11261     1  0.0000000  1.0460000  1
  11242  11240  11239  11261     1  0.0000000  0.0000000  3
  11243  11244  11245  11248     1  0.0000000  0.6508444  3
  11243  11244  11250  11256     1  0.0000000  1.0460000  1
  11243  11244  11250  11256     1  0.0000000  0.6694400  3
  11243  11240  11252  11255     1  0.0000000  1.0460000  1
  11243  11240  11252  11255     1  0.0000000  0.6694400  3
  11244  11243  11251  11254     1  0.0000000  1.0460000  1
  11244  11243  11251  11254     1  0.0000000  0.6694400  3
  11245  11244  11250  11256     1  0.0000000  1.0460000  1
  11245  11244  11250  11256     1  0.0000000  0.6694400  3
  11245  11244  11243  11247     1  0.0000000  0.6508444  3
  11246  11244  11245  11249     1  0.0000000  1.0460000  1
  11246  11244  11245  11249     1  0.0000000  0.0000000  3
  11246  11244  11245  11261     1  0.0000000  1.0460000  1
  11246  11244  11245  11261     1  0.0000000  0.0000000  3
  11246  11244  11245  11248     1  0.0000000  0.6508444  3
  11246  11244  11250  11256     1  0.0000000  0.6973333  3
  11246  11244  11243  11251     1  0.0000000  1.0460000  1
  11246  11244  11243  11251     1  0.0000000  0.0000000  3
  11246  11244  11243  11247     1  0.0000000  0.6508444  3
  11247  11243  11244  11250     1  0.0000000  1.0460000  1
  11247  11243  11244  11250     1  0.0000000  0.0000000  3
  11247  11243  11251  11254     1  0.0000000  0.6973333  3
  11247  11243  11240  11252     1  0.0000000  1.0460000  1
  11247  11243  11240  11252     1  0.0000000  0.0000000  3
  11248  11245  11244  11250     1  0.0000000  0.6508444  3
  11257  11253  11259  11260     1  0.0000000  0.6973333  3
  11257  11253  11239  11261     1  0.0000000  1.0460000  1
  11257  11253  11239  11261     1  0.0000000  0.0000000  3
  11258  11253  11259  11260     1  0.0000000  0.6973333  3
  11258  11253  11239  11261     1  0.0000000  1.0460000  1
  11258  11253  11239  11261     1  0.0000000  0.0000000  3
  11262  11263  11266  11270     1  0.0000000  0.6508444  3
  11262  11263  11275  11278     1  0.0000000  1.0460000  1
  11262  11263  11275  11278     1  0.0000000  0.6694400  3
  11262  11276  11282  11283     1  0.0000000  1.0460000  1
  11262  11276  11282  11283     1  0.0000000  0.6694400  3
  11262  11284  11268  11271     1  0.0000000  1.6038667  3
  11263  11262  11276  11280     1  0.0000000  0.6508444  3
  11263  11262  11276  11281     1  0.0000000  0.6508444  3
  11263  11266  11267  11269     1  0.0000000  0.6508444  3
  11263  11266  11274  11277     1  0.0000000  1.0460000  1
  11263  11266  11274  11277     1  0.0000000  0.6694400  3
  11264  11262  11263  11266     1  0.0000000  0.6508444  3
  11264  11262  11263  11275     1  0.0000000  1.0460000  1
  11264  11262  11263  11275     1  0.0000000  0.0000000  3
  11264  11262  11263  11265     1  0.0000000  0.6508444  3
  11264  11262  11276  11282     1  0.0000000  1.0460000  1
  11264  11262  11276  11282     1  0.0000000  0.0000000  3
  11264  11262  11276  11280     1  0.0000000  0.6508444  3
  11264  11262  11276  11281     1  0.0000000  0.6508444  3
  11264  11262  11284  11268     1  0.0000000  1.6038667  3
  11265  11263  11262  11276     1  0.0000000  0.6508444  3
  11265  11263  11262  11284     1  0.0000000  1.0460000  1
  11265  11263  11262  11284     1  0.0000000  0.0000000  3
  11265  11263  11266  11267     1  0.0000000  0.6508444  3
  11265  11263  11266  11274     1  0.0000000  1.0460000  1
  11265  11263  11266  11274     1  0.0000000  0.0000000  3
  11265  11263  11266  11270     1  0.0000000  0.6508444  3
  11265  11263  11275  11278     1  0.0000000  0.6973333  3
  11266  11263  11275  11278     1  0.0000000  1.0460000  1
  11266  11263  11275  11278     1  0.0000000  0.6694400  3
  11266  11267  11268  11271     1  0.0000000  0.6508444  3
  11266  11267  11273  11279     1  0.0000000  1.0460000  1
  11266  11267  11273  11279     1  0.0000000  0.6694400  3
  11267  11266  11274  11277     1  0.0000000  1.0460000  1
  11267  11266  11274  11277     1  0.0000000  0.6694400  3
  11268  11267  11266  11270     1  0.0000000  0.6508444  3
  11268  11267  11273  11279     1  0.0000000  1.0460000  1
  11268  11267  11273  11279     1  0.0000000  0.6694400  3
  11269  11267  11266  11274     1  0.0000000  1.0460000  1
  11269  11267  11266  11274     1  0.0000000  0.0000000  3
  11269  11267  11266  11270     1  0.0000000  0.6508444  3
  11269  11267  11268  11272     1  0.0000000  1.0460000  1
  11269  11267  11268  11272     1  0.0000000  0.0000000  3
  11269  11267  11268  11284     1  0.0000000  1.0460000  1
  11269  11267  11268  11284     1  0.0000000  0.0000000  3
  11269  11267  11268  11271     1  0.0000000  0.6508444  3
  11269  11267  11273  11279     1  0.0000000  0.6973333  3
  11270  11266  11263  11275     1  0.0000000  1.0460000  1
  11270  11266  11263  11275     1  0.0000000  0.0000000  3
  11270  11266  11267  11273     1  0.0000000  1.0460000  1
  11270  11266  11267  11273     1  0.0000000  0.0000000  3
  11270  11266  11274  11277     1  0.0000000  0.6973333  3
  11271  11268  11267  11273     1  0.0000000  0.6508444  3
  11280  11276  11262  11284     1  0.0000000  1.0460000  1
  11280  11276  11262  11284     1  0.0000000  0.0000000  3
  11280  11276  11282  11283     1  0.0000000  0.6973333  3
  11281  11276  11262  11284     1  0.0000000  1.0460000  1
  11281  11276  11262  11284     1  0.0000000  0.0000000  3
  11281  11276  11282  11283     1  0.0000000  0.6973333  3
  11285  11286  11289  11293     1  0.0000000  0.6508444  3
  11285  11286  11298  11301     1  0.0000000  1.0460000  1
  11285  11286  11298  11301     1  0.0000000  0.6694400  3
  11285  11299  11305  11306     1  0.0000000  1.0460000  1
  11285  11299  11305  11306     1  0.0000000  0.6694400  3
  11285  11307  11291  11294     1  0.0000000  1.6038667  3
  11286  11289  11290  11292     1  0.0000000  0.6508444  3
  11286  11289  11297  11300     1  0.0000000  1.0460000  1
  11286  11289  11297  11300     1  0.0000000  0.6694400  3
  11286  11285  11299  11303     1  0.0000000  0.6508444  3
  11286  11285  11299  11304     1  0.0000000  0.6508444  3
  11287  11285  11286  11289     1  0.0000000  0.6508444  3
  11287  11285  11286  11298     1  0.0000000  1.0460000  1
  11287  11285  11286  11298     1  0.0000000  0.0000000  3
  11287  11285  11286  11288     1  0.0000000  0.6508444  3
  11287  11285  11299  11305     1  0.0000000  1.0460000  1
  11287  11285  11299  11305     1  0.0000000  0.0000000  3
  11287  11285  11299  11303     1  0.0000000  0.6508444  3
  11287  11285  11299  11304     1  0.0000000  0.6508444  3
  11287  11285  11307  11291     1  0.0000000  1.6038667  3
  11288  11286  11289  11290     1  0.0000000  0.6508444  3
  11288  11286  11289  11297     1  0.0000000  1.0460000  1
  11288  11286  11289  11297     1  0.0000000  0.0000000  3
  11288  11286  11289  11293     1  0.0000000  0.6508444  3
  11288  11286  11298  11301     1  0.0000000  0.6973333  3
  11288  11286  11285  11299     1  0.0000000  0.6508444  3
  11288  11286  11285  11307     1  0.0000000  1.0460000  1
  11288  11286  11285  11307     1  0.0000000  0.0000000  3
  11289  11290  11291  11294     1  0.0000000  0.6508444  3
  11289  11290  11296  11302     1  0.0000000  1.0460000  1
  11289  11290  11296  11302     1  0.0000000  0.6694400  3
  11289  11286  11298  11301     1  0.0000000  1.0460000  1
  11289  11286  11298  11301     1  0.0000000  0.6694400  3
  11290  11289  11297  11300     1  0.0000000  1.0460000  1
  11290  11289  11297  11300     1  0.0000000  0.6694400  3
  11291  11290  11296  11302     1  0.0000000  1.0460000  1
  11291  11290  11296  11302     1  0.0000000  0.6694400  3
  11291  11290  11289  11293     1  0.0000000  0.6508444  3
  11292  11290  11291  11295     1  0.0000000  1.0460000  1
  11292  11290  11291  11295     1  0.0000000  0.0000000  3
  11292  11290  11291  11307     1  0.0000000  1.0460000  1
  11292  11290  11291  11307     1  0.0000000  0.0000000  3
  11292  11290  11291  11294     1  0.0000000  0.6508444  3
  11292  11290  11296  11302     1  0.0000000  0.6973333  3
  11292  11290  11289  11297     1  0.0000000  1.0460000  1
  11292  11290  11289  11297     1  0.0000000  0.0000000  3
  11292  11290  11289  11293     1  0.0000000  0.6508444  3
  11293  11289  11290  11296     1  0.0000000  1.0460000  1
  11293  11289  11290  11296     1  0.0000000  0.0000000  3
  11293  11289  11297  11300     1  0.0000000  0.6973333  3
  11293  11289  11286  11298     1  0.0000000  1.0460000  1
  11293  11289  11286  11298     1  0.0000000  0.0000000  3
  11294  11291  11290  11296     1  0.0000000  0.6508444  3
  11303  11299  11305  11306     1  0.0000000  0.6973333  3
  11303  11299  11285  11307     1  0.0000000  1.0460000  1
  11303  11299  11285  11307     1  0.0000000  0.0000000  3
  11304  11299  11305  11306     1  0.0000000  0.6973333  3
  11304  11299  11285  11307     1  0.0000000  1.0460000  1
  11304  11299  11285  11307     1  0.0000000  0.0000000  3
  11308  11309  11312  11316     1  0.0000000  0.6508444  3
  11308  11309  11321  11324     1  0.0000000  1.0460000  1
  11308  11309  11321  11324     1  0.0000000  0.6694400  3
  11308  11322  11328  11329     1  0.0000000  1.0460000  1
  11308  11322  11328  11329     1  0.0000000  0.6694400  3
  11308  11330  11314  11317     1  0.0000000  1.6038667  3
  11309  11308  11322  11326     1  0.0000000  0.6508444  3
  11309  11308  11322  11327     1  0.0000000  0.6508444  3
  11309  11312  11313  11315     1  0.0000000  0.6508444  3
  11309  11312  11320  11323     1  0.0000000  1.0460000  1
  11309  11312  11320  11323     1  0.0000000  0.6694400  3
  11310  11308  11309  11312     1  0.0000000  0.6508444  3
  11310  11308  11309  11321     1  0.0000000  1.0460000  1
  11310  11308  11309  11321     1  0.0000000  0.0000000  3
  11310  11308  11309  11311     1  0.0000000  0.6508444  3
  11310  11308  11322  11328     1  0.0000000  1.0460000  1
  11310  11308  11322  11328     1  0.0000000  0.0000000  3
  11310  11308  11322  11326     1  0.0000000  0.6508444  3
  11310  11308  11322  11327     1  0.0000000  0.6508444  3
  11310  11308  11330  11314     1  0.0000000  1.6038667  3
  11311  11309  11308  11322     1  0.0000000  0.6508444  3
  11311  11309  11308  11330     1  0.0000000  1.0460000  1
  11311  11309  11308  11330     1  0.0000000  0.0000000  3
  11311  11309  11312  11313     1  0.0000000  0.6508444  3
  11311  11309  11312  11320     1  0.0000000  1.0460000  1
  11311  11309  11312  11320     1  0.0000000  0.0000000  3
  11311  11309  11312  11316     1  0.0000000  0.6508444  3
  11311  11309  11321  11324     1  0.0000000  0.6973333  3
  11312  11309  11321  11324     1  0.0000000  1.0460000  1
  11312  11309  11321  11324     1  0.0000000  0.6694400  3
  11312  11313  11314  11317     1  0.0000000  0.6508444  3
  11312  11313  11319  11325     1  0.0000000  1.0460000  1
  11312  11313  11319  11325     1  0.0000000  0.6694400  3
  11313  11312  11320  11323     1  0.0000000  1.0460000  1
  11313  11312  11320  11323     1  0.0000000  0.6694400  3
  11314  11313  11312  11316     1  0.0000000  0.6508444  3
  11314  11313  11319  11325     1  0.0000000  1.0460000  1
  11314  11313  11319  11325     1  0.0000000  0.6694400  3
  11315  11313  11312  11320     1  0.0000000  1.0460000  1
  11315  11313  11312  11320     1  0.0000000  0.0000000  3
  11315  11313  11312  11316     1  0.0000000  0.6508444  3
  11315  11313  11314  11318     1  0.0000000  1.0460000  1
  11315  11313  11314  11318     1  0.0000000  0.0000000  3
  11315  11313  11314  11330     1  0.0000000  1.0460000  1
  11315  11313  11314  11330     1  0.0000000  0.0000000  3
  11315  11313  11314  11317     1  0.0000000  0.6508444  3
  11315  11313  11319  11325     1  0.0000000  0.6973333  3
  11316  11312  11309  11321     1  0.0000000  1.0460000  1
  11316  11312  11309  11321     1  0.0000000  0.0000000  3
  11316  11312  11313  11319     1  0.0000000  1.0460000  1
  11316  11312  11313  11319     1  0.0000000  0.0000000  3
  11316  11312  11320  11323     1  0.0000000  0.6973333  3
  11317  11314  11313  11319     1  0.0000000  0.6508444  3
  11326  11322  11308  11330     1  0.0000000  1.0460000  1
  11326  11322  11308  11330     1  0.0000000  0.0000000  3
  11326  11322  11328  11329     1  0.0000000  0.6973333  3
  11327  11322  11308  11330     1  0.0000000  1.0460000  1
  11327  11322  11308  11330     1  0.0000000  0.0000000  3
  11327  11322  11328  11329     1  0.0000000  0.6973333  3
  11331  11332  11335  11339     1  0.0000000  0.6508444  3
  11331  11332  11344  11347     1  0.0000000  1.0460000  1
  11331  11332  11344  11347     1  0.0000000  0.6694400  3
  11331  11345  11351  11352     1  0.0000000  1.0460000  1
  11331  11345  11351  11352     1  0.0000000  0.6694400  3
  11331  11353  11337  11340     1  0.0000000  1.6038667  3
  11332  11335  11336  11338     1  0.0000000  0.6508444  3
  11332  11335  11343  11346     1  0.0000000  1.0460000  1
  11332  11335  11343  11346     1  0.0000000  0.6694400  3
  11332  11331  11345  11349     1  0.0000000  0.6508444  3
  11332  11331  11345  11350     1  0.0000000  0.6508444  3
  11333  11331  11332  11335     1  0.0000000  0.6508444  3
  11333  11331  11332  11344     1  0.0000000  1.0460000  1
  11333  11331  11332  11344     1  0.0000000  0.0000000  3
  11333  11331  11332  11334     1  0.0000000  0.6508444  3
  11333  11331  11345  11351     1  0.0000000  1.0460000  1
  11333  11331  11345  11351     1  0.0000000  0.0000000  3
  11333  11331  11345  11349     1  0.0000000  0.6508444  3
  11333  11331  11345  11350     1  0.0000000  0.6508444  3
  11333  11331  11353  11337     1  0.0000000  1.6038667  3
  11334  11332  11335  11336     1  0.0000000  0.6508444  3
  11334  11332  11335  11343     1  0.0000000  1.0460000  1
  11334  11332  11335  11343     1  0.0000000  0.0000000  3
  11334  11332  11335  11339     1  0.0000000  0.6508444  3
  11334  11332  11344  11347     1  0.0000000  0.6973333  3
  11334  11332  11331  11345     1  0.0000000  0.6508444  3
  11334  11332  11331  11353     1  0.0000000  1.0460000  1
  11334  11332  11331  11353     1  0.0000000  0.0000000  3
  11335  11336  11337  11340     1  0.0000000  0.6508444  3
  11335  11336  11342  11348     1  0.0000000  1.0460000  1
  11335  11336  11342  11348     1  0.0000000  0.6694400  3
  11335  11332  11344  11347     1  0.0000000  1.0460000  1
  11335  11332  11344  11347     1  0.0000000  0.6694400  3
  11336  11335  11343  11346     1  0.0000000  1.0460000  1
  11336  11335  11343  11346     1  0.0000000  0.6694400  3
  11337  11336  11342  11348     1  0.0000000  1.0460000  1
  11337  11336  11342  11348     1  0.0000000  0.6694400  3
  11337  11336  11335  11339     1  0.0000000  0.6508444  3
  11338  11336  11337  11341     1  0.0000000  1.0460000  1
  11338  11336  11337  11341     1  0.0000000  0.0000000  3
  11338  11336  11337  11353     1  0.0000000  1.0460000  1
  11338  11336  11337  11353     1  0.0000000  0.0000000  3
  11338  11336  11337  11340     1  0.0000000  0.6508444  3
  11338  11336  11342  11348     1  0.0000000  0.6973333  3
  11338  11336  11335  11343     1  0.0000000  1.0460000  1
  11338  11336  11335  11343     1  0.0000000  0.0000000  3
  11338  11336  11335  11339     1  0.0000000  0.6508444  3
  11339  11335  11336  11342     1  0.0000000  1.0460000  1
  11339  11335  11336  11342     1  0.0000000  0.0000000  3
  11339  11335  11343  11346     1  0.0000000  0.6973333  3
  11339  11335  11332  11344     1  0.0000000  1.0460000  1
  11339  11335  11332  11344     1  0.0000000  0.0000000  3
  11340  11337  11336  11342     1  0.0000000  0.6508444  3
  11349  11345  11351  11352     1  0.0000000  0.6973333  3
  11349  11345  11331  11353     1  0.0000000  1.0460000  1
  11349  11345  11331  11353     1  0.0000000  0.0000000  3
  11350  11345  11351  11352     1  0.0000000  0.6973333  3
  11350  11345  11331  11353     1  0.0000000  1.0460000  1
  11350  11345  11331  11353     1  0.0000000  0.0000000  3
  11354  11355  11358  11362     1  0.0000000  0.6508444  3
  11354  11355  11367  11370     1  0.0000000  1.0460000  1
  11354  11355  11367  11370     1  0.0000000  0.6694400  3
  11354  11368  11374  11375     1  0.0000000  1.0460000  1
  11354  11368  11374  11375     1  0.0000000  0.6694400  3
  11354  11376  11360  11363     1  0.0000000  1.6038667  3
  11355  11354  11368  11372     1  0.0000000  0.6508444  3
  11355  11354  11368  11373     1  0.0000000  0.6508444  3
  11355  11358  11359  11361     1  0.0000000  0.6508444  3
  11355  11358  11366  11369     1  0.0000000  1.0460000  1
  11355  11358  11366  11369     1  0.0000000  0.6694400  3
  11356  11354  11355  11358     1  0.0000000  0.6508444  3
  11356  11354  11355  11367     1  0.0000000  1.0460000  1
  11356  11354  11355  11367     1  0.0000000  0.0000000  3
  11356  11354  11355  11357     1  0.0000000  0.6508444  3
  11356  11354  11368  11374     1  0.0000000  1.0460000  1
  11356  11354  11368  11374     1  0.0000000  0.0000000  3
  11356  11354  11368  11372     1  0.0000000  0.6508444  3
  11356  11354  11368  11373     1  0.0000000  0.6508444  3
  11356  11354  11376  11360     1  0.0000000  1.6038667  3
  11357  11355  11354  11368     1  0.0000000  0.6508444  3
  11357  11355  11354  11376     1  0.0000000  1.0460000  1
  11357  11355  11354  11376     1  0.0000000  0.0000000  3
  11357  11355  11358  11359     1  0.0000000  0.6508444  3
  11357  11355  11358  11366     1  0.0000000  1.0460000  1
  11357  11355  11358  11366     1  0.0000000  0.0000000  3
  11357  11355  11358  11362     1  0.0000000  0.6508444  3
  11357  11355  11367  11370     1  0.0000000  0.6973333  3
  11358  11355  11367  11370     1  0.0000000  1.0460000  1
  11358  11355  11367  11370     1  0.0000000  0.6694400  3
  11358  11359  11360  11363     1  0.0000000  0.6508444  3
  11358  11359  11365  11371     1  0.0000000  1.0460000  1
  11358  11359  11365  11371     1  0.0000000  0.6694400  3
  11359  11358  11366  11369     1  0.0000000  1.0460000  1
  11359  11358  11366  11369     1  0.0000000  0.6694400  3
  11360  11359  11358  11362     1  0.0000000  0.6508444  3
  11360  11359  11365  11371     1  0.0000000  1.0460000  1
  11360  11359  11365  11371     1  0.0000000  0.6694400  3
  11361  11359  11358  11366     1  0.0000000  1.0460000  1
  11361  11359  11358  11366     1  0.0000000  0.0000000  3
  11361  11359  11358  11362     1  0.0000000  0.6508444  3
  11361  11359  11360  11364     1  0.0000000  1.0460000  1
  11361  11359  11360  11364     1  0.0000000  0.0000000  3
  11361  11359  11360  11376     1  0.0000000  1.0460000  1
  11361  11359  11360  11376     1  0.0000000  0.0000000  3
  11361  11359  11360  11363     1  0.0000000  0.6508444  3
  11361  11359  11365  11371     1  0.0000000  0.6973333  3
  11362  11358  11355  11367     1  0.0000000  1.0460000  1
  11362  11358  11355  11367     1  0.0000000  0.0000000  3
  11362  11358  11359  11365     1  0.0000000  1.0460000  1
  11362  11358  11359  11365     1  0.0000000  0.0000000  3
  11362  11358  11366  11369     1  0.0000000  0.6973333  3
  11363  11360  11359  11365     1  0.0000000  0.6508444  3
  11372  11368  11354  11376     1  0.0000000  1.0460000  1
  11372  11368  11354  11376     1  0.0000000  0.0000000  3
  11372  11368  11374  11375     1  0.0000000  0.6973333  3
  11373  11368  11354  11376     1  0.0000000  1.0460000  1
  11373  11368  11354  11376     1  0.0000000  0.0000000  3
  11373  11368  11374  11375     1  0.0000000  0.6973333  3
  11377  11378  11381  11385     1  0.0000000  0.6508444  3
  11377  11378  11390  11393     1  0.0000000  1.0460000  1
  11377  11378  11390  11393     1  0.0000000  0.6694400  3
  11377  11391  11397  11398     1  0.0000000  1.0460000  1
  11377  11391  11397  11398     1  0.0000000  0.6694400  3
  11377  11399  11383  11386     1  0.0000000  1.6038667  3
  11378  11381  11382  11384     1  0.0000000  0.6508444  3
  11378  11381  11389  11392     1  0.0000000  1.0460000  1
  11378  11381  11389  11392     1  0.0000000  0.6694400  3
  11378  11377  11391  11395     1  0.0000000  0.6508444  3
  11378  11377  11391  11396     1  0.0000000  0.6508444  3
  11379  11377  11378  11381     1  0.0000000  0.6508444  3
  11379  11377  11378  11390     1  0.0000000  1.0460000  1
  11379  11377  11378  11390     1  0.0000000  0.0000000  3
  11379  11377  11378  11380     1  0.0000000  0.6508444  3
  11379  11377  11391  11397     1  0.0000000  1.0460000  1
  11379  11377  11391  11397     1  0.0000000  0.0000000  3
  11379  11377  11391  11395     1  0.0000000  0.6508444  3
  11379  11377  11391  11396     1  0.0000000  0.6508444  3
  11379  11377  11399  11383     1  0.0000000  1.6038667  3
  11380  11378  11381  11382     1  0.0000000  0.6508444  3
  11380  11378  11381  11389     1  0.0000000  1.0460000  1
  11380  11378  11381  11389     1  0.0000000  0.0000000  3
  11380  11378  11381  11385     1  0.0000000  0.6508444  3
  11380  11378  11390  11393     1  0.0000000  0.6973333  3
  11380  11378  11377  11391     1  0.0000000  0.6508444  3
  11380  11378  11377  11399     1  0.0000000  1.0460000  1
  11380  11378  11377  11399     1  0.0000000  0.0000000  3
  11381  11382  11383  11386     1  0.0000000  0.6508444  3
  11381  11382  11388  11394     1  0.0000000  1.0460000  1
  11381  11382  11388  11394     1  0.0000000  0.6694400  3
  11381  11378  11390  11393     1  0.0000000  1.0460000  1
  11381  11378  11390  11393     1  0.0000000  0.6694400  3
  11382  11381  11389  11392     1  0.0000000  1.0460000  1
  11382  11381  11389  11392     1  0.0000000  0.6694400  3
  11383  11382  11388  11394     1  0.0000000  1.0460000  1
  11383  11382  11388  11394     1  0.0000000  0.6694400  3
  11383  11382  11381  11385     1  0.0000000  0.6508444  3
  11384  11382  11383  11387     1  0.0000000  1.0460000  1
  11384  11382  11383  11387     1  0.0000000  0.0000000  3
  11384  11382  11383  11399     1  0.0000000  1.0460000  1
  11384  11382  11383  11399     1  0.0000000  0.0000000  3
  11384  11382  11383  11386     1  0.0000000  0.6508444  3
  11384  11382  11388  11394     1  0.0000000  0.6973333  3
  11384  11382  11381  11389     1  0.0000000  1.0460000  1
  11384  11382  11381  11389     1  0.0000000  0.0000000  3
  11384  11382  11381  11385     1  0.0000000  0.6508444  3
  11385  11381  11382  11388     1  0.0000000  1.0460000  1
  11385  11381  11382  11388     1  0.0000000  0.0000000  3
  11385  11381  11389  11392     1  0.0000000  0.6973333  3
  11385  11381  11378  11390     1  0.0000000  1.0460000  1
  11385  11381  11378  11390     1  0.0000000  0.0000000  3
  11386  11383  11382  11388     1  0.0000000  0.6508444  3
  11395  11391  11397  11398     1  0.0000000  0.6973333  3
  11395  11391  11377  11399     1  0.0000000  1.0460000  1
  11395  11391  11377  11399     1  0.0000000  0.0000000  3
  11396  11391  11397  11398     1  0.0000000  0.6973333  3
  11396  11391  11377  11399     1  0.0000000  1.0460000  1
  11396  11391  11377  11399     1  0.0000000  0.0000000  3
  11400  11401  11404  11408     1  0.0000000  0.6508444  3
  11400  11401  11413  11416     1  0.0000000  1.0460000  1
  11400  11401  11413  11416     1  0.0000000  0.6694400  3
  11400  11414  11420  11421     1  0.0000000  1.0460000  1
  11400  11414  11420  11421     1  0.0000000  0.6694400  3
  11400  11422  11406  11409     1  0.0000000  1.6038667  3
  11401  11400  11414  11418     1  0.0000000  0.6508444  3
  11401  11400  11414  11419     1  0.0000000  0.6508444  3
  11401  11404  11405  11407     1  0.0000000  0.6508444  3
  11401  11404  11412  11415     1  0.0000000  1.0460000  1
  11401  11404  11412  11415     1  0.0000000  0.6694400  3
  11402  11400  11401  11404     1  0.0000000  0.6508444  3
  11402  11400  11401  11413     1  0.0000000  1.0460000  1
  11402  11400  11401  11413     1  0.0000000  0.0000000  3
  11402  11400  11401  11403     1  0.0000000  0.6508444  3
  11402  11400  11414  11420     1  0.0000000  1.0460000  1
  11402  11400  11414  11420     1  0.0000000  0.0000000  3
  11402  11400  11414  11418     1  0.0000000  0.6508444  3
  11402  11400  11414  11419     1  0.0000000  0.6508444  3
  11402  11400  11422  11406     1  0.0000000  1.6038667  3
  11403  11401  11400  11414     1  0.0000000  0.6508444  3
  11403  11401  11400  11422     1  0.0000000  1.0460000  1
  11403  11401  11400  11422     1  0.0000000  0.0000000  3
  11403  11401  11404  11405     1  0.0000000  0.6508444  3
  11403  11401  11404  11412     1  0.0000000  1.0460000  1
  11403  11401  11404  11412     1  0.0000000  0.0000000  3
  11403  11401  11404  11408     1  0.0000000  0.6508444  3
  11403  11401  11413  11416     1  0.0000000  0.6973333  3
  11404  11401  11413  11416     1  0.0000000  1.0460000  1
  11404  11401  11413  11416     1  0.0000000  0.6694400  3
  11404  11405  11406  11409     1  0.0000000  0.6508444  3
  11404  11405  11411  11417     1  0.0000000  1.0460000  1
  11404  11405  11411  11417     1  0.0000000  0.6694400  3
  11405  11404  11412  11415     1  0.0000000  1.0460000  1
  11405  11404  11412  11415     1  0.0000000  0.6694400  3
  11406  11405  11404  11408     1  0.0000000  0.6508444  3
  11406  11405  11411  11417     1  0.0000000  1.0460000  1
  11406  11405  11411  11417     1  0.0000000  0.6694400  3
  11407  11405  11404  11412     1  0.0000000  1.0460000  1
  11407  11405  11404  11412     1  0.0000000  0.0000000  3
  11407  11405  11404  11408     1  0.0000000  0.6508444  3
  11407  11405  11406  11410     1  0.0000000  1.0460000  1
  11407  11405  11406  11410     1  0.0000000  0.0000000  3
  11407  11405  11406  11422     1  0.0000000  1.0460000  1
  11407  11405  11406  11422     1  0.0000000  0.0000000  3
  11407  11405  11406  11409     1  0.0000000  0.6508444  3
  11407  11405  11411  11417     1  0.0000000  0.6973333  3
  11408  11404  11401  11413     1  0.0000000  1.0460000  1
  11408  11404  11401  11413     1  0.0000000  0.0000000  3
  11408  11404  11405  11411     1  0.0000000  1.0460000  1
  11408  11404  11405  11411     1  0.0000000  0.0000000  3
  11408  11404  11412  11415     1  0.0000000  0.6973333  3
  11409  11406  11405  11411     1  0.0000000  0.6508444  3
  11418  11414  11400  11422     1  0.0000000  1.0460000  1
  11418  11414  11400  11422     1  0.0000000  0.0000000  3
  11418  11414  11420  11421     1  0.0000000  0.6973333  3
  11419  11414  11400  11422     1  0.0000000  1.0460000  1
  11419  11414  11400  11422     1  0.0000000  0.0000000  3
  11419  11414  11420  11421     1  0.0000000  0.6973333  3
  11423  11424  11427  11431     1  0.0000000  0.6508444  3
  11423  11424  11436  11439     1  0.0000000  1.0460000  1
  11423  11424  11436  11439     1  0.0000000  0.6694400  3
  11423  11437  11443  11444     1  0.0000000  1.0460000  1
  11423  11437  11443  11444     1  0.0000000  0.6694400  3
  11423  11445  11429  11432     1  0.0000000  1.6038667  3
  11424  11427  11428  11430     1  0.0000000  0.6508444  3
  11424  11427  11435  11438     1  0.0000000  1.0460000  1
  11424  11427  11435  11438     1  0.0000000  0.6694400  3
  11424  11423  11437  11441     1  0.0000000  0.6508444  3
  11424  11423  11437  11442     1  0.0000000  0.6508444  3
  11425  11423  11424  11427     1  0.0000000  0.6508444  3
  11425  11423  11424  11436     1  0.0000000  1.0460000  1
  11425  11423  11424  11436     1  0.0000000  0.0000000  3
  11425  11423  11424  11426     1  0.0000000  0.6508444  3
  11425  11423  11437  11443     1  0.0000000  1.0460000  1
  11425  11423  11437  11443     1  0.0000000  0.0000000  3
  11425  11423  11437  11441     1  0.0000000  0.6508444  3
  11425  11423  11437  11442     1  0.0000000  0.6508444  3
  11425  11423  11445  11429     1  0.0000000  1.6038667  3
  11426  11424  11427  11428     1  0.0000000  0.6508444  3
  11426  11424  11427  11435     1  0.0000000  1.0460000  1
  11426  11424  11427  11435     1  0.0000000  0.0000000  3
  11426  11424  11427  11431     1  0.0000000  0.6508444  3
  11426  11424  11436  11439     1  0.0000000  0.6973333  3
  11426  11424  11423  11437     1  0.0000000  0.6508444  3
  11426  11424  11423  11445     1  0.0000000  1.0460000  1
  11426  11424  11423  11445     1  0.0000000  0.0000000  3
  11427  11428  11429  11432     1  0.0000000  0.6508444  3
  11427  11428  11434  11440     1  0.0000000  1.0460000  1
  11427  11428  11434  11440     1  0.0000000  0.6694400  3
  11427  11424  11436  11439     1  0.0000000  1.0460000  1
  11427  11424  11436  11439     1  0.0000000  0.6694400  3
  11428  11427  11435  11438     1  0.0000000  1.0460000  1
  11428  11427  11435  11438     1  0.0000000  0.6694400  3
  11429  11428  11434  11440     1  0.0000000  1.0460000  1
  11429  11428  11434  11440     1  0.0000000  0.6694400  3
  11429  11428  11427  11431     1  0.0000000  0.6508444  3
  11430  11428  11429  11433     1  0.0000000  1.0460000  1
  11430  11428  11429  11433     1  0.0000000  0.0000000  3
  11430  11428  11429  11445     1  0.0000000  1.0460000  1
  11430  11428  11429  11445     1  0.0000000  0.0000000  3
  11430  11428  11429  11432     1  0.0000000  0.6508444  3
  11430  11428  11434  11440     1  0.0000000  0.6973333  3
  11430  11428  11427  11435     1  0.0000000  1.0460000  1
  11430  11428  11427  11435     1  0.0000000  0.0000000  3
  11430  11428  11427  11431     1  0.0000000  0.6508444  3
  11431  11427  11428  11434     1  0.0000000  1.0460000  1
  11431  11427  11428  11434     1  0.0000000  0.0000000  3
  11431  11427  11435  11438     1  0.0000000  0.6973333  3
  11431  11427  11424  11436     1  0.0000000  1.0460000  1
  11431  11427  11424  11436     1  0.0000000  0.0000000  3
  11432  11429  11428  11434     1  0.0000000  0.6508444  3
  11441  11437  11443  11444     1  0.0000000  0.6973333  3
  11441  11437  11423  11445     1  0.0000000  1.0460000  1
  11441  11437  11423  11445     1  0.0000000  0.0000000  3
  11442  11437  11443  11444     1  0.0000000  0.6973333  3
  11442  11437  11423  11445     1  0.0000000  1.0460000  1
  11442  11437  11423  11445     1  0.0000000  0.0000000  3
  11446  11447  11450  11454     1  0.0000000  0.6508444  3
  11446  11447  11459  11462     1  0.0000000  1.0460000  1
  11446  11447  11459  11462     1  0.0000000  0.6694400  3
  11446  11460  11466  11467     1  0.0000000  1.0460000  1
  11446  11460  11466  11467     1  0.0000000  0.6694400  3
  11446  11468  11452  11455     1  0.0000000  1.6038667  3
  11447  11446  11460  11464     1  0.0000000  0.6508444  3
  11447  11446  11460  11465     1  0.0000000  0.6508444  3
  11447  11450  11451  11453     1  0.0000000  0.6508444  3
  11447  11450  11458  11461     1  0.0000000  1.0460000  1
  11447  11450  11458  11461     1  0.0000000  0.6694400  3
  11448  11446  11447  11450     1  0.0000000  0.6508444  3
  11448  11446  11447  11459     1  0.0000000  1.0460000  1
  11448  11446  11447  11459     1  0.0000000  0.0000000  3
  11448  11446  11447  11449     1  0.0000000  0.6508444  3
  11448  11446  11460  11466     1  0.0000000  1.0460000  1
  11448  11446  11460  11466     1  0.0000000  0.0000000  3
  11448  11446  11460  11464     1  0.0000000  0.6508444  3
  11448  11446  11460  11465     1  0.0000000  0.6508444  3
  11448  11446  11468  11452     1  0.0000000  1.6038667  3
  11449  11447  11446  11460     1  0.0000000  0.6508444  3
  11449  11447  11446  11468     1  0.0000000  1.0460000  1
  11449  11447  11446  11468     1  0.0000000  0.0000000  3
  11449  11447  11450  11451     1  0.0000000  0.6508444  3
  11449  11447  11450  11458     1  0.0000000  1.0460000  1
  11449  11447  11450  11458     1  0.0000000  0.0000000  3
  11449  11447  11450  11454     1  0.0000000  0.6508444  3
  11449  11447  11459  11462     1  0.0000000  0.6973333  3
  11450  11447  11459  11462     1  0.0000000  1.0460000  1
  11450  11447  11459  11462     1  0.0000000  0.6694400  3
  11450  11451  11452  11455     1  0.0000000  0.6508444  3
  11450  11451  11457  11463     1  0.0000000  1.0460000  1
  11450  11451  11457  11463     1  0.0000000  0.6694400  3
  11451  11450  11458  11461     1  0.0000000  1.0460000  1
  11451  11450  11458  11461     1  0.0000000  0.6694400  3
  11452  11451  11450  11454     1  0.0000000  0.6508444  3
  11452  11451  11457  11463     1  0.0000000  1.0460000  1
  11452  11451  11457  11463     1  0.0000000  0.6694400  3
  11453  11451  11450  11458     1  0.0000000  1.0460000  1
  11453  11451  11450  11458     1  0.0000000  0.0000000  3
  11453  11451  11450  11454     1  0.0000000  0.6508444  3
  11453  11451  11452  11456     1  0.0000000  1.0460000  1
  11453  11451  11452  11456     1  0.0000000  0.0000000  3
  11453  11451  11452  11468     1  0.0000000  1.0460000  1
  11453  11451  11452  11468     1  0.0000000  0.0000000  3
  11453  11451  11452  11455     1  0.0000000  0.6508444  3
  11453  11451  11457  11463     1  0.0000000  0.6973333  3
  11454  11450  11447  11459     1  0.0000000  1.0460000  1
  11454  11450  11447  11459     1  0.0000000  0.0000000  3
  11454  11450  11451  11457     1  0.0000000  1.0460000  1
  11454  11450  11451  11457     1  0.0000000  0.0000000  3
  11454  11450  11458  11461     1  0.0000000  0.6973333  3
  11455  11452  11451  11457     1  0.0000000  0.6508444  3
  11464  11460  11446  11468     1  0.0000000  1.0460000  1
  11464  11460  11446  11468     1  0.0000000  0.0000000  3
  11464  11460  11466  11467     1  0.0000000  0.6973333  3
  11465  11460  11446  11468     1  0.0000000  1.0460000  1
  11465  11460  11446  11468     1  0.0000000  0.0000000  3
  11465  11460  11466  11467     1  0.0000000  0.6973333  3
  11469  11470  11473  11477     1  0.0000000  0.6508444  3
  11469  11470  11482  11485     1  0.0000000  1.0460000  1
  11469  11470  11482  11485     1  0.0000000  0.6694400  3
  11469  11483  11489  11490     1  0.0000000  1.0460000  1
  11469  11483  11489  11490     1  0.0000000  0.6694400  3
  11469  11491  11475  11478     1  0.0000000  1.6038667  3
  11470  11473  11474  11476     1  0.0000000  0.6508444  3
  11470  11473  11481  11484     1  0.0000000  1.0460000  1
  11470  11473  11481  11484     1  0.0000000  0.6694400  3
  11470  11469  11483  11487     1  0.0000000  0.6508444  3
  11470  11469  11483  11488     1  0.0000000  0.6508444  3
  11471  11469  11470  11473     1  0.0000000  0.6508444  3
  11471  11469  11470  11482     1  0.0000000  1.0460000  1
  11471  11469  11470  11482     1  0.0000000  0.0000000  3
  11471  11469  11470  11472     1  0.0000000  0.6508444  3
  11471  11469  11483  11489     1  0.0000000  1.0460000  1
  11471  11469  11483  11489     1  0.0000000  0.0000000  3
  11471  11469  11483  11487     1  0.0000000  0.6508444  3
  11471  11469  11483  11488     1  0.0000000  0.6508444  3
  11471  11469  11491  11475     1  0.0000000  1.6038667  3
  11472  11470  11473  11474     1  0.0000000  0.6508444  3
  11472  11470  11473  11481     1  0.0000000  1.0460000  1
  11472  11470  11473  11481     1  0.0000000  0.0000000  3
  11472  11470  11473  11477     1  0.0000000  0.6508444  3
  11472  11470  11482  11485     1  0.0000000  0.6973333  3
  11472  11470  11469  11483     1  0.0000000  0.6508444  3
  11472  11470  11469  11491     1  0.0000000  1.0460000  1
  11472  11470  11469  11491     1  0.0000000  0.0000000  3
  11473  11474  11475  11478     1  0.0000000  0.6508444  3
  11473  11474  11480  11486     1  0.0000000  1.0460000  1
  11473  11474  11480  11486     1  0.0000000  0.6694400  3
  11473  11470  11482  11485     1  0.0000000  1.0460000  1
  11473  11470  11482  11485     1  0.0000000  0.6694400  3
  11474  11473  11481  11484     1  0.0000000  1.0460000  1
  11474  11473  11481  11484     1  0.0000000  0.6694400  3
  11475  11474  11480  11486     1  0.0000000  1.0460000  1
  11475  11474  11480  11486     1  0.0000000  0.6694400  3
  11475  11474  11473  11477     1  0.0000000  0.6508444  3
  11476  11474  11475  11479     1  0.0000000  1.0460000  1
  11476  11474  11475  11479     1  0.0000000  0.0000000  3
  11476  11474  11475  11491     1  0.0000000  1.0460000  1
  11476  11474  11475  11491     1  0.0000000  0.0000000  3
  11476  11474  11475  11478     1  0.0000000  0.6508444  3
  11476  11474  11480  11486     1  0.0000000  0.6973333  3
  11476  11474  11473  11481     1  0.0000000  1.0460000  1
  11476  11474  11473  11481     1  0.0000000  0.0000000  3
  11476  11474  11473  11477     1  0.0000000  0.6508444  3
  11477  11473  11474  11480     1  0.0000000  1.0460000  1
  11477  11473  11474  11480     1  0.0000000  0.0000000  3
  11477  11473  11481  11484     1  0.0000000  0.6973333  3
  11477  11473  11470  11482     1  0.0000000  1.0460000  1
  11477  11473  11470  11482     1  0.0000000  0.0000000  3
  11478  11475  11474  11480     1  0.0000000  0.6508444  3
  11487  11483  11489  11490     1  0.0000000  0.6973333  3
  11487  11483  11469  11491     1  0.0000000  1.0460000  1
  11487  11483  11469  11491     1  0.0000000  0.0000000  3
  11488  11483  11489  11490     1  0.0000000  0.6973333  3
  11488  11483  11469  11491     1  0.0000000  1.0460000  1
  11488  11483  11469  11491     1  0.0000000  0.0000000  3
  11492  11493  11496  11500     1  0.0000000  0.6508444  3
  11492  11493  11505  11508     1  0.0000000  1.0460000  1
  11492  11493  11505  11508     1  0.0000000  0.6694400  3
  11492  11506  11512  11513     1  0.0000000  1.0460000  1
  11492  11506  11512  11513     1  0.0000000  0.6694400  3
  11492  11514  11498  11501     1  0.0000000  1.6038667  3
  11493  11492  11506  11510     1  0.0000000  0.6508444  3
  11493  11492  11506  11511     1  0.0000000  0.6508444  3
  11493  11496  11497  11499     1  0.0000000  0.6508444  3
  11493  11496  11504  11507     1  0.0000000  1.0460000  1
  11493  11496  11504  11507     1  0.0000000  0.6694400  3
  11494  11492  11493  11496     1  0.0000000  0.6508444  3
  11494  11492  11493  11505     1  0.0000000  1.0460000  1
  11494  11492  11493  11505     1  0.0000000  0.0000000  3
  11494  11492  11493  11495     1  0.0000000  0.6508444  3
  11494  11492  11506  11512     1  0.0000000  1.0460000  1
  11494  11492  11506  11512     1  0.0000000  0.0000000  3
  11494  11492  11506  11510     1  0.0000000  0.6508444  3
  11494  11492  11506  11511     1  0.0000000  0.6508444  3
  11494  11492  11514  11498     1  0.0000000  1.6038667  3
  11495  11493  11492  11506     1  0.0000000  0.6508444  3
  11495  11493  11492  11514     1  0.0000000  1.0460000  1
  11495  11493  11492  11514     1  0.0000000  0.0000000  3
  11495  11493  11496  11497     1  0.0000000  0.6508444  3
  11495  11493  11496  11504     1  0.0000000  1.0460000  1
  11495  11493  11496  11504     1  0.0000000  0.0000000  3
  11495  11493  11496  11500     1  0.0000000  0.6508444  3
  11495  11493  11505  11508     1  0.0000000  0.6973333  3
  11496  11493  11505  11508     1  0.0000000  1.0460000  1
  11496  11493  11505  11508     1  0.0000000  0.6694400  3
  11496  11497  11498  11501     1  0.0000000  0.6508444  3
  11496  11497  11503  11509     1  0.0000000  1.0460000  1
  11496  11497  11503  11509     1  0.0000000  0.6694400  3
  11497  11496  11504  11507     1  0.0000000  1.0460000  1
  11497  11496  11504  11507     1  0.0000000  0.6694400  3
  11498  11497  11496  11500     1  0.0000000  0.6508444  3
  11498  11497  11503  11509     1  0.0000000  1.0460000  1
  11498  11497  11503  11509     1  0.0000000  0.6694400  3
  11499  11497  11496  11504     1  0.0000000  1.0460000  1
  11499  11497  11496  11504     1  0.0000000  0.0000000  3
  11499  11497  11496  11500     1  0.0000000  0.6508444  3
  11499  11497  11498  11502     1  0.0000000  1.0460000  1
  11499  11497  11498  11502     1  0.0000000  0.0000000  3
  11499  11497  11498  11514     1  0.0000000  1.0460000  1
  11499  11497  11498  11514     1  0.0000000  0.0000000  3
  11499  11497  11498  11501     1  0.0000000  0.6508444  3
  11499  11497  11503  11509     1  0.0000000  0.6973333  3
  11500  11496  11493  11505     1  0.0000000  1.0460000  1
  11500  11496  11493  11505     1  0.0000000  0.0000000  3
  11500  11496  11497  11503     1  0.0000000  1.0460000  1
  11500  11496  11497  11503     1  0.0000000  0.0000000  3
  11500  11496  11504  11507     1  0.0000000  0.6973333  3
  11501  11498  11497  11503     1  0.0000000  0.6508444  3
  11510  11506  11492  11514     1  0.0000000  1.0460000  1
  11510  11506  11492  11514     1  0.0000000  0.0000000  3
  11510  11506  11512  11513     1  0.0000000  0.6973333  3
  11511  11506  11492  11514     1  0.0000000  1.0460000  1
  11511  11506  11492  11514     1  0.0000000  0.0000000  3
  11511  11506  11512  11513     1  0.0000000  0.6973333  3
  11515  11516  11519  11523     1  0.0000000  0.6508444  3
  11515  11516  11528  11531     1  0.0000000  1.0460000  1
  11515  11516  11528  11531     1  0.0000000  0.6694400  3
  11515  11529  11535  11536     1  0.0000000  1.0460000  1
  11515  11529  11535  11536     1  0.0000000  0.6694400  3
  11515  11537  11521  11524     1  0.0000000  1.6038667  3
  11516  11519  11520  11522     1  0.0000000  0.6508444  3
  11516  11519  11527  11530     1  0.0000000  1.0460000  1
  11516  11519  11527  11530     1  0.0000000  0.6694400  3
  11516  11515  11529  11533     1  0.0000000  0.6508444  3
  11516  11515  11529  11534     1  0.0000000  0.6508444  3
  11517  11515  11516  11519     1  0.0000000  0.6508444  3
  11517  11515  11516  11528     1  0.0000000  1.0460000  1
  11517  11515  11516  11528     1  0.0000000  0.0000000  3
  11517  11515  11516  11518     1  0.0000000  0.6508444  3
  11517  11515  11529  11535     1  0.0000000  1.0460000  1
  11517  11515  11529  11535     1  0.0000000  0.0000000  3
  11517  11515  11529  11533     1  0.0000000  0.6508444  3
  11517  11515  11529  11534     1  0.0000000  0.6508444  3
  11517  11515  11537  11521     1  0.0000000  1.6038667  3
  11518  11516  11519  11520     1  0.0000000  0.6508444  3
  11518  11516  11519  11527     1  0.0000000  1.0460000  1
  11518  11516  11519  11527     1  0.0000000  0.0000000  3
  11518  11516  11519  11523     1  0.0000000  0.6508444  3
  11518  11516  11528  11531     1  0.0000000  0.6973333  3
  11518  11516  11515  11529     1  0.0000000  0.6508444  3
  11518  11516  11515  11537     1  0.0000000  1.0460000  1
  11518  11516  11515  11537     1  0.0000000  0.0000000  3
  11519  11520  11521  11524     1  0.0000000  0.6508444  3
  11519  11520  11526  11532     1  0.0000000  1.0460000  1
  11519  11520  11526  11532     1  0.0000000  0.6694400  3
  11519  11516  11528  11531     1  0.0000000  1.0460000  1
  11519  11516  11528  11531     1  0.0000000  0.6694400  3
  11520  11519  11527  11530     1  0.0000000  1.0460000  1
  11520  11519  11527  11530     1  0.0000000  0.6694400  3
  11521  11520  11526  11532     1  0.0000000  1.0460000  1
  11521  11520  11526  11532     1  0.0000000  0.6694400  3
  11521  11520  11519  11523     1  0.0000000  0.6508444  3
  11522  11520  11521  11525     1  0.0000000  1.0460000  1
  11522  11520  11521  11525     1  0.0000000  0.0000000  3
  11522  11520  11521  11537     1  0.0000000  1.0460000  1
  11522  11520  11521  11537     1  0.0000000  0.0000000  3
  11522  11520  11521  11524     1  0.0000000  0.6508444  3
  11522  11520  11526  11532     1  0.0000000  0.6973333  3
  11522  11520  11519  11527     1  0.0000000  1.0460000  1
  11522  11520  11519  11527     1  0.0000000  0.0000000  3
  11522  11520  11519  11523     1  0.0000000  0.6508444  3
  11523  11519  11520  11526     1  0.0000000  1.0460000  1
  11523  11519  11520  11526     1  0.0000000  0.0000000  3
  11523  11519  11527  11530     1  0.0000000  0.6973333  3
  11523  11519  11516  11528     1  0.0000000  1.0460000  1
  11523  11519  11516  11528     1  0.0000000  0.0000000  3
  11524  11521  11520  11526     1  0.0000000  0.6508444  3
  11533  11529  11535  11536     1  0.0000000  0.6973333  3
  11533  11529  11515  11537     1  0.0000000  1.0460000  1
  11533  11529  11515  11537     1  0.0000000  0.0000000  3
  11534  11529  11535  11536     1  0.0000000  0.6973333  3
  11534  11529  11515  11537     1  0.0000000  1.0460000  1
  11534  11529  11515  11537     1  0.0000000  0.0000000  3
  11538  11539  11542  11546     1  0.0000000  0.6508444  3
  11538  11539  11551  11554     1  0.0000000  1.0460000  1
  11538  11539  11551  11554     1  0.0000000  0.6694400  3
  11538  11552  11558  11559     1  0.0000000  1.0460000  1
  11538  11552  11558  11559     1  0.0000000  0.6694400  3
  11538  11560  11544  11547     1  0.0000000  1.6038667  3
  11539  11538  11552  11556     1  0.0000000  0.6508444  3
  11539  11538  11552  11557     1  0.0000000  0.6508444  3
  11539  11542  11543  11545     1  0.0000000  0.6508444  3
  11539  11542  11550  11553     1  0.0000000  1.0460000  1
  11539  11542  11550  11553     1  0.0000000  0.6694400  3
  11540  11538  11539  11542     1  0.0000000  0.6508444  3
  11540  11538  11539  11551     1  0.0000000  1.0460000  1
  11540  11538  11539  11551     1  0.0000000  0.0000000  3
  11540  11538  11539  11541     1  0.0000000  0.6508444  3
  11540  11538  11552  11558     1  0.0000000  1.0460000  1
  11540  11538  11552  11558     1  0.0000000  0.0000000  3
  11540  11538  11552  11556     1  0.0000000  0.6508444  3
  11540  11538  11552  11557     1  0.0000000  0.6508444  3
  11540  11538  11560  11544     1  0.0000000  1.6038667  3
  11541  11539  11538  11552     1  0.0000000  0.6508444  3
  11541  11539  11538  11560     1  0.0000000  1.0460000  1
  11541  11539  11538  11560     1  0.0000000  0.0000000  3
  11541  11539  11542  11543     1  0.0000000  0.6508444  3
  11541  11539  11542  11550     1  0.0000000  1.0460000  1
  11541  11539  11542  11550     1  0.0000000  0.0000000  3
  11541  11539  11542  11546     1  0.0000000  0.6508444  3
  11541  11539  11551  11554     1  0.0000000  0.6973333  3
  11542  11539  11551  11554     1  0.0000000  1.0460000  1
  11542  11539  11551  11554     1  0.0000000  0.6694400  3
  11542  11543  11544  11547     1  0.0000000  0.6508444  3
  11542  11543  11549  11555     1  0.0000000  1.0460000  1
  11542  11543  11549  11555     1  0.0000000  0.6694400  3
  11543  11542  11550  11553     1  0.0000000  1.0460000  1
  11543  11542  11550  11553     1  0.0000000  0.6694400  3
  11544  11543  11542  11546     1  0.0000000  0.6508444  3
  11544  11543  11549  11555     1  0.0000000  1.0460000  1
  11544  11543  11549  11555     1  0.0000000  0.6694400  3
  11545  11543  11542  11550     1  0.0000000  1.0460000  1
  11545  11543  11542  11550     1  0.0000000  0.0000000  3
  11545  11543  11542  11546     1  0.0000000  0.6508444  3
  11545  11543  11544  11548     1  0.0000000  1.0460000  1
  11545  11543  11544  11548     1  0.0000000  0.0000000  3
  11545  11543  11544  11560     1  0.0000000  1.0460000  1
  11545  11543  11544  11560     1  0.0000000  0.0000000  3
  11545  11543  11544  11547     1  0.0000000  0.6508444  3
  11545  11543  11549  11555     1  0.0000000  0.6973333  3
  11546  11542  11539  11551     1  0.0000000  1.0460000  1
  11546  11542  11539  11551     1  0.0000000  0.0000000  3
  11546  11542  11543  11549     1  0.0000000  1.0460000  1
  11546  11542  11543  11549     1  0.0000000  0.0000000  3
  11546  11542  11550  11553     1  0.0000000  0.6973333  3
  11547  11544  11543  11549     1  0.0000000  0.6508444  3
  11556  11552  11538  11560     1  0.0000000  1.0460000  1
  11556  11552  11538  11560     1  0.0000000  0.0000000  3
  11556  11552  11558  11559     1  0.0000000  0.6973333  3
  11557  11552  11538  11560     1  0.0000000  1.0460000  1
  11557  11552  11538  11560     1  0.0000000  0.0000000  3
  11557  11552  11558  11559     1  0.0000000  0.6973333  3
  11561  11562  11565  11569     1  0.0000000  0.6508444  3
  11561  11562  11574  11577     1  0.0000000  1.0460000  1
  11561  11562  11574  11577     1  0.0000000  0.6694400  3
  11561  11575  11581  11582     1  0.0000000  1.0460000  1
  11561  11575  11581  11582     1  0.0000000  0.6694400  3
  11561  11583  11567  11570     1  0.0000000  1.6038667  3
  11562  11565  11566  11568     1  0.0000000  0.6508444  3
  11562  11565  11573  11576     1  0.0000000  1.0460000  1
  11562  11565  11573  11576     1  0.0000000  0.6694400  3
  11562  11561  11575  11579     1  0.0000000  0.6508444  3
  11562  11561  11575  11580     1  0.0000000  0.6508444  3
  11563  11561  11562  11565     1  0.0000000  0.6508444  3
  11563  11561  11562  11574     1  0.0000000  1.0460000  1
  11563  11561  11562  11574     1  0.0000000  0.0000000  3
  11563  11561  11562  11564     1  0.0000000  0.6508444  3
  11563  11561  11575  11581     1  0.0000000  1.0460000  1
  11563  11561  11575  11581     1  0.0000000  0.0000000  3
  11563  11561  11575  11579     1  0.0000000  0.6508444  3
  11563  11561  11575  11580     1  0.0000000  0.6508444  3
  11563  11561  11583  11567     1  0.0000000  1.6038667  3
  11564  11562  11565  11566     1  0.0000000  0.6508444  3
  11564  11562  11565  11573     1  0.0000000  1.0460000  1
  11564  11562  11565  11573     1  0.0000000  0.0000000  3
  11564  11562  11565  11569     1  0.0000000  0.6508444  3
  11564  11562  11574  11577     1  0.0000000  0.6973333  3
  11564  11562  11561  11575     1  0.0000000  0.6508444  3
  11564  11562  11561  11583     1  0.0000000  1.0460000  1
  11564  11562  11561  11583     1  0.0000000  0.0000000  3
  11565  11566  11567  11570     1  0.0000000  0.6508444  3
  11565  11566  11572  11578     1  0.0000000  1.0460000  1
  11565  11566  11572  11578     1  0.0000000  0.6694400  3
  11565  11562  11574  11577     1  0.0000000  1.0460000  1
  11565  11562  11574  11577     1  0.0000000  0.6694400  3
  11566  11565  11573  11576     1  0.0000000  1.0460000  1
  11566  11565  11573  11576     1  0.0000000  0.6694400  3
  11567  11566  11572  11578     1  0.0000000  1.0460000  1
  11567  11566  11572  11578     1  0.0000000  0.6694400  3
  11567  11566  11565  11569     1  0.0000000  0.6508444  3
  11568  11566  11567  11571     1  0.0000000  1.0460000  1
  11568  11566  11567  11571     1  0.0000000  0.0000000  3
  11568  11566  11567  11583     1  0.0000000  1.0460000  1
  11568  11566  11567  11583     1  0.0000000  0.0000000  3
  11568  11566  11567  11570     1  0.0000000  0.6508444  3
  11568  11566  11572  11578     1  0.0000000  0.6973333  3
  11568  11566  11565  11573     1  0.0000000  1.0460000  1
  11568  11566  11565  11573     1  0.0000000  0.0000000  3
  11568  11566  11565  11569     1  0.0000000  0.6508444  3
  11569  11565  11566  11572     1  0.0000000  1.0460000  1
  11569  11565  11566  11572     1  0.0000000  0.0000000  3
  11569  11565  11573  11576     1  0.0000000  0.6973333  3
  11569  11565  11562  11574     1  0.0000000  1.0460000  1
  11569  11565  11562  11574     1  0.0000000  0.0000000  3
  11570  11567  11566  11572     1  0.0000000  0.6508444  3
  11579  11575  11581  11582     1  0.0000000  0.6973333  3
  11579  11575  11561  11583     1  0.0000000  1.0460000  1
  11579  11575  11561  11583     1  0.0000000  0.0000000  3
  11580  11575  11581  11582     1  0.0000000  0.6973333  3
  11580  11575  11561  11583     1  0.0000000  1.0460000  1
  11580  11575  11561  11583     1  0.0000000  0.0000000  3
  11584  11585  11588  11592     1  0.0000000  0.6508444  3
  11584  11585  11597  11600     1  0.0000000  1.0460000  1
  11584  11585  11597  11600     1  0.0000000  0.6694400  3
  11584  11598  11604  11605     1  0.0000000  1.0460000  1
  11584  11598  11604  11605     1  0.0000000  0.6694400  3
  11584  11606  11590  11593     1  0.0000000  1.6038667  3
  11585  11584  11598  11602     1  0.0000000  0.6508444  3
  11585  11584  11598  11603     1  0.0000000  0.6508444  3
  11585  11588  11589  11591     1  0.0000000  0.6508444  3
  11585  11588  11596  11599     1  0.0000000  1.0460000  1
  11585  11588  11596  11599     1  0.0000000  0.6694400  3
  11586  11584  11585  11588     1  0.0000000  0.6508444  3
  11586  11584  11585  11597     1  0.0000000  1.0460000  1
  11586  11584  11585  11597     1  0.0000000  0.0000000  3
  11586  11584  11585  11587     1  0.0000000  0.6508444  3
  11586  11584  11598  11604     1  0.0000000  1.0460000  1
  11586  11584  11598  11604     1  0.0000000  0.0000000  3
  11586  11584  11598  11602     1  0.0000000  0.6508444  3
  11586  11584  11598  11603     1  0.0000000  0.6508444  3
  11586  11584  11606  11590     1  0.0000000  1.6038667  3
  11587  11585  11584  11598     1  0.0000000  0.6508444  3
  11587  11585  11584  11606     1  0.0000000  1.0460000  1
  11587  11585  11584  11606     1  0.0000000  0.0000000  3
  11587  11585  11588  11589     1  0.0000000  0.6508444  3
  11587  11585  11588  11596     1  0.0000000  1.0460000  1
  11587  11585  11588  11596     1  0.0000000  0.0000000  3
  11587  11585  11588  11592     1  0.0000000  0.6508444  3
  11587  11585  11597  11600     1  0.0000000  0.6973333  3
  11588  11585  11597  11600     1  0.0000000  1.0460000  1
  11588  11585  11597  11600     1  0.0000000  0.6694400  3
  11588  11589  11590  11593     1  0.0000000  0.6508444  3
  11588  11589  11595  11601     1  0.0000000  1.0460000  1
  11588  11589  11595  11601     1  0.0000000  0.6694400  3
  11589  11588  11596  11599     1  0.0000000  1.0460000  1
  11589  11588  11596  11599     1  0.0000000  0.6694400  3
  11590  11589  11588  11592     1  0.0000000  0.6508444  3
  11590  11589  11595  11601     1  0.0000000  1.0460000  1
  11590  11589  11595  11601     1  0.0000000  0.6694400  3
  11591  11589  11588  11596     1  0.0000000  1.0460000  1
  11591  11589  11588  11596     1  0.0000000  0.0000000  3
  11591  11589  11588  11592     1  0.0000000  0.6508444  3
  11591  11589  11590  11594     1  0.0000000  1.0460000  1
  11591  11589  11590  11594     1  0.0000000  0.0000000  3
  11591  11589  11590  11606     1  0.0000000  1.0460000  1
  11591  11589  11590  11606     1  0.0000000  0.0000000  3
  11591  11589  11590  11593     1  0.0000000  0.6508444  3
  11591  11589  11595  11601     1  0.0000000  0.6973333  3
  11592  11588  11585  11597     1  0.0000000  1.0460000  1
  11592  11588  11585  11597     1  0.0000000  0.0000000  3
  11592  11588  11589  11595     1  0.0000000  1.0460000  1
  11592  11588  11589  11595     1  0.0000000  0.0000000  3
  11592  11588  11596  11599     1  0.0000000  0.6973333  3
  11593  11590  11589  11595     1  0.0000000  0.6508444  3
  11602  11598  11584  11606     1  0.0000000  1.0460000  1
  11602  11598  11584  11606     1  0.0000000  0.0000000  3
  11602  11598  11604  11605     1  0.0000000  0.6973333  3
  11603  11598  11584  11606     1  0.0000000  1.0460000  1
  11603  11598  11584  11606     1  0.0000000  0.0000000  3
  11603  11598  11604  11605     1  0.0000000  0.6973333  3
  11607  11608  11611  11615     1  0.0000000  0.6508444  3
  11607  11608  11620  11623     1  0.0000000  1.0460000  1
  11607  11608  11620  11623     1  0.0000000  0.6694400  3
  11607  11621  11627  11628     1  0.0000000  1.0460000  1
  11607  11621  11627  11628     1  0.0000000  0.6694400  3
  11607  11629  11613  11616     1  0.0000000  1.6038667  3
  11608  11611  11612  11614     1  0.0000000  0.6508444  3
  11608  11611  11619  11622     1  0.0000000  1.0460000  1
  11608  11611  11619  11622     1  0.0000000  0.6694400  3
  11608  11607  11621  11625     1  0.0000000  0.6508444  3
  11608  11607  11621  11626     1  0.0000000  0.6508444  3
  11609  11607  11608  11611     1  0.0000000  0.6508444  3
  11609  11607  11608  11620     1  0.0000000  1.0460000  1
  11609  11607  11608  11620     1  0.0000000  0.0000000  3
  11609  11607  11608  11610     1  0.0000000  0.6508444  3
  11609  11607  11621  11627     1  0.0000000  1.0460000  1
  11609  11607  11621  11627     1  0.0000000  0.0000000  3
  11609  11607  11621  11625     1  0.0000000  0.6508444  3
  11609  11607  11621  11626     1  0.0000000  0.6508444  3
  11609  11607  11629  11613     1  0.0000000  1.6038667  3
  11610  11608  11611  11612     1  0.0000000  0.6508444  3
  11610  11608  11611  11619     1  0.0000000  1.0460000  1
  11610  11608  11611  11619     1  0.0000000  0.0000000  3
  11610  11608  11611  11615     1  0.0000000  0.6508444  3
  11610  11608  11620  11623     1  0.0000000  0.6973333  3
  11610  11608  11607  11621     1  0.0000000  0.6508444  3
  11610  11608  11607  11629     1  0.0000000  1.0460000  1
  11610  11608  11607  11629     1  0.0000000  0.0000000  3
  11611  11612  11613  11616     1  0.0000000  0.6508444  3
  11611  11612  11618  11624     1  0.0000000  1.0460000  1
  11611  11612  11618  11624     1  0.0000000  0.6694400  3
  11611  11608  11620  11623     1  0.0000000  1.0460000  1
  11611  11608  11620  11623     1  0.0000000  0.6694400  3
  11612  11611  11619  11622     1  0.0000000  1.0460000  1
  11612  11611  11619  11622     1  0.0000000  0.6694400  3
  11613  11612  11618  11624     1  0.0000000  1.0460000  1
  11613  11612  11618  11624     1  0.0000000  0.6694400  3
  11613  11612  11611  11615     1  0.0000000  0.6508444  3
  11614  11612  11613  11617     1  0.0000000  1.0460000  1
  11614  11612  11613  11617     1  0.0000000  0.0000000  3
  11614  11612  11613  11629     1  0.0000000  1.0460000  1
  11614  11612  11613  11629     1  0.0000000  0.0000000  3
  11614  11612  11613  11616     1  0.0000000  0.6508444  3
  11614  11612  11618  11624     1  0.0000000  0.6973333  3
  11614  11612  11611  11619     1  0.0000000  1.0460000  1
  11614  11612  11611  11619     1  0.0000000  0.0000000  3
  11614  11612  11611  11615     1  0.0000000  0.6508444  3
  11615  11611  11612  11618     1  0.0000000  1.0460000  1
  11615  11611  11612  11618     1  0.0000000  0.0000000  3
  11615  11611  11619  11622     1  0.0000000  0.6973333  3
  11615  11611  11608  11620     1  0.0000000  1.0460000  1
  11615  11611  11608  11620     1  0.0000000  0.0000000  3
  11616  11613  11612  11618     1  0.0000000  0.6508444  3
  11625  11621  11627  11628     1  0.0000000  0.6973333  3
  11625  11621  11607  11629     1  0.0000000  1.0460000  1
  11625  11621  11607  11629     1  0.0000000  0.0000000  3
  11626  11621  11627  11628     1  0.0000000  0.6973333  3
  11626  11621  11607  11629     1  0.0000000  1.0460000  1
  11626  11621  11607  11629     1  0.0000000  0.0000000  3
  11630  11631  11634  11638     1  0.0000000  0.6508444  3
  11630  11631  11643  11646     1  0.0000000  1.0460000  1
  11630  11631  11643  11646     1  0.0000000  0.6694400  3
  11630  11644  11650  11651     1  0.0000000  1.0460000  1
  11630  11644  11650  11651     1  0.0000000  0.6694400  3
  11630  11652  11636  11639     1  0.0000000  1.6038667  3
  11631  11630  11644  11648     1  0.0000000  0.6508444  3
  11631  11630  11644  11649     1  0.0000000  0.6508444  3
  11631  11634  11635  11637     1  0.0000000  0.6508444  3
  11631  11634  11642  11645     1  0.0000000  1.0460000  1
  11631  11634  11642  11645     1  0.0000000  0.6694400  3
  11632  11630  11631  11634     1  0.0000000  0.6508444  3
  11632  11630  11631  11643     1  0.0000000  1.0460000  1
  11632  11630  11631  11643     1  0.0000000  0.0000000  3
  11632  11630  11631  11633     1  0.0000000  0.6508444  3
  11632  11630  11644  11650     1  0.0000000  1.0460000  1
  11632  11630  11644  11650     1  0.0000000  0.0000000  3
  11632  11630  11644  11648     1  0.0000000  0.6508444  3
  11632  11630  11644  11649     1  0.0000000  0.6508444  3
  11632  11630  11652  11636     1  0.0000000  1.6038667  3
  11633  11631  11630  11644     1  0.0000000  0.6508444  3
  11633  11631  11630  11652     1  0.0000000  1.0460000  1
  11633  11631  11630  11652     1  0.0000000  0.0000000  3
  11633  11631  11634  11635     1  0.0000000  0.6508444  3
  11633  11631  11634  11642     1  0.0000000  1.0460000  1
  11633  11631  11634  11642     1  0.0000000  0.0000000  3
  11633  11631  11634  11638     1  0.0000000  0.6508444  3
  11633  11631  11643  11646     1  0.0000000  0.6973333  3
  11634  11631  11643  11646     1  0.0000000  1.0460000  1
  11634  11631  11643  11646     1  0.0000000  0.6694400  3
  11634  11635  11636  11639     1  0.0000000  0.6508444  3
  11634  11635  11641  11647     1  0.0000000  1.0460000  1
  11634  11635  11641  11647     1  0.0000000  0.6694400  3
  11635  11634  11642  11645     1  0.0000000  1.0460000  1
  11635  11634  11642  11645     1  0.0000000  0.6694400  3
  11636  11635  11634  11638     1  0.0000000  0.6508444  3
  11636  11635  11641  11647     1  0.0000000  1.0460000  1
  11636  11635  11641  11647     1  0.0000000  0.6694400  3
  11637  11635  11634  11642     1  0.0000000  1.0460000  1
  11637  11635  11634  11642     1  0.0000000  0.0000000  3
  11637  11635  11634  11638     1  0.0000000  0.6508444  3
  11637  11635  11636  11640     1  0.0000000  1.0460000  1
  11637  11635  11636  11640     1  0.0000000  0.0000000  3
  11637  11635  11636  11652     1  0.0000000  1.0460000  1
  11637  11635  11636  11652     1  0.0000000  0.0000000  3
  11637  11635  11636  11639     1  0.0000000  0.6508444  3
  11637  11635  11641  11647     1  0.0000000  0.6973333  3
  11638  11634  11631  11643     1  0.0000000  1.0460000  1
  11638  11634  11631  11643     1  0.0000000  0.0000000  3
  11638  11634  11635  11641     1  0.0000000  1.0460000  1
  11638  11634  11635  11641     1  0.0000000  0.0000000  3
  11638  11634  11642  11645     1  0.0000000  0.6973333  3
  11639  11636  11635  11641     1  0.0000000  0.6508444  3
  11648  11644  11630  11652     1  0.0000000  1.0460000  1
  11648  11644  11630  11652     1  0.0000000  0.0000000  3
  11648  11644  11650  11651     1  0.0000000  0.6973333  3
  11649  11644  11630  11652     1  0.0000000  1.0460000  1
  11649  11644  11630  11652     1  0.0000000  0.0000000  3
  11649  11644  11650  11651     1  0.0000000  0.6973333  3
  11653  11654  11657  11661     1  0.0000000  0.6508444  3
  11653  11654  11666  11669     1  0.0000000  1.0460000  1
  11653  11654  11666  11669     1  0.0000000  0.6694400  3
  11653  11667  11673  11674     1  0.0000000  1.0460000  1
  11653  11667  11673  11674     1  0.0000000  0.6694400  3
  11653  11675  11659  11662     1  0.0000000  1.6038667  3
  11654  11657  11658  11660     1  0.0000000  0.6508444  3
  11654  11657  11665  11668     1  0.0000000  1.0460000  1
  11654  11657  11665  11668     1  0.0000000  0.6694400  3
  11654  11653  11667  11671     1  0.0000000  0.6508444  3
  11654  11653  11667  11672     1  0.0000000  0.6508444  3
  11655  11653  11654  11657     1  0.0000000  0.6508444  3
  11655  11653  11654  11666     1  0.0000000  1.0460000  1
  11655  11653  11654  11666     1  0.0000000  0.0000000  3
  11655  11653  11654  11656     1  0.0000000  0.6508444  3
  11655  11653  11667  11673     1  0.0000000  1.0460000  1
  11655  11653  11667  11673     1  0.0000000  0.0000000  3
  11655  11653  11667  11671     1  0.0000000  0.6508444  3
  11655  11653  11667  11672     1  0.0000000  0.6508444  3
  11655  11653  11675  11659     1  0.0000000  1.6038667  3
  11656  11654  11657  11658     1  0.0000000  0.6508444  3
  11656  11654  11657  11665     1  0.0000000  1.0460000  1
  11656  11654  11657  11665     1  0.0000000  0.0000000  3
  11656  11654  11657  11661     1  0.0000000  0.6508444  3
  11656  11654  11666  11669     1  0.0000000  0.6973333  3
  11656  11654  11653  11667     1  0.0000000  0.6508444  3
  11656  11654  11653  11675     1  0.0000000  1.0460000  1
  11656  11654  11653  11675     1  0.0000000  0.0000000  3
  11657  11658  11659  11662     1  0.0000000  0.6508444  3
  11657  11658  11664  11670     1  0.0000000  1.0460000  1
  11657  11658  11664  11670     1  0.0000000  0.6694400  3
  11657  11654  11666  11669     1  0.0000000  1.0460000  1
  11657  11654  11666  11669     1  0.0000000  0.6694400  3
  11658  11657  11665  11668     1  0.0000000  1.0460000  1
  11658  11657  11665  11668     1  0.0000000  0.6694400  3
  11659  11658  11664  11670     1  0.0000000  1.0460000  1
  11659  11658  11664  11670     1  0.0000000  0.6694400  3
  11659  11658  11657  11661     1  0.0000000  0.6508444  3
  11660  11658  11659  11663     1  0.0000000  1.0460000  1
  11660  11658  11659  11663     1  0.0000000  0.0000000  3
  11660  11658  11659  11675     1  0.0000000  1.0460000  1
  11660  11658  11659  11675     1  0.0000000  0.0000000  3
  11660  11658  11659  11662     1  0.0000000  0.6508444  3
  11660  11658  11664  11670     1  0.0000000  0.6973333  3
  11660  11658  11657  11665     1  0.0000000  1.0460000  1
  11660  11658  11657  11665     1  0.0000000  0.0000000  3
  11660  11658  11657  11661     1  0.0000000  0.6508444  3
  11661  11657  11658  11664     1  0.0000000  1.0460000  1
  11661  11657  11658  11664     1  0.0000000  0.0000000  3
  11661  11657  11665  11668     1  0.0000000  0.6973333  3
  11661  11657  11654  11666     1  0.0000000  1.0460000  1
  11661  11657  11654  11666     1  0.0000000  0.0000000  3
  11662  11659  11658  11664     1  0.0000000  0.6508444  3
  11671  11667  11673  11674     1  0.0000000  0.6973333  3
  11671  11667  11653  11675     1  0.0000000  1.0460000  1
  11671  11667  11653  11675     1  0.0000000  0.0000000  3
  11672  11667  11673  11674     1  0.0000000  0.6973333  3
  11672  11667  11653  11675     1  0.0000000  1.0460000  1
  11672  11667  11653  11675     1  0.0000000  0.0000000  3
  11676  11677  11680  11684     1  0.0000000  0.6508444  3
  11676  11677  11689  11692     1  0.0000000  1.0460000  1
  11676  11677  11689  11692     1  0.0000000  0.6694400  3
  11676  11690  11696  11697     1  0.0000000  1.0460000  1
  11676  11690  11696  11697     1  0.0000000  0.6694400  3
  11676  11698  11682  11685     1  0.0000000  1.6038667  3
  11677  11676  11690  11694     1  0.0000000  0.6508444  3
  11677  11676  11690  11695     1  0.0000000  0.6508444  3
  11677  11680  11681  11683     1  0.0000000  0.6508444  3
  11677  11680  11688  11691     1  0.0000000  1.0460000  1
  11677  11680  11688  11691     1  0.0000000  0.6694400  3
  11678  11676  11677  11680     1  0.0000000  0.6508444  3
  11678  11676  11677  11689     1  0.0000000  1.0460000  1
  11678  11676  11677  11689     1  0.0000000  0.0000000  3
  11678  11676  11677  11679     1  0.0000000  0.6508444  3
  11678  11676  11690  11696     1  0.0000000  1.0460000  1
  11678  11676  11690  11696     1  0.0000000  0.0000000  3
  11678  11676  11690  11694     1  0.0000000  0.6508444  3
  11678  11676  11690  11695     1  0.0000000  0.6508444  3
  11678  11676  11698  11682     1  0.0000000  1.6038667  3
  11679  11677  11676  11690     1  0.0000000  0.6508444  3
  11679  11677  11676  11698     1  0.0000000  1.0460000  1
  11679  11677  11676  11698     1  0.0000000  0.0000000  3
  11679  11677  11680  11681     1  0.0000000  0.6508444  3
  11679  11677  11680  11688     1  0.0000000  1.0460000  1
  11679  11677  11680  11688     1  0.0000000  0.0000000  3
  11679  11677  11680  11684     1  0.0000000  0.6508444  3
  11679  11677  11689  11692     1  0.0000000  0.6973333  3
  11680  11677  11689  11692     1  0.0000000  1.0460000  1
  11680  11677  11689  11692     1  0.0000000  0.6694400  3
  11680  11681  11682  11685     1  0.0000000  0.6508444  3
  11680  11681  11687  11693     1  0.0000000  1.0460000  1
  11680  11681  11687  11693     1  0.0000000  0.6694400  3
  11681  11680  11688  11691     1  0.0000000  1.0460000  1
  11681  11680  11688  11691     1  0.0000000  0.6694400  3
  11682  11681  11680  11684     1  0.0000000  0.6508444  3
  11682  11681  11687  11693     1  0.0000000  1.0460000  1
  11682  11681  11687  11693     1  0.0000000  0.6694400  3
  11683  11681  11680  11688     1  0.0000000  1.0460000  1
  11683  11681  11680  11688     1  0.0000000  0.0000000  3
  11683  11681  11680  11684     1  0.0000000  0.6508444  3
  11683  11681  11682  11686     1  0.0000000  1.0460000  1
  11683  11681  11682  11686     1  0.0000000  0.0000000  3
  11683  11681  11682  11698     1  0.0000000  1.0460000  1
  11683  11681  11682  11698     1  0.0000000  0.0000000  3
  11683  11681  11682  11685     1  0.0000000  0.6508444  3
  11683  11681  11687  11693     1  0.0000000  0.6973333  3
  11684  11680  11677  11689     1  0.0000000  1.0460000  1
  11684  11680  11677  11689     1  0.0000000  0.0000000  3
  11684  11680  11681  11687     1  0.0000000  1.0460000  1
  11684  11680  11681  11687     1  0.0000000  0.0000000  3
  11684  11680  11688  11691     1  0.0000000  0.6973333  3
  11685  11682  11681  11687     1  0.0000000  0.6508444  3
  11694  11690  11676  11698     1  0.0000000  1.0460000  1
  11694  11690  11676  11698     1  0.0000000  0.0000000  3
  11694  11690  11696  11697     1  0.0000000  0.6973333  3
  11695  11690  11676  11698     1  0.0000000  1.0460000  1
  11695  11690  11676  11698     1  0.0000000  0.0000000  3
  11695  11690  11696  11697     1  0.0000000  0.6973333  3
  11699  11700  11703  11707     1  0.0000000  0.6508444  3
  11699  11700  11712  11715     1  0.0000000  1.0460000  1
  11699  11700  11712  11715     1  0.0000000  0.6694400  3
  11699  11713  11719  11720     1  0.0000000  1.0460000  1
  11699  11713  11719  11720     1  0.0000000  0.6694400  3
  11699  11721  11705  11708     1  0.0000000  1.6038667  3
  11700  11703  11704  11706     1  0.0000000  0.6508444  3
  11700  11703  11711  11714     1  0.0000000  1.0460000  1
  11700  11703  11711  11714     1  0.0000000  0.6694400  3
  11700  11699  11713  11717     1  0.0000000  0.6508444  3
  11700  11699  11713  11718     1  0.0000000  0.6508444  3
  11701  11699  11700  11703     1  0.0000000  0.6508444  3
  11701  11699  11700  11712     1  0.0000000  1.0460000  1
  11701  11699  11700  11712     1  0.0000000  0.0000000  3
  11701  11699  11700  11702     1  0.0000000  0.6508444  3
  11701  11699  11713  11719     1  0.0000000  1.0460000  1
  11701  11699  11713  11719     1  0.0000000  0.0000000  3
  11701  11699  11713  11717     1  0.0000000  0.6508444  3
  11701  11699  11713  11718     1  0.0000000  0.6508444  3
  11701  11699  11721  11705     1  0.0000000  1.6038667  3
  11702  11700  11703  11704     1  0.0000000  0.6508444  3
  11702  11700  11703  11711     1  0.0000000  1.0460000  1
  11702  11700  11703  11711     1  0.0000000  0.0000000  3
  11702  11700  11703  11707     1  0.0000000  0.6508444  3
  11702  11700  11712  11715     1  0.0000000  0.6973333  3
  11702  11700  11699  11713     1  0.0000000  0.6508444  3
  11702  11700  11699  11721     1  0.0000000  1.0460000  1
  11702  11700  11699  11721     1  0.0000000  0.0000000  3
  11703  11704  11705  11708     1  0.0000000  0.6508444  3
  11703  11704  11710  11716     1  0.0000000  1.0460000  1
  11703  11704  11710  11716     1  0.0000000  0.6694400  3
  11703  11700  11712  11715     1  0.0000000  1.0460000  1
  11703  11700  11712  11715     1  0.0000000  0.6694400  3
  11704  11703  11711  11714     1  0.0000000  1.0460000  1
  11704  11703  11711  11714     1  0.0000000  0.6694400  3
  11705  11704  11710  11716     1  0.0000000  1.0460000  1
  11705  11704  11710  11716     1  0.0000000  0.6694400  3
  11705  11704  11703  11707     1  0.0000000  0.6508444  3
  11706  11704  11705  11709     1  0.0000000  1.0460000  1
  11706  11704  11705  11709     1  0.0000000  0.0000000  3
  11706  11704  11705  11721     1  0.0000000  1.0460000  1
  11706  11704  11705  11721     1  0.0000000  0.0000000  3
  11706  11704  11705  11708     1  0.0000000  0.6508444  3
  11706  11704  11710  11716     1  0.0000000  0.6973333  3
  11706  11704  11703  11711     1  0.0000000  1.0460000  1
  11706  11704  11703  11711     1  0.0000000  0.0000000  3
  11706  11704  11703  11707     1  0.0000000  0.6508444  3
  11707  11703  11704  11710     1  0.0000000  1.0460000  1
  11707  11703  11704  11710     1  0.0000000  0.0000000  3
  11707  11703  11711  11714     1  0.0000000  0.6973333  3
  11707  11703  11700  11712     1  0.0000000  1.0460000  1
  11707  11703  11700  11712     1  0.0000000  0.0000000  3
  11708  11705  11704  11710     1  0.0000000  0.6508444  3
  11717  11713  11719  11720     1  0.0000000  0.6973333  3
  11717  11713  11699  11721     1  0.0000000  1.0460000  1
  11717  11713  11699  11721     1  0.0000000  0.0000000  3
  11718  11713  11719  11720     1  0.0000000  0.6973333  3
  11718  11713  11699  11721     1  0.0000000  1.0460000  1
  11718  11713  11699  11721     1  0.0000000  0.0000000  3
  11722  11723  11726  11730     1  0.0000000  0.6508444  3
  11722  11723  11735  11738     1  0.0000000  1.0460000  1
  11722  11723  11735  11738     1  0.0000000  0.6694400  3
  11722  11736  11742  11743     1  0.0000000  1.0460000  1
  11722  11736  11742  11743     1  0.0000000  0.6694400  3
  11722  11744  11728  11731     1  0.0000000  1.6038667  3
  11723  11722  11736  11740     1  0.0000000  0.6508444  3
  11723  11722  11736  11741     1  0.0000000  0.6508444  3
  11723  11726  11727  11729     1  0.0000000  0.6508444  3
  11723  11726  11734  11737     1  0.0000000  1.0460000  1
  11723  11726  11734  11737     1  0.0000000  0.6694400  3
  11724  11722  11723  11726     1  0.0000000  0.6508444  3
  11724  11722  11723  11735     1  0.0000000  1.0460000  1
  11724  11722  11723  11735     1  0.0000000  0.0000000  3
  11724  11722  11723  11725     1  0.0000000  0.6508444  3
  11724  11722  11736  11742     1  0.0000000  1.0460000  1
  11724  11722  11736  11742     1  0.0000000  0.0000000  3
  11724  11722  11736  11740     1  0.0000000  0.6508444  3
  11724  11722  11736  11741     1  0.0000000  0.6508444  3
  11724  11722  11744  11728     1  0.0000000  1.6038667  3
  11725  11723  11722  11736     1  0.0000000  0.6508444  3
  11725  11723  11722  11744     1  0.0000000  1.0460000  1
  11725  11723  11722  11744     1  0.0000000  0.0000000  3
  11725  11723  11726  11727     1  0.0000000  0.6508444  3
  11725  11723  11726  11734     1  0.0000000  1.0460000  1
  11725  11723  11726  11734     1  0.0000000  0.0000000  3
  11725  11723  11726  11730     1  0.0000000  0.6508444  3
  11725  11723  11735  11738     1  0.0000000  0.6973333  3
  11726  11723  11735  11738     1  0.0000000  1.0460000  1
  11726  11723  11735  11738     1  0.0000000  0.6694400  3
  11726  11727  11728  11731     1  0.0000000  0.6508444  3
  11726  11727  11733  11739     1  0.0000000  1.0460000  1
  11726  11727  11733  11739     1  0.0000000  0.6694400  3
  11727  11726  11734  11737     1  0.0000000  1.0460000  1
  11727  11726  11734  11737     1  0.0000000  0.6694400  3
  11728  11727  11726  11730     1  0.0000000  0.6508444  3
  11728  11727  11733  11739     1  0.0000000  1.0460000  1
  11728  11727  11733  11739     1  0.0000000  0.6694400  3
  11729  11727  11726  11734     1  0.0000000  1.0460000  1
  11729  11727  11726  11734     1  0.0000000  0.0000000  3
  11729  11727  11726  11730     1  0.0000000  0.6508444  3
  11729  11727  11728  11732     1  0.0000000  1.0460000  1
  11729  11727  11728  11732     1  0.0000000  0.0000000  3
  11729  11727  11728  11744     1  0.0000000  1.0460000  1
  11729  11727  11728  11744     1  0.0000000  0.0000000  3
  11729  11727  11728  11731     1  0.0000000  0.6508444  3
  11729  11727  11733  11739     1  0.0000000  0.6973333  3
  11730  11726  11723  11735     1  0.0000000  1.0460000  1
  11730  11726  11723  11735     1  0.0000000  0.0000000  3
  11730  11726  11727  11733     1  0.0000000  1.0460000  1
  11730  11726  11727  11733     1  0.0000000  0.0000000  3
  11730  11726  11734  11737     1  0.0000000  0.6973333  3
  11731  11728  11727  11733     1  0.0000000  0.6508444  3
  11740  11736  11722  11744     1  0.0000000  1.0460000  1
  11740  11736  11722  11744     1  0.0000000  0.0000000  3
  11740  11736  11742  11743     1  0.0000000  0.6973333  3
  11741  11736  11722  11744     1  0.0000000  1.0460000  1
  11741  11736  11722  11744     1  0.0000000  0.0000000  3
  11741  11736  11742  11743     1  0.0000000  0.6973333  3
  11745  11746  11749  11753     1  0.0000000  0.6508444  3
  11745  11746  11758  11761     1  0.0000000  1.0460000  1
  11745  11746  11758  11761     1  0.0000000  0.6694400  3
  11745  11759  11765  11766     1  0.0000000  1.0460000  1
  11745  11759  11765  11766     1  0.0000000  0.6694400  3
  11745  11767  11751  11754     1  0.0000000  1.6038667  3
  11746  11749  11750  11752     1  0.0000000  0.6508444  3
  11746  11749  11757  11760     1  0.0000000  1.0460000  1
  11746  11749  11757  11760     1  0.0000000  0.6694400  3
  11746  11745  11759  11763     1  0.0000000  0.6508444  3
  11746  11745  11759  11764     1  0.0000000  0.6508444  3
  11747  11745  11746  11749     1  0.0000000  0.6508444  3
  11747  11745  11746  11758     1  0.0000000  1.0460000  1
  11747  11745  11746  11758     1  0.0000000  0.0000000  3
  11747  11745  11746  11748     1  0.0000000  0.6508444  3
  11747  11745  11759  11765     1  0.0000000  1.0460000  1
  11747  11745  11759  11765     1  0.0000000  0.0000000  3
  11747  11745  11759  11763     1  0.0000000  0.6508444  3
  11747  11745  11759  11764     1  0.0000000  0.6508444  3
  11747  11745  11767  11751     1  0.0000000  1.6038667  3
  11748  11746  11749  11750     1  0.0000000  0.6508444  3
  11748  11746  11749  11757     1  0.0000000  1.0460000  1
  11748  11746  11749  11757     1  0.0000000  0.0000000  3
  11748  11746  11749  11753     1  0.0000000  0.6508444  3
  11748  11746  11758  11761     1  0.0000000  0.6973333  3
  11748  11746  11745  11759     1  0.0000000  0.6508444  3
  11748  11746  11745  11767     1  0.0000000  1.0460000  1
  11748  11746  11745  11767     1  0.0000000  0.0000000  3
  11749  11750  11751  11754     1  0.0000000  0.6508444  3
  11749  11750  11756  11762     1  0.0000000  1.0460000  1
  11749  11750  11756  11762     1  0.0000000  0.6694400  3
  11749  11746  11758  11761     1  0.0000000  1.0460000  1
  11749  11746  11758  11761     1  0.0000000  0.6694400  3
  11750  11749  11757  11760     1  0.0000000  1.0460000  1
  11750  11749  11757  11760     1  0.0000000  0.6694400  3
  11751  11750  11756  11762     1  0.0000000  1.0460000  1
  11751  11750  11756  11762     1  0.0000000  0.6694400  3
  11751  11750  11749  11753     1  0.0000000  0.6508444  3
  11752  11750  11751  11755     1  0.0000000  1.0460000  1
  11752  11750  11751  11755     1  0.0000000  0.0000000  3
  11752  11750  11751  11767     1  0.0000000  1.0460000  1
  11752  11750  11751  11767     1  0.0000000  0.0000000  3
  11752  11750  11751  11754     1  0.0000000  0.6508444  3
  11752  11750  11756  11762     1  0.0000000  0.6973333  3
  11752  11750  11749  11757     1  0.0000000  1.0460000  1
  11752  11750  11749  11757     1  0.0000000  0.0000000  3
  11752  11750  11749  11753     1  0.0000000  0.6508444  3
  11753  11749  11750  11756     1  0.0000000  1.0460000  1
  11753  11749  11750  11756     1  0.0000000  0.0000000  3
  11753  11749  11757  11760     1  0.0000000  0.6973333  3
  11753  11749  11746  11758     1  0.0000000  1.0460000  1
  11753  11749  11746  11758     1  0.0000000  0.0000000  3
  11754  11751  11750  11756     1  0.0000000  0.6508444  3
  11763  11759  11765  11766     1  0.0000000  0.6973333  3
  11763  11759  11745  11767     1  0.0000000  1.0460000  1
  11763  11759  11745  11767     1  0.0000000  0.0000000  3
  11764  11759  11765  11766     1  0.0000000  0.6973333  3
  11764  11759  11745  11767     1  0.0000000  1.0460000  1
  11764  11759  11745  11767     1  0.0000000  0.0000000  3
  11768  11769  11772  11776     1  0.0000000  0.6508444  3
  11768  11769  11781  11784     1  0.0000000  1.0460000  1
  11768  11769  11781  11784     1  0.0000000  0.6694400  3
  11768  11782  11788  11789     1  0.0000000  1.0460000  1
  11768  11782  11788  11789     1  0.0000000  0.6694400  3
  11768  11790  11774  11777     1  0.0000000  1.6038667  3
  11769  11768  11782  11786     1  0.0000000  0.6508444  3
  11769  11768  11782  11787     1  0.0000000  0.6508444  3
  11769  11772  11773  11775     1  0.0000000  0.6508444  3
  11769  11772  11780  11783     1  0.0000000  1.0460000  1
  11769  11772  11780  11783     1  0.0000000  0.6694400  3
  11770  11768  11769  11772     1  0.0000000  0.6508444  3
  11770  11768  11769  11781     1  0.0000000  1.0460000  1
  11770  11768  11769  11781     1  0.0000000  0.0000000  3
  11770  11768  11769  11771     1  0.0000000  0.6508444  3
  11770  11768  11782  11788     1  0.0000000  1.0460000  1
  11770  11768  11782  11788     1  0.0000000  0.0000000  3
  11770  11768  11782  11786     1  0.0000000  0.6508444  3
  11770  11768  11782  11787     1  0.0000000  0.6508444  3
  11770  11768  11790  11774     1  0.0000000  1.6038667  3
  11771  11769  11768  11782     1  0.0000000  0.6508444  3
  11771  11769  11768  11790     1  0.0000000  1.0460000  1
  11771  11769  11768  11790     1  0.0000000  0.0000000  3
  11771  11769  11772  11773     1  0.0000000  0.6508444  3
  11771  11769  11772  11780     1  0.0000000  1.0460000  1
  11771  11769  11772  11780     1  0.0000000  0.0000000  3
  11771  11769  11772  11776     1  0.0000000  0.6508444  3
  11771  11769  11781  11784     1  0.0000000  0.6973333  3
  11772  11769  11781  11784     1  0.0000000  1.0460000  1
  11772  11769  11781  11784     1  0.0000000  0.6694400  3
  11772  11773  11774  11777     1  0.0000000  0.6508444  3
  11772  11773  11779  11785     1  0.0000000  1.0460000  1
  11772  11773  11779  11785     1  0.0000000  0.6694400  3
  11773  11772  11780  11783     1  0.0000000  1.0460000  1
  11773  11772  11780  11783     1  0.0000000  0.6694400  3
  11774  11773  11772  11776     1  0.0000000  0.6508444  3
  11774  11773  11779  11785     1  0.0000000  1.0460000  1
  11774  11773  11779  11785     1  0.0000000  0.6694400  3
  11775  11773  11772  11780     1  0.0000000  1.0460000  1
  11775  11773  11772  11780     1  0.0000000  0.0000000  3
  11775  11773  11772  11776     1  0.0000000  0.6508444  3
  11775  11773  11774  11778     1  0.0000000  1.0460000  1
  11775  11773  11774  11778     1  0.0000000  0.0000000  3
  11775  11773  11774  11790     1  0.0000000  1.0460000  1
  11775  11773  11774  11790     1  0.0000000  0.0000000  3
  11775  11773  11774  11777     1  0.0000000  0.6508444  3
  11775  11773  11779  11785     1  0.0000000  0.6973333  3
  11776  11772  11769  11781     1  0.0000000  1.0460000  1
  11776  11772  11769  11781     1  0.0000000  0.0000000  3
  11776  11772  11773  11779     1  0.0000000  1.0460000  1
  11776  11772  11773  11779     1  0.0000000  0.0000000  3
  11776  11772  11780  11783     1  0.0000000  0.6973333  3
  11777  11774  11773  11779     1  0.0000000  0.6508444  3
  11786  11782  11768  11790     1  0.0000000  1.0460000  1
  11786  11782  11768  11790     1  0.0000000  0.0000000  3
  11786  11782  11788  11789     1  0.0000000  0.6973333  3
  11787  11782  11768  11790     1  0.0000000  1.0460000  1
  11787  11782  11768  11790     1  0.0000000  0.0000000  3
  11787  11782  11788  11789     1  0.0000000  0.6973333  3
  11791  11792  11795  11799     1  0.0000000  0.6508444  3
  11791  11792  11804  11807     1  0.0000000  1.0460000  1
  11791  11792  11804  11807     1  0.0000000  0.6694400  3
  11791  11805  11811  11812     1  0.0000000  1.0460000  1
  11791  11805  11811  11812     1  0.0000000  0.6694400  3
  11791  11813  11797  11800     1  0.0000000  1.6038667  3
  11792  11795  11796  11798     1  0.0000000  0.6508444  3
  11792  11795  11803  11806     1  0.0000000  1.0460000  1
  11792  11795  11803  11806     1  0.0000000  0.6694400  3
  11792  11791  11805  11809     1  0.0000000  0.6508444  3
  11792  11791  11805  11810     1  0.0000000  0.6508444  3
  11793  11791  11792  11795     1  0.0000000  0.6508444  3
  11793  11791  11792  11804     1  0.0000000  1.0460000  1
  11793  11791  11792  11804     1  0.0000000  0.0000000  3
  11793  11791  11792  11794     1  0.0000000  0.6508444  3
  11793  11791  11805  11811     1  0.0000000  1.0460000  1
  11793  11791  11805  11811     1  0.0000000  0.0000000  3
  11793  11791  11805  11809     1  0.0000000  0.6508444  3
  11793  11791  11805  11810     1  0.0000000  0.6508444  3
  11793  11791  11813  11797     1  0.0000000  1.6038667  3
  11794  11792  11795  11796     1  0.0000000  0.6508444  3
  11794  11792  11795  11803     1  0.0000000  1.0460000  1
  11794  11792  11795  11803     1  0.0000000  0.0000000  3
  11794  11792  11795  11799     1  0.0000000  0.6508444  3
  11794  11792  11804  11807     1  0.0000000  0.6973333  3
  11794  11792  11791  11805     1  0.0000000  0.6508444  3
  11794  11792  11791  11813     1  0.0000000  1.0460000  1
  11794  11792  11791  11813     1  0.0000000  0.0000000  3
  11795  11796  11797  11800     1  0.0000000  0.6508444  3
  11795  11796  11802  11808     1  0.0000000  1.0460000  1
  11795  11796  11802  11808     1  0.0000000  0.6694400  3
  11795  11792  11804  11807     1  0.0000000  1.0460000  1
  11795  11792  11804  11807     1  0.0000000  0.6694400  3
  11796  11795  11803  11806     1  0.0000000  1.0460000  1
  11796  11795  11803  11806     1  0.0000000  0.6694400  3
  11797  11796  11802  11808     1  0.0000000  1.0460000  1
  11797  11796  11802  11808     1  0.0000000  0.6694400  3
  11797  11796  11795  11799     1  0.0000000  0.6508444  3
  11798  11796  11797  11801     1  0.0000000  1.0460000  1
  11798  11796  11797  11801     1  0.0000000  0.0000000  3
  11798  11796  11797  11813     1  0.0000000  1.0460000  1
  11798  11796  11797  11813     1  0.0000000  0.0000000  3
  11798  11796  11797  11800     1  0.0000000  0.6508444  3
  11798  11796  11802  11808     1  0.0000000  0.6973333  3
  11798  11796  11795  11803     1  0.0000000  1.0460000  1
  11798  11796  11795  11803     1  0.0000000  0.0000000  3
  11798  11796  11795  11799     1  0.0000000  0.6508444  3
  11799  11795  11796  11802     1  0.0000000  1.0460000  1
  11799  11795  11796  11802     1  0.0000000  0.0000000  3
  11799  11795  11803  11806     1  0.0000000  0.6973333  3
  11799  11795  11792  11804     1  0.0000000  1.0460000  1
  11799  11795  11792  11804     1  0.0000000  0.0000000  3
  11800  11797  11796  11802     1  0.0000000  0.6508444  3
  11809  11805  11811  11812     1  0.0000000  0.6973333  3
  11809  11805  11791  11813     1  0.0000000  1.0460000  1
  11809  11805  11791  11813     1  0.0000000  0.0000000  3
  11810  11805  11811  11812     1  0.0000000  0.6973333  3
  11810  11805  11791  11813     1  0.0000000  1.0460000  1
  11810  11805  11791  11813     1  0.0000000  0.0000000  3
  11814  11815  11818  11822     1  0.0000000  0.6508444  3
  11814  11815  11827  11830     1  0.0000000  1.0460000  1
  11814  11815  11827  11830     1  0.0000000  0.6694400  3
  11814  11828  11834  11835     1  0.0000000  1.0460000  1
  11814  11828  11834  11835     1  0.0000000  0.6694400  3
  11814  11836  11820  11823     1  0.0000000  1.6038667  3
  11815  11814  11828  11832     1  0.0000000  0.6508444  3
  11815  11814  11828  11833     1  0.0000000  0.6508444  3
  11815  11818  11819  11821     1  0.0000000  0.6508444  3
  11815  11818  11826  11829     1  0.0000000  1.0460000  1
  11815  11818  11826  11829     1  0.0000000  0.6694400  3
  11816  11814  11815  11818     1  0.0000000  0.6508444  3
  11816  11814  11815  11827     1  0.0000000  1.0460000  1
  11816  11814  11815  11827     1  0.0000000  0.0000000  3
  11816  11814  11815  11817     1  0.0000000  0.6508444  3
  11816  11814  11828  11834     1  0.0000000  1.0460000  1
  11816  11814  11828  11834     1  0.0000000  0.0000000  3
  11816  11814  11828  11832     1  0.0000000  0.6508444  3
  11816  11814  11828  11833     1  0.0000000  0.6508444  3
  11816  11814  11836  11820     1  0.0000000  1.6038667  3
  11817  11815  11814  11828     1  0.0000000  0.6508444  3
  11817  11815  11814  11836     1  0.0000000  1.0460000  1
  11817  11815  11814  11836     1  0.0000000  0.0000000  3
  11817  11815  11818  11819     1  0.0000000  0.6508444  3
  11817  11815  11818  11826     1  0.0000000  1.0460000  1
  11817  11815  11818  11826     1  0.0000000  0.0000000  3
  11817  11815  11818  11822     1  0.0000000  0.6508444  3
  11817  11815  11827  11830     1  0.0000000  0.6973333  3
  11818  11815  11827  11830     1  0.0000000  1.0460000  1
  11818  11815  11827  11830     1  0.0000000  0.6694400  3
  11818  11819  11820  11823     1  0.0000000  0.6508444  3
  11818  11819  11825  11831     1  0.0000000  1.0460000  1
  11818  11819  11825  11831     1  0.0000000  0.6694400  3
  11819  11818  11826  11829     1  0.0000000  1.0460000  1
  11819  11818  11826  11829     1  0.0000000  0.6694400  3
  11820  11819  11818  11822     1  0.0000000  0.6508444  3
  11820  11819  11825  11831     1  0.0000000  1.0460000  1
  11820  11819  11825  11831     1  0.0000000  0.6694400  3
  11821  11819  11818  11826     1  0.0000000  1.0460000  1
  11821  11819  11818  11826     1  0.0000000  0.0000000  3
  11821  11819  11818  11822     1  0.0000000  0.6508444  3
  11821  11819  11820  11824     1  0.0000000  1.0460000  1
  11821  11819  11820  11824     1  0.0000000  0.0000000  3
  11821  11819  11820  11836     1  0.0000000  1.0460000  1
  11821  11819  11820  11836     1  0.0000000  0.0000000  3
  11821  11819  11820  11823     1  0.0000000  0.6508444  3
  11821  11819  11825  11831     1  0.0000000  0.6973333  3
  11822  11818  11815  11827     1  0.0000000  1.0460000  1
  11822  11818  11815  11827     1  0.0000000  0.0000000  3
  11822  11818  11819  11825     1  0.0000000  1.0460000  1
  11822  11818  11819  11825     1  0.0000000  0.0000000  3
  11822  11818  11826  11829     1  0.0000000  0.6973333  3
  11823  11820  11819  11825     1  0.0000000  0.6508444  3
  11832  11828  11814  11836     1  0.0000000  1.0460000  1
  11832  11828  11814  11836     1  0.0000000  0.0000000  3
  11832  11828  11834  11835     1  0.0000000  0.6973333  3
  11833  11828  11814  11836     1  0.0000000  1.0460000  1
  11833  11828  11814  11836     1  0.0000000  0.0000000  3
  11833  11828  11834  11835     1  0.0000000  0.6973333  3
  11837  11838  11841  11845     1  0.0000000  0.6508444  3
  11837  11838  11850  11853     1  0.0000000  1.0460000  1
  11837  11838  11850  11853     1  0.0000000  0.6694400  3
  11837  11851  11857  11858     1  0.0000000  1.0460000  1
  11837  11851  11857  11858     1  0.0000000  0.6694400  3
  11837  11859  11843  11846     1  0.0000000  1.6038667  3
  11838  11841  11842  11844     1  0.0000000  0.6508444  3
  11838  11841  11849  11852     1  0.0000000  1.0460000  1
  11838  11841  11849  11852     1  0.0000000  0.6694400  3
  11838  11837  11851  11855     1  0.0000000  0.6508444  3
  11838  11837  11851  11856     1  0.0000000  0.6508444  3
  11839  11837  11838  11841     1  0.0000000  0.6508444  3
  11839  11837  11838  11850     1  0.0000000  1.0460000  1
  11839  11837  11838  11850     1  0.0000000  0.0000000  3
  11839  11837  11838  11840     1  0.0000000  0.6508444  3
  11839  11837  11851  11857     1  0.0000000  1.0460000  1
  11839  11837  11851  11857     1  0.0000000  0.0000000  3
  11839  11837  11851  11855     1  0.0000000  0.6508444  3
  11839  11837  11851  11856     1  0.0000000  0.6508444  3
  11839  11837  11859  11843     1  0.0000000  1.6038667  3
  11840  11838  11841  11842     1  0.0000000  0.6508444  3
  11840  11838  11841  11849     1  0.0000000  1.0460000  1
  11840  11838  11841  11849     1  0.0000000  0.0000000  3
  11840  11838  11841  11845     1  0.0000000  0.6508444  3
  11840  11838  11850  11853     1  0.0000000  0.6973333  3
  11840  11838  11837  11851     1  0.0000000  0.6508444  3
  11840  11838  11837  11859     1  0.0000000  1.0460000  1
  11840  11838  11837  11859     1  0.0000000  0.0000000  3
  11841  11842  11843  11846     1  0.0000000  0.6508444  3
  11841  11842  11848  11854     1  0.0000000  1.0460000  1
  11841  11842  11848  11854     1  0.0000000  0.6694400  3
  11841  11838  11850  11853     1  0.0000000  1.0460000  1
  11841  11838  11850  11853     1  0.0000000  0.6694400  3
  11842  11841  11849  11852     1  0.0000000  1.0460000  1
  11842  11841  11849  11852     1  0.0000000  0.6694400  3
  11843  11842  11848  11854     1  0.0000000  1.0460000  1
  11843  11842  11848  11854     1  0.0000000  0.6694400  3
  11843  11842  11841  11845     1  0.0000000  0.6508444  3
  11844  11842  11843  11847     1  0.0000000  1.0460000  1
  11844  11842  11843  11847     1  0.0000000  0.0000000  3
  11844  11842  11843  11859     1  0.0000000  1.0460000  1
  11844  11842  11843  11859     1  0.0000000  0.0000000  3
  11844  11842  11843  11846     1  0.0000000  0.6508444  3
  11844  11842  11848  11854     1  0.0000000  0.6973333  3
  11844  11842  11841  11849     1  0.0000000  1.0460000  1
  11844  11842  11841  11849     1  0.0000000  0.0000000  3
  11844  11842  11841  11845     1  0.0000000  0.6508444  3
  11845  11841  11842  11848     1  0.0000000  1.0460000  1
  11845  11841  11842  11848     1  0.0000000  0.0000000  3
  11845  11841  11849  11852     1  0.0000000  0.6973333  3
  11845  11841  11838  11850     1  0.0000000  1.0460000  1
  11845  11841  11838  11850     1  0.0000000  0.0000000  3
  11846  11843  11842  11848     1  0.0000000  0.6508444  3
  11855  11851  11857  11858     1  0.0000000  0.6973333  3
  11855  11851  11837  11859     1  0.0000000  1.0460000  1
  11855  11851  11837  11859     1  0.0000000  0.0000000  3
  11856  11851  11857  11858     1  0.0000000  0.6973333  3
  11856  11851  11837  11859     1  0.0000000  1.0460000  1
  11856  11851  11837  11859     1  0.0000000  0.0000000  3
  11860  11861  11864  11868     1  0.0000000  0.6508444  3
  11860  11861  11873  11876     1  0.0000000  1.0460000  1
  11860  11861  11873  11876     1  0.0000000  0.6694400  3
  11860  11874  11880  11881     1  0.0000000  1.0460000  1
  11860  11874  11880  11881     1  0.0000000  0.6694400  3
  11860  11882  11866  11869     1  0.0000000  1.6038667  3
  11861  11860  11874  11878     1  0.0000000  0.6508444  3
  11861  11860  11874  11879     1  0.0000000  0.6508444  3
  11861  11864  11865  11867     1  0.0000000  0.6508444  3
  11861  11864  11872  11875     1  0.0000000  1.0460000  1
  11861  11864  11872  11875     1  0.0000000  0.6694400  3
  11862  11860  11861  11864     1  0.0000000  0.6508444  3
  11862  11860  11861  11873     1  0.0000000  1.0460000  1
  11862  11860  11861  11873     1  0.0000000  0.0000000  3
  11862  11860  11861  11863     1  0.0000000  0.6508444  3
  11862  11860  11874  11880     1  0.0000000  1.0460000  1
  11862  11860  11874  11880     1  0.0000000  0.0000000  3
  11862  11860  11874  11878     1  0.0000000  0.6508444  3
  11862  11860  11874  11879     1  0.0000000  0.6508444  3
  11862  11860  11882  11866     1  0.0000000  1.6038667  3
  11863  11861  11860  11874     1  0.0000000  0.6508444  3
  11863  11861  11860  11882     1  0.0000000  1.0460000  1
  11863  11861  11860  11882     1  0.0000000  0.0000000  3
  11863  11861  11864  11865     1  0.0000000  0.6508444  3
  11863  11861  11864  11872     1  0.0000000  1.0460000  1
  11863  11861  11864  11872     1  0.0000000  0.0000000  3
  11863  11861  11864  11868     1  0.0000000  0.6508444  3
  11863  11861  11873  11876     1  0.0000000  0.6973333  3
  11864  11861  11873  11876     1  0.0000000  1.0460000  1
  11864  11861  11873  11876     1  0.0000000  0.6694400  3
  11864  11865  11866  11869     1  0.0000000  0.6508444  3
  11864  11865  11871  11877     1  0.0000000  1.0460000  1
  11864  11865  11871  11877     1  0.0000000  0.6694400  3
  11865  11864  11872  11875     1  0.0000000  1.0460000  1
  11865  11864  11872  11875     1  0.0000000  0.6694400  3
  11866  11865  11864  11868     1  0.0000000  0.6508444  3
  11866  11865  11871  11877     1  0.0000000  1.0460000  1
  11866  11865  11871  11877     1  0.0000000  0.6694400  3
  11867  11865  11864  11872     1  0.0000000  1.0460000  1
  11867  11865  11864  11872     1  0.0000000  0.0000000  3
  11867  11865  11864  11868     1  0.0000000  0.6508444  3
  11867  11865  11866  11870     1  0.0000000  1.0460000  1
  11867  11865  11866  11870     1  0.0000000  0.0000000  3
  11867  11865  11866  11882     1  0.0000000  1.0460000  1
  11867  11865  11866  11882     1  0.0000000  0.0000000  3
  11867  11865  11866  11869     1  0.0000000  0.6508444  3
  11867  11865  11871  11877     1  0.0000000  0.6973333  3
  11868  11864  11861  11873     1  0.0000000  1.0460000  1
  11868  11864  11861  11873     1  0.0000000  0.0000000  3
  11868  11864  11865  11871     1  0.0000000  1.0460000  1
  11868  11864  11865  11871     1  0.0000000  0.0000000  3
  11868  11864  11872  11875     1  0.0000000  0.6973333  3
  11869  11866  11865  11871     1  0.0000000  0.6508444  3
  11878  11874  11860  11882     1  0.0000000  1.0460000  1
  11878  11874  11860  11882     1  0.0000000  0.0000000  3
  11878  11874  11880  11881     1  0.0000000  0.6973333  3
  11879  11874  11860  11882     1  0.0000000  1.0460000  1
  11879  11874  11860  11882     1  0.0000000  0.0000000  3
  11879  11874  11880  11881     1  0.0000000  0.6973333  3
  11883  11884  11887  11891     1  0.0000000  0.6508444  3
  11883  11884  11896  11899     1  0.0000000  1.0460000  1
  11883  11884  11896  11899     1  0.0000000  0.6694400  3
  11883  11897  11903  11904     1  0.0000000  1.0460000  1
  11883  11897  11903  11904     1  0.0000000  0.6694400  3
  11883  11905  11889  11892     1  0.0000000  1.6038667  3
  11884  11887  11888  11890     1  0.0000000  0.6508444  3
  11884  11887  11895  11898     1  0.0000000  1.0460000  1
  11884  11887  11895  11898     1  0.0000000  0.6694400  3
  11884  11883  11897  11901     1  0.0000000  0.6508444  3
  11884  11883  11897  11902     1  0.0000000  0.6508444  3
  11885  11883  11884  11887     1  0.0000000  0.6508444  3
  11885  11883  11884  11896     1  0.0000000  1.0460000  1
  11885  11883  11884  11896     1  0.0000000  0.0000000  3
  11885  11883  11884  11886     1  0.0000000  0.6508444  3
  11885  11883  11897  11903     1  0.0000000  1.0460000  1
  11885  11883  11897  11903     1  0.0000000  0.0000000  3
  11885  11883  11897  11901     1  0.0000000  0.6508444  3
  11885  11883  11897  11902     1  0.0000000  0.6508444  3
  11885  11883  11905  11889     1  0.0000000  1.6038667  3
  11886  11884  11887  11888     1  0.0000000  0.6508444  3
  11886  11884  11887  11895     1  0.0000000  1.0460000  1
  11886  11884  11887  11895     1  0.0000000  0.0000000  3
  11886  11884  11887  11891     1  0.0000000  0.6508444  3
  11886  11884  11896  11899     1  0.0000000  0.6973333  3
  11886  11884  11883  11897     1  0.0000000  0.6508444  3
  11886  11884  11883  11905     1  0.0000000  1.0460000  1
  11886  11884  11883  11905     1  0.0000000  0.0000000  3
  11887  11888  11889  11892     1  0.0000000  0.6508444  3
  11887  11888  11894  11900     1  0.0000000  1.0460000  1
  11887  11888  11894  11900     1  0.0000000  0.6694400  3
  11887  11884  11896  11899     1  0.0000000  1.0460000  1
  11887  11884  11896  11899     1  0.0000000  0.6694400  3
  11888  11887  11895  11898     1  0.0000000  1.0460000  1
  11888  11887  11895  11898     1  0.0000000  0.6694400  3
  11889  11888  11894  11900     1  0.0000000  1.0460000  1
  11889  11888  11894  11900     1  0.0000000  0.6694400  3
  11889  11888  11887  11891     1  0.0000000  0.6508444  3
  11890  11888  11889  11893     1  0.0000000  1.0460000  1
  11890  11888  11889  11893     1  0.0000000  0.0000000  3
  11890  11888  11889  11905     1  0.0000000  1.0460000  1
  11890  11888  11889  11905     1  0.0000000  0.0000000  3
  11890  11888  11889  11892     1  0.0000000  0.6508444  3
  11890  11888  11894  11900     1  0.0000000  0.6973333  3
  11890  11888  11887  11895     1  0.0000000  1.0460000  1
  11890  11888  11887  11895     1  0.0000000  0.0000000  3
  11890  11888  11887  11891     1  0.0000000  0.6508444  3
  11891  11887  11888  11894     1  0.0000000  1.0460000  1
  11891  11887  11888  11894     1  0.0000000  0.0000000  3
  11891  11887  11895  11898     1  0.0000000  0.6973333  3
  11891  11887  11884  11896     1  0.0000000  1.0460000  1
  11891  11887  11884  11896     1  0.0000000  0.0000000  3
  11892  11889  11888  11894     1  0.0000000  0.6508444  3
  11901  11897  11903  11904     1  0.0000000  0.6973333  3
  11901  11897  11883  11905     1  0.0000000  1.0460000  1
  11901  11897  11883  11905     1  0.0000000  0.0000000  3
  11902  11897  11903  11904     1  0.0000000  0.6973333  3
  11902  11897  11883  11905     1  0.0000000  1.0460000  1
  11902  11897  11883  11905     1  0.0000000  0.0000000  3
  11906  11907  11910  11914     1  0.0000000  0.6508444  3
  11906  11907  11919  11922     1  0.0000000  1.0460000  1
  11906  11907  11919  11922     1  0.0000000  0.6694400  3
  11906  11920  11926  11927     1  0.0000000  1.0460000  1
  11906  11920  11926  11927     1  0.0000000  0.6694400  3
  11906  11928  11912  11915     1  0.0000000  1.6038667  3
  11907  11906  11920  11924     1  0.0000000  0.6508444  3
  11907  11906  11920  11925     1  0.0000000  0.6508444  3
  11907  11910  11911  11913     1  0.0000000  0.6508444  3
  11907  11910  11918  11921     1  0.0000000  1.0460000  1
  11907  11910  11918  11921     1  0.0000000  0.6694400  3
  11908  11906  11907  11910     1  0.0000000  0.6508444  3
  11908  11906  11907  11919     1  0.0000000  1.0460000  1
  11908  11906  11907  11919     1  0.0000000  0.0000000  3
  11908  11906  11907  11909     1  0.0000000  0.6508444  3
  11908  11906  11920  11926     1  0.0000000  1.0460000  1
  11908  11906  11920  11926     1  0.0000000  0.0000000  3
  11908  11906  11920  11924     1  0.0000000  0.6508444  3
  11908  11906  11920  11925     1  0.0000000  0.6508444  3
  11908  11906  11928  11912     1  0.0000000  1.6038667  3
  11909  11907  11906  11920     1  0.0000000  0.6508444  3
  11909  11907  11906  11928     1  0.0000000  1.0460000  1
  11909  11907  11906  11928     1  0.0000000  0.0000000  3
  11909  11907  11910  11911     1  0.0000000  0.6508444  3
  11909  11907  11910  11918     1  0.0000000  1.0460000  1
  11909  11907  11910  11918     1  0.0000000  0.0000000  3
  11909  11907  11910  11914     1  0.0000000  0.6508444  3
  11909  11907  11919  11922     1  0.0000000  0.6973333  3
  11910  11907  11919  11922     1  0.0000000  1.0460000  1
  11910  11907  11919  11922     1  0.0000000  0.6694400  3
  11910  11911  11912  11915     1  0.0000000  0.6508444  3
  11910  11911  11917  11923     1  0.0000000  1.0460000  1
  11910  11911  11917  11923     1  0.0000000  0.6694400  3
  11911  11910  11918  11921     1  0.0000000  1.0460000  1
  11911  11910  11918  11921     1  0.0000000  0.6694400  3
  11912  11911  11910  11914     1  0.0000000  0.6508444  3
  11912  11911  11917  11923     1  0.0000000  1.0460000  1
  11912  11911  11917  11923     1  0.0000000  0.6694400  3
  11913  11911  11910  11918     1  0.0000000  1.0460000  1
  11913  11911  11910  11918     1  0.0000000  0.0000000  3
  11913  11911  11910  11914     1  0.0000000  0.6508444  3
  11913  11911  11912  11916     1  0.0000000  1.0460000  1
  11913  11911  11912  11916     1  0.0000000  0.0000000  3
  11913  11911  11912  11928     1  0.0000000  1.0460000  1
  11913  11911  11912  11928     1  0.0000000  0.0000000  3
  11913  11911  11912  11915     1  0.0000000  0.6508444  3
  11913  11911  11917  11923     1  0.0000000  0.6973333  3
  11914  11910  11907  11919     1  0.0000000  1.0460000  1
  11914  11910  11907  11919     1  0.0000000  0.0000000  3
  11914  11910  11911  11917     1  0.0000000  1.0460000  1
  11914  11910  11911  11917     1  0.0000000  0.0000000  3
  11914  11910  11918  11921     1  0.0000000  0.6973333  3
  11915  11912  11911  11917     1  0.0000000  0.6508444  3
  11924  11920  11906  11928     1  0.0000000  1.0460000  1
  11924  11920  11906  11928     1  0.0000000  0.0000000  3
  11924  11920  11926  11927     1  0.0000000  0.6973333  3
  11925  11920  11906  11928     1  0.0000000  1.0460000  1
  11925  11920  11906  11928     1  0.0000000  0.0000000  3
  11925  11920  11926  11927     1  0.0000000  0.6973333  3
  11929  11930  11933  11937     1  0.0000000  0.6508444  3
  11929  11930  11942  11945     1  0.0000000  1.0460000  1
  11929  11930  11942  11945     1  0.0000000  0.6694400  3
  11929  11943  11949  11950     1  0.0000000  1.0460000  1
  11929  11943  11949  11950     1  0.0000000  0.6694400  3
  11929  11951  11935  11938     1  0.0000000  1.6038667  3
  11930  11933  11934  11936     1  0.0000000  0.6508444  3
  11930  11933  11941  11944     1  0.0000000  1.0460000  1
  11930  11933  11941  11944     1  0.0000000  0.6694400  3
  11930  11929  11943  11947     1  0.0000000  0.6508444  3
  11930  11929  11943  11948     1  0.0000000  0.6508444  3
  11931  11929  11930  11933     1  0.0000000  0.6508444  3
  11931  11929  11930  11942     1  0.0000000  1.0460000  1
  11931  11929  11930  11942     1  0.0000000  0.0000000  3
  11931  11929  11930  11932     1  0.0000000  0.6508444  3
  11931  11929  11943  11949     1  0.0000000  1.0460000  1
  11931  11929  11943  11949     1  0.0000000  0.0000000  3
  11931  11929  11943  11947     1  0.0000000  0.6508444  3
  11931  11929  11943  11948     1  0.0000000  0.6508444  3
  11931  11929  11951  11935     1  0.0000000  1.6038667  3
  11932  11930  11933  11934     1  0.0000000  0.6508444  3
  11932  11930  11933  11941     1  0.0000000  1.0460000  1
  11932  11930  11933  11941     1  0.0000000  0.0000000  3
  11932  11930  11933  11937     1  0.0000000  0.6508444  3
  11932  11930  11942  11945     1  0.0000000  0.6973333  3
  11932  11930  11929  11943     1  0.0000000  0.6508444  3
  11932  11930  11929  11951     1  0.0000000  1.0460000  1
  11932  11930  11929  11951     1  0.0000000  0.0000000  3
  11933  11934  11935  11938     1  0.0000000  0.6508444  3
  11933  11934  11940  11946     1  0.0000000  1.0460000  1
  11933  11934  11940  11946     1  0.0000000  0.6694400  3
  11933  11930  11942  11945     1  0.0000000  1.0460000  1
  11933  11930  11942  11945     1  0.0000000  0.6694400  3
  11934  11933  11941  11944     1  0.0000000  1.0460000  1
  11934  11933  11941  11944     1  0.0000000  0.6694400  3
  11935  11934  11940  11946     1  0.0000000  1.0460000  1
  11935  11934  11940  11946     1  0.0000000  0.6694400  3
  11935  11934  11933  11937     1  0.0000000  0.6508444  3
  11936  11934  11935  11939     1  0.0000000  1.0460000  1
  11936  11934  11935  11939     1  0.0000000  0.0000000  3
  11936  11934  11935  11951     1  0.0000000  1.0460000  1
  11936  11934  11935  11951     1  0.0000000  0.0000000  3
  11936  11934  11935  11938     1  0.0000000  0.6508444  3
  11936  11934  11940  11946     1  0.0000000  0.6973333  3
  11936  11934  11933  11941     1  0.0000000  1.0460000  1
  11936  11934  11933  11941     1  0.0000000  0.0000000  3
  11936  11934  11933  11937     1  0.0000000  0.6508444  3
  11937  11933  11934  11940     1  0.0000000  1.0460000  1
  11937  11933  11934  11940     1  0.0000000  0.0000000  3
  11937  11933  11941  11944     1  0.0000000  0.6973333  3
  11937  11933  11930  11942     1  0.0000000  1.0460000  1
  11937  11933  11930  11942     1  0.0000000  0.0000000  3
  11938  11935  11934  11940     1  0.0000000  0.6508444  3
  11947  11943  11949  11950     1  0.0000000  0.6973333  3
  11947  11943  11929  11951     1  0.0000000  1.0460000  1
  11947  11943  11929  11951     1  0.0000000  0.0000000  3
  11948  11943  11949  11950     1  0.0000000  0.6973333  3
  11948  11943  11929  11951     1  0.0000000  1.0460000  1
  11948  11943  11929  11951     1  0.0000000  0.0000000  3
  11952  11953  11956  11960     1  0.0000000  0.6508444  3
  11952  11953  11965  11968     1  0.0000000  1.0460000  1
  11952  11953  11965  11968     1  0.0000000  0.6694400  3
  11952  11966  11972  11973     1  0.0000000  1.0460000  1
  11952  11966  11972  11973     1  0.0000000  0.6694400  3
  11952  11974  11958  11961     1  0.0000000  1.6038667  3
  11953  11952  11966  11970     1  0.0000000  0.6508444  3
  11953  11952  11966  11971     1  0.0000000  0.6508444  3
  11953  11956  11957  11959     1  0.0000000  0.6508444  3
  11953  11956  11964  11967     1  0.0000000  1.0460000  1
  11953  11956  11964  11967     1  0.0000000  0.6694400  3
  11954  11952  11953  11956     1  0.0000000  0.6508444  3
  11954  11952  11953  11965     1  0.0000000  1.0460000  1
  11954  11952  11953  11965     1  0.0000000  0.0000000  3
  11954  11952  11953  11955     1  0.0000000  0.6508444  3
  11954  11952  11966  11972     1  0.0000000  1.0460000  1
  11954  11952  11966  11972     1  0.0000000  0.0000000  3
  11954  11952  11966  11970     1  0.0000000  0.6508444  3
  11954  11952  11966  11971     1  0.0000000  0.6508444  3
  11954  11952  11974  11958     1  0.0000000  1.6038667  3
  11955  11953  11952  11966     1  0.0000000  0.6508444  3
  11955  11953  11952  11974     1  0.0000000  1.0460000  1
  11955  11953  11952  11974     1  0.0000000  0.0000000  3
  11955  11953  11956  11957     1  0.0000000  0.6508444  3
  11955  11953  11956  11964     1  0.0000000  1.0460000  1
  11955  11953  11956  11964     1  0.0000000  0.0000000  3
  11955  11953  11956  11960     1  0.0000000  0.6508444  3
  11955  11953  11965  11968     1  0.0000000  0.6973333  3
  11956  11953  11965  11968     1  0.0000000  1.0460000  1
  11956  11953  11965  11968     1  0.0000000  0.6694400  3
  11956  11957  11958  11961     1  0.0000000  0.6508444  3
  11956  11957  11963  11969     1  0.0000000  1.0460000  1
  11956  11957  11963  11969     1  0.0000000  0.6694400  3
  11957  11956  11964  11967     1  0.0000000  1.0460000  1
  11957  11956  11964  11967     1  0.0000000  0.6694400  3
  11958  11957  11956  11960     1  0.0000000  0.6508444  3
  11958  11957  11963  11969     1  0.0000000  1.0460000  1
  11958  11957  11963  11969     1  0.0000000  0.6694400  3
  11959  11957  11956  11964     1  0.0000000  1.0460000  1
  11959  11957  11956  11964     1  0.0000000  0.0000000  3
  11959  11957  11956  11960     1  0.0000000  0.6508444  3
  11959  11957  11958  11962     1  0.0000000  1.0460000  1
  11959  11957  11958  11962     1  0.0000000  0.0000000  3
  11959  11957  11958  11974     1  0.0000000  1.0460000  1
  11959  11957  11958  11974     1  0.0000000  0.0000000  3
  11959  11957  11958  11961     1  0.0000000  0.6508444  3
  11959  11957  11963  11969     1  0.0000000  0.6973333  3
  11960  11956  11953  11965     1  0.0000000  1.0460000  1
  11960  11956  11953  11965     1  0.0000000  0.0000000  3
  11960  11956  11957  11963     1  0.0000000  1.0460000  1
  11960  11956  11957  11963     1  0.0000000  0.0000000  3
  11960  11956  11964  11967     1  0.0000000  0.6973333  3
  11961  11958  11957  11963     1  0.0000000  0.6508444  3
  11970  11966  11952  11974     1  0.0000000  1.0460000  1
  11970  11966  11952  11974     1  0.0000000  0.0000000  3
  11970  11966  11972  11973     1  0.0000000  0.6973333  3
  11971  11966  11952  11974     1  0.0000000  1.0460000  1
  11971  11966  11952  11974     1  0.0000000  0.0000000  3
  11971  11966  11972  11973     1  0.0000000  0.6973333  3
  11975  11976  11979  11983     1  0.0000000  0.6508444  3
  11975  11976  11988  11991     1  0.0000000  1.0460000  1
  11975  11976  11988  11991     1  0.0000000  0.6694400  3
  11975  11989  11995  11996     1  0.0000000  1.0460000  1
  11975  11989  11995  11996     1  0.0000000  0.6694400  3
  11975  11997  11981  11984     1  0.0000000  1.6038667  3
  11976  11979  11980  11982     1  0.0000000  0.6508444  3
  11976  11979  11987  11990     1  0.0000000  1.0460000  1
  11976  11979  11987  11990     1  0.0000000  0.6694400  3
  11976  11975  11989  11993     1  0.0000000  0.6508444  3
  11976  11975  11989  11994     1  0.0000000  0.6508444  3
  11977  11975  11976  11979     1  0.0000000  0.6508444  3
  11977  11975  11976  11988     1  0.0000000  1.0460000  1
  11977  11975  11976  11988     1  0.0000000  0.0000000  3
  11977  11975  11976  11978     1  0.0000000  0.6508444  3
  11977  11975  11989  11995     1  0.0000000  1.0460000  1
  11977  11975  11989  11995     1  0.0000000  0.0000000  3
  11977  11975  11989  11993     1  0.0000000  0.6508444  3
  11977  11975  11989  11994     1  0.0000000  0.6508444  3
  11977  11975  11997  11981     1  0.0000000  1.6038667  3
  11978  11976  11979  11980     1  0.0000000  0.6508444  3
  11978  11976  11979  11987     1  0.0000000  1.0460000  1
  11978  11976  11979  11987     1  0.0000000  0.0000000  3
  11978  11976  11979  11983     1  0.0000000  0.6508444  3
  11978  11976  11988  11991     1  0.0000000  0.6973333  3
  11978  11976  11975  11989     1  0.0000000  0.6508444  3
  11978  11976  11975  11997     1  0.0000000  1.0460000  1
  11978  11976  11975  11997     1  0.0000000  0.0000000  3
  11979  11980  11981  11984     1  0.0000000  0.6508444  3
  11979  11980  11986  11992     1  0.0000000  1.0460000  1
  11979  11980  11986  11992     1  0.0000000  0.6694400  3
  11979  11976  11988  11991     1  0.0000000  1.0460000  1
  11979  11976  11988  11991     1  0.0000000  0.6694400  3
  11980  11979  11987  11990     1  0.0000000  1.0460000  1
  11980  11979  11987  11990     1  0.0000000  0.6694400  3
  11981  11980  11986  11992     1  0.0000000  1.0460000  1
  11981  11980  11986  11992     1  0.0000000  0.6694400  3
  11981  11980  11979  11983     1  0.0000000  0.6508444  3
  11982  11980  11981  11985     1  0.0000000  1.0460000  1
  11982  11980  11981  11985     1  0.0000000  0.0000000  3
  11982  11980  11981  11997     1  0.0000000  1.0460000  1
  11982  11980  11981  11997     1  0.0000000  0.0000000  3
  11982  11980  11981  11984     1  0.0000000  0.6508444  3
  11982  11980  11986  11992     1  0.0000000  0.6973333  3
  11982  11980  11979  11987     1  0.0000000  1.0460000  1
  11982  11980  11979  11987     1  0.0000000  0.0000000  3
  11982  11980  11979  11983     1  0.0000000  0.6508444  3
  11983  11979  11980  11986     1  0.0000000  1.0460000  1
  11983  11979  11980  11986     1  0.0000000  0.0000000  3
  11983  11979  11987  11990     1  0.0000000  0.6973333  3
  11983  11979  11976  11988     1  0.0000000  1.0460000  1
  11983  11979  11976  11988     1  0.0000000  0.0000000  3
  11984  11981  11980  11986     1  0.0000000  0.6508444  3
  11993  11989  11995  11996     1  0.0000000  0.6973333  3
  11993  11989  11975  11997     1  0.0000000  1.0460000  1
  11993  11989  11975  11997     1  0.0000000  0.0000000  3
  11994  11989  11995  11996     1  0.0000000  0.6973333  3
  11994  11989  11975  11997     1  0.0000000  1.0460000  1
  11994  11989  11975  11997     1  0.0000000  0.0000000  3
  11998  11999  12002  12006     1  0.0000000  0.6508444  3
  11998  11999  12011  12014     1  0.0000000  1.0460000  1
  11998  11999  12011  12014     1  0.0000000  0.6694400  3
  11998  12012  12018  12019     1  0.0000000  1.0460000  1
  11998  12012  12018  12019     1  0.0000000  0.6694400  3
  11998  12020  12004  12007     1  0.0000000  1.6038667  3
  11999  11998  12012  12016     1  0.0000000  0.6508444  3
  11999  11998  12012  12017     1  0.0000000  0.6508444  3
  11999  12002  12003  12005     1  0.0000000  0.6508444  3
  11999  12002  12010  12013     1  0.0000000  1.0460000  1
  11999  12002  12010  12013     1  0.0000000  0.6694400  3
  12000  11998  11999  12002     1  0.0000000  0.6508444  3
  12000  11998  11999  12011     1  0.0000000  1.0460000  1
  12000  11998  11999  12011     1  0.0000000  0.0000000  3
  12000  11998  11999  12001     1  0.0000000  0.6508444  3
  12000  11998  12012  12018     1  0.0000000  1.0460000  1
  12000  11998  12012  12018     1  0.0000000  0.0000000  3
  12000  11998  12012  12016     1  0.0000000  0.6508444  3
  12000  11998  12012  12017     1  0.0000000  0.6508444  3
  12000  11998  12020  12004     1  0.0000000  1.6038667  3
  12001  11999  11998  12012     1  0.0000000  0.6508444  3
  12001  11999  11998  12020     1  0.0000000  1.0460000  1
  12001  11999  11998  12020     1  0.0000000  0.0000000  3
  12001  11999  12002  12003     1  0.0000000  0.6508444  3
  12001  11999  12002  12010     1  0.0000000  1.0460000  1
  12001  11999  12002  12010     1  0.0000000  0.0000000  3
  12001  11999  12002  12006     1  0.0000000  0.6508444  3
  12001  11999  12011  12014     1  0.0000000  0.6973333  3
  12002  11999  12011  12014     1  0.0000000  1.0460000  1
  12002  11999  12011  12014     1  0.0000000  0.6694400  3
  12002  12003  12004  12007     1  0.0000000  0.6508444  3
  12002  12003  12009  12015     1  0.0000000  1.0460000  1
  12002  12003  12009  12015     1  0.0000000  0.6694400  3
  12003  12002  12010  12013     1  0.0000000  1.0460000  1
  12003  12002  12010  12013     1  0.0000000  0.6694400  3
  12004  12003  12002  12006     1  0.0000000  0.6508444  3
  12004  12003  12009  12015     1  0.0000000  1.0460000  1
  12004  12003  12009  12015     1  0.0000000  0.6694400  3
  12005  12003  12002  12010     1  0.0000000  1.0460000  1
  12005  12003  12002  12010     1  0.0000000  0.0000000  3
  12005  12003  12002  12006     1  0.0000000  0.6508444  3
  12005  12003  12004  12008     1  0.0000000  1.0460000  1
  12005  12003  12004  12008     1  0.0000000  0.0000000  3
  12005  12003  12004  12020     1  0.0000000  1.0460000  1
  12005  12003  12004  12020     1  0.0000000  0.0000000  3
  12005  12003  12004  12007     1  0.0000000  0.6508444  3
  12005  12003  12009  12015     1  0.0000000  0.6973333  3
  12006  12002  11999  12011     1  0.0000000  1.0460000  1
  12006  12002  11999  12011     1  0.0000000  0.0000000  3
  12006  12002  12003  12009     1  0.0000000  1.0460000  1
  12006  12002  12003  12009     1  0.0000000  0.0000000  3
  12006  12002  12010  12013     1  0.0000000  0.6973333  3
  12007  12004  12003  12009     1  0.0000000  0.6508444  3
  12016  12012  11998  12020     1  0.0000000  1.0460000  1
  12016  12012  11998  12020     1  0.0000000  0.0000000  3
  12016  12012  12018  12019     1  0.0000000  0.6973333  3
  12017  12012  11998  12020     1  0.0000000  1.0460000  1
  12017  12012  11998  12020     1  0.0000000  0.0000000  3
  12017  12012  12018  12019     1  0.0000000  0.6973333  3
  12021  12022  12025  12029     1  0.0000000  0.6508444  3
  12021  12022  12034  12037     1  0.0000000  1.0460000  1
  12021  12022  12034  12037     1  0.0000000  0.6694400  3
  12021  12035  12041  12042     1  0.0000000  1.0460000  1
  12021  12035  12041  12042     1  0.0000000  0.6694400  3
  12021  12043  12027  12030     1  0.0000000  1.6038667  3
  12022  12025  12026  12028     1  0.0000000  0.6508444  3
  12022  12025  12033  12036     1  0.0000000  1.0460000  1
  12022  12025  12033  12036     1  0.0000000  0.6694400  3
  12022  12021  12035  12039     1  0.0000000  0.6508444  3
  12022  12021  12035  12040     1  0.0000000  0.6508444  3
  12023  12021  12022  12025     1  0.0000000  0.6508444  3
  12023  12021  12022  12034     1  0.0000000  1.0460000  1
  12023  12021  12022  12034     1  0.0000000  0.0000000  3
  12023  12021  12022  12024     1  0.0000000  0.6508444  3
  12023  12021  12035  12041     1  0.0000000  1.0460000  1
  12023  12021  12035  12041     1  0.0000000  0.0000000  3
  12023  12021  12035  12039     1  0.0000000  0.6508444  3
  12023  12021  12035  12040     1  0.0000000  0.6508444  3
  12023  12021  12043  12027     1  0.0000000  1.6038667  3
  12024  12022  12025  12026     1  0.0000000  0.6508444  3
  12024  12022  12025  12033     1  0.0000000  1.0460000  1
  12024  12022  12025  12033     1  0.0000000  0.0000000  3
  12024  12022  12025  12029     1  0.0000000  0.6508444  3
  12024  12022  12034  12037     1  0.0000000  0.6973333  3
  12024  12022  12021  12035     1  0.0000000  0.6508444  3
  12024  12022  12021  12043     1  0.0000000  1.0460000  1
  12024  12022  12021  12043     1  0.0000000  0.0000000  3
  12025  12026  12027  12030     1  0.0000000  0.6508444  3
  12025  12026  12032  12038     1  0.0000000  1.0460000  1
  12025  12026  12032  12038     1  0.0000000  0.6694400  3
  12025  12022  12034  12037     1  0.0000000  1.0460000  1
  12025  12022  12034  12037     1  0.0000000  0.6694400  3
  12026  12025  12033  12036     1  0.0000000  1.0460000  1
  12026  12025  12033  12036     1  0.0000000  0.6694400  3
  12027  12026  12032  12038     1  0.0000000  1.0460000  1
  12027  12026  12032  12038     1  0.0000000  0.6694400  3
  12027  12026  12025  12029     1  0.0000000  0.6508444  3
  12028  12026  12027  12031     1  0.0000000  1.0460000  1
  12028  12026  12027  12031     1  0.0000000  0.0000000  3
  12028  12026  12027  12043     1  0.0000000  1.0460000  1
  12028  12026  12027  12043     1  0.0000000  0.0000000  3
  12028  12026  12027  12030     1  0.0000000  0.6508444  3
  12028  12026  12032  12038     1  0.0000000  0.6973333  3
  12028  12026  12025  12033     1  0.0000000  1.0460000  1
  12028  12026  12025  12033     1  0.0000000  0.0000000  3
  12028  12026  12025  12029     1  0.0000000  0.6508444  3
  12029  12025  12026  12032     1  0.0000000  1.0460000  1
  12029  12025  12026  12032     1  0.0000000  0.0000000  3
  12029  12025  12033  12036     1  0.0000000  0.6973333  3
  12029  12025  12022  12034     1  0.0000000  1.0460000  1
  12029  12025  12022  12034     1  0.0000000  0.0000000  3
  12030  12027  12026  12032     1  0.0000000  0.6508444  3
  12039  12035  12041  12042     1  0.0000000  0.6973333  3
  12039  12035  12021  12043     1  0.0000000  1.0460000  1
  12039  12035  12021  12043     1  0.0000000  0.0000000  3
  12040  12035  12041  12042     1  0.0000000  0.6973333  3
  12040  12035  12021  12043     1  0.0000000  1.0460000  1
  12040  12035  12021  12043     1  0.0000000  0.0000000  3
  12044  12045  12048  12052     1  0.0000000  0.6508444  3
  12044  12045  12057  12060     1  0.0000000  1.0460000  1
  12044  12045  12057  12060     1  0.0000000  0.6694400  3
  12044  12058  12064  12065     1  0.0000000  1.0460000  1
  12044  12058  12064  12065     1  0.0000000  0.6694400  3
  12044  12066  12050  12053     1  0.0000000  1.6038667  3
  12045  12044  12058  12062     1  0.0000000  0.6508444  3
  12045  12044  12058  12063     1  0.0000000  0.6508444  3
  12045  12048  12049  12051     1  0.0000000  0.6508444  3
  12045  12048  12056  12059     1  0.0000000  1.0460000  1
  12045  12048  12056  12059     1  0.0000000  0.6694400  3
  12046  12044  12045  12048     1  0.0000000  0.6508444  3
  12046  12044  12045  12057     1  0.0000000  1.0460000  1
  12046  12044  12045  12057     1  0.0000000  0.0000000  3
  12046  12044  12045  12047     1  0.0000000  0.6508444  3
  12046  12044  12058  12064     1  0.0000000  1.0460000  1
  12046  12044  12058  12064     1  0.0000000  0.0000000  3
  12046  12044  12058  12062     1  0.0000000  0.6508444  3
  12046  12044  12058  12063     1  0.0000000  0.6508444  3
  12046  12044  12066  12050     1  0.0000000  1.6038667  3
  12047  12045  12044  12058     1  0.0000000  0.6508444  3
  12047  12045  12044  12066     1  0.0000000  1.0460000  1
  12047  12045  12044  12066     1  0.0000000  0.0000000  3
  12047  12045  12048  12049     1  0.0000000  0.6508444  3
  12047  12045  12048  12056     1  0.0000000  1.0460000  1
  12047  12045  12048  12056     1  0.0000000  0.0000000  3
  12047  12045  12048  12052     1  0.0000000  0.6508444  3
  12047  12045  12057  12060     1  0.0000000  0.6973333  3
  12048  12045  12057  12060     1  0.0000000  1.0460000  1
  12048  12045  12057  12060     1  0.0000000  0.6694400  3
  12048  12049  12050  12053     1  0.0000000  0.6508444  3
  12048  12049  12055  12061     1  0.0000000  1.0460000  1
  12048  12049  12055  12061     1  0.0000000  0.6694400  3
  12049  12048  12056  12059     1  0.0000000  1.0460000  1
  12049  12048  12056  12059     1  0.0000000  0.6694400  3
  12050  12049  12048  12052     1  0.0000000  0.6508444  3
  12050  12049  12055  12061     1  0.0000000  1.0460000  1
  12050  12049  12055  12061     1  0.0000000  0.6694400  3
  12051  12049  12048  12056     1  0.0000000  1.0460000  1
  12051  12049  12048  12056     1  0.0000000  0.0000000  3
  12051  12049  12048  12052     1  0.0000000  0.6508444  3
  12051  12049  12050  12054     1  0.0000000  1.0460000  1
  12051  12049  12050  12054     1  0.0000000  0.0000000  3
  12051  12049  12050  12066     1  0.0000000  1.0460000  1
  12051  12049  12050  12066     1  0.0000000  0.0000000  3
  12051  12049  12050  12053     1  0.0000000  0.6508444  3
  12051  12049  12055  12061     1  0.0000000  0.6973333  3
  12052  12048  12045  12057     1  0.0000000  1.0460000  1
  12052  12048  12045  12057     1  0.0000000  0.0000000  3
  12052  12048  12049  12055     1  0.0000000  1.0460000  1
  12052  12048  12049  12055     1  0.0000000  0.0000000  3
  12052  12048  12056  12059     1  0.0000000  0.6973333  3
  12053  12050  12049  12055     1  0.0000000  0.6508444  3
  12062  12058  12044  12066     1  0.0000000  1.0460000  1
  12062  12058  12044  12066     1  0.0000000  0.0000000  3
  12062  12058  12064  12065     1  0.0000000  0.6973333  3
  12063  12058  12044  12066     1  0.0000000  1.0460000  1
  12063  12058  12044  12066     1  0.0000000  0.0000000  3
  12063  12058  12064  12065     1  0.0000000  0.6973333  3
  12067  12068  12071  12075     1  0.0000000  0.6508444  3
  12067  12068  12080  12083     1  0.0000000  1.0460000  1
  12067  12068  12080  12083     1  0.0000000  0.6694400  3
  12067  12081  12087  12088     1  0.0000000  1.0460000  1
  12067  12081  12087  12088     1  0.0000000  0.6694400  3
  12067  12089  12073  12076     1  0.0000000  1.6038667  3
  12068  12071  12072  12074     1  0.0000000  0.6508444  3
  12068  12071  12079  12082     1  0.0000000  1.0460000  1
  12068  12071  12079  12082     1  0.0000000  0.6694400  3
  12068  12067  12081  12085     1  0.0000000  0.6508444  3
  12068  12067  12081  12086     1  0.0000000  0.6508444  3
  12069  12067  12068  12071     1  0.0000000  0.6508444  3
  12069  12067  12068  12080     1  0.0000000  1.0460000  1
  12069  12067  12068  12080     1  0.0000000  0.0000000  3
  12069  12067  12068  12070     1  0.0000000  0.6508444  3
  12069  12067  12081  12087     1  0.0000000  1.0460000  1
  12069  12067  12081  12087     1  0.0000000  0.0000000  3
  12069  12067  12081  12085     1  0.0000000  0.6508444  3
  12069  12067  12081  12086     1  0.0000000  0.6508444  3
  12069  12067  12089  12073     1  0.0000000  1.6038667  3
  12070  12068  12071  12072     1  0.0000000  0.6508444  3
  12070  12068  12071  12079     1  0.0000000  1.0460000  1
  12070  12068  12071  12079     1  0.0000000  0.0000000  3
  12070  12068  12071  12075     1  0.0000000  0.6508444  3
  12070  12068  12080  12083     1  0.0000000  0.6973333  3
  12070  12068  12067  12081     1  0.0000000  0.6508444  3
  12070  12068  12067  12089     1  0.0000000  1.0460000  1
  12070  12068  12067  12089     1  0.0000000  0.0000000  3
  12071  12072  12073  12076     1  0.0000000  0.6508444  3
  12071  12072  12078  12084     1  0.0000000  1.0460000  1
  12071  12072  12078  12084     1  0.0000000  0.6694400  3
  12071  12068  12080  12083     1  0.0000000  1.0460000  1
  12071  12068  12080  12083     1  0.0000000  0.6694400  3
  12072  12071  12079  12082     1  0.0000000  1.0460000  1
  12072  12071  12079  12082     1  0.0000000  0.6694400  3
  12073  12072  12078  12084     1  0.0000000  1.0460000  1
  12073  12072  12078  12084     1  0.0000000  0.6694400  3
  12073  12072  12071  12075     1  0.0000000  0.6508444  3
  12074  12072  12073  12077     1  0.0000000  1.0460000  1
  12074  12072  12073  12077     1  0.0000000  0.0000000  3
  12074  12072  12073  12089     1  0.0000000  1.0460000  1
  12074  12072  12073  12089     1  0.0000000  0.0000000  3
  12074  12072  12073  12076     1  0.0000000  0.6508444  3
  12074  12072  12078  12084     1  0.0000000  0.6973333  3
  12074  12072  12071  12079     1  0.0000000  1.0460000  1
  12074  12072  12071  12079     1  0.0000000  0.0000000  3
  12074  12072  12071  12075     1  0.0000000  0.6508444  3
  12075  12071  12072  12078     1  0.0000000  1.0460000  1
  12075  12071  12072  12078     1  0.0000000  0.0000000  3
  12075  12071  12079  12082     1  0.0000000  0.6973333  3
  12075  12071  12068  12080     1  0.0000000  1.0460000  1
  12075  12071  12068  12080     1  0.0000000  0.0000000  3
  12076  12073  12072  12078     1  0.0000000  0.6508444  3
  12085  12081  12087  12088     1  0.0000000  0.6973333  3
  12085  12081  12067  12089     1  0.0000000  1.0460000  1
  12085  12081  12067  12089     1  0.0000000  0.0000000  3
  12086  12081  12087  12088     1  0.0000000  0.6973333  3
  12086  12081  12067  12089     1  0.0000000  1.0460000  1
  12086  12081  12067  12089     1  0.0000000  0.0000000  3
  12090  12091  12094  12098     1  0.0000000  0.6508444  3
  12090  12091  12103  12106     1  0.0000000  1.0460000  1
  12090  12091  12103  12106     1  0.0000000  0.6694400  3
  12090  12104  12110  12111     1  0.0000000  1.0460000  1
  12090  12104  12110  12111     1  0.0000000  0.6694400  3
  12090  12112  12096  12099     1  0.0000000  1.6038667  3
  12091  12090  12104  12108     1  0.0000000  0.6508444  3
  12091  12090  12104  12109     1  0.0000000  0.6508444  3
  12091  12094  12095  12097     1  0.0000000  0.6508444  3
  12091  12094  12102  12105     1  0.0000000  1.0460000  1
  12091  12094  12102  12105     1  0.0000000  0.6694400  3
  12092  12090  12091  12094     1  0.0000000  0.6508444  3
  12092  12090  12091  12103     1  0.0000000  1.0460000  1
  12092  12090  12091  12103     1  0.0000000  0.0000000  3
  12092  12090  12091  12093     1  0.0000000  0.6508444  3
  12092  12090  12104  12110     1  0.0000000  1.0460000  1
  12092  12090  12104  12110     1  0.0000000  0.0000000  3
  12092  12090  12104  12108     1  0.0000000  0.6508444  3
  12092  12090  12104  12109     1  0.0000000  0.6508444  3
  12092  12090  12112  12096     1  0.0000000  1.6038667  3
  12093  12091  12090  12104     1  0.0000000  0.6508444  3
  12093  12091  12090  12112     1  0.0000000  1.0460000  1
  12093  12091  12090  12112     1  0.0000000  0.0000000  3
  12093  12091  12094  12095     1  0.0000000  0.6508444  3
  12093  12091  12094  12102     1  0.0000000  1.0460000  1
  12093  12091  12094  12102     1  0.0000000  0.0000000  3
  12093  12091  12094  12098     1  0.0000000  0.6508444  3
  12093  12091  12103  12106     1  0.0000000  0.6973333  3
  12094  12091  12103  12106     1  0.0000000  1.0460000  1
  12094  12091  12103  12106     1  0.0000000  0.6694400  3
  12094  12095  12096  12099     1  0.0000000  0.6508444  3
  12094  12095  12101  12107     1  0.0000000  1.0460000  1
  12094  12095  12101  12107     1  0.0000000  0.6694400  3
  12095  12094  12102  12105     1  0.0000000  1.0460000  1
  12095  12094  12102  12105     1  0.0000000  0.6694400  3
  12096  12095  12094  12098     1  0.0000000  0.6508444  3
  12096  12095  12101  12107     1  0.0000000  1.0460000  1
  12096  12095  12101  12107     1  0.0000000  0.6694400  3
  12097  12095  12094  12102     1  0.0000000  1.0460000  1
  12097  12095  12094  12102     1  0.0000000  0.0000000  3
  12097  12095  12094  12098     1  0.0000000  0.6508444  3
  12097  12095  12096  12100     1  0.0000000  1.0460000  1
  12097  12095  12096  12100     1  0.0000000  0.0000000  3
  12097  12095  12096  12112     1  0.0000000  1.0460000  1
  12097  12095  12096  12112     1  0.0000000  0.0000000  3
  12097  12095  12096  12099     1  0.0000000  0.6508444  3
  12097  12095  12101  12107     1  0.0000000  0.6973333  3
  12098  12094  12091  12103     1  0.0000000  1.0460000  1
  12098  12094  12091  12103     1  0.0000000  0.0000000  3
  12098  12094  12095  12101     1  0.0000000  1.0460000  1
  12098  12094  12095  12101     1  0.0000000  0.0000000  3
  12098  12094  12102  12105     1  0.0000000  0.6973333  3
  12099  12096  12095  12101     1  0.0000000  0.6508444  3
  12108  12104  12090  12112     1  0.0000000  1.0460000  1
  12108  12104  12090  12112     1  0.0000000  0.0000000  3
  12108  12104  12110  12111     1  0.0000000  0.6973333  3
  12109  12104  12090  12112     1  0.0000000  1.0460000  1
  12109  12104  12090  12112     1  0.0000000  0.0000000  3
  12109  12104  12110  12111     1  0.0000000  0.6973333  3
  12113  12114  12117  12121     1  0.0000000  0.6508444  3
  12113  12114  12126  12129     1  0.0000000  1.0460000  1
  12113  12114  12126  12129     1  0.0000000  0.6694400  3
  12113  12127  12133  12134     1  0.0000000  1.0460000  1
  12113  12127  12133  12134     1  0.0000000  0.6694400  3
  12113  12135  12119  12122     1  0.0000000  1.6038667  3
  12114  12117  12118  12120     1  0.0000000  0.6508444  3
  12114  12117  12125  12128     1  0.0000000  1.0460000  1
  12114  12117  12125  12128     1  0.0000000  0.6694400  3
  12114  12113  12127  12131     1  0.0000000  0.6508444  3
  12114  12113  12127  12132     1  0.0000000  0.6508444  3
  12115  12113  12114  12117     1  0.0000000  0.6508444  3
  12115  12113  12114  12126     1  0.0000000  1.0460000  1
  12115  12113  12114  12126     1  0.0000000  0.0000000  3
  12115  12113  12114  12116     1  0.0000000  0.6508444  3
  12115  12113  12127  12133     1  0.0000000  1.0460000  1
  12115  12113  12127  12133     1  0.0000000  0.0000000  3
  12115  12113  12127  12131     1  0.0000000  0.6508444  3
  12115  12113  12127  12132     1  0.0000000  0.6508444  3
  12115  12113  12135  12119     1  0.0000000  1.6038667  3
  12116  12114  12117  12118     1  0.0000000  0.6508444  3
  12116  12114  12117  12125     1  0.0000000  1.0460000  1
  12116  12114  12117  12125     1  0.0000000  0.0000000  3
  12116  12114  12117  12121     1  0.0000000  0.6508444  3
  12116  12114  12126  12129     1  0.0000000  0.6973333  3
  12116  12114  12113  12127     1  0.0000000  0.6508444  3
  12116  12114  12113  12135     1  0.0000000  1.0460000  1
  12116  12114  12113  12135     1  0.0000000  0.0000000  3
  12117  12118  12119  12122     1  0.0000000  0.6508444  3
  12117  12118  12124  12130     1  0.0000000  1.0460000  1
  12117  12118  12124  12130     1  0.0000000  0.6694400  3
  12117  12114  12126  12129     1  0.0000000  1.0460000  1
  12117  12114  12126  12129     1  0.0000000  0.6694400  3
  12118  12117  12125  12128     1  0.0000000  1.0460000  1
  12118  12117  12125  12128     1  0.0000000  0.6694400  3
  12119  12118  12124  12130     1  0.0000000  1.0460000  1
  12119  12118  12124  12130     1  0.0000000  0.6694400  3
  12119  12118  12117  12121     1  0.0000000  0.6508444  3
  12120  12118  12119  12123     1  0.0000000  1.0460000  1
  12120  12118  12119  12123     1  0.0000000  0.0000000  3
  12120  12118  12119  12135     1  0.0000000  1.0460000  1
  12120  12118  12119  12135     1  0.0000000  0.0000000  3
  12120  12118  12119  12122     1  0.0000000  0.6508444  3
  12120  12118  12124  12130     1  0.0000000  0.6973333  3
  12120  12118  12117  12125     1  0.0000000  1.0460000  1
  12120  12118  12117  12125     1  0.0000000  0.0000000  3
  12120  12118  12117  12121     1  0.0000000  0.6508444  3
  12121  12117  12118  12124     1  0.0000000  1.0460000  1
  12121  12117  12118  12124     1  0.0000000  0.0000000  3
  12121  12117  12125  12128     1  0.0000000  0.6973333  3
  12121  12117  12114  12126     1  0.0000000  1.0460000  1
  12121  12117  12114  12126     1  0.0000000  0.0000000  3
  12122  12119  12118  12124     1  0.0000000  0.6508444  3
  12131  12127  12133  12134     1  0.0000000  0.6973333  3
  12131  12127  12113  12135     1  0.0000000  1.0460000  1
  12131  12127  12113  12135     1  0.0000000  0.0000000  3
  12132  12127  12133  12134     1  0.0000000  0.6973333  3
  12132  12127  12113  12135     1  0.0000000  1.0460000  1
  12132  12127  12113  12135     1  0.0000000  0.0000000  3
  12136  12137  12140  12144     1  0.0000000  0.6508444  3
  12136  12137  12149  12152     1  0.0000000  1.0460000  1
  12136  12137  12149  12152     1  0.0000000  0.6694400  3
  12136  12150  12156  12157     1  0.0000000  1.0460000  1
  12136  12150  12156  12157     1  0.0000000  0.6694400  3
  12136  12158  12142  12145     1  0.0000000  1.6038667  3
  12137  12136  12150  12154     1  0.0000000  0.6508444  3
  12137  12136  12150  12155     1  0.0000000  0.6508444  3
  12137  12140  12141  12143     1  0.0000000  0.6508444  3
  12137  12140  12148  12151     1  0.0000000  1.0460000  1
  12137  12140  12148  12151     1  0.0000000  0.6694400  3
  12138  12136  12137  12140     1  0.0000000  0.6508444  3
  12138  12136  12137  12149     1  0.0000000  1.0460000  1
  12138  12136  12137  12149     1  0.0000000  0.0000000  3
  12138  12136  12137  12139     1  0.0000000  0.6508444  3
  12138  12136  12150  12156     1  0.0000000  1.0460000  1
  12138  12136  12150  12156     1  0.0000000  0.0000000  3
  12138  12136  12150  12154     1  0.0000000  0.6508444  3
  12138  12136  12150  12155     1  0.0000000  0.6508444  3
  12138  12136  12158  12142     1  0.0000000  1.6038667  3
  12139  12137  12136  12150     1  0.0000000  0.6508444  3
  12139  12137  12136  12158     1  0.0000000  1.0460000  1
  12139  12137  12136  12158     1  0.0000000  0.0000000  3
  12139  12137  12140  12141     1  0.0000000  0.6508444  3
  12139  12137  12140  12148     1  0.0000000  1.0460000  1
  12139  12137  12140  12148     1  0.0000000  0.0000000  3
  12139  12137  12140  12144     1  0.0000000  0.6508444  3
  12139  12137  12149  12152     1  0.0000000  0.6973333  3
  12140  12137  12149  12152     1  0.0000000  1.0460000  1
  12140  12137  12149  12152     1  0.0000000  0.6694400  3
  12140  12141  12142  12145     1  0.0000000  0.6508444  3
  12140  12141  12147  12153     1  0.0000000  1.0460000  1
  12140  12141  12147  12153     1  0.0000000  0.6694400  3
  12141  12140  12148  12151     1  0.0000000  1.0460000  1
  12141  12140  12148  12151     1  0.0000000  0.6694400  3
  12142  12141  12140  12144     1  0.0000000  0.6508444  3
  12142  12141  12147  12153     1  0.0000000  1.0460000  1
  12142  12141  12147  12153     1  0.0000000  0.6694400  3
  12143  12141  12140  12148     1  0.0000000  1.0460000  1
  12143  12141  12140  12148     1  0.0000000  0.0000000  3
  12143  12141  12140  12144     1  0.0000000  0.6508444  3
  12143  12141  12142  12146     1  0.0000000  1.0460000  1
  12143  12141  12142  12146     1  0.0000000  0.0000000  3
  12143  12141  12142  12158     1  0.0000000  1.0460000  1
  12143  12141  12142  12158     1  0.0000000  0.0000000  3
  12143  12141  12142  12145     1  0.0000000  0.6508444  3
  12143  12141  12147  12153     1  0.0000000  0.6973333  3
  12144  12140  12137  12149     1  0.0000000  1.0460000  1
  12144  12140  12137  12149     1  0.0000000  0.0000000  3
  12144  12140  12141  12147     1  0.0000000  1.0460000  1
  12144  12140  12141  12147     1  0.0000000  0.0000000  3
  12144  12140  12148  12151     1  0.0000000  0.6973333  3
  12145  12142  12141  12147     1  0.0000000  0.6508444  3
  12154  12150  12136  12158     1  0.0000000  1.0460000  1
  12154  12150  12136  12158     1  0.0000000  0.0000000  3
  12154  12150  12156  12157     1  0.0000000  0.6973333  3
  12155  12150  12136  12158     1  0.0000000  1.0460000  1
  12155  12150  12136  12158     1  0.0000000  0.0000000  3
  12155  12150  12156  12157     1  0.0000000  0.6973333  3
  12159  12160  12163  12167     1  0.0000000  0.6508444  3
  12159  12160  12172  12175     1  0.0000000  1.0460000  1
  12159  12160  12172  12175     1  0.0000000  0.6694400  3
  12159  12173  12179  12180     1  0.0000000  1.0460000  1
  12159  12173  12179  12180     1  0.0000000  0.6694400  3
  12159  12181  12165  12168     1  0.0000000  1.6038667  3
  12160  12163  12164  12166     1  0.0000000  0.6508444  3
  12160  12163  12171  12174     1  0.0000000  1.0460000  1
  12160  12163  12171  12174     1  0.0000000  0.6694400  3
  12160  12159  12173  12177     1  0.0000000  0.6508444  3
  12160  12159  12173  12178     1  0.0000000  0.6508444  3
  12161  12159  12160  12163     1  0.0000000  0.6508444  3
  12161  12159  12160  12172     1  0.0000000  1.0460000  1
  12161  12159  12160  12172     1  0.0000000  0.0000000  3
  12161  12159  12160  12162     1  0.0000000  0.6508444  3
  12161  12159  12173  12179     1  0.0000000  1.0460000  1
  12161  12159  12173  12179     1  0.0000000  0.0000000  3
  12161  12159  12173  12177     1  0.0000000  0.6508444  3
  12161  12159  12173  12178     1  0.0000000  0.6508444  3
  12161  12159  12181  12165     1  0.0000000  1.6038667  3
  12162  12160  12163  12164     1  0.0000000  0.6508444  3
  12162  12160  12163  12171     1  0.0000000  1.0460000  1
  12162  12160  12163  12171     1  0.0000000  0.0000000  3
  12162  12160  12163  12167     1  0.0000000  0.6508444  3
  12162  12160  12172  12175     1  0.0000000  0.6973333  3
  12162  12160  12159  12173     1  0.0000000  0.6508444  3
  12162  12160  12159  12181     1  0.0000000  1.0460000  1
  12162  12160  12159  12181     1  0.0000000  0.0000000  3
  12163  12164  12165  12168     1  0.0000000  0.6508444  3
  12163  12164  12170  12176     1  0.0000000  1.0460000  1
  12163  12164  12170  12176     1  0.0000000  0.6694400  3
  12163  12160  12172  12175     1  0.0000000  1.0460000  1
  12163  12160  12172  12175     1  0.0000000  0.6694400  3
  12164  12163  12171  12174     1  0.0000000  1.0460000  1
  12164  12163  12171  12174     1  0.0000000  0.6694400  3
  12165  12164  12170  12176     1  0.0000000  1.0460000  1
  12165  12164  12170  12176     1  0.0000000  0.6694400  3
  12165  12164  12163  12167     1  0.0000000  0.6508444  3
  12166  12164  12165  12169     1  0.0000000  1.0460000  1
  12166  12164  12165  12169     1  0.0000000  0.0000000  3
  12166  12164  12165  12181     1  0.0000000  1.0460000  1
  12166  12164  12165  12181     1  0.0000000  0.0000000  3
  12166  12164  12165  12168     1  0.0000000  0.6508444  3
  12166  12164  12170  12176     1  0.0000000  0.6973333  3
  12166  12164  12163  12171     1  0.0000000  1.0460000  1
  12166  12164  12163  12171     1  0.0000000  0.0000000  3
  12166  12164  12163  12167     1  0.0000000  0.6508444  3
  12167  12163  12164  12170     1  0.0000000  1.0460000  1
  12167  12163  12164  12170     1  0.0000000  0.0000000  3
  12167  12163  12171  12174     1  0.0000000  0.6973333  3
  12167  12163  12160  12172     1  0.0000000  1.0460000  1
  12167  12163  12160  12172     1  0.0000000  0.0000000  3
  12168  12165  12164  12170     1  0.0000000  0.6508444  3
  12177  12173  12179  12180     1  0.0000000  0.6973333  3
  12177  12173  12159  12181     1  0.0000000  1.0460000  1
  12177  12173  12159  12181     1  0.0000000  0.0000000  3
  12178  12173  12179  12180     1  0.0000000  0.6973333  3
  12178  12173  12159  12181     1  0.0000000  1.0460000  1
  12178  12173  12159  12181     1  0.0000000  0.0000000  3
  12182  12183  12186  12190     1  0.0000000  0.6508444  3
  12182  12183  12195  12198     1  0.0000000  1.0460000  1
  12182  12183  12195  12198     1  0.0000000  0.6694400  3
  12182  12196  12202  12203     1  0.0000000  1.0460000  1
  12182  12196  12202  12203     1  0.0000000  0.6694400  3
  12182  12204  12188  12191     1  0.0000000  1.6038667  3
  12183  12182  12196  12200     1  0.0000000  0.6508444  3
  12183  12182  12196  12201     1  0.0000000  0.6508444  3
  12183  12186  12187  12189     1  0.0000000  0.6508444  3
  12183  12186  12194  12197     1  0.0000000  1.0460000  1
  12183  12186  12194  12197     1  0.0000000  0.6694400  3
  12184  12182  12183  12186     1  0.0000000  0.6508444  3
  12184  12182  12183  12195     1  0.0000000  1.0460000  1
  12184  12182  12183  12195     1  0.0000000  0.0000000  3
  12184  12182  12183  12185     1  0.0000000  0.6508444  3
  12184  12182  12196  12202     1  0.0000000  1.0460000  1
  12184  12182  12196  12202     1  0.0000000  0.0000000  3
  12184  12182  12196  12200     1  0.0000000  0.6508444  3
  12184  12182  12196  12201     1  0.0000000  0.6508444  3
  12184  12182  12204  12188     1  0.0000000  1.6038667  3
  12185  12183  12182  12196     1  0.0000000  0.6508444  3
  12185  12183  12182  12204     1  0.0000000  1.0460000  1
  12185  12183  12182  12204     1  0.0000000  0.0000000  3
  12185  12183  12186  12187     1  0.0000000  0.6508444  3
  12185  12183  12186  12194     1  0.0000000  1.0460000  1
  12185  12183  12186  12194     1  0.0000000  0.0000000  3
  12185  12183  12186  12190     1  0.0000000  0.6508444  3
  12185  12183  12195  12198     1  0.0000000  0.6973333  3
  12186  12183  12195  12198     1  0.0000000  1.0460000  1
  12186  12183  12195  12198     1  0.0000000  0.6694400  3
  12186  12187  12188  12191     1  0.0000000  0.6508444  3
  12186  12187  12193  12199     1  0.0000000  1.0460000  1
  12186  12187  12193  12199     1  0.0000000  0.6694400  3
  12187  12186  12194  12197     1  0.0000000  1.0460000  1
  12187  12186  12194  12197     1  0.0000000  0.6694400  3
  12188  12187  12186  12190     1  0.0000000  0.6508444  3
  12188  12187  12193  12199     1  0.0000000  1.0460000  1
  12188  12187  12193  12199     1  0.0000000  0.6694400  3
  12189  12187  12186  12194     1  0.0000000  1.0460000  1
  12189  12187  12186  12194     1  0.0000000  0.0000000  3
  12189  12187  12186  12190     1  0.0000000  0.6508444  3
  12189  12187  12188  12192     1  0.0000000  1.0460000  1
  12189  12187  12188  12192     1  0.0000000  0.0000000  3
  12189  12187  12188  12204     1  0.0000000  1.0460000  1
  12189  12187  12188  12204     1  0.0000000  0.0000000  3
  12189  12187  12188  12191     1  0.0000000  0.6508444  3
  12189  12187  12193  12199     1  0.0000000  0.6973333  3
  12190  12186  12183  12195     1  0.0000000  1.0460000  1
  12190  12186  12183  12195     1  0.0000000  0.0000000  3
  12190  12186  12187  12193     1  0.0000000  1.0460000  1
  12190  12186  12187  12193     1  0.0000000  0.0000000  3
  12190  12186  12194  12197     1  0.0000000  0.6973333  3
  12191  12188  12187  12193     1  0.0000000  0.6508444  3
  12200  12196  12182  12204     1  0.0000000  1.0460000  1
  12200  12196  12182  12204     1  0.0000000  0.0000000  3
  12200  12196  12202  12203     1  0.0000000  0.6973333  3
  12201  12196  12182  12204     1  0.0000000  1.0460000  1
  12201  12196  12182  12204     1  0.0000000  0.0000000  3
  12201  12196  12202  12203     1  0.0000000  0.6973333  3
  12205  12206  12209  12213     1  0.0000000  0.6508444  3
  12205  12206  12218  12221     1  0.0000000  1.0460000  1
  12205  12206  12218  12221     1  0.0000000  0.6694400  3
  12205  12219  12225  12226     1  0.0000000  1.0460000  1
  12205  12219  12225  12226     1  0.0000000  0.6694400  3
  12205  12227  12211  12214     1  0.0000000  1.6038667  3
  12206  12209  12210  12212     1  0.0000000  0.6508444  3
  12206  12209  12217  12220     1  0.0000000  1.0460000  1
  12206  12209  12217  12220     1  0.0000000  0.6694400  3
  12206  12205  12219  12223     1  0.0000000  0.6508444  3
  12206  12205  12219  12224     1  0.0000000  0.6508444  3
  12207  12205  12206  12209     1  0.0000000  0.6508444  3
  12207  12205  12206  12218     1  0.0000000  1.0460000  1
  12207  12205  12206  12218     1  0.0000000  0.0000000  3
  12207  12205  12206  12208     1  0.0000000  0.6508444  3
  12207  12205  12219  12225     1  0.0000000  1.0460000  1
  12207  12205  12219  12225     1  0.0000000  0.0000000  3
  12207  12205  12219  12223     1  0.0000000  0.6508444  3
  12207  12205  12219  12224     1  0.0000000  0.6508444  3
  12207  12205  12227  12211     1  0.0000000  1.6038667  3
  12208  12206  12209  12210     1  0.0000000  0.6508444  3
  12208  12206  12209  12217     1  0.0000000  1.0460000  1
  12208  12206  12209  12217     1  0.0000000  0.0000000  3
  12208  12206  12209  12213     1  0.0000000  0.6508444  3
  12208  12206  12218  12221     1  0.0000000  0.6973333  3
  12208  12206  12205  12219     1  0.0000000  0.6508444  3
  12208  12206  12205  12227     1  0.0000000  1.0460000  1
  12208  12206  12205  12227     1  0.0000000  0.0000000  3
  12209  12210  12211  12214     1  0.0000000  0.6508444  3
  12209  12210  12216  12222     1  0.0000000  1.0460000  1
  12209  12210  12216  12222     1  0.0000000  0.6694400  3
  12209  12206  12218  12221     1  0.0000000  1.0460000  1
  12209  12206  12218  12221     1  0.0000000  0.6694400  3
  12210  12209  12217  12220     1  0.0000000  1.0460000  1
  12210  12209  12217  12220     1  0.0000000  0.6694400  3
  12211  12210  12216  12222     1  0.0000000  1.0460000  1
  12211  12210  12216  12222     1  0.0000000  0.6694400  3
  12211  12210  12209  12213     1  0.0000000  0.6508444  3
  12212  12210  12211  12215     1  0.0000000  1.0460000  1
  12212  12210  12211  12215     1  0.0000000  0.0000000  3
  12212  12210  12211  12227     1  0.0000000  1.0460000  1
  12212  12210  12211  12227     1  0.0000000  0.0000000  3
  12212  12210  12211  12214     1  0.0000000  0.6508444  3
  12212  12210  12216  12222     1  0.0000000  0.6973333  3
  12212  12210  12209  12217     1  0.0000000  1.0460000  1
  12212  12210  12209  12217     1  0.0000000  0.0000000  3
  12212  12210  12209  12213     1  0.0000000  0.6508444  3
  12213  12209  12210  12216     1  0.0000000  1.0460000  1
  12213  12209  12210  12216     1  0.0000000  0.0000000  3
  12213  12209  12217  12220     1  0.0000000  0.6973333  3
  12213  12209  12206  12218     1  0.0000000  1.0460000  1
  12213  12209  12206  12218     1  0.0000000  0.0000000  3
  12214  12211  12210  12216     1  0.0000000  0.6508444  3
  12223  12219  12225  12226     1  0.0000000  0.6973333  3
  12223  12219  12205  12227     1  0.0000000  1.0460000  1
  12223  12219  12205  12227     1  0.0000000  0.0000000  3
  12224  12219  12225  12226     1  0.0000000  0.6973333  3
  12224  12219  12205  12227     1  0.0000000  1.0460000  1
  12224  12219  12205  12227     1  0.0000000  0.0000000  3
  12228  12229  12232  12236     1  0.0000000  0.6508444  3
  12228  12229  12241  12244     1  0.0000000  1.0460000  1
  12228  12229  12241  12244     1  0.0000000  0.6694400  3
  12228  12242  12248  12249     1  0.0000000  1.0460000  1
  12228  12242  12248  12249     1  0.0000000  0.6694400  3
  12228  12250  12234  12237     1  0.0000000  1.6038667  3
  12229  12228  12242  12246     1  0.0000000  0.6508444  3
  12229  12228  12242  12247     1  0.0000000  0.6508444  3
  12229  12232  12233  12235     1  0.0000000  0.6508444  3
  12229  12232  12240  12243     1  0.0000000  1.0460000  1
  12229  12232  12240  12243     1  0.0000000  0.6694400  3
  12230  12228  12229  12232     1  0.0000000  0.6508444  3
  12230  12228  12229  12241     1  0.0000000  1.0460000  1
  12230  12228  12229  12241     1  0.0000000  0.0000000  3
  12230  12228  12229  12231     1  0.0000000  0.6508444  3
  12230  12228  12242  12248     1  0.0000000  1.0460000  1
  12230  12228  12242  12248     1  0.0000000  0.0000000  3
  12230  12228  12242  12246     1  0.0000000  0.6508444  3
  12230  12228  12242  12247     1  0.0000000  0.6508444  3
  12230  12228  12250  12234     1  0.0000000  1.6038667  3
  12231  12229  12228  12242     1  0.0000000  0.6508444  3
  12231  12229  12228  12250     1  0.0000000  1.0460000  1
  12231  12229  12228  12250     1  0.0000000  0.0000000  3
  12231  12229  12232  12233     1  0.0000000  0.6508444  3
  12231  12229  12232  12240     1  0.0000000  1.0460000  1
  12231  12229  12232  12240     1  0.0000000  0.0000000  3
  12231  12229  12232  12236     1  0.0000000  0.6508444  3
  12231  12229  12241  12244     1  0.0000000  0.6973333  3
  12232  12229  12241  12244     1  0.0000000  1.0460000  1
  12232  12229  12241  12244     1  0.0000000  0.6694400  3
  12232  12233  12234  12237     1  0.0000000  0.6508444  3
  12232  12233  12239  12245     1  0.0000000  1.0460000  1
  12232  12233  12239  12245     1  0.0000000  0.6694400  3
  12233  12232  12240  12243     1  0.0000000  1.0460000  1
  12233  12232  12240  12243     1  0.0000000  0.6694400  3
  12234  12233  12232  12236     1  0.0000000  0.6508444  3
  12234  12233  12239  12245     1  0.0000000  1.0460000  1
  12234  12233  12239  12245     1  0.0000000  0.6694400  3
  12235  12233  12232  12240     1  0.0000000  1.0460000  1
  12235  12233  12232  12240     1  0.0000000  0.0000000  3
  12235  12233  12232  12236     1  0.0000000  0.6508444  3
  12235  12233  12234  12238     1  0.0000000  1.0460000  1
  12235  12233  12234  12238     1  0.0000000  0.0000000  3
  12235  12233  12234  12250     1  0.0000000  1.0460000  1
  12235  12233  12234  12250     1  0.0000000  0.0000000  3
  12235  12233  12234  12237     1  0.0000000  0.6508444  3
  12235  12233  12239  12245     1  0.0000000  0.6973333  3
  12236  12232  12229  12241     1  0.0000000  1.0460000  1
  12236  12232  12229  12241     1  0.0000000  0.0000000  3
  12236  12232  12233  12239     1  0.0000000  1.0460000  1
  12236  12232  12233  12239     1  0.0000000  0.0000000  3
  12236  12232  12240  12243     1  0.0000000  0.6973333  3
  12237  12234  12233  12239     1  0.0000000  0.6508444  3
  12246  12242  12228  12250     1  0.0000000  1.0460000  1
  12246  12242  12228  12250     1  0.0000000  0.0000000  3
  12246  12242  12248  12249     1  0.0000000  0.6973333  3
  12247  12242  12228  12250     1  0.0000000  1.0460000  1
  12247  12242  12228  12250     1  0.0000000  0.0000000  3
  12247  12242  12248  12249     1  0.0000000  0.6973333  3
  12251  12252  12255  12259     1  0.0000000  0.6508444  3
  12251  12252  12264  12267     1  0.0000000  1.0460000  1
  12251  12252  12264  12267     1  0.0000000  0.6694400  3
  12251  12265  12271  12272     1  0.0000000  1.0460000  1
  12251  12265  12271  12272     1  0.0000000  0.6694400  3
  12251  12273  12257  12260     1  0.0000000  1.6038667  3
  12252  12255  12256  12258     1  0.0000000  0.6508444  3
  12252  12255  12263  12266     1  0.0000000  1.0460000  1
  12252  12255  12263  12266     1  0.0000000  0.6694400  3
  12252  12251  12265  12269     1  0.0000000  0.6508444  3
  12252  12251  12265  12270     1  0.0000000  0.6508444  3
  12253  12251  12252  12255     1  0.0000000  0.6508444  3
  12253  12251  12252  12264     1  0.0000000  1.0460000  1
  12253  12251  12252  12264     1  0.0000000  0.0000000  3
  12253  12251  12252  12254     1  0.0000000  0.6508444  3
  12253  12251  12265  12271     1  0.0000000  1.0460000  1
  12253  12251  12265  12271     1  0.0000000  0.0000000  3
  12253  12251  12265  12269     1  0.0000000  0.6508444  3
  12253  12251  12265  12270     1  0.0000000  0.6508444  3
  12253  12251  12273  12257     1  0.0000000  1.6038667  3
  12254  12252  12255  12256     1  0.0000000  0.6508444  3
  12254  12252  12255  12263     1  0.0000000  1.0460000  1
  12254  12252  12255  12263     1  0.0000000  0.0000000  3
  12254  12252  12255  12259     1  0.0000000  0.6508444  3
  12254  12252  12264  12267     1  0.0000000  0.6973333  3
  12254  12252  12251  12265     1  0.0000000  0.6508444  3
  12254  12252  12251  12273     1  0.0000000  1.0460000  1
  12254  12252  12251  12273     1  0.0000000  0.0000000  3
  12255  12256  12257  12260     1  0.0000000  0.6508444  3
  12255  12256  12262  12268     1  0.0000000  1.0460000  1
  12255  12256  12262  12268     1  0.0000000  0.6694400  3
  12255  12252  12264  12267     1  0.0000000  1.0460000  1
  12255  12252  12264  12267     1  0.0000000  0.6694400  3
  12256  12255  12263  12266     1  0.0000000  1.0460000  1
  12256  12255  12263  12266     1  0.0000000  0.6694400  3
  12257  12256  12262  12268     1  0.0000000  1.0460000  1
  12257  12256  12262  12268     1  0.0000000  0.6694400  3
  12257  12256  12255  12259     1  0.0000000  0.6508444  3
  12258  12256  12257  12261     1  0.0000000  1.0460000  1
  12258  12256  12257  12261     1  0.0000000  0.0000000  3
  12258  12256  12257  12273     1  0.0000000  1.0460000  1
  12258  12256  12257  12273     1  0.0000000  0.0000000  3
  12258  12256  12257  12260     1  0.0000000  0.6508444  3
  12258  12256  12262  12268     1  0.0000000  0.6973333  3
  12258  12256  12255  12263     1  0.0000000  1.0460000  1
  12258  12256  12255  12263     1  0.0000000  0.0000000  3
  12258  12256  12255  12259     1  0.0000000  0.6508444  3
  12259  12255  12256  12262     1  0.0000000  1.0460000  1
  12259  12255  12256  12262     1  0.0000000  0.0000000  3
  12259  12255  12263  12266     1  0.0000000  0.6973333  3
  12259  12255  12252  12264     1  0.0000000  1.0460000  1
  12259  12255  12252  12264     1  0.0000000  0.0000000  3
  12260  12257  12256  12262     1  0.0000000  0.6508444  3
  12269  12265  12271  12272     1  0.0000000  0.6973333  3
  12269  12265  12251  12273     1  0.0000000  1.0460000  1
  12269  12265  12251  12273     1  0.0000000  0.0000000  3
  12270  12265  12271  12272     1  0.0000000  0.6973333  3
  12270  12265  12251  12273     1  0.0000000  1.0460000  1
  12270  12265  12251  12273     1  0.0000000  0.0000000  3
  12274  12275  12278  12282     1  0.0000000  0.6508444  3
  12274  12275  12287  12290     1  0.0000000  1.0460000  1
  12274  12275  12287  12290     1  0.0000000  0.6694400  3
  12274  12288  12294  12295     1  0.0000000  1.0460000  1
  12274  12288  12294  12295     1  0.0000000  0.6694400  3
  12274  12296  12280  12283     1  0.0000000  1.6038667  3
  12275  12274  12288  12292     1  0.0000000  0.6508444  3
  12275  12274  12288  12293     1  0.0000000  0.6508444  3
  12275  12278  12279  12281     1  0.0000000  0.6508444  3
  12275  12278  12286  12289     1  0.0000000  1.0460000  1
  12275  12278  12286  12289     1  0.0000000  0.6694400  3
  12276  12274  12275  12278     1  0.0000000  0.6508444  3
  12276  12274  12275  12287     1  0.0000000  1.0460000  1
  12276  12274  12275  12287     1  0.0000000  0.0000000  3
  12276  12274  12275  12277     1  0.0000000  0.6508444  3
  12276  12274  12288  12294     1  0.0000000  1.0460000  1
  12276  12274  12288  12294     1  0.0000000  0.0000000  3
  12276  12274  12288  12292     1  0.0000000  0.6508444  3
  12276  12274  12288  12293     1  0.0000000  0.6508444  3
  12276  12274  12296  12280     1  0.0000000  1.6038667  3
  12277  12275  12274  12288     1  0.0000000  0.6508444  3
  12277  12275  12274  12296     1  0.0000000  1.0460000  1
  12277  12275  12274  12296     1  0.0000000  0.0000000  3
  12277  12275  12278  12279     1  0.0000000  0.6508444  3
  12277  12275  12278  12286     1  0.0000000  1.0460000  1
  12277  12275  12278  12286     1  0.0000000  0.0000000  3
  12277  12275  12278  12282     1  0.0000000  0.6508444  3
  12277  12275  12287  12290     1  0.0000000  0.6973333  3
  12278  12275  12287  12290     1  0.0000000  1.0460000  1
  12278  12275  12287  12290     1  0.0000000  0.6694400  3
  12278  12279  12280  12283     1  0.0000000  0.6508444  3
  12278  12279  12285  12291     1  0.0000000  1.0460000  1
  12278  12279  12285  12291     1  0.0000000  0.6694400  3
  12279  12278  12286  12289     1  0.0000000  1.0460000  1
  12279  12278  12286  12289     1  0.0000000  0.6694400  3
  12280  12279  12278  12282     1  0.0000000  0.6508444  3
  12280  12279  12285  12291     1  0.0000000  1.0460000  1
  12280  12279  12285  12291     1  0.0000000  0.6694400  3
  12281  12279  12278  12286     1  0.0000000  1.0460000  1
  12281  12279  12278  12286     1  0.0000000  0.0000000  3
  12281  12279  12278  12282     1  0.0000000  0.6508444  3
  12281  12279  12280  12284     1  0.0000000  1.0460000  1
  12281  12279  12280  12284     1  0.0000000  0.0000000  3
  12281  12279  12280  12296     1  0.0000000  1.0460000  1
  12281  12279  12280  12296     1  0.0000000  0.0000000  3
  12281  12279  12280  12283     1  0.0000000  0.6508444  3
  12281  12279  12285  12291     1  0.0000000  0.6973333  3
  12282  12278  12275  12287     1  0.0000000  1.0460000  1
  12282  12278  12275  12287     1  0.0000000  0.0000000  3
  12282  12278  12279  12285     1  0.0000000  1.0460000  1
  12282  12278  12279  12285     1  0.0000000  0.0000000  3
  12282  12278  12286  12289     1  0.0000000  0.6973333  3
  12283  12280  12279  12285     1  0.0000000  0.6508444  3
  12292  12288  12274  12296     1  0.0000000  1.0460000  1
  12292  12288  12274  12296     1  0.0000000  0.0000000  3
  12292  12288  12294  12295     1  0.0000000  0.6973333  3
  12293  12288  12274  12296     1  0.0000000  1.0460000  1
  12293  12288  12274  12296     1  0.0000000  0.0000000  3
  12293  12288  12294  12295     1  0.0000000  0.6973333  3
  12297  12298  12301  12305     1  0.0000000  0.6508444  3
  12297  12298  12310  12313     1  0.0000000  1.0460000  1
  12297  12298  12310  12313     1  0.0000000  0.6694400  3
  12297  12311  12317  12318     1  0.0000000  1.0460000  1
  12297  12311  12317  12318     1  0.0000000  0.6694400  3
  12297  12319  12303  12306     1  0.0000000  1.6038667  3
  12298  12301  12302  12304     1  0.0000000  0.6508444  3
  12298  12301  12309  12312     1  0.0000000  1.0460000  1
  12298  12301  12309  12312     1  0.0000000  0.6694400  3
  12298  12297  12311  12315     1  0.0000000  0.6508444  3
  12298  12297  12311  12316     1  0.0000000  0.6508444  3
  12299  12297  12298  12301     1  0.0000000  0.6508444  3
  12299  12297  12298  12310     1  0.0000000  1.0460000  1
  12299  12297  12298  12310     1  0.0000000  0.0000000  3
  12299  12297  12298  12300     1  0.0000000  0.6508444  3
  12299  12297  12311  12317     1  0.0000000  1.0460000  1
  12299  12297  12311  12317     1  0.0000000  0.0000000  3
  12299  12297  12311  12315     1  0.0000000  0.6508444  3
  12299  12297  12311  12316     1  0.0000000  0.6508444  3
  12299  12297  12319  12303     1  0.0000000  1.6038667  3
  12300  12298  12301  12302     1  0.0000000  0.6508444  3
  12300  12298  12301  12309     1  0.0000000  1.0460000  1
  12300  12298  12301  12309     1  0.0000000  0.0000000  3
  12300  12298  12301  12305     1  0.0000000  0.6508444  3
  12300  12298  12310  12313     1  0.0000000  0.6973333  3
  12300  12298  12297  12311     1  0.0000000  0.6508444  3
  12300  12298  12297  12319     1  0.0000000  1.0460000  1
  12300  12298  12297  12319     1  0.0000000  0.0000000  3
  12301  12302  12303  12306     1  0.0000000  0.6508444  3
  12301  12302  12308  12314     1  0.0000000  1.0460000  1
  12301  12302  12308  12314     1  0.0000000  0.6694400  3
  12301  12298  12310  12313     1  0.0000000  1.0460000  1
  12301  12298  12310  12313     1  0.0000000  0.6694400  3
  12302  12301  12309  12312     1  0.0000000  1.0460000  1
  12302  12301  12309  12312     1  0.0000000  0.6694400  3
  12303  12302  12308  12314     1  0.0000000  1.0460000  1
  12303  12302  12308  12314     1  0.0000000  0.6694400  3
  12303  12302  12301  12305     1  0.0000000  0.6508444  3
  12304  12302  12303  12307     1  0.0000000  1.0460000  1
  12304  12302  12303  12307     1  0.0000000  0.0000000  3
  12304  12302  12303  12319     1  0.0000000  1.0460000  1
  12304  12302  12303  12319     1  0.0000000  0.0000000  3
  12304  12302  12303  12306     1  0.0000000  0.6508444  3
  12304  12302  12308  12314     1  0.0000000  0.6973333  3
  12304  12302  12301  12309     1  0.0000000  1.0460000  1
  12304  12302  12301  12309     1  0.0000000  0.0000000  3
  12304  12302  12301  12305     1  0.0000000  0.6508444  3
  12305  12301  12302  12308     1  0.0000000  1.0460000  1
  12305  12301  12302  12308     1  0.0000000  0.0000000  3
  12305  12301  12309  12312     1  0.0000000  0.6973333  3
  12305  12301  12298  12310     1  0.0000000  1.0460000  1
  12305  12301  12298  12310     1  0.0000000  0.0000000  3
  12306  12303  12302  12308     1  0.0000000  0.6508444  3
  12315  12311  12317  12318     1  0.0000000  0.6973333  3
  12315  12311  12297  12319     1  0.0000000  1.0460000  1
  12315  12311  12297  12319     1  0.0000000  0.0000000  3
  12316  12311  12317  12318     1  0.0000000  0.6973333  3
  12316  12311  12297  12319     1  0.0000000  1.0460000  1
  12316  12311  12297  12319     1  0.0000000  0.0000000  3
  12320  12321  12324  12328     1  0.0000000  0.6508444  3
  12320  12321  12333  12336     1  0.0000000  1.0460000  1
  12320  12321  12333  12336     1  0.0000000  0.6694400  3
  12320  12334  12340  12341     1  0.0000000  1.0460000  1
  12320  12334  12340  12341     1  0.0000000  0.6694400  3
  12320  12342  12326  12329     1  0.0000000  1.6038667  3
  12321  12320  12334  12338     1  0.0000000  0.6508444  3
  12321  12320  12334  12339     1  0.0000000  0.6508444  3
  12321  12324  12325  12327     1  0.0000000  0.6508444  3
  12321  12324  12332  12335     1  0.0000000  1.0460000  1
  12321  12324  12332  12335     1  0.0000000  0.6694400  3
  12322  12320  12321  12324     1  0.0000000  0.6508444  3
  12322  12320  12321  12333     1  0.0000000  1.0460000  1
  12322  12320  12321  12333     1  0.0000000  0.0000000  3
  12322  12320  12321  12323     1  0.0000000  0.6508444  3
  12322  12320  12334  12340     1  0.0000000  1.0460000  1
  12322  12320  12334  12340     1  0.0000000  0.0000000  3
  12322  12320  12334  12338     1  0.0000000  0.6508444  3
  12322  12320  12334  12339     1  0.0000000  0.6508444  3
  12322  12320  12342  12326     1  0.0000000  1.6038667  3
  12323  12321  12320  12334     1  0.0000000  0.6508444  3
  12323  12321  12320  12342     1  0.0000000  1.0460000  1
  12323  12321  12320  12342     1  0.0000000  0.0000000  3
  12323  12321  12324  12325     1  0.0000000  0.6508444  3
  12323  12321  12324  12332     1  0.0000000  1.0460000  1
  12323  12321  12324  12332     1  0.0000000  0.0000000  3
  12323  12321  12324  12328     1  0.0000000  0.6508444  3
  12323  12321  12333  12336     1  0.0000000  0.6973333  3
  12324  12321  12333  12336     1  0.0000000  1.0460000  1
  12324  12321  12333  12336     1  0.0000000  0.6694400  3
  12324  12325  12326  12329     1  0.0000000  0.6508444  3
  12324  12325  12331  12337     1  0.0000000  1.0460000  1
  12324  12325  12331  12337     1  0.0000000  0.6694400  3
  12325  12324  12332  12335     1  0.0000000  1.0460000  1
  12325  12324  12332  12335     1  0.0000000  0.6694400  3
  12326  12325  12324  12328     1  0.0000000  0.6508444  3
  12326  12325  12331  12337     1  0.0000000  1.0460000  1
  12326  12325  12331  12337     1  0.0000000  0.6694400  3
  12327  12325  12324  12332     1  0.0000000  1.0460000  1
  12327  12325  12324  12332     1  0.0000000  0.0000000  3
  12327  12325  12324  12328     1  0.0000000  0.6508444  3
  12327  12325  12326  12330     1  0.0000000  1.0460000  1
  12327  12325  12326  12330     1  0.0000000  0.0000000  3
  12327  12325  12326  12342     1  0.0000000  1.0460000  1
  12327  12325  12326  12342     1  0.0000000  0.0000000  3
  12327  12325  12326  12329     1  0.0000000  0.6508444  3
  12327  12325  12331  12337     1  0.0000000  0.6973333  3
  12328  12324  12321  12333     1  0.0000000  1.0460000  1
  12328  12324  12321  12333     1  0.0000000  0.0000000  3
  12328  12324  12325  12331     1  0.0000000  1.0460000  1
  12328  12324  12325  12331     1  0.0000000  0.0000000  3
  12328  12324  12332  12335     1  0.0000000  0.6973333  3
  12329  12326  12325  12331     1  0.0000000  0.6508444  3
  12338  12334  12320  12342     1  0.0000000  1.0460000  1
  12338  12334  12320  12342     1  0.0000000  0.0000000  3
  12338  12334  12340  12341     1  0.0000000  0.6973333  3
  12339  12334  12320  12342     1  0.0000000  1.0460000  1
  12339  12334  12320  12342     1  0.0000000  0.0000000  3
  12339  12334  12340  12341     1  0.0000000  0.6973333  3
  12343  12344  12347  12351     1  0.0000000  0.6508444  3
  12343  12344  12356  12359     1  0.0000000  1.0460000  1
  12343  12344  12356  12359     1  0.0000000  0.6694400  3
  12343  12357  12363  12364     1  0.0000000  1.0460000  1
  12343  12357  12363  12364     1  0.0000000  0.6694400  3
  12343  12365  12349  12352     1  0.0000000  1.6038667  3
  12344  12347  12348  12350     1  0.0000000  0.6508444  3
  12344  12347  12355  12358     1  0.0000000  1.0460000  1
  12344  12347  12355  12358     1  0.0000000  0.6694400  3
  12344  12343  12357  12361     1  0.0000000  0.6508444  3
  12344  12343  12357  12362     1  0.0000000  0.6508444  3
  12345  12343  12344  12347     1  0.0000000  0.6508444  3
  12345  12343  12344  12356     1  0.0000000  1.0460000  1
  12345  12343  12344  12356     1  0.0000000  0.0000000  3
  12345  12343  12344  12346     1  0.0000000  0.6508444  3
  12345  12343  12357  12363     1  0.0000000  1.0460000  1
  12345  12343  12357  12363     1  0.0000000  0.0000000  3
  12345  12343  12357  12361     1  0.0000000  0.6508444  3
  12345  12343  12357  12362     1  0.0000000  0.6508444  3
  12345  12343  12365  12349     1  0.0000000  1.6038667  3
  12346  12344  12347  12348     1  0.0000000  0.6508444  3
  12346  12344  12347  12355     1  0.0000000  1.0460000  1
  12346  12344  12347  12355     1  0.0000000  0.0000000  3
  12346  12344  12347  12351     1  0.0000000  0.6508444  3
  12346  12344  12356  12359     1  0.0000000  0.6973333  3
  12346  12344  12343  12357     1  0.0000000  0.6508444  3
  12346  12344  12343  12365     1  0.0000000  1.0460000  1
  12346  12344  12343  12365     1  0.0000000  0.0000000  3
  12347  12348  12349  12352     1  0.0000000  0.6508444  3
  12347  12348  12354  12360     1  0.0000000  1.0460000  1
  12347  12348  12354  12360     1  0.0000000  0.6694400  3
  12347  12344  12356  12359     1  0.0000000  1.0460000  1
  12347  12344  12356  12359     1  0.0000000  0.6694400  3
  12348  12347  12355  12358     1  0.0000000  1.0460000  1
  12348  12347  12355  12358     1  0.0000000  0.6694400  3
  12349  12348  12354  12360     1  0.0000000  1.0460000  1
  12349  12348  12354  12360     1  0.0000000  0.6694400  3
  12349  12348  12347  12351     1  0.0000000  0.6508444  3
  12350  12348  12349  12353     1  0.0000000  1.0460000  1
  12350  12348  12349  12353     1  0.0000000  0.0000000  3
  12350  12348  12349  12365     1  0.0000000  1.0460000  1
  12350  12348  12349  12365     1  0.0000000  0.0000000  3
  12350  12348  12349  12352     1  0.0000000  0.6508444  3
  12350  12348  12354  12360     1  0.0000000  0.6973333  3
  12350  12348  12347  12355     1  0.0000000  1.0460000  1
  12350  12348  12347  12355     1  0.0000000  0.0000000  3
  12350  12348  12347  12351     1  0.0000000  0.6508444  3
  12351  12347  12348  12354     1  0.0000000  1.0460000  1
  12351  12347  12348  12354     1  0.0000000  0.0000000  3
  12351  12347  12355  12358     1  0.0000000  0.6973333  3
  12351  12347  12344  12356     1  0.0000000  1.0460000  1
  12351  12347  12344  12356     1  0.0000000  0.0000000  3
  12352  12349  12348  12354     1  0.0000000  0.6508444  3
  12361  12357  12363  12364     1  0.0000000  0.6973333  3
  12361  12357  12343  12365     1  0.0000000  1.0460000  1
  12361  12357  12343  12365     1  0.0000000  0.0000000  3
  12362  12357  12363  12364     1  0.0000000  0.6973333  3
  12362  12357  12343  12365     1  0.0000000  1.0460000  1
  12362  12357  12343  12365     1  0.0000000  0.0000000  3
  12366  12367  12370  12374     1  0.0000000  0.6508444  3
  12366  12367  12379  12382     1  0.0000000  1.0460000  1
  12366  12367  12379  12382     1  0.0000000  0.6694400  3
  12366  12380  12386  12387     1  0.0000000  1.0460000  1
  12366  12380  12386  12387     1  0.0000000  0.6694400  3
  12366  12388  12372  12375     1  0.0000000  1.6038667  3
  12367  12366  12380  12384     1  0.0000000  0.6508444  3
  12367  12366  12380  12385     1  0.0000000  0.6508444  3
  12367  12370  12371  12373     1  0.0000000  0.6508444  3
  12367  12370  12378  12381     1  0.0000000  1.0460000  1
  12367  12370  12378  12381     1  0.0000000  0.6694400  3
  12368  12366  12367  12370     1  0.0000000  0.6508444  3
  12368  12366  12367  12379     1  0.0000000  1.0460000  1
  12368  12366  12367  12379     1  0.0000000  0.0000000  3
  12368  12366  12367  12369     1  0.0000000  0.6508444  3
  12368  12366  12380  12386     1  0.0000000  1.0460000  1
  12368  12366  12380  12386     1  0.0000000  0.0000000  3
  12368  12366  12380  12384     1  0.0000000  0.6508444  3
  12368  12366  12380  12385     1  0.0000000  0.6508444  3
  12368  12366  12388  12372     1  0.0000000  1.6038667  3
  12369  12367  12366  12380     1  0.0000000  0.6508444  3
  12369  12367  12366  12388     1  0.0000000  1.0460000  1
  12369  12367  12366  12388     1  0.0000000  0.0000000  3
  12369  12367  12370  12371     1  0.0000000  0.6508444  3
  12369  12367  12370  12378     1  0.0000000  1.0460000  1
  12369  12367  12370  12378     1  0.0000000  0.0000000  3
  12369  12367  12370  12374     1  0.0000000  0.6508444  3
  12369  12367  12379  12382     1  0.0000000  0.6973333  3
  12370  12367  12379  12382     1  0.0000000  1.0460000  1
  12370  12367  12379  12382     1  0.0000000  0.6694400  3
  12370  12371  12372  12375     1  0.0000000  0.6508444  3
  12370  12371  12377  12383     1  0.0000000  1.0460000  1
  12370  12371  12377  12383     1  0.0000000  0.6694400  3
  12371  12370  12378  12381     1  0.0000000  1.0460000  1
  12371  12370  12378  12381     1  0.0000000  0.6694400  3
  12372  12371  12370  12374     1  0.0000000  0.6508444  3
  12372  12371  12377  12383     1  0.0000000  1.0460000  1
  12372  12371  12377  12383     1  0.0000000  0.6694400  3
  12373  12371  12370  12378     1  0.0000000  1.0460000  1
  12373  12371  12370  12378     1  0.0000000  0.0000000  3
  12373  12371  12370  12374     1  0.0000000  0.6508444  3
  12373  12371  12372  12376     1  0.0000000  1.0460000  1
  12373  12371  12372  12376     1  0.0000000  0.0000000  3
  12373  12371  12372  12388     1  0.0000000  1.0460000  1
  12373  12371  12372  12388     1  0.0000000  0.0000000  3
  12373  12371  12372  12375     1  0.0000000  0.6508444  3
  12373  12371  12377  12383     1  0.0000000  0.6973333  3
  12374  12370  12367  12379     1  0.0000000  1.0460000  1
  12374  12370  12367  12379     1  0.0000000  0.0000000  3
  12374  12370  12371  12377     1  0.0000000  1.0460000  1
  12374  12370  12371  12377     1  0.0000000  0.0000000  3
  12374  12370  12378  12381     1  0.0000000  0.6973333  3
  12375  12372  12371  12377     1  0.0000000  0.6508444  3
  12384  12380  12366  12388     1  0.0000000  1.0460000  1
  12384  12380  12366  12388     1  0.0000000  0.0000000  3
  12384  12380  12386  12387     1  0.0000000  0.6973333  3
  12385  12380  12366  12388     1  0.0000000  1.0460000  1
  12385  12380  12366  12388     1  0.0000000  0.0000000  3
  12385  12380  12386  12387     1  0.0000000  0.6973333  3
  12389  12390  12393  12397     1  0.0000000  0.6508444  3
  12389  12390  12402  12405     1  0.0000000  1.0460000  1
  12389  12390  12402  12405     1  0.0000000  0.6694400  3
  12389  12403  12409  12410     1  0.0000000  1.0460000  1
  12389  12403  12409  12410     1  0.0000000  0.6694400  3
  12389  12411  12395  12398     1  0.0000000  1.6038667  3
  12390  12393  12394  12396     1  0.0000000  0.6508444  3
  12390  12393  12401  12404     1  0.0000000  1.0460000  1
  12390  12393  12401  12404     1  0.0000000  0.6694400  3
  12390  12389  12403  12407     1  0.0000000  0.6508444  3
  12390  12389  12403  12408     1  0.0000000  0.6508444  3
  12391  12389  12390  12393     1  0.0000000  0.6508444  3
  12391  12389  12390  12402     1  0.0000000  1.0460000  1
  12391  12389  12390  12402     1  0.0000000  0.0000000  3
  12391  12389  12390  12392     1  0.0000000  0.6508444  3
  12391  12389  12403  12409     1  0.0000000  1.0460000  1
  12391  12389  12403  12409     1  0.0000000  0.0000000  3
  12391  12389  12403  12407     1  0.0000000  0.6508444  3
  12391  12389  12403  12408     1  0.0000000  0.6508444  3
  12391  12389  12411  12395     1  0.0000000  1.6038667  3
  12392  12390  12393  12394     1  0.0000000  0.6508444  3
  12392  12390  12393  12401     1  0.0000000  1.0460000  1
  12392  12390  12393  12401     1  0.0000000  0.0000000  3
  12392  12390  12393  12397     1  0.0000000  0.6508444  3
  12392  12390  12402  12405     1  0.0000000  0.6973333  3
  12392  12390  12389  12403     1  0.0000000  0.6508444  3
  12392  12390  12389  12411     1  0.0000000  1.0460000  1
  12392  12390  12389  12411     1  0.0000000  0.0000000  3
  12393  12394  12395  12398     1  0.0000000  0.6508444  3
  12393  12394  12400  12406     1  0.0000000  1.0460000  1
  12393  12394  12400  12406     1  0.0000000  0.6694400  3
  12393  12390  12402  12405     1  0.0000000  1.0460000  1
  12393  12390  12402  12405     1  0.0000000  0.6694400  3
  12394  12393  12401  12404     1  0.0000000  1.0460000  1
  12394  12393  12401  12404     1  0.0000000  0.6694400  3
  12395  12394  12400  12406     1  0.0000000  1.0460000  1
  12395  12394  12400  12406     1  0.0000000  0.6694400  3
  12395  12394  12393  12397     1  0.0000000  0.6508444  3
  12396  12394  12395  12399     1  0.0000000  1.0460000  1
  12396  12394  12395  12399     1  0.0000000  0.0000000  3
  12396  12394  12395  12411     1  0.0000000  1.0460000  1
  12396  12394  12395  12411     1  0.0000000  0.0000000  3
  12396  12394  12395  12398     1  0.0000000  0.6508444  3
  12396  12394  12400  12406     1  0.0000000  0.6973333  3
  12396  12394  12393  12401     1  0.0000000  1.0460000  1
  12396  12394  12393  12401     1  0.0000000  0.0000000  3
  12396  12394  12393  12397     1  0.0000000  0.6508444  3
  12397  12393  12394  12400     1  0.0000000  1.0460000  1
  12397  12393  12394  12400     1  0.0000000  0.0000000  3
  12397  12393  12401  12404     1  0.0000000  0.6973333  3
  12397  12393  12390  12402     1  0.0000000  1.0460000  1
  12397  12393  12390  12402     1  0.0000000  0.0000000  3
  12398  12395  12394  12400     1  0.0000000  0.6508444  3
  12407  12403  12409  12410     1  0.0000000  0.6973333  3
  12407  12403  12389  12411     1  0.0000000  1.0460000  1
  12407  12403  12389  12411     1  0.0000000  0.0000000  3
  12408  12403  12409  12410     1  0.0000000  0.6973333  3
  12408  12403  12389  12411     1  0.0000000  1.0460000  1
  12408  12403  12389  12411     1  0.0000000  0.0000000  3
  12412  12413  12416  12420     1  0.0000000  0.6508444  3
  12412  12413  12425  12428     1  0.0000000  1.0460000  1
  12412  12413  12425  12428     1  0.0000000  0.6694400  3
  12412  12426  12432  12433     1  0.0000000  1.0460000  1
  12412  12426  12432  12433     1  0.0000000  0.6694400  3
  12412  12434  12418  12421     1  0.0000000  1.6038667  3
  12413  12412  12426  12430     1  0.0000000  0.6508444  3
  12413  12412  12426  12431     1  0.0000000  0.6508444  3
  12413  12416  12417  12419     1  0.0000000  0.6508444  3
  12413  12416  12424  12427     1  0.0000000  1.0460000  1
  12413  12416  12424  12427     1  0.0000000  0.6694400  3
  12414  12412  12413  12416     1  0.0000000  0.6508444  3
  12414  12412  12413  12425     1  0.0000000  1.0460000  1
  12414  12412  12413  12425     1  0.0000000  0.0000000  3
  12414  12412  12413  12415     1  0.0000000  0.6508444  3
  12414  12412  12426  12432     1  0.0000000  1.0460000  1
  12414  12412  12426  12432     1  0.0000000  0.0000000  3
  12414  12412  12426  12430     1  0.0000000  0.6508444  3
  12414  12412  12426  12431     1  0.0000000  0.6508444  3
  12414  12412  12434  12418     1  0.0000000  1.6038667  3
  12415  12413  12412  12426     1  0.0000000  0.6508444  3
  12415  12413  12412  12434     1  0.0000000  1.0460000  1
  12415  12413  12412  12434     1  0.0000000  0.0000000  3
  12415  12413  12416  12417     1  0.0000000  0.6508444  3
  12415  12413  12416  12424     1  0.0000000  1.0460000  1
  12415  12413  12416  12424     1  0.0000000  0.0000000  3
  12415  12413  12416  12420     1  0.0000000  0.6508444  3
  12415  12413  12425  12428     1  0.0000000  0.6973333  3
  12416  12413  12425  12428     1  0.0000000  1.0460000  1
  12416  12413  12425  12428     1  0.0000000  0.6694400  3
  12416  12417  12418  12421     1  0.0000000  0.6508444  3
  12416  12417  12423  12429     1  0.0000000  1.0460000  1
  12416  12417  12423  12429     1  0.0000000  0.6694400  3
  12417  12416  12424  12427     1  0.0000000  1.0460000  1
  12417  12416  12424  12427     1  0.0000000  0.6694400  3
  12418  12417  12416  12420     1  0.0000000  0.6508444  3
  12418  12417  12423  12429     1  0.0000000  1.0460000  1
  12418  12417  12423  12429     1  0.0000000  0.6694400  3
  12419  12417  12416  12424     1  0.0000000  1.0460000  1
  12419  12417  12416  12424     1  0.0000000  0.0000000  3
  12419  12417  12416  12420     1  0.0000000  0.6508444  3
  12419  12417  12418  12422     1  0.0000000  1.0460000  1
  12419  12417  12418  12422     1  0.0000000  0.0000000  3
  12419  12417  12418  12434     1  0.0000000  1.0460000  1
  12419  12417  12418  12434     1  0.0000000  0.0000000  3
  12419  12417  12418  12421     1  0.0000000  0.6508444  3
  12419  12417  12423  12429     1  0.0000000  0.6973333  3
  12420  12416  12413  12425     1  0.0000000  1.0460000  1
  12420  12416  12413  12425     1  0.0000000  0.0000000  3
  12420  12416  12417  12423     1  0.0000000  1.0460000  1
  12420  12416  12417  12423     1  0.0000000  0.0000000  3
  12420  12416  12424  12427     1  0.0000000  0.6973333  3
  12421  12418  12417  12423     1  0.0000000  0.6508444  3
  12430  12426  12412  12434     1  0.0000000  1.0460000  1
  12430  12426  12412  12434     1  0.0000000  0.0000000  3
  12430  12426  12432  12433     1  0.0000000  0.6973333  3
  12431  12426  12412  12434     1  0.0000000  1.0460000  1
  12431  12426  12412  12434     1  0.0000000  0.0000000  3
  12431  12426  12432  12433     1  0.0000000  0.6973333  3
  12435  12436  12439  12443     1  0.0000000  0.6508444  3
  12435  12436  12448  12451     1  0.0000000  1.0460000  1
  12435  12436  12448  12451     1  0.0000000  0.6694400  3
  12435  12449  12455  12456     1  0.0000000  1.0460000  1
  12435  12449  12455  12456     1  0.0000000  0.6694400  3
  12435  12457  12441  12444     1  0.0000000  1.6038667  3
  12436  12439  12440  12442     1  0.0000000  0.6508444  3
  12436  12439  12447  12450     1  0.0000000  1.0460000  1
  12436  12439  12447  12450     1  0.0000000  0.6694400  3
  12436  12435  12449  12453     1  0.0000000  0.6508444  3
  12436  12435  12449  12454     1  0.0000000  0.6508444  3
  12437  12435  12436  12439     1  0.0000000  0.6508444  3
  12437  12435  12436  12448     1  0.0000000  1.0460000  1
  12437  12435  12436  12448     1  0.0000000  0.0000000  3
  12437  12435  12436  12438     1  0.0000000  0.6508444  3
  12437  12435  12449  12455     1  0.0000000  1.0460000  1
  12437  12435  12449  12455     1  0.0000000  0.0000000  3
  12437  12435  12449  12453     1  0.0000000  0.6508444  3
  12437  12435  12449  12454     1  0.0000000  0.6508444  3
  12437  12435  12457  12441     1  0.0000000  1.6038667  3
  12438  12436  12439  12440     1  0.0000000  0.6508444  3
  12438  12436  12439  12447     1  0.0000000  1.0460000  1
  12438  12436  12439  12447     1  0.0000000  0.0000000  3
  12438  12436  12439  12443     1  0.0000000  0.6508444  3
  12438  12436  12448  12451     1  0.0000000  0.6973333  3
  12438  12436  12435  12449     1  0.0000000  0.6508444  3
  12438  12436  12435  12457     1  0.0000000  1.0460000  1
  12438  12436  12435  12457     1  0.0000000  0.0000000  3
  12439  12440  12441  12444     1  0.0000000  0.6508444  3
  12439  12440  12446  12452     1  0.0000000  1.0460000  1
  12439  12440  12446  12452     1  0.0000000  0.6694400  3
  12439  12436  12448  12451     1  0.0000000  1.0460000  1
  12439  12436  12448  12451     1  0.0000000  0.6694400  3
  12440  12439  12447  12450     1  0.0000000  1.0460000  1
  12440  12439  12447  12450     1  0.0000000  0.6694400  3
  12441  12440  12446  12452     1  0.0000000  1.0460000  1
  12441  12440  12446  12452     1  0.0000000  0.6694400  3
  12441  12440  12439  12443     1  0.0000000  0.6508444  3
  12442  12440  12441  12445     1  0.0000000  1.0460000  1
  12442  12440  12441  12445     1  0.0000000  0.0000000  3
  12442  12440  12441  12457     1  0.0000000  1.0460000  1
  12442  12440  12441  12457     1  0.0000000  0.0000000  3
  12442  12440  12441  12444     1  0.0000000  0.6508444  3
  12442  12440  12446  12452     1  0.0000000  0.6973333  3
  12442  12440  12439  12447     1  0.0000000  1.0460000  1
  12442  12440  12439  12447     1  0.0000000  0.0000000  3
  12442  12440  12439  12443     1  0.0000000  0.6508444  3
  12443  12439  12440  12446     1  0.0000000  1.0460000  1
  12443  12439  12440  12446     1  0.0000000  0.0000000  3
  12443  12439  12447  12450     1  0.0000000  0.6973333  3
  12443  12439  12436  12448     1  0.0000000  1.0460000  1
  12443  12439  12436  12448     1  0.0000000  0.0000000  3
  12444  12441  12440  12446     1  0.0000000  0.6508444  3
  12453  12449  12455  12456     1  0.0000000  0.6973333  3
  12453  12449  12435  12457     1  0.0000000  1.0460000  1
  12453  12449  12435  12457     1  0.0000000  0.0000000  3
  12454  12449  12455  12456     1  0.0000000  0.6973333  3
  12454  12449  12435  12457     1  0.0000000  1.0460000  1
  12454  12449  12435  12457     1  0.0000000  0.0000000  3
  12458  12459  12462  12466     1  0.0000000  0.6508444  3
  12458  12459  12471  12474     1  0.0000000  1.0460000  1
  12458  12459  12471  12474     1  0.0000000  0.6694400  3
  12458  12472  12478  12479     1  0.0000000  1.0460000  1
  12458  12472  12478  12479     1  0.0000000  0.6694400  3
  12458  12480  12464  12467     1  0.0000000  1.6038667  3
  12459  12458  12472  12476     1  0.0000000  0.6508444  3
  12459  12458  12472  12477     1  0.0000000  0.6508444  3
  12459  12462  12463  12465     1  0.0000000  0.6508444  3
  12459  12462  12470  12473     1  0.0000000  1.0460000  1
  12459  12462  12470  12473     1  0.0000000  0.6694400  3
  12460  12458  12459  12462     1  0.0000000  0.6508444  3
  12460  12458  12459  12471     1  0.0000000  1.0460000  1
  12460  12458  12459  12471     1  0.0000000  0.0000000  3
  12460  12458  12459  12461     1  0.0000000  0.6508444  3
  12460  12458  12472  12478     1  0.0000000  1.0460000  1
  12460  12458  12472  12478     1  0.0000000  0.0000000  3
  12460  12458  12472  12476     1  0.0000000  0.6508444  3
  12460  12458  12472  12477     1  0.0000000  0.6508444  3
  12460  12458  12480  12464     1  0.0000000  1.6038667  3
  12461  12459  12458  12472     1  0.0000000  0.6508444  3
  12461  12459  12458  12480     1  0.0000000  1.0460000  1
  12461  12459  12458  12480     1  0.0000000  0.0000000  3
  12461  12459  12462  12463     1  0.0000000  0.6508444  3
  12461  12459  12462  12470     1  0.0000000  1.0460000  1
  12461  12459  12462  12470     1  0.0000000  0.0000000  3
  12461  12459  12462  12466     1  0.0000000  0.6508444  3
  12461  12459  12471  12474     1  0.0000000  0.6973333  3
  12462  12459  12471  12474     1  0.0000000  1.0460000  1
  12462  12459  12471  12474     1  0.0000000  0.6694400  3
  12462  12463  12464  12467     1  0.0000000  0.6508444  3
  12462  12463  12469  12475     1  0.0000000  1.0460000  1
  12462  12463  12469  12475     1  0.0000000  0.6694400  3
  12463  12462  12470  12473     1  0.0000000  1.0460000  1
  12463  12462  12470  12473     1  0.0000000  0.6694400  3
  12464  12463  12462  12466     1  0.0000000  0.6508444  3
  12464  12463  12469  12475     1  0.0000000  1.0460000  1
  12464  12463  12469  12475     1  0.0000000  0.6694400  3
  12465  12463  12462  12470     1  0.0000000  1.0460000  1
  12465  12463  12462  12470     1  0.0000000  0.0000000  3
  12465  12463  12462  12466     1  0.0000000  0.6508444  3
  12465  12463  12464  12468     1  0.0000000  1.0460000  1
  12465  12463  12464  12468     1  0.0000000  0.0000000  3
  12465  12463  12464  12480     1  0.0000000  1.0460000  1
  12465  12463  12464  12480     1  0.0000000  0.0000000  3
  12465  12463  12464  12467     1  0.0000000  0.6508444  3
  12465  12463  12469  12475     1  0.0000000  0.6973333  3
  12466  12462  12459  12471     1  0.0000000  1.0460000  1
  12466  12462  12459  12471     1  0.0000000  0.0000000  3
  12466  12462  12463  12469     1  0.0000000  1.0460000  1
  12466  12462  12463  12469     1  0.0000000  0.0000000  3
  12466  12462  12470  12473     1  0.0000000  0.6973333  3
  12467  12464  12463  12469     1  0.0000000  0.6508444  3
  12476  12472  12458  12480     1  0.0000000  1.0460000  1
  12476  12472  12458  12480     1  0.0000000  0.0000000  3
  12476  12472  12478  12479     1  0.0000000  0.6973333  3
  12477  12472  12458  12480     1  0.0000000  1.0460000  1
  12477  12472  12458  12480     1  0.0000000  0.0000000  3
  12477  12472  12478  12479     1  0.0000000  0.6973333  3
  12481  12482  12485  12489     1  0.0000000  0.6508444  3
  12481  12482  12494  12497     1  0.0000000  1.0460000  1
  12481  12482  12494  12497     1  0.0000000  0.6694400  3
  12481  12495  12501  12502     1  0.0000000  1.0460000  1
  12481  12495  12501  12502     1  0.0000000  0.6694400  3
  12481  12503  12487  12490     1  0.0000000  1.6038667  3
  12482  12485  12486  12488     1  0.0000000  0.6508444  3
  12482  12485  12493  12496     1  0.0000000  1.0460000  1
  12482  12485  12493  12496     1  0.0000000  0.6694400  3
  12482  12481  12495  12499     1  0.0000000  0.6508444  3
  12482  12481  12495  12500     1  0.0000000  0.6508444  3
  12483  12481  12482  12485     1  0.0000000  0.6508444  3
  12483  12481  12482  12494     1  0.0000000  1.0460000  1
  12483  12481  12482  12494     1  0.0000000  0.0000000  3
  12483  12481  12482  12484     1  0.0000000  0.6508444  3
  12483  12481  12495  12501     1  0.0000000  1.0460000  1
  12483  12481  12495  12501     1  0.0000000  0.0000000  3
  12483  12481  12495  12499     1  0.0000000  0.6508444  3
  12483  12481  12495  12500     1  0.0000000  0.6508444  3
  12483  12481  12503  12487     1  0.0000000  1.6038667  3
  12484  12482  12485  12486     1  0.0000000  0.6508444  3
  12484  12482  12485  12493     1  0.0000000  1.0460000  1
  12484  12482  12485  12493     1  0.0000000  0.0000000  3
  12484  12482  12485  12489     1  0.0000000  0.6508444  3
  12484  12482  12494  12497     1  0.0000000  0.6973333  3
  12484  12482  12481  12495     1  0.0000000  0.6508444  3
  12484  12482  12481  12503     1  0.0000000  1.0460000  1
  12484  12482  12481  12503     1  0.0000000  0.0000000  3
  12485  12486  12487  12490     1  0.0000000  0.6508444  3
  12485  12486  12492  12498     1  0.0000000  1.0460000  1
  12485  12486  12492  12498     1  0.0000000  0.6694400  3
  12485  12482  12494  12497     1  0.0000000  1.0460000  1
  12485  12482  12494  12497     1  0.0000000  0.6694400  3
  12486  12485  12493  12496     1  0.0000000  1.0460000  1
  12486  12485  12493  12496     1  0.0000000  0.6694400  3
  12487  12486  12492  12498     1  0.0000000  1.0460000  1
  12487  12486  12492  12498     1  0.0000000  0.6694400  3
  12487  12486  12485  12489     1  0.0000000  0.6508444  3
  12488  12486  12487  12491     1  0.0000000  1.0460000  1
  12488  12486  12487  12491     1  0.0000000  0.0000000  3
  12488  12486  12487  12503     1  0.0000000  1.0460000  1
  12488  12486  12487  12503     1  0.0000000  0.0000000  3
  12488  12486  12487  12490     1  0.0000000  0.6508444  3
  12488  12486  12492  12498     1  0.0000000  0.6973333  3
  12488  12486  12485  12493     1  0.0000000  1.0460000  1
  12488  12486  12485  12493     1  0.0000000  0.0000000  3
  12488  12486  12485  12489     1  0.0000000  0.6508444  3
  12489  12485  12486  12492     1  0.0000000  1.0460000  1
  12489  12485  12486  12492     1  0.0000000  0.0000000  3
  12489  12485  12493  12496     1  0.0000000  0.6973333  3
  12489  12485  12482  12494     1  0.0000000  1.0460000  1
  12489  12485  12482  12494     1  0.0000000  0.0000000  3
  12490  12487  12486  12492     1  0.0000000  0.6508444  3
  12499  12495  12501  12502     1  0.0000000  0.6973333  3
  12499  12495  12481  12503     1  0.0000000  1.0460000  1
  12499  12495  12481  12503     1  0.0000000  0.0000000  3
  12500  12495  12501  12502     1  0.0000000  0.6973333  3
  12500  12495  12481  12503     1  0.0000000  1.0460000  1
  12500  12495  12481  12503     1  0.0000000  0.0000000  3
  12504  12505  12508  12512     1  0.0000000  0.6508444  3
  12504  12505  12517  12520     1  0.0000000  1.0460000  1
  12504  12505  12517  12520     1  0.0000000  0.6694400  3
  12504  12518  12524  12525     1  0.0000000  1.0460000  1
  12504  12518  12524  12525     1  0.0000000  0.6694400  3
  12504  12526  12510  12513     1  0.0000000  1.6038667  3
  12505  12504  12518  12522     1  0.0000000  0.6508444  3
  12505  12504  12518  12523     1  0.0000000  0.6508444  3
  12505  12508  12509  12511     1  0.0000000  0.6508444  3
  12505  12508  12516  12519     1  0.0000000  1.0460000  1
  12505  12508  12516  12519     1  0.0000000  0.6694400  3
  12506  12504  12505  12508     1  0.0000000  0.6508444  3
  12506  12504  12505  12517     1  0.0000000  1.0460000  1
  12506  12504  12505  12517     1  0.0000000  0.0000000  3
  12506  12504  12505  12507     1  0.0000000  0.6508444  3
  12506  12504  12518  12524     1  0.0000000  1.0460000  1
  12506  12504  12518  12524     1  0.0000000  0.0000000  3
  12506  12504  12518  12522     1  0.0000000  0.6508444  3
  12506  12504  12518  12523     1  0.0000000  0.6508444  3
  12506  12504  12526  12510     1  0.0000000  1.6038667  3
  12507  12505  12504  12518     1  0.0000000  0.6508444  3
  12507  12505  12504  12526     1  0.0000000  1.0460000  1
  12507  12505  12504  12526     1  0.0000000  0.0000000  3
  12507  12505  12508  12509     1  0.0000000  0.6508444  3
  12507  12505  12508  12516     1  0.0000000  1.0460000  1
  12507  12505  12508  12516     1  0.0000000  0.0000000  3
  12507  12505  12508  12512     1  0.0000000  0.6508444  3
  12507  12505  12517  12520     1  0.0000000  0.6973333  3
  12508  12505  12517  12520     1  0.0000000  1.0460000  1
  12508  12505  12517  12520     1  0.0000000  0.6694400  3
  12508  12509  12510  12513     1  0.0000000  0.6508444  3
  12508  12509  12515  12521     1  0.0000000  1.0460000  1
  12508  12509  12515  12521     1  0.0000000  0.6694400  3
  12509  12508  12516  12519     1  0.0000000  1.0460000  1
  12509  12508  12516  12519     1  0.0000000  0.6694400  3
  12510  12509  12508  12512     1  0.0000000  0.6508444  3
  12510  12509  12515  12521     1  0.0000000  1.0460000  1
  12510  12509  12515  12521     1  0.0000000  0.6694400  3
  12511  12509  12508  12516     1  0.0000000  1.0460000  1
  12511  12509  12508  12516     1  0.0000000  0.0000000  3
  12511  12509  12508  12512     1  0.0000000  0.6508444  3
  12511  12509  12510  12514     1  0.0000000  1.0460000  1
  12511  12509  12510  12514     1  0.0000000  0.0000000  3
  12511  12509  12510  12526     1  0.0000000  1.0460000  1
  12511  12509  12510  12526     1  0.0000000  0.0000000  3
  12511  12509  12510  12513     1  0.0000000  0.6508444  3
  12511  12509  12515  12521     1  0.0000000  0.6973333  3
  12512  12508  12505  12517     1  0.0000000  1.0460000  1
  12512  12508  12505  12517     1  0.0000000  0.0000000  3
  12512  12508  12509  12515     1  0.0000000  1.0460000  1
  12512  12508  12509  12515     1  0.0000000  0.0000000  3
  12512  12508  12516  12519     1  0.0000000  0.6973333  3
  12513  12510  12509  12515     1  0.0000000  0.6508444  3
  12522  12518  12504  12526     1  0.0000000  1.0460000  1
  12522  12518  12504  12526     1  0.0000000  0.0000000  3
  12522  12518  12524  12525     1  0.0000000  0.6973333  3
  12523  12518  12504  12526     1  0.0000000  1.0460000  1
  12523  12518  12504  12526     1  0.0000000  0.0000000  3
  12523  12518  12524  12525     1  0.0000000  0.6973333  3
  12527  12528  12531  12535     1  0.0000000  0.6508444  3
  12527  12528  12540  12543     1  0.0000000  1.0460000  1
  12527  12528  12540  12543     1  0.0000000  0.6694400  3
  12527  12541  12547  12548     1  0.0000000  1.0460000  1
  12527  12541  12547  12548     1  0.0000000  0.6694400  3
  12527  12549  12533  12536     1  0.0000000  1.6038667  3
  12528  12531  12532  12534     1  0.0000000  0.6508444  3
  12528  12531  12539  12542     1  0.0000000  1.0460000  1
  12528  12531  12539  12542     1  0.0000000  0.6694400  3
  12528  12527  12541  12545     1  0.0000000  0.6508444  3
  12528  12527  12541  12546     1  0.0000000  0.6508444  3
  12529  12527  12528  12531     1  0.0000000  0.6508444  3
  12529  12527  12528  12540     1  0.0000000  1.0460000  1
  12529  12527  12528  12540     1  0.0000000  0.0000000  3
  12529  12527  12528  12530     1  0.0000000  0.6508444  3
  12529  12527  12541  12547     1  0.0000000  1.0460000  1
  12529  12527  12541  12547     1  0.0000000  0.0000000  3
  12529  12527  12541  12545     1  0.0000000  0.6508444  3
  12529  12527  12541  12546     1  0.0000000  0.6508444  3
  12529  12527  12549  12533     1  0.0000000  1.6038667  3
  12530  12528  12531  12532     1  0.0000000  0.6508444  3
  12530  12528  12531  12539     1  0.0000000  1.0460000  1
  12530  12528  12531  12539     1  0.0000000  0.0000000  3
  12530  12528  12531  12535     1  0.0000000  0.6508444  3
  12530  12528  12540  12543     1  0.0000000  0.6973333  3
  12530  12528  12527  12541     1  0.0000000  0.6508444  3
  12530  12528  12527  12549     1  0.0000000  1.0460000  1
  12530  12528  12527  12549     1  0.0000000  0.0000000  3
  12531  12532  12533  12536     1  0.0000000  0.6508444  3
  12531  12532  12538  12544     1  0.0000000  1.0460000  1
  12531  12532  12538  12544     1  0.0000000  0.6694400  3
  12531  12528  12540  12543     1  0.0000000  1.0460000  1
  12531  12528  12540  12543     1  0.0000000  0.6694400  3
  12532  12531  12539  12542     1  0.0000000  1.0460000  1
  12532  12531  12539  12542     1  0.0000000  0.6694400  3
  12533  12532  12538  12544     1  0.0000000  1.0460000  1
  12533  12532  12538  12544     1  0.0000000  0.6694400  3
  12533  12532  12531  12535     1  0.0000000  0.6508444  3
  12534  12532  12533  12537     1  0.0000000  1.0460000  1
  12534  12532  12533  12537     1  0.0000000  0.0000000  3
  12534  12532  12533  12549     1  0.0000000  1.0460000  1
  12534  12532  12533  12549     1  0.0000000  0.0000000  3
  12534  12532  12533  12536     1  0.0000000  0.6508444  3
  12534  12532  12538  12544     1  0.0000000  0.6973333  3
  12534  12532  12531  12539     1  0.0000000  1.0460000  1
  12534  12532  12531  12539     1  0.0000000  0.0000000  3
  12534  12532  12531  12535     1  0.0000000  0.6508444  3
  12535  12531  12532  12538     1  0.0000000  1.0460000  1
  12535  12531  12532  12538     1  0.0000000  0.0000000  3
  12535  12531  12539  12542     1  0.0000000  0.6973333  3
  12535  12531  12528  12540     1  0.0000000  1.0460000  1
  12535  12531  12528  12540     1  0.0000000  0.0000000  3
  12536  12533  12532  12538     1  0.0000000  0.6508444  3
  12545  12541  12547  12548     1  0.0000000  0.6973333  3
  12545  12541  12527  12549     1  0.0000000  1.0460000  1
  12545  12541  12527  12549     1  0.0000000  0.0000000  3
  12546  12541  12547  12548     1  0.0000000  0.6973333  3
  12546  12541  12527  12549     1  0.0000000  1.0460000  1
  12546  12541  12527  12549     1  0.0000000  0.0000000  3
  12550  12551  12554  12558     1  0.0000000  0.6508444  3
  12550  12551  12563  12566     1  0.0000000  1.0460000  1
  12550  12551  12563  12566     1  0.0000000  0.6694400  3
  12550  12564  12570  12571     1  0.0000000  1.0460000  1
  12550  12564  12570  12571     1  0.0000000  0.6694400  3
  12550  12572  12556  12559     1  0.0000000  1.6038667  3
  12551  12550  12564  12568     1  0.0000000  0.6508444  3
  12551  12550  12564  12569     1  0.0000000  0.6508444  3
  12551  12554  12555  12557     1  0.0000000  0.6508444  3
  12551  12554  12562  12565     1  0.0000000  1.0460000  1
  12551  12554  12562  12565     1  0.0000000  0.6694400  3
  12552  12550  12551  12554     1  0.0000000  0.6508444  3
  12552  12550  12551  12563     1  0.0000000  1.0460000  1
  12552  12550  12551  12563     1  0.0000000  0.0000000  3
  12552  12550  12551  12553     1  0.0000000  0.6508444  3
  12552  12550  12564  12570     1  0.0000000  1.0460000  1
  12552  12550  12564  12570     1  0.0000000  0.0000000  3
  12552  12550  12564  12568     1  0.0000000  0.6508444  3
  12552  12550  12564  12569     1  0.0000000  0.6508444  3
  12552  12550  12572  12556     1  0.0000000  1.6038667  3
  12553  12551  12550  12564     1  0.0000000  0.6508444  3
  12553  12551  12550  12572     1  0.0000000  1.0460000  1
  12553  12551  12550  12572     1  0.0000000  0.0000000  3
  12553  12551  12554  12555     1  0.0000000  0.6508444  3
  12553  12551  12554  12562     1  0.0000000  1.0460000  1
  12553  12551  12554  12562     1  0.0000000  0.0000000  3
  12553  12551  12554  12558     1  0.0000000  0.6508444  3
  12553  12551  12563  12566     1  0.0000000  0.6973333  3
  12554  12551  12563  12566     1  0.0000000  1.0460000  1
  12554  12551  12563  12566     1  0.0000000  0.6694400  3
  12554  12555  12556  12559     1  0.0000000  0.6508444  3
  12554  12555  12561  12567     1  0.0000000  1.0460000  1
  12554  12555  12561  12567     1  0.0000000  0.6694400  3
  12555  12554  12562  12565     1  0.0000000  1.0460000  1
  12555  12554  12562  12565     1  0.0000000  0.6694400  3
  12556  12555  12554  12558     1  0.0000000  0.6508444  3
  12556  12555  12561  12567     1  0.0000000  1.0460000  1
  12556  12555  12561  12567     1  0.0000000  0.6694400  3
  12557  12555  12554  12562     1  0.0000000  1.0460000  1
  12557  12555  12554  12562     1  0.0000000  0.0000000  3
  12557  12555  12554  12558     1  0.0000000  0.6508444  3
  12557  12555  12556  12560     1  0.0000000  1.0460000  1
  12557  12555  12556  12560     1  0.0000000  0.0000000  3
  12557  12555  12556  12572     1  0.0000000  1.0460000  1
  12557  12555  12556  12572     1  0.0000000  0.0000000  3
  12557  12555  12556  12559     1  0.0000000  0.6508444  3
  12557  12555  12561  12567     1  0.0000000  0.6973333  3
  12558  12554  12551  12563     1  0.0000000  1.0460000  1
  12558  12554  12551  12563     1  0.0000000  0.0000000  3
  12558  12554  12555  12561     1  0.0000000  1.0460000  1
  12558  12554  12555  12561     1  0.0000000  0.0000000  3
  12558  12554  12562  12565     1  0.0000000  0.6973333  3
  12559  12556  12555  12561     1  0.0000000  0.6508444  3
  12568  12564  12550  12572     1  0.0000000  1.0460000  1
  12568  12564  12550  12572     1  0.0000000  0.0000000  3
  12568  12564  12570  12571     1  0.0000000  0.6973333  3
  12569  12564  12550  12572     1  0.0000000  1.0460000  1
  12569  12564  12550  12572     1  0.0000000  0.0000000  3
  12569  12564  12570  12571     1  0.0000000  0.6973333  3
  12573  12574  12577  12581     1  0.0000000  0.6508444  3
  12573  12574  12586  12589     1  0.0000000  1.0460000  1
  12573  12574  12586  12589     1  0.0000000  0.6694400  3
  12573  12587  12593  12594     1  0.0000000  1.0460000  1
  12573  12587  12593  12594     1  0.0000000  0.6694400  3
  12573  12595  12579  12582     1  0.0000000  1.6038667  3
  12574  12577  12578  12580     1  0.0000000  0.6508444  3
  12574  12577  12585  12588     1  0.0000000  1.0460000  1
  12574  12577  12585  12588     1  0.0000000  0.6694400  3
  12574  12573  12587  12591     1  0.0000000  0.6508444  3
  12574  12573  12587  12592     1  0.0000000  0.6508444  3
  12575  12573  12574  12577     1  0.0000000  0.6508444  3
  12575  12573  12574  12586     1  0.0000000  1.0460000  1
  12575  12573  12574  12586     1  0.0000000  0.0000000  3
  12575  12573  12574  12576     1  0.0000000  0.6508444  3
  12575  12573  12587  12593     1  0.0000000  1.0460000  1
  12575  12573  12587  12593     1  0.0000000  0.0000000  3
  12575  12573  12587  12591     1  0.0000000  0.6508444  3
  12575  12573  12587  12592     1  0.0000000  0.6508444  3
  12575  12573  12595  12579     1  0.0000000  1.6038667  3
  12576  12574  12577  12578     1  0.0000000  0.6508444  3
  12576  12574  12577  12585     1  0.0000000  1.0460000  1
  12576  12574  12577  12585     1  0.0000000  0.0000000  3
  12576  12574  12577  12581     1  0.0000000  0.6508444  3
  12576  12574  12586  12589     1  0.0000000  0.6973333  3
  12576  12574  12573  12587     1  0.0000000  0.6508444  3
  12576  12574  12573  12595     1  0.0000000  1.0460000  1
  12576  12574  12573  12595     1  0.0000000  0.0000000  3
  12577  12578  12579  12582     1  0.0000000  0.6508444  3
  12577  12578  12584  12590     1  0.0000000  1.0460000  1
  12577  12578  12584  12590     1  0.0000000  0.6694400  3
  12577  12574  12586  12589     1  0.0000000  1.0460000  1
  12577  12574  12586  12589     1  0.0000000  0.6694400  3
  12578  12577  12585  12588     1  0.0000000  1.0460000  1
  12578  12577  12585  12588     1  0.0000000  0.6694400  3
  12579  12578  12584  12590     1  0.0000000  1.0460000  1
  12579  12578  12584  12590     1  0.0000000  0.6694400  3
  12579  12578  12577  12581     1  0.0000000  0.6508444  3
  12580  12578  12579  12583     1  0.0000000  1.0460000  1
  12580  12578  12579  12583     1  0.0000000  0.0000000  3
  12580  12578  12579  12595     1  0.0000000  1.0460000  1
  12580  12578  12579  12595     1  0.0000000  0.0000000  3
  12580  12578  12579  12582     1  0.0000000  0.6508444  3
  12580  12578  12584  12590     1  0.0000000  0.6973333  3
  12580  12578  12577  12585     1  0.0000000  1.0460000  1
  12580  12578  12577  12585     1  0.0000000  0.0000000  3
  12580  12578  12577  12581     1  0.0000000  0.6508444  3
  12581  12577  12578  12584     1  0.0000000  1.0460000  1
  12581  12577  12578  12584     1  0.0000000  0.0000000  3
  12581  12577  12585  12588     1  0.0000000  0.6973333  3
  12581  12577  12574  12586     1  0.0000000  1.0460000  1
  12581  12577  12574  12586     1  0.0000000  0.0000000  3
  12582  12579  12578  12584     1  0.0000000  0.6508444  3
  12591  12587  12593  12594     1  0.0000000  0.6973333  3
  12591  12587  12573  12595     1  0.0000000  1.0460000  1
  12591  12587  12573  12595     1  0.0000000  0.0000000  3
  12592  12587  12593  12594     1  0.0000000  0.6973333  3
  12592  12587  12573  12595     1  0.0000000  1.0460000  1
  12592  12587  12573  12595     1  0.0000000  0.0000000  3
  12596  12597  12600  12604     1  0.0000000  0.6508444  3
  12596  12597  12609  12612     1  0.0000000  1.0460000  1
  12596  12597  12609  12612     1  0.0000000  0.6694400  3
  12596  12610  12616  12617     1  0.0000000  1.0460000  1
  12596  12610  12616  12617     1  0.0000000  0.6694400  3
  12596  12618  12602  12605     1  0.0000000  1.6038667  3
  12597  12596  12610  12614     1  0.0000000  0.6508444  3
  12597  12596  12610  12615     1  0.0000000  0.6508444  3
  12597  12600  12601  12603     1  0.0000000  0.6508444  3
  12597  12600  12608  12611     1  0.0000000  1.0460000  1
  12597  12600  12608  12611     1  0.0000000  0.6694400  3
  12598  12596  12597  12600     1  0.0000000  0.6508444  3
  12598  12596  12597  12609     1  0.0000000  1.0460000  1
  12598  12596  12597  12609     1  0.0000000  0.0000000  3
  12598  12596  12597  12599     1  0.0000000  0.6508444  3
  12598  12596  12610  12616     1  0.0000000  1.0460000  1
  12598  12596  12610  12616     1  0.0000000  0.0000000  3
  12598  12596  12610  12614     1  0.0000000  0.6508444  3
  12598  12596  12610  12615     1  0.0000000  0.6508444  3
  12598  12596  12618  12602     1  0.0000000  1.6038667  3
  12599  12597  12596  12610     1  0.0000000  0.6508444  3
  12599  12597  12596  12618     1  0.0000000  1.0460000  1
  12599  12597  12596  12618     1  0.0000000  0.0000000  3
  12599  12597  12600  12601     1  0.0000000  0.6508444  3
  12599  12597  12600  12608     1  0.0000000  1.0460000  1
  12599  12597  12600  12608     1  0.0000000  0.0000000  3
  12599  12597  12600  12604     1  0.0000000  0.6508444  3
  12599  12597  12609  12612     1  0.0000000  0.6973333  3
  12600  12597  12609  12612     1  0.0000000  1.0460000  1
  12600  12597  12609  12612     1  0.0000000  0.6694400  3
  12600  12601  12602  12605     1  0.0000000  0.6508444  3
  12600  12601  12607  12613     1  0.0000000  1.0460000  1
  12600  12601  12607  12613     1  0.0000000  0.6694400  3
  12601  12600  12608  12611     1  0.0000000  1.0460000  1
  12601  12600  12608  12611     1  0.0000000  0.6694400  3
  12602  12601  12600  12604     1  0.0000000  0.6508444  3
  12602  12601  12607  12613     1  0.0000000  1.0460000  1
  12602  12601  12607  12613     1  0.0000000  0.6694400  3
  12603  12601  12600  12608     1  0.0000000  1.0460000  1
  12603  12601  12600  12608     1  0.0000000  0.0000000  3
  12603  12601  12600  12604     1  0.0000000  0.6508444  3
  12603  12601  12602  12606     1  0.0000000  1.0460000  1
  12603  12601  12602  12606     1  0.0000000  0.0000000  3
  12603  12601  12602  12618     1  0.0000000  1.0460000  1
  12603  12601  12602  12618     1  0.0000000  0.0000000  3
  12603  12601  12602  12605     1  0.0000000  0.6508444  3
  12603  12601  12607  12613     1  0.0000000  0.6973333  3
  12604  12600  12597  12609     1  0.0000000  1.0460000  1
  12604  12600  12597  12609     1  0.0000000  0.0000000  3
  12604  12600  12601  12607     1  0.0000000  1.0460000  1
  12604  12600  12601  12607     1  0.0000000  0.0000000  3
  12604  12600  12608  12611     1  0.0000000  0.6973333  3
  12605  12602  12601  12607     1  0.0000000  0.6508444  3
  12614  12610  12596  12618     1  0.0000000  1.0460000  1
  12614  12610  12596  12618     1  0.0000000  0.0000000  3
  12614  12610  12616  12617     1  0.0000000  0.6973333  3
  12615  12610  12596  12618     1  0.0000000  1.0460000  1
  12615  12610  12596  12618     1  0.0000000  0.0000000  3
  12615  12610  12616  12617     1  0.0000000  0.6973333  3
  12619  12620  12623  12627     1  0.0000000  0.6508444  3
  12619  12620  12632  12635     1  0.0000000  1.0460000  1
  12619  12620  12632  12635     1  0.0000000  0.6694400  3
  12619  12633  12639  12640     1  0.0000000  1.0460000  1
  12619  12633  12639  12640     1  0.0000000  0.6694400  3
  12619  12641  12625  12628     1  0.0000000  1.6038667  3
  12620  12623  12624  12626     1  0.0000000  0.6508444  3
  12620  12623  12631  12634     1  0.0000000  1.0460000  1
  12620  12623  12631  12634     1  0.0000000  0.6694400  3
  12620  12619  12633  12637     1  0.0000000  0.6508444  3
  12620  12619  12633  12638     1  0.0000000  0.6508444  3
  12621  12619  12620  12623     1  0.0000000  0.6508444  3
  12621  12619  12620  12632     1  0.0000000  1.0460000  1
  12621  12619  12620  12632     1  0.0000000  0.0000000  3
  12621  12619  12620  12622     1  0.0000000  0.6508444  3
  12621  12619  12633  12639     1  0.0000000  1.0460000  1
  12621  12619  12633  12639     1  0.0000000  0.0000000  3
  12621  12619  12633  12637     1  0.0000000  0.6508444  3
  12621  12619  12633  12638     1  0.0000000  0.6508444  3
  12621  12619  12641  12625     1  0.0000000  1.6038667  3
  12622  12620  12623  12624     1  0.0000000  0.6508444  3
  12622  12620  12623  12631     1  0.0000000  1.0460000  1
  12622  12620  12623  12631     1  0.0000000  0.0000000  3
  12622  12620  12623  12627     1  0.0000000  0.6508444  3
  12622  12620  12632  12635     1  0.0000000  0.6973333  3
  12622  12620  12619  12633     1  0.0000000  0.6508444  3
  12622  12620  12619  12641     1  0.0000000  1.0460000  1
  12622  12620  12619  12641     1  0.0000000  0.0000000  3
  12623  12624  12625  12628     1  0.0000000  0.6508444  3
  12623  12624  12630  12636     1  0.0000000  1.0460000  1
  12623  12624  12630  12636     1  0.0000000  0.6694400  3
  12623  12620  12632  12635     1  0.0000000  1.0460000  1
  12623  12620  12632  12635     1  0.0000000  0.6694400  3
  12624  12623  12631  12634     1  0.0000000  1.0460000  1
  12624  12623  12631  12634     1  0.0000000  0.6694400  3
  12625  12624  12630  12636     1  0.0000000  1.0460000  1
  12625  12624  12630  12636     1  0.0000000  0.6694400  3
  12625  12624  12623  12627     1  0.0000000  0.6508444  3
  12626  12624  12625  12629     1  0.0000000  1.0460000  1
  12626  12624  12625  12629     1  0.0000000  0.0000000  3
  12626  12624  12625  12641     1  0.0000000  1.0460000  1
  12626  12624  12625  12641     1  0.0000000  0.0000000  3
  12626  12624  12625  12628     1  0.0000000  0.6508444  3
  12626  12624  12630  12636     1  0.0000000  0.6973333  3
  12626  12624  12623  12631     1  0.0000000  1.0460000  1
  12626  12624  12623  12631     1  0.0000000  0.0000000  3
  12626  12624  12623  12627     1  0.0000000  0.6508444  3
  12627  12623  12624  12630     1  0.0000000  1.0460000  1
  12627  12623  12624  12630     1  0.0000000  0.0000000  3
  12627  12623  12631  12634     1  0.0000000  0.6973333  3
  12627  12623  12620  12632     1  0.0000000  1.0460000  1
  12627  12623  12620  12632     1  0.0000000  0.0000000  3
  12628  12625  12624  12630     1  0.0000000  0.6508444  3
  12637  12633  12639  12640     1  0.0000000  0.6973333  3
  12637  12633  12619  12641     1  0.0000000  1.0460000  1
  12637  12633  12619  12641     1  0.0000000  0.0000000  3
  12638  12633  12639  12640     1  0.0000000  0.6973333  3
  12638  12633  12619  12641     1  0.0000000  1.0460000  1
  12638  12633  12619  12641     1  0.0000000  0.0000000  3
  12642  12643  12646  12650     1  0.0000000  0.6508444  3
  12642  12643  12655  12658     1  0.0000000  1.0460000  1
  12642  12643  12655  12658     1  0.0000000  0.6694400  3
  12642  12656  12662  12663     1  0.0000000  1.0460000  1
  12642  12656  12662  12663     1  0.0000000  0.6694400  3
  12642  12664  12648  12651     1  0.0000000  1.6038667  3
  12643  12642  12656  12660     1  0.0000000  0.6508444  3
  12643  12642  12656  12661     1  0.0000000  0.6508444  3
  12643  12646  12647  12649     1  0.0000000  0.6508444  3
  12643  12646  12654  12657     1  0.0000000  1.0460000  1
  12643  12646  12654  12657     1  0.0000000  0.6694400  3
  12644  12642  12643  12646     1  0.0000000  0.6508444  3
  12644  12642  12643  12655     1  0.0000000  1.0460000  1
  12644  12642  12643  12655     1  0.0000000  0.0000000  3
  12644  12642  12643  12645     1  0.0000000  0.6508444  3
  12644  12642  12656  12662     1  0.0000000  1.0460000  1
  12644  12642  12656  12662     1  0.0000000  0.0000000  3
  12644  12642  12656  12660     1  0.0000000  0.6508444  3
  12644  12642  12656  12661     1  0.0000000  0.6508444  3
  12644  12642  12664  12648     1  0.0000000  1.6038667  3
  12645  12643  12642  12656     1  0.0000000  0.6508444  3
  12645  12643  12642  12664     1  0.0000000  1.0460000  1
  12645  12643  12642  12664     1  0.0000000  0.0000000  3
  12645  12643  12646  12647     1  0.0000000  0.6508444  3
  12645  12643  12646  12654     1  0.0000000  1.0460000  1
  12645  12643  12646  12654     1  0.0000000  0.0000000  3
  12645  12643  12646  12650     1  0.0000000  0.6508444  3
  12645  12643  12655  12658     1  0.0000000  0.6973333  3
  12646  12643  12655  12658     1  0.0000000  1.0460000  1
  12646  12643  12655  12658     1  0.0000000  0.6694400  3
  12646  12647  12648  12651     1  0.0000000  0.6508444  3
  12646  12647  12653  12659     1  0.0000000  1.0460000  1
  12646  12647  12653  12659     1  0.0000000  0.6694400  3
  12647  12646  12654  12657     1  0.0000000  1.0460000  1
  12647  12646  12654  12657     1  0.0000000  0.6694400  3
  12648  12647  12646  12650     1  0.0000000  0.6508444  3
  12648  12647  12653  12659     1  0.0000000  1.0460000  1
  12648  12647  12653  12659     1  0.0000000  0.6694400  3
  12649  12647  12646  12654     1  0.0000000  1.0460000  1
  12649  12647  12646  12654     1  0.0000000  0.0000000  3
  12649  12647  12646  12650     1  0.0000000  0.6508444  3
  12649  12647  12648  12652     1  0.0000000  1.0460000  1
  12649  12647  12648  12652     1  0.0000000  0.0000000  3
  12649  12647  12648  12664     1  0.0000000  1.0460000  1
  12649  12647  12648  12664     1  0.0000000  0.0000000  3
  12649  12647  12648  12651     1  0.0000000  0.6508444  3
  12649  12647  12653  12659     1  0.0000000  0.6973333  3
  12650  12646  12643  12655     1  0.0000000  1.0460000  1
  12650  12646  12643  12655     1  0.0000000  0.0000000  3
  12650  12646  12647  12653     1  0.0000000  1.0460000  1
  12650  12646  12647  12653     1  0.0000000  0.0000000  3
  12650  12646  12654  12657     1  0.0000000  0.6973333  3
  12651  12648  12647  12653     1  0.0000000  0.6508444  3
  12660  12656  12642  12664     1  0.0000000  1.0460000  1
  12660  12656  12642  12664     1  0.0000000  0.0000000  3
  12660  12656  12662  12663     1  0.0000000  0.6973333  3
  12661  12656  12642  12664     1  0.0000000  1.0460000  1
  12661  12656  12642  12664     1  0.0000000  0.0000000  3
  12661  12656  12662  12663     1  0.0000000  0.6973333  3
  12665  12666  12669  12673     1  0.0000000  0.6508444  3
  12665  12666  12678  12681     1  0.0000000  1.0460000  1
  12665  12666  12678  12681     1  0.0000000  0.6694400  3
  12665  12679  12685  12686     1  0.0000000  1.0460000  1
  12665  12679  12685  12686     1  0.0000000  0.6694400  3
  12665  12687  12671  12674     1  0.0000000  1.6038667  3
  12666  12669  12670  12672     1  0.0000000  0.6508444  3
  12666  12669  12677  12680     1  0.0000000  1.0460000  1
  12666  12669  12677  12680     1  0.0000000  0.6694400  3
  12666  12665  12679  12683     1  0.0000000  0.6508444  3
  12666  12665  12679  12684     1  0.0000000  0.6508444  3
  12667  12665  12666  12669     1  0.0000000  0.6508444  3
  12667  12665  12666  12678     1  0.0000000  1.0460000  1
  12667  12665  12666  12678     1  0.0000000  0.0000000  3
  12667  12665  12666  12668     1  0.0000000  0.6508444  3
  12667  12665  12679  12685     1  0.0000000  1.0460000  1
  12667  12665  12679  12685     1  0.0000000  0.0000000  3
  12667  12665  12679  12683     1  0.0000000  0.6508444  3
  12667  12665  12679  12684     1  0.0000000  0.6508444  3
  12667  12665  12687  12671     1  0.0000000  1.6038667  3
  12668  12666  12669  12670     1  0.0000000  0.6508444  3
  12668  12666  12669  12677     1  0.0000000  1.0460000  1
  12668  12666  12669  12677     1  0.0000000  0.0000000  3
  12668  12666  12669  12673     1  0.0000000  0.6508444  3
  12668  12666  12678  12681     1  0.0000000  0.6973333  3
  12668  12666  12665  12679     1  0.0000000  0.6508444  3
  12668  12666  12665  12687     1  0.0000000  1.0460000  1
  12668  12666  12665  12687     1  0.0000000  0.0000000  3
  12669  12670  12671  12674     1  0.0000000  0.6508444  3
  12669  12670  12676  12682     1  0.0000000  1.0460000  1
  12669  12670  12676  12682     1  0.0000000  0.6694400  3
  12669  12666  12678  12681     1  0.0000000  1.0460000  1
  12669  12666  12678  12681     1  0.0000000  0.6694400  3
  12670  12669  12677  12680     1  0.0000000  1.0460000  1
  12670  12669  12677  12680     1  0.0000000  0.6694400  3
  12671  12670  12676  12682     1  0.0000000  1.0460000  1
  12671  12670  12676  12682     1  0.0000000  0.6694400  3
  12671  12670  12669  12673     1  0.0000000  0.6508444  3
  12672  12670  12671  12675     1  0.0000000  1.0460000  1
  12672  12670  12671  12675     1  0.0000000  0.0000000  3
  12672  12670  12671  12687     1  0.0000000  1.0460000  1
  12672  12670  12671  12687     1  0.0000000  0.0000000  3
  12672  12670  12671  12674     1  0.0000000  0.6508444  3
  12672  12670  12676  12682     1  0.0000000  0.6973333  3
  12672  12670  12669  12677     1  0.0000000  1.0460000  1
  12672  12670  12669  12677     1  0.0000000  0.0000000  3
  12672  12670  12669  12673     1  0.0000000  0.6508444  3
  12673  12669  12670  12676     1  0.0000000  1.0460000  1
  12673  12669  12670  12676     1  0.0000000  0.0000000  3
  12673  12669  12677  12680     1  0.0000000  0.6973333  3
  12673  12669  12666  12678     1  0.0000000  1.0460000  1
  12673  12669  12666  12678     1  0.0000000  0.0000000  3
  12674  12671  12670  12676     1  0.0000000  0.6508444  3
  12683  12679  12685  12686     1  0.0000000  0.6973333  3
  12683  12679  12665  12687     1  0.0000000  1.0460000  1
  12683  12679  12665  12687     1  0.0000000  0.0000000  3
  12684  12679  12685  12686     1  0.0000000  0.6973333  3
  12684  12679  12665  12687     1  0.0000000  1.0460000  1
  12684  12679  12665  12687     1  0.0000000  0.0000000  3
  12688  12689  12692  12696     1  0.0000000  0.6508444  3
  12688  12689  12701  12704     1  0.0000000  1.0460000  1
  12688  12689  12701  12704     1  0.0000000  0.6694400  3
  12688  12702  12708  12709     1  0.0000000  1.0460000  1
  12688  12702  12708  12709     1  0.0000000  0.6694400  3
  12688  12710  12694  12697     1  0.0000000  1.6038667  3
  12689  12688  12702  12706     1  0.0000000  0.6508444  3
  12689  12688  12702  12707     1  0.0000000  0.6508444  3
  12689  12692  12693  12695     1  0.0000000  0.6508444  3
  12689  12692  12700  12703     1  0.0000000  1.0460000  1
  12689  12692  12700  12703     1  0.0000000  0.6694400  3
  12690  12688  12689  12692     1  0.0000000  0.6508444  3
  12690  12688  12689  12701     1  0.0000000  1.0460000  1
  12690  12688  12689  12701     1  0.0000000  0.0000000  3
  12690  12688  12689  12691     1  0.0000000  0.6508444  3
  12690  12688  12702  12708     1  0.0000000  1.0460000  1
  12690  12688  12702  12708     1  0.0000000  0.0000000  3
  12690  12688  12702  12706     1  0.0000000  0.6508444  3
  12690  12688  12702  12707     1  0.0000000  0.6508444  3
  12690  12688  12710  12694     1  0.0000000  1.6038667  3
  12691  12689  12688  12702     1  0.0000000  0.6508444  3
  12691  12689  12688  12710     1  0.0000000  1.0460000  1
  12691  12689  12688  12710     1  0.0000000  0.0000000  3
  12691  12689  12692  12693     1  0.0000000  0.6508444  3
  12691  12689  12692  12700     1  0.0000000  1.0460000  1
  12691  12689  12692  12700     1  0.0000000  0.0000000  3
  12691  12689  12692  12696     1  0.0000000  0.6508444  3
  12691  12689  12701  12704     1  0.0000000  0.6973333  3
  12692  12689  12701  12704     1  0.0000000  1.0460000  1
  12692  12689  12701  12704     1  0.0000000  0.6694400  3
  12692  12693  12694  12697     1  0.0000000  0.6508444  3
  12692  12693  12699  12705     1  0.0000000  1.0460000  1
  12692  12693  12699  12705     1  0.0000000  0.6694400  3
  12693  12692  12700  12703     1  0.0000000  1.0460000  1
  12693  12692  12700  12703     1  0.0000000  0.6694400  3
  12694  12693  12692  12696     1  0.0000000  0.6508444  3
  12694  12693  12699  12705     1  0.0000000  1.0460000  1
  12694  12693  12699  12705     1  0.0000000  0.6694400  3
  12695  12693  12692  12700     1  0.0000000  1.0460000  1
  12695  12693  12692  12700     1  0.0000000  0.0000000  3
  12695  12693  12692  12696     1  0.0000000  0.6508444  3
  12695  12693  12694  12698     1  0.0000000  1.0460000  1
  12695  12693  12694  12698     1  0.0000000  0.0000000  3
  12695  12693  12694  12710     1  0.0000000  1.0460000  1
  12695  12693  12694  12710     1  0.0000000  0.0000000  3
  12695  12693  12694  12697     1  0.0000000  0.6508444  3
  12695  12693  12699  12705     1  0.0000000  0.6973333  3
  12696  12692  12689  12701     1  0.0000000  1.0460000  1
  12696  12692  12689  12701     1  0.0000000  0.0000000  3
  12696  12692  12693  12699     1  0.0000000  1.0460000  1
  12696  12692  12693  12699     1  0.0000000  0.0000000  3
  12696  12692  12700  12703     1  0.0000000  0.6973333  3
  12697  12694  12693  12699     1  0.0000000  0.6508444  3
  12706  12702  12688  12710     1  0.0000000  1.0460000  1
  12706  12702  12688  12710     1  0.0000000  0.0000000  3
  12706  12702  12708  12709     1  0.0000000  0.6973333  3
  12707  12702  12688  12710     1  0.0000000  1.0460000  1
  12707  12702  12688  12710     1  0.0000000  0.0000000  3
  12707  12702  12708  12709     1  0.0000000  0.6973333  3
  12711  12712  12715  12719     1  0.0000000  0.6508444  3
  12711  12712  12724  12727     1  0.0000000  1.0460000  1
  12711  12712  12724  12727     1  0.0000000  0.6694400  3
  12711  12725  12731  12732     1  0.0000000  1.0460000  1
  12711  12725  12731  12732     1  0.0000000  0.6694400  3
  12711  12733  12717  12720     1  0.0000000  1.6038667  3
  12712  12715  12716  12718     1  0.0000000  0.6508444  3
  12712  12715  12723  12726     1  0.0000000  1.0460000  1
  12712  12715  12723  12726     1  0.0000000  0.6694400  3
  12712  12711  12725  12729     1  0.0000000  0.6508444  3
  12712  12711  12725  12730     1  0.0000000  0.6508444  3
  12713  12711  12712  12715     1  0.0000000  0.6508444  3
  12713  12711  12712  12724     1  0.0000000  1.0460000  1
  12713  12711  12712  12724     1  0.0000000  0.0000000  3
  12713  12711  12712  12714     1  0.0000000  0.6508444  3
  12713  12711  12725  12731     1  0.0000000  1.0460000  1
  12713  12711  12725  12731     1  0.0000000  0.0000000  3
  12713  12711  12725  12729     1  0.0000000  0.6508444  3
  12713  12711  12725  12730     1  0.0000000  0.6508444  3
  12713  12711  12733  12717     1  0.0000000  1.6038667  3
  12714  12712  12715  12716     1  0.0000000  0.6508444  3
  12714  12712  12715  12723     1  0.0000000  1.0460000  1
  12714  12712  12715  12723     1  0.0000000  0.0000000  3
  12714  12712  12715  12719     1  0.0000000  0.6508444  3
  12714  12712  12724  12727     1  0.0000000  0.6973333  3
  12714  12712  12711  12725     1  0.0000000  0.6508444  3
  12714  12712  12711  12733     1  0.0000000  1.0460000  1
  12714  12712  12711  12733     1  0.0000000  0.0000000  3
  12715  12716  12717  12720     1  0.0000000  0.6508444  3
  12715  12716  12722  12728     1  0.0000000  1.0460000  1
  12715  12716  12722  12728     1  0.0000000  0.6694400  3
  12715  12712  12724  12727     1  0.0000000  1.0460000  1
  12715  12712  12724  12727     1  0.0000000  0.6694400  3
  12716  12715  12723  12726     1  0.0000000  1.0460000  1
  12716  12715  12723  12726     1  0.0000000  0.6694400  3
  12717  12716  12722  12728     1  0.0000000  1.0460000  1
  12717  12716  12722  12728     1  0.0000000  0.6694400  3
  12717  12716  12715  12719     1  0.0000000  0.6508444  3
  12718  12716  12717  12721     1  0.0000000  1.0460000  1
  12718  12716  12717  12721     1  0.0000000  0.0000000  3
  12718  12716  12717  12733     1  0.0000000  1.0460000  1
  12718  12716  12717  12733     1  0.0000000  0.0000000  3
  12718  12716  12717  12720     1  0.0000000  0.6508444  3
  12718  12716  12722  12728     1  0.0000000  0.6973333  3
  12718  12716  12715  12723     1  0.0000000  1.0460000  1
  12718  12716  12715  12723     1  0.0000000  0.0000000  3
  12718  12716  12715  12719     1  0.0000000  0.6508444  3
  12719  12715  12716  12722     1  0.0000000  1.0460000  1
  12719  12715  12716  12722     1  0.0000000  0.0000000  3
  12719  12715  12723  12726     1  0.0000000  0.6973333  3
  12719  12715  12712  12724     1  0.0000000  1.0460000  1
  12719  12715  12712  12724     1  0.0000000  0.0000000  3
  12720  12717  12716  12722     1  0.0000000  0.6508444  3
  12729  12725  12731  12732     1  0.0000000  0.6973333  3
  12729  12725  12711  12733     1  0.0000000  1.0460000  1
  12729  12725  12711  12733     1  0.0000000  0.0000000  3
  12730  12725  12731  12732     1  0.0000000  0.6973333  3
  12730  12725  12711  12733     1  0.0000000  1.0460000  1
  12730  12725  12711  12733     1  0.0000000  0.0000000  3
  12734  12735  12738  12742     1  0.0000000  0.6508444  3
  12734  12735  12747  12750     1  0.0000000  1.0460000  1
  12734  12735  12747  12750     1  0.0000000  0.6694400  3
  12734  12748  12754  12755     1  0.0000000  1.0460000  1
  12734  12748  12754  12755     1  0.0000000  0.6694400  3
  12734  12756  12740  12743     1  0.0000000  1.6038667  3
  12735  12734  12748  12752     1  0.0000000  0.6508444  3
  12735  12734  12748  12753     1  0.0000000  0.6508444  3
  12735  12738  12739  12741     1  0.0000000  0.6508444  3
  12735  12738  12746  12749     1  0.0000000  1.0460000  1
  12735  12738  12746  12749     1  0.0000000  0.6694400  3
  12736  12734  12735  12738     1  0.0000000  0.6508444  3
  12736  12734  12735  12747     1  0.0000000  1.0460000  1
  12736  12734  12735  12747     1  0.0000000  0.0000000  3
  12736  12734  12735  12737     1  0.0000000  0.6508444  3
  12736  12734  12748  12754     1  0.0000000  1.0460000  1
  12736  12734  12748  12754     1  0.0000000  0.0000000  3
  12736  12734  12748  12752     1  0.0000000  0.6508444  3
  12736  12734  12748  12753     1  0.0000000  0.6508444  3
  12736  12734  12756  12740     1  0.0000000  1.6038667  3
  12737  12735  12734  12748     1  0.0000000  0.6508444  3
  12737  12735  12734  12756     1  0.0000000  1.0460000  1
  12737  12735  12734  12756     1  0.0000000  0.0000000  3
  12737  12735  12738  12739     1  0.0000000  0.6508444  3
  12737  12735  12738  12746     1  0.0000000  1.0460000  1
  12737  12735  12738  12746     1  0.0000000  0.0000000  3
  12737  12735  12738  12742     1  0.0000000  0.6508444  3
  12737  12735  12747  12750     1  0.0000000  0.6973333  3
  12738  12735  12747  12750     1  0.0000000  1.0460000  1
  12738  12735  12747  12750     1  0.0000000  0.6694400  3
  12738  12739  12740  12743     1  0.0000000  0.6508444  3
  12738  12739  12745  12751     1  0.0000000  1.0460000  1
  12738  12739  12745  12751     1  0.0000000  0.6694400  3
  12739  12738  12746  12749     1  0.0000000  1.0460000  1
  12739  12738  12746  12749     1  0.0000000  0.6694400  3
  12740  12739  12738  12742     1  0.0000000  0.6508444  3
  12740  12739  12745  12751     1  0.0000000  1.0460000  1
  12740  12739  12745  12751     1  0.0000000  0.6694400  3
  12741  12739  12738  12746     1  0.0000000  1.0460000  1
  12741  12739  12738  12746     1  0.0000000  0.0000000  3
  12741  12739  12738  12742     1  0.0000000  0.6508444  3
  12741  12739  12740  12744     1  0.0000000  1.0460000  1
  12741  12739  12740  12744     1  0.0000000  0.0000000  3
  12741  12739  12740  12756     1  0.0000000  1.0460000  1
  12741  12739  12740  12756     1  0.0000000  0.0000000  3
  12741  12739  12740  12743     1  0.0000000  0.6508444  3
  12741  12739  12745  12751     1  0.0000000  0.6973333  3
  12742  12738  12735  12747     1  0.0000000  1.0460000  1
  12742  12738  12735  12747     1  0.0000000  0.0000000  3
  12742  12738  12739  12745     1  0.0000000  1.0460000  1
  12742  12738  12739  12745     1  0.0000000  0.0000000  3
  12742  12738  12746  12749     1  0.0000000  0.6973333  3
  12743  12740  12739  12745     1  0.0000000  0.6508444  3
  12752  12748  12734  12756     1  0.0000000  1.0460000  1
  12752  12748  12734  12756     1  0.0000000  0.0000000  3
  12752  12748  12754  12755     1  0.0000000  0.6973333  3
  12753  12748  12734  12756     1  0.0000000  1.0460000  1
  12753  12748  12734  12756     1  0.0000000  0.0000000  3
  12753  12748  12754  12755     1  0.0000000  0.6973333  3
  12757  12758  12761  12765     1  0.0000000  0.6508444  3
  12757  12758  12770  12773     1  0.0000000  1.0460000  1
  12757  12758  12770  12773     1  0.0000000  0.6694400  3
  12757  12771  12777  12778     1  0.0000000  1.0460000  1
  12757  12771  12777  12778     1  0.0000000  0.6694400  3
  12757  12779  12763  12766     1  0.0000000  1.6038667  3
  12758  12761  12762  12764     1  0.0000000  0.6508444  3
  12758  12761  12769  12772     1  0.0000000  1.0460000  1
  12758  12761  12769  12772     1  0.0000000  0.6694400  3
  12758  12757  12771  12775     1  0.0000000  0.6508444  3
  12758  12757  12771  12776     1  0.0000000  0.6508444  3
  12759  12757  12758  12761     1  0.0000000  0.6508444  3
  12759  12757  12758  12770     1  0.0000000  1.0460000  1
  12759  12757  12758  12770     1  0.0000000  0.0000000  3
  12759  12757  12758  12760     1  0.0000000  0.6508444  3
  12759  12757  12771  12777     1  0.0000000  1.0460000  1
  12759  12757  12771  12777     1  0.0000000  0.0000000  3
  12759  12757  12771  12775     1  0.0000000  0.6508444  3
  12759  12757  12771  12776     1  0.0000000  0.6508444  3
  12759  12757  12779  12763     1  0.0000000  1.6038667  3
  12760  12758  12761  12762     1  0.0000000  0.6508444  3
  12760  12758  12761  12769     1  0.0000000  1.0460000  1
  12760  12758  12761  12769     1  0.0000000  0.0000000  3
  12760  12758  12761  12765     1  0.0000000  0.6508444  3
  12760  12758  12770  12773     1  0.0000000  0.6973333  3
  12760  12758  12757  12771     1  0.0000000  0.6508444  3
  12760  12758  12757  12779     1  0.0000000  1.0460000  1
  12760  12758  12757  12779     1  0.0000000  0.0000000  3
  12761  12762  12763  12766     1  0.0000000  0.6508444  3
  12761  12762  12768  12774     1  0.0000000  1.0460000  1
  12761  12762  12768  12774     1  0.0000000  0.6694400  3
  12761  12758  12770  12773     1  0.0000000  1.0460000  1
  12761  12758  12770  12773     1  0.0000000  0.6694400  3
  12762  12761  12769  12772     1  0.0000000  1.0460000  1
  12762  12761  12769  12772     1  0.0000000  0.6694400  3
  12763  12762  12768  12774     1  0.0000000  1.0460000  1
  12763  12762  12768  12774     1  0.0000000  0.6694400  3
  12763  12762  12761  12765     1  0.0000000  0.6508444  3
  12764  12762  12763  12767     1  0.0000000  1.0460000  1
  12764  12762  12763  12767     1  0.0000000  0.0000000  3
  12764  12762  12763  12779     1  0.0000000  1.0460000  1
  12764  12762  12763  12779     1  0.0000000  0.0000000  3
  12764  12762  12763  12766     1  0.0000000  0.6508444  3
  12764  12762  12768  12774     1  0.0000000  0.6973333  3
  12764  12762  12761  12769     1  0.0000000  1.0460000  1
  12764  12762  12761  12769     1  0.0000000  0.0000000  3
  12764  12762  12761  12765     1  0.0000000  0.6508444  3
  12765  12761  12762  12768     1  0.0000000  1.0460000  1
  12765  12761  12762  12768     1  0.0000000  0.0000000  3
  12765  12761  12769  12772     1  0.0000000  0.6973333  3
  12765  12761  12758  12770     1  0.0000000  1.0460000  1
  12765  12761  12758  12770     1  0.0000000  0.0000000  3
  12766  12763  12762  12768     1  0.0000000  0.6508444  3
  12775  12771  12777  12778     1  0.0000000  0.6973333  3
  12775  12771  12757  12779     1  0.0000000  1.0460000  1
  12775  12771  12757  12779     1  0.0000000  0.0000000  3
  12776  12771  12777  12778     1  0.0000000  0.6973333  3
  12776  12771  12757  12779     1  0.0000000  1.0460000  1
  12776  12771  12757  12779     1  0.0000000  0.0000000  3
  12780  12781  12784  12788     1  0.0000000  0.6508444  3
  12780  12781  12793  12796     1  0.0000000  1.0460000  1
  12780  12781  12793  12796     1  0.0000000  0.6694400  3
  12780  12794  12800  12801     1  0.0000000  1.0460000  1
  12780  12794  12800  12801     1  0.0000000  0.6694400  3
  12780  12802  12786  12789     1  0.0000000  1.6038667  3
  12781  12780  12794  12798     1  0.0000000  0.6508444  3
  12781  12780  12794  12799     1  0.0000000  0.6508444  3
  12781  12784  12785  12787     1  0.0000000  0.6508444  3
  12781  12784  12792  12795     1  0.0000000  1.0460000  1
  12781  12784  12792  12795     1  0.0000000  0.6694400  3
  12782  12780  12781  12784     1  0.0000000  0.6508444  3
  12782  12780  12781  12793     1  0.0000000  1.0460000  1
  12782  12780  12781  12793     1  0.0000000  0.0000000  3
  12782  12780  12781  12783     1  0.0000000  0.6508444  3
  12782  12780  12794  12800     1  0.0000000  1.0460000  1
  12782  12780  12794  12800     1  0.0000000  0.0000000  3
  12782  12780  12794  12798     1  0.0000000  0.6508444  3
  12782  12780  12794  12799     1  0.0000000  0.6508444  3
  12782  12780  12802  12786     1  0.0000000  1.6038667  3
  12783  12781  12780  12794     1  0.0000000  0.6508444  3
  12783  12781  12780  12802     1  0.0000000  1.0460000  1
  12783  12781  12780  12802     1  0.0000000  0.0000000  3
  12783  12781  12784  12785     1  0.0000000  0.6508444  3
  12783  12781  12784  12792     1  0.0000000  1.0460000  1
  12783  12781  12784  12792     1  0.0000000  0.0000000  3
  12783  12781  12784  12788     1  0.0000000  0.6508444  3
  12783  12781  12793  12796     1  0.0000000  0.6973333  3
  12784  12781  12793  12796     1  0.0000000  1.0460000  1
  12784  12781  12793  12796     1  0.0000000  0.6694400  3
  12784  12785  12786  12789     1  0.0000000  0.6508444  3
  12784  12785  12791  12797     1  0.0000000  1.0460000  1
  12784  12785  12791  12797     1  0.0000000  0.6694400  3
  12785  12784  12792  12795     1  0.0000000  1.0460000  1
  12785  12784  12792  12795     1  0.0000000  0.6694400  3
  12786  12785  12784  12788     1  0.0000000  0.6508444  3
  12786  12785  12791  12797     1  0.0000000  1.0460000  1
  12786  12785  12791  12797     1  0.0000000  0.6694400  3
  12787  12785  12784  12792     1  0.0000000  1.0460000  1
  12787  12785  12784  12792     1  0.0000000  0.0000000  3
  12787  12785  12784  12788     1  0.0000000  0.6508444  3
  12787  12785  12786  12790     1  0.0000000  1.0460000  1
  12787  12785  12786  12790     1  0.0000000  0.0000000  3
  12787  12785  12786  12802     1  0.0000000  1.0460000  1
  12787  12785  12786  12802     1  0.0000000  0.0000000  3
  12787  12785  12786  12789     1  0.0000000  0.6508444  3
  12787  12785  12791  12797     1  0.0000000  0.6973333  3
  12788  12784  12781  12793     1  0.0000000  1.0460000  1
  12788  12784  12781  12793     1  0.0000000  0.0000000  3
  12788  12784  12785  12791     1  0.0000000  1.0460000  1
  12788  12784  12785  12791     1  0.0000000  0.0000000  3
  12788  12784  12792  12795     1  0.0000000  0.6973333  3
  12789  12786  12785  12791     1  0.0000000  0.6508444  3
  12798  12794  12780  12802     1  0.0000000  1.0460000  1
  12798  12794  12780  12802     1  0.0000000  0.0000000  3
  12798  12794  12800  12801     1  0.0000000  0.6973333  3
  12799  12794  12780  12802     1  0.0000000  1.0460000  1
  12799  12794  12780  12802     1  0.0000000  0.0000000  3
  12799  12794  12800  12801     1  0.0000000  0.6973333  3
  12803  12804  12807  12811     1  0.0000000  0.6508444  3
  12803  12804  12816  12819     1  0.0000000  1.0460000  1
  12803  12804  12816  12819     1  0.0000000  0.6694400  3
  12803  12817  12823  12824     1  0.0000000  1.0460000  1
  12803  12817  12823  12824     1  0.0000000  0.6694400  3
  12803  12825  12809  12812     1  0.0000000  1.6038667  3
  12804  12807  12808  12810     1  0.0000000  0.6508444  3
  12804  12807  12815  12818     1  0.0000000  1.0460000  1
  12804  12807  12815  12818     1  0.0000000  0.6694400  3
  12804  12803  12817  12821     1  0.0000000  0.6508444  3
  12804  12803  12817  12822     1  0.0000000  0.6508444  3
  12805  12803  12804  12807     1  0.0000000  0.6508444  3
  12805  12803  12804  12816     1  0.0000000  1.0460000  1
  12805  12803  12804  12816     1  0.0000000  0.0000000  3
  12805  12803  12804  12806     1  0.0000000  0.6508444  3
  12805  12803  12817  12823     1  0.0000000  1.0460000  1
  12805  12803  12817  12823     1  0.0000000  0.0000000  3
  12805  12803  12817  12821     1  0.0000000  0.6508444  3
  12805  12803  12817  12822     1  0.0000000  0.6508444  3
  12805  12803  12825  12809     1  0.0000000  1.6038667  3
  12806  12804  12807  12808     1  0.0000000  0.6508444  3
  12806  12804  12807  12815     1  0.0000000  1.0460000  1
  12806  12804  12807  12815     1  0.0000000  0.0000000  3
  12806  12804  12807  12811     1  0.0000000  0.6508444  3
  12806  12804  12816  12819     1  0.0000000  0.6973333  3
  12806  12804  12803  12817     1  0.0000000  0.6508444  3
  12806  12804  12803  12825     1  0.0000000  1.0460000  1
  12806  12804  12803  12825     1  0.0000000  0.0000000  3
  12807  12808  12809  12812     1  0.0000000  0.6508444  3
  12807  12808  12814  12820     1  0.0000000  1.0460000  1
  12807  12808  12814  12820     1  0.0000000  0.6694400  3
  12807  12804  12816  12819     1  0.0000000  1.0460000  1
  12807  12804  12816  12819     1  0.0000000  0.6694400  3
  12808  12807  12815  12818     1  0.0000000  1.0460000  1
  12808  12807  12815  12818     1  0.0000000  0.6694400  3
  12809  12808  12814  12820     1  0.0000000  1.0460000  1
  12809  12808  12814  12820     1  0.0000000  0.6694400  3
  12809  12808  12807  12811     1  0.0000000  0.6508444  3
  12810  12808  12809  12813     1  0.0000000  1.0460000  1
  12810  12808  12809  12813     1  0.0000000  0.0000000  3
  12810  12808  12809  12825     1  0.0000000  1.0460000  1
  12810  12808  12809  12825     1  0.0000000  0.0000000  3
  12810  12808  12809  12812     1  0.0000000  0.6508444  3
  12810  12808  12814  12820     1  0.0000000  0.6973333  3
  12810  12808  12807  12815     1  0.0000000  1.0460000  1
  12810  12808  12807  12815     1  0.0000000  0.0000000  3
  12810  12808  12807  12811     1  0.0000000  0.6508444  3
  12811  12807  12808  12814     1  0.0000000  1.0460000  1
  12811  12807  12808  12814     1  0.0000000  0.0000000  3
  12811  12807  12815  12818     1  0.0000000  0.6973333  3
  12811  12807  12804  12816     1  0.0000000  1.0460000  1
  12811  12807  12804  12816     1  0.0000000  0.0000000  3
  12812  12809  12808  12814     1  0.0000000  0.6508444  3
  12821  12817  12823  12824     1  0.0000000  0.6973333  3
  12821  12817  12803  12825     1  0.0000000  1.0460000  1
  12821  12817  12803  12825     1  0.0000000  0.0000000  3
  12822  12817  12823  12824     1  0.0000000  0.6973333  3
  12822  12817  12803  12825     1  0.0000000  1.0460000  1
  12822  12817  12803  12825     1  0.0000000  0.0000000  3
  12826  12827  12830  12834     1  0.0000000  0.6508444  3
  12826  12827  12839  12842     1  0.0000000  1.0460000  1
  12826  12827  12839  12842     1  0.0000000  0.6694400  3
  12826  12840  12846  12847     1  0.0000000  1.0460000  1
  12826  12840  12846  12847     1  0.0000000  0.6694400  3
  12826  12848  12832  12835     1  0.0000000  1.6038667  3
  12827  12826  12840  12844     1  0.0000000  0.6508444  3
  12827  12826  12840  12845     1  0.0000000  0.6508444  3
  12827  12830  12831  12833     1  0.0000000  0.6508444  3
  12827  12830  12838  12841     1  0.0000000  1.0460000  1
  12827  12830  12838  12841     1  0.0000000  0.6694400  3
  12828  12826  12827  12830     1  0.0000000  0.6508444  3
  12828  12826  12827  12839     1  0.0000000  1.0460000  1
  12828  12826  12827  12839     1  0.0000000  0.0000000  3
  12828  12826  12827  12829     1  0.0000000  0.6508444  3
  12828  12826  12840  12846     1  0.0000000  1.0460000  1
  12828  12826  12840  12846     1  0.0000000  0.0000000  3
  12828  12826  12840  12844     1  0.0000000  0.6508444  3
  12828  12826  12840  12845     1  0.0000000  0.6508444  3
  12828  12826  12848  12832     1  0.0000000  1.6038667  3
  12829  12827  12826  12840     1  0.0000000  0.6508444  3
  12829  12827  12826  12848     1  0.0000000  1.0460000  1
  12829  12827  12826  12848     1  0.0000000  0.0000000  3
  12829  12827  12830  12831     1  0.0000000  0.6508444  3
  12829  12827  12830  12838     1  0.0000000  1.0460000  1
  12829  12827  12830  12838     1  0.0000000  0.0000000  3
  12829  12827  12830  12834     1  0.0000000  0.6508444  3
  12829  12827  12839  12842     1  0.0000000  0.6973333  3
  12830  12827  12839  12842     1  0.0000000  1.0460000  1
  12830  12827  12839  12842     1  0.0000000  0.6694400  3
  12830  12831  12832  12835     1  0.0000000  0.6508444  3
  12830  12831  12837  12843     1  0.0000000  1.0460000  1
  12830  12831  12837  12843     1  0.0000000  0.6694400  3
  12831  12830  12838  12841     1  0.0000000  1.0460000  1
  12831  12830  12838  12841     1  0.0000000  0.6694400  3
  12832  12831  12830  12834     1  0.0000000  0.6508444  3
  12832  12831  12837  12843     1  0.0000000  1.0460000  1
  12832  12831  12837  12843     1  0.0000000  0.6694400  3
  12833  12831  12830  12838     1  0.0000000  1.0460000  1
  12833  12831  12830  12838     1  0.0000000  0.0000000  3
  12833  12831  12830  12834     1  0.0000000  0.6508444  3
  12833  12831  12832  12836     1  0.0000000  1.0460000  1
  12833  12831  12832  12836     1  0.0000000  0.0000000  3
  12833  12831  12832  12848     1  0.0000000  1.0460000  1
  12833  12831  12832  12848     1  0.0000000  0.0000000  3
  12833  12831  12832  12835     1  0.0000000  0.6508444  3
  12833  12831  12837  12843     1  0.0000000  0.6973333  3
  12834  12830  12827  12839     1  0.0000000  1.0460000  1
  12834  12830  12827  12839     1  0.0000000  0.0000000  3
  12834  12830  12831  12837     1  0.0000000  1.0460000  1
  12834  12830  12831  12837     1  0.0000000  0.0000000  3
  12834  12830  12838  12841     1  0.0000000  0.6973333  3
  12835  12832  12831  12837     1  0.0000000  0.6508444  3
  12844  12840  12826  12848     1  0.0000000  1.0460000  1
  12844  12840  12826  12848     1  0.0000000  0.0000000  3
  12844  12840  12846  12847     1  0.0000000  0.6973333  3
  12845  12840  12826  12848     1  0.0000000  1.0460000  1
  12845  12840  12826  12848     1  0.0000000  0.0000000  3
  12845  12840  12846  12847     1  0.0000000  0.6973333  3
  12849  12850  12853  12857     1  0.0000000  0.6508444  3
  12849  12850  12862  12865     1  0.0000000  1.0460000  1
  12849  12850  12862  12865     1  0.0000000  0.6694400  3
  12849  12863  12869  12870     1  0.0000000  1.0460000  1
  12849  12863  12869  12870     1  0.0000000  0.6694400  3
  12849  12871  12855  12858     1  0.0000000  1.6038667  3
  12850  12853  12854  12856     1  0.0000000  0.6508444  3
  12850  12853  12861  12864     1  0.0000000  1.0460000  1
  12850  12853  12861  12864     1  0.0000000  0.6694400  3
  12850  12849  12863  12867     1  0.0000000  0.6508444  3
  12850  12849  12863  12868     1  0.0000000  0.6508444  3
  12851  12849  12850  12853     1  0.0000000  0.6508444  3
  12851  12849  12850  12862     1  0.0000000  1.0460000  1
  12851  12849  12850  12862     1  0.0000000  0.0000000  3
  12851  12849  12850  12852     1  0.0000000  0.6508444  3
  12851  12849  12863  12869     1  0.0000000  1.0460000  1
  12851  12849  12863  12869     1  0.0000000  0.0000000  3
  12851  12849  12863  12867     1  0.0000000  0.6508444  3
  12851  12849  12863  12868     1  0.0000000  0.6508444  3
  12851  12849  12871  12855     1  0.0000000  1.6038667  3
  12852  12850  12853  12854     1  0.0000000  0.6508444  3
  12852  12850  12853  12861     1  0.0000000  1.0460000  1
  12852  12850  12853  12861     1  0.0000000  0.0000000  3
  12852  12850  12853  12857     1  0.0000000  0.6508444  3
  12852  12850  12862  12865     1  0.0000000  0.6973333  3
  12852  12850  12849  12863     1  0.0000000  0.6508444  3
  12852  12850  12849  12871     1  0.0000000  1.0460000  1
  12852  12850  12849  12871     1  0.0000000  0.0000000  3
  12853  12854  12855  12858     1  0.0000000  0.6508444  3
  12853  12854  12860  12866     1  0.0000000  1.0460000  1
  12853  12854  12860  12866     1  0.0000000  0.6694400  3
  12853  12850  12862  12865     1  0.0000000  1.0460000  1
  12853  12850  12862  12865     1  0.0000000  0.6694400  3
  12854  12853  12861  12864     1  0.0000000  1.0460000  1
  12854  12853  12861  12864     1  0.0000000  0.6694400  3
  12855  12854  12860  12866     1  0.0000000  1.0460000  1
  12855  12854  12860  12866     1  0.0000000  0.6694400  3
  12855  12854  12853  12857     1  0.0000000  0.6508444  3
  12856  12854  12855  12859     1  0.0000000  1.0460000  1
  12856  12854  12855  12859     1  0.0000000  0.0000000  3
  12856  12854  12855  12871     1  0.0000000  1.0460000  1
  12856  12854  12855  12871     1  0.0000000  0.0000000  3
  12856  12854  12855  12858     1  0.0000000  0.6508444  3
  12856  12854  12860  12866     1  0.0000000  0.6973333  3
  12856  12854  12853  12861     1  0.0000000  1.0460000  1
  12856  12854  12853  12861     1  0.0000000  0.0000000  3
  12856  12854  12853  12857     1  0.0000000  0.6508444  3
  12857  12853  12854  12860     1  0.0000000  1.0460000  1
  12857  12853  12854  12860     1  0.0000000  0.0000000  3
  12857  12853  12861  12864     1  0.0000000  0.6973333  3
  12857  12853  12850  12862     1  0.0000000  1.0460000  1
  12857  12853  12850  12862     1  0.0000000  0.0000000  3
  12858  12855  12854  12860     1  0.0000000  0.6508444  3
  12867  12863  12869  12870     1  0.0000000  0.6973333  3
  12867  12863  12849  12871     1  0.0000000  1.0460000  1
  12867  12863  12849  12871     1  0.0000000  0.0000000  3
  12868  12863  12869  12870     1  0.0000000  0.6973333  3
  12868  12863  12849  12871     1  0.0000000  1.0460000  1
  12868  12863  12849  12871     1  0.0000000  0.0000000  3
  12872  12873  12876  12880     1  0.0000000  0.6508444  3
  12872  12873  12885  12888     1  0.0000000  1.0460000  1
  12872  12873  12885  12888     1  0.0000000  0.6694400  3
  12872  12886  12892  12893     1  0.0000000  1.0460000  1
  12872  12886  12892  12893     1  0.0000000  0.6694400  3
  12872  12894  12878  12881     1  0.0000000  1.6038667  3
  12873  12872  12886  12890     1  0.0000000  0.6508444  3
  12873  12872  12886  12891     1  0.0000000  0.6508444  3
  12873  12876  12877  12879     1  0.0000000  0.6508444  3
  12873  12876  12884  12887     1  0.0000000  1.0460000  1
  12873  12876  12884  12887     1  0.0000000  0.6694400  3
  12874  12872  12873  12876     1  0.0000000  0.6508444  3
  12874  12872  12873  12885     1  0.0000000  1.0460000  1
  12874  12872  12873  12885     1  0.0000000  0.0000000  3
  12874  12872  12873  12875     1  0.0000000  0.6508444  3
  12874  12872  12886  12892     1  0.0000000  1.0460000  1
  12874  12872  12886  12892     1  0.0000000  0.0000000  3
  12874  12872  12886  12890     1  0.0000000  0.6508444  3
  12874  12872  12886  12891     1  0.0000000  0.6508444  3
  12874  12872  12894  12878     1  0.0000000  1.6038667  3
  12875  12873  12872  12886     1  0.0000000  0.6508444  3
  12875  12873  12872  12894     1  0.0000000  1.0460000  1
  12875  12873  12872  12894     1  0.0000000  0.0000000  3
  12875  12873  12876  12877     1  0.0000000  0.6508444  3
  12875  12873  12876  12884     1  0.0000000  1.0460000  1
  12875  12873  12876  12884     1  0.0000000  0.0000000  3
  12875  12873  12876  12880     1  0.0000000  0.6508444  3
  12875  12873  12885  12888     1  0.0000000  0.6973333  3
  12876  12873  12885  12888     1  0.0000000  1.0460000  1
  12876  12873  12885  12888     1  0.0000000  0.6694400  3
  12876  12877  12878  12881     1  0.0000000  0.6508444  3
  12876  12877  12883  12889     1  0.0000000  1.0460000  1
  12876  12877  12883  12889     1  0.0000000  0.6694400  3
  12877  12876  12884  12887     1  0.0000000  1.0460000  1
  12877  12876  12884  12887     1  0.0000000  0.6694400  3
  12878  12877  12876  12880     1  0.0000000  0.6508444  3
  12878  12877  12883  12889     1  0.0000000  1.0460000  1
  12878  12877  12883  12889     1  0.0000000  0.6694400  3
  12879  12877  12876  12884     1  0.0000000  1.0460000  1
  12879  12877  12876  12884     1  0.0000000  0.0000000  3
  12879  12877  12876  12880     1  0.0000000  0.6508444  3
  12879  12877  12878  12882     1  0.0000000  1.0460000  1
  12879  12877  12878  12882     1  0.0000000  0.0000000  3
  12879  12877  12878  12894     1  0.0000000  1.0460000  1
  12879  12877  12878  12894     1  0.0000000  0.0000000  3
  12879  12877  12878  12881     1  0.0000000  0.6508444  3
  12879  12877  12883  12889     1  0.0000000  0.6973333  3
  12880  12876  12873  12885     1  0.0000000  1.0460000  1
  12880  12876  12873  12885     1  0.0000000  0.0000000  3
  12880  12876  12877  12883     1  0.0000000  1.0460000  1
  12880  12876  12877  12883     1  0.0000000  0.0000000  3
  12880  12876  12884  12887     1  0.0000000  0.6973333  3
  12881  12878  12877  12883     1  0.0000000  0.6508444  3
  12890  12886  12872  12894     1  0.0000000  1.0460000  1
  12890  12886  12872  12894     1  0.0000000  0.0000000  3
  12890  12886  12892  12893     1  0.0000000  0.6973333  3
  12891  12886  12872  12894     1  0.0000000  1.0460000  1
  12891  12886  12872  12894     1  0.0000000  0.0000000  3
  12891  12886  12892  12893     1  0.0000000  0.6973333  3
  12895  12896  12899  12903     1  0.0000000  0.6508444  3
  12895  12896  12908  12911     1  0.0000000  1.0460000  1
  12895  12896  12908  12911     1  0.0000000  0.6694400  3
  12895  12909  12915  12916     1  0.0000000  1.0460000  1
  12895  12909  12915  12916     1  0.0000000  0.6694400  3
  12895  12917  12901  12904     1  0.0000000  1.6038667  3
  12896  12899  12900  12902     1  0.0000000  0.6508444  3
  12896  12899  12907  12910     1  0.0000000  1.0460000  1
  12896  12899  12907  12910     1  0.0000000  0.6694400  3
  12896  12895  12909  12913     1  0.0000000  0.6508444  3
  12896  12895  12909  12914     1  0.0000000  0.6508444  3
  12897  12895  12896  12899     1  0.0000000  0.6508444  3
  12897  12895  12896  12908     1  0.0000000  1.0460000  1
  12897  12895  12896  12908     1  0.0000000  0.0000000  3
  12897  12895  12896  12898     1  0.0000000  0.6508444  3
  12897  12895  12909  12915     1  0.0000000  1.0460000  1
  12897  12895  12909  12915     1  0.0000000  0.0000000  3
  12897  12895  12909  12913     1  0.0000000  0.6508444  3
  12897  12895  12909  12914     1  0.0000000  0.6508444  3
  12897  12895  12917  12901     1  0.0000000  1.6038667  3
  12898  12896  12899  12900     1  0.0000000  0.6508444  3
  12898  12896  12899  12907     1  0.0000000  1.0460000  1
  12898  12896  12899  12907     1  0.0000000  0.0000000  3
  12898  12896  12899  12903     1  0.0000000  0.6508444  3
  12898  12896  12908  12911     1  0.0000000  0.6973333  3
  12898  12896  12895  12909     1  0.0000000  0.6508444  3
  12898  12896  12895  12917     1  0.0000000  1.0460000  1
  12898  12896  12895  12917     1  0.0000000  0.0000000  3
  12899  12900  12901  12904     1  0.0000000  0.6508444  3
  12899  12900  12906  12912     1  0.0000000  1.0460000  1
  12899  12900  12906  12912     1  0.0000000  0.6694400  3
  12899  12896  12908  12911     1  0.0000000  1.0460000  1
  12899  12896  12908  12911     1  0.0000000  0.6694400  3
  12900  12899  12907  12910     1  0.0000000  1.0460000  1
  12900  12899  12907  12910     1  0.0000000  0.6694400  3
  12901  12900  12906  12912     1  0.0000000  1.0460000  1
  12901  12900  12906  12912     1  0.0000000  0.6694400  3
  12901  12900  12899  12903     1  0.0000000  0.6508444  3
  12902  12900  12901  12905     1  0.0000000  1.0460000  1
  12902  12900  12901  12905     1  0.0000000  0.0000000  3
  12902  12900  12901  12917     1  0.0000000  1.0460000  1
  12902  12900  12901  12917     1  0.0000000  0.0000000  3
  12902  12900  12901  12904     1  0.0000000  0.6508444  3
  12902  12900  12906  12912     1  0.0000000  0.6973333  3
  12902  12900  12899  12907     1  0.0000000  1.0460000  1
  12902  12900  12899  12907     1  0.0000000  0.0000000  3
  12902  12900  12899  12903     1  0.0000000  0.6508444  3
  12903  12899  12900  12906     1  0.0000000  1.0460000  1
  12903  12899  12900  12906     1  0.0000000  0.0000000  3
  12903  12899  12907  12910     1  0.0000000  0.6973333  3
  12903  12899  12896  12908     1  0.0000000  1.0460000  1
  12903  12899  12896  12908     1  0.0000000  0.0000000  3
  12904  12901  12900  12906     1  0.0000000  0.6508444  3
  12913  12909  12915  12916     1  0.0000000  0.6973333  3
  12913  12909  12895  12917     1  0.0000000  1.0460000  1
  12913  12909  12895  12917     1  0.0000000  0.0000000  3
  12914  12909  12915  12916     1  0.0000000  0.6973333  3
  12914  12909  12895  12917     1  0.0000000  1.0460000  1
  12914  12909  12895  12917     1  0.0000000  0.0000000  3
  12918  12919  12922  12926     1  0.0000000  0.6508444  3
  12918  12919  12931  12934     1  0.0000000  1.0460000  1
  12918  12919  12931  12934     1  0.0000000  0.6694400  3
  12918  12932  12938  12939     1  0.0000000  1.0460000  1
  12918  12932  12938  12939     1  0.0000000  0.6694400  3
  12918  12940  12924  12927     1  0.0000000  1.6038667  3
  12919  12918  12932  12936     1  0.0000000  0.6508444  3
  12919  12918  12932  12937     1  0.0000000  0.6508444  3
  12919  12922  12923  12925     1  0.0000000  0.6508444  3
  12919  12922  12930  12933     1  0.0000000  1.0460000  1
  12919  12922  12930  12933     1  0.0000000  0.6694400  3
  12920  12918  12919  12922     1  0.0000000  0.6508444  3
  12920  12918  12919  12931     1  0.0000000  1.0460000  1
  12920  12918  12919  12931     1  0.0000000  0.0000000  3
  12920  12918  12919  12921     1  0.0000000  0.6508444  3
  12920  12918  12932  12938     1  0.0000000  1.0460000  1
  12920  12918  12932  12938     1  0.0000000  0.0000000  3
  12920  12918  12932  12936     1  0.0000000  0.6508444  3
  12920  12918  12932  12937     1  0.0000000  0.6508444  3
  12920  12918  12940  12924     1  0.0000000  1.6038667  3
  12921  12919  12918  12932     1  0.0000000  0.6508444  3
  12921  12919  12918  12940     1  0.0000000  1.0460000  1
  12921  12919  12918  12940     1  0.0000000  0.0000000  3
  12921  12919  12922  12923     1  0.0000000  0.6508444  3
  12921  12919  12922  12930     1  0.0000000  1.0460000  1
  12921  12919  12922  12930     1  0.0000000  0.0000000  3
  12921  12919  12922  12926     1  0.0000000  0.6508444  3
  12921  12919  12931  12934     1  0.0000000  0.6973333  3
  12922  12919  12931  12934     1  0.0000000  1.0460000  1
  12922  12919  12931  12934     1  0.0000000  0.6694400  3
  12922  12923  12924  12927     1  0.0000000  0.6508444  3
  12922  12923  12929  12935     1  0.0000000  1.0460000  1
  12922  12923  12929  12935     1  0.0000000  0.6694400  3
  12923  12922  12930  12933     1  0.0000000  1.0460000  1
  12923  12922  12930  12933     1  0.0000000  0.6694400  3
  12924  12923  12922  12926     1  0.0000000  0.6508444  3
  12924  12923  12929  12935     1  0.0000000  1.0460000  1
  12924  12923  12929  12935     1  0.0000000  0.6694400  3
  12925  12923  12922  12930     1  0.0000000  1.0460000  1
  12925  12923  12922  12930     1  0.0000000  0.0000000  3
  12925  12923  12922  12926     1  0.0000000  0.6508444  3
  12925  12923  12924  12928     1  0.0000000  1.0460000  1
  12925  12923  12924  12928     1  0.0000000  0.0000000  3
  12925  12923  12924  12940     1  0.0000000  1.0460000  1
  12925  12923  12924  12940     1  0.0000000  0.0000000  3
  12925  12923  12924  12927     1  0.0000000  0.6508444  3
  12925  12923  12929  12935     1  0.0000000  0.6973333  3
  12926  12922  12919  12931     1  0.0000000  1.0460000  1
  12926  12922  12919  12931     1  0.0000000  0.0000000  3
  12926  12922  12923  12929     1  0.0000000  1.0460000  1
  12926  12922  12923  12929     1  0.0000000  0.0000000  3
  12926  12922  12930  12933     1  0.0000000  0.6973333  3
  12927  12924  12923  12929     1  0.0000000  0.6508444  3
  12936  12932  12918  12940     1  0.0000000  1.0460000  1
  12936  12932  12918  12940     1  0.0000000  0.0000000  3
  12936  12932  12938  12939     1  0.0000000  0.6973333  3
  12937  12932  12918  12940     1  0.0000000  1.0460000  1
  12937  12932  12918  12940     1  0.0000000  0.0000000  3
  12937  12932  12938  12939     1  0.0000000  0.6973333  3
  12941  12942  12945  12949     1  0.0000000  0.6508444  3
  12941  12942  12954  12957     1  0.0000000  1.0460000  1
  12941  12942  12954  12957     1  0.0000000  0.6694400  3
  12941  12955  12961  12962     1  0.0000000  1.0460000  1
  12941  12955  12961  12962     1  0.0000000  0.6694400  3
  12941  12963  12947  12950     1  0.0000000  1.6038667  3
  12942  12945  12946  12948     1  0.0000000  0.6508444  3
  12942  12945  12953  12956     1  0.0000000  1.0460000  1
  12942  12945  12953  12956     1  0.0000000  0.6694400  3
  12942  12941  12955  12959     1  0.0000000  0.6508444  3
  12942  12941  12955  12960     1  0.0000000  0.6508444  3
  12943  12941  12942  12945     1  0.0000000  0.6508444  3
  12943  12941  12942  12954     1  0.0000000  1.0460000  1
  12943  12941  12942  12954     1  0.0000000  0.0000000  3
  12943  12941  12942  12944     1  0.0000000  0.6508444  3
  12943  12941  12955  12961     1  0.0000000  1.0460000  1
  12943  12941  12955  12961     1  0.0000000  0.0000000  3
  12943  12941  12955  12959     1  0.0000000  0.6508444  3
  12943  12941  12955  12960     1  0.0000000  0.6508444  3
  12943  12941  12963  12947     1  0.0000000  1.6038667  3
  12944  12942  12945  12946     1  0.0000000  0.6508444  3
  12944  12942  12945  12953     1  0.0000000  1.0460000  1
  12944  12942  12945  12953     1  0.0000000  0.0000000  3
  12944  12942  12945  12949     1  0.0000000  0.6508444  3
  12944  12942  12954  12957     1  0.0000000  0.6973333  3
  12944  12942  12941  12955     1  0.0000000  0.6508444  3
  12944  12942  12941  12963     1  0.0000000  1.0460000  1
  12944  12942  12941  12963     1  0.0000000  0.0000000  3
  12945  12946  12947  12950     1  0.0000000  0.6508444  3
  12945  12946  12952  12958     1  0.0000000  1.0460000  1
  12945  12946  12952  12958     1  0.0000000  0.6694400  3
  12945  12942  12954  12957     1  0.0000000  1.0460000  1
  12945  12942  12954  12957     1  0.0000000  0.6694400  3
  12946  12945  12953  12956     1  0.0000000  1.0460000  1
  12946  12945  12953  12956     1  0.0000000  0.6694400  3
  12947  12946  12952  12958     1  0.0000000  1.0460000  1
  12947  12946  12952  12958     1  0.0000000  0.6694400  3
  12947  12946  12945  12949     1  0.0000000  0.6508444  3
  12948  12946  12947  12951     1  0.0000000  1.0460000  1
  12948  12946  12947  12951     1  0.0000000  0.0000000  3
  12948  12946  12947  12963     1  0.0000000  1.0460000  1
  12948  12946  12947  12963     1  0.0000000  0.0000000  3
  12948  12946  12947  12950     1  0.0000000  0.6508444  3
  12948  12946  12952  12958     1  0.0000000  0.6973333  3
  12948  12946  12945  12953     1  0.0000000  1.0460000  1
  12948  12946  12945  12953     1  0.0000000  0.0000000  3
  12948  12946  12945  12949     1  0.0000000  0.6508444  3
  12949  12945  12946  12952     1  0.0000000  1.0460000  1
  12949  12945  12946  12952     1  0.0000000  0.0000000  3
  12949  12945  12953  12956     1  0.0000000  0.6973333  3
  12949  12945  12942  12954     1  0.0000000  1.0460000  1
  12949  12945  12942  12954     1  0.0000000  0.0000000  3
  12950  12947  12946  12952     1  0.0000000  0.6508444  3
  12959  12955  12961  12962     1  0.0000000  0.6973333  3
  12959  12955  12941  12963     1  0.0000000  1.0460000  1
  12959  12955  12941  12963     1  0.0000000  0.0000000  3
  12960  12955  12961  12962     1  0.0000000  0.6973333  3
  12960  12955  12941  12963     1  0.0000000  1.0460000  1
  12960  12955  12941  12963     1  0.0000000  0.0000000  3
  12964  12965  12968  12972     1  0.0000000  0.6508444  3
  12964  12965  12977  12980     1  0.0000000  1.0460000  1
  12964  12965  12977  12980     1  0.0000000  0.6694400  3
  12964  12978  12984  12985     1  0.0000000  1.0460000  1
  12964  12978  12984  12985     1  0.0000000  0.6694400  3
  12964  12986  12970  12973     1  0.0000000  1.6038667  3
  12965  12964  12978  12982     1  0.0000000  0.6508444  3
  12965  12964  12978  12983     1  0.0000000  0.6508444  3
  12965  12968  12969  12971     1  0.0000000  0.6508444  3
  12965  12968  12976  12979     1  0.0000000  1.0460000  1
  12965  12968  12976  12979     1  0.0000000  0.6694400  3
  12966  12964  12965  12968     1  0.0000000  0.6508444  3
  12966  12964  12965  12977     1  0.0000000  1.0460000  1
  12966  12964  12965  12977     1  0.0000000  0.0000000  3
  12966  12964  12965  12967     1  0.0000000  0.6508444  3
  12966  12964  12978  12984     1  0.0000000  1.0460000  1
  12966  12964  12978  12984     1  0.0000000  0.0000000  3
  12966  12964  12978  12982     1  0.0000000  0.6508444  3
  12966  12964  12978  12983     1  0.0000000  0.6508444  3
  12966  12964  12986  12970     1  0.0000000  1.6038667  3
  12967  12965  12964  12978     1  0.0000000  0.6508444  3
  12967  12965  12964  12986     1  0.0000000  1.0460000  1
  12967  12965  12964  12986     1  0.0000000  0.0000000  3
  12967  12965  12968  12969     1  0.0000000  0.6508444  3
  12967  12965  12968  12976     1  0.0000000  1.0460000  1
  12967  12965  12968  12976     1  0.0000000  0.0000000  3
  12967  12965  12968  12972     1  0.0000000  0.6508444  3
  12967  12965  12977  12980     1  0.0000000  0.6973333  3
  12968  12965  12977  12980     1  0.0000000  1.0460000  1
  12968  12965  12977  12980     1  0.0000000  0.6694400  3
  12968  12969  12970  12973     1  0.0000000  0.6508444  3
  12968  12969  12975  12981     1  0.0000000  1.0460000  1
  12968  12969  12975  12981     1  0.0000000  0.6694400  3
  12969  12968  12976  12979     1  0.0000000  1.0460000  1
  12969  12968  12976  12979     1  0.0000000  0.6694400  3
  12970  12969  12968  12972     1  0.0000000  0.6508444  3
  12970  12969  12975  12981     1  0.0000000  1.0460000  1
  12970  12969  12975  12981     1  0.0000000  0.6694400  3
  12971  12969  12968  12976     1  0.0000000  1.0460000  1
  12971  12969  12968  12976     1  0.0000000  0.0000000  3
  12971  12969  12968  12972     1  0.0000000  0.6508444  3
  12971  12969  12970  12974     1  0.0000000  1.0460000  1
  12971  12969  12970  12974     1  0.0000000  0.0000000  3
  12971  12969  12970  12986     1  0.0000000  1.0460000  1
  12971  12969  12970  12986     1  0.0000000  0.0000000  3
  12971  12969  12970  12973     1  0.0000000  0.6508444  3
  12971  12969  12975  12981     1  0.0000000  0.6973333  3
  12972  12968  12965  12977     1  0.0000000  1.0460000  1
  12972  12968  12965  12977     1  0.0000000  0.0000000  3
  12972  12968  12969  12975     1  0.0000000  1.0460000  1
  12972  12968  12969  12975     1  0.0000000  0.0000000  3
  12972  12968  12976  12979     1  0.0000000  0.6973333  3
  12973  12970  12969  12975     1  0.0000000  0.6508444  3
  12982  12978  12964  12986     1  0.0000000  1.0460000  1
  12982  12978  12964  12986     1  0.0000000  0.0000000  3
  12982  12978  12984  12985     1  0.0000000  0.6973333  3
  12983  12978  12964  12986     1  0.0000000  1.0460000  1
  12983  12978  12964  12986     1  0.0000000  0.0000000  3
  12983  12978  12984  12985     1  0.0000000  0.6973333  3
  12987  12988  12991  12995     1  0.0000000  0.6508444  3
  12987  12988  13000  13003     1  0.0000000  1.0460000  1
  12987  12988  13000  13003     1  0.0000000  0.6694400  3
  12987  13001  13007  13008     1  0.0000000  1.0460000  1
  12987  13001  13007  13008     1  0.0000000  0.6694400  3
  12987  13009  12993  12996     1  0.0000000  1.6038667  3
  12988  12991  12992  12994     1  0.0000000  0.6508444  3
  12988  12991  12999  13002     1  0.0000000  1.0460000  1
  12988  12991  12999  13002     1  0.0000000  0.6694400  3
  12988  12987  13001  13005     1  0.0000000  0.6508444  3
  12988  12987  13001  13006     1  0.0000000  0.6508444  3
  12989  12987  12988  12991     1  0.0000000  0.6508444  3
  12989  12987  12988  13000     1  0.0000000  1.0460000  1
  12989  12987  12988  13000     1  0.0000000  0.0000000  3
  12989  12987  12988  12990     1  0.0000000  0.6508444  3
  12989  12987  13001  13007     1  0.0000000  1.0460000  1
  12989  12987  13001  13007     1  0.0000000  0.0000000  3
  12989  12987  13001  13005     1  0.0000000  0.6508444  3
  12989  12987  13001  13006     1  0.0000000  0.6508444  3
  12989  12987  13009  12993     1  0.0000000  1.6038667  3
  12990  12988  12991  12992     1  0.0000000  0.6508444  3
  12990  12988  12991  12999     1  0.0000000  1.0460000  1
  12990  12988  12991  12999     1  0.0000000  0.0000000  3
  12990  12988  12991  12995     1  0.0000000  0.6508444  3
  12990  12988  13000  13003     1  0.0000000  0.6973333  3
  12990  12988  12987  13001     1  0.0000000  0.6508444  3
  12990  12988  12987  13009     1  0.0000000  1.0460000  1
  12990  12988  12987  13009     1  0.0000000  0.0000000  3
  12991  12992  12993  12996     1  0.0000000  0.6508444  3
  12991  12992  12998  13004     1  0.0000000  1.0460000  1
  12991  12992  12998  13004     1  0.0000000  0.6694400  3
  12991  12988  13000  13003     1  0.0000000  1.0460000  1
  12991  12988  13000  13003     1  0.0000000  0.6694400  3
  12992  12991  12999  13002     1  0.0000000  1.0460000  1
  12992  12991  12999  13002     1  0.0000000  0.6694400  3
  12993  12992  12998  13004     1  0.0000000  1.0460000  1
  12993  12992  12998  13004     1  0.0000000  0.6694400  3
  12993  12992  12991  12995     1  0.0000000  0.6508444  3
  12994  12992  12993  12997     1  0.0000000  1.0460000  1
  12994  12992  12993  12997     1  0.0000000  0.0000000  3
  12994  12992  12993  13009     1  0.0000000  1.0460000  1
  12994  12992  12993  13009     1  0.0000000  0.0000000  3
  12994  12992  12993  12996     1  0.0000000  0.6508444  3
  12994  12992  12998  13004     1  0.0000000  0.6973333  3
  12994  12992  12991  12999     1  0.0000000  1.0460000  1
  12994  12992  12991  12999     1  0.0000000  0.0000000  3
  12994  12992  12991  12995     1  0.0000000  0.6508444  3
  12995  12991  12992  12998     1  0.0000000  1.0460000  1
  12995  12991  12992  12998     1  0.0000000  0.0000000  3
  12995  12991  12999  13002     1  0.0000000  0.6973333  3
  12995  12991  12988  13000     1  0.0000000  1.0460000  1
  12995  12991  12988  13000     1  0.0000000  0.0000000  3
  12996  12993  12992  12998     1  0.0000000  0.6508444  3
  13005  13001  13007  13008     1  0.0000000  0.6973333  3
  13005  13001  12987  13009     1  0.0000000  1.0460000  1
  13005  13001  12987  13009     1  0.0000000  0.0000000  3
  13006  13001  13007  13008     1  0.0000000  0.6973333  3
  13006  13001  12987  13009     1  0.0000000  1.0460000  1
  13006  13001  12987  13009     1  0.0000000  0.0000000  3
  13010  13011  13014  13018     1  0.0000000  0.6508444  3
  13010  13011  13023  13026     1  0.0000000  1.0460000  1
  13010  13011  13023  13026     1  0.0000000  0.6694400  3
  13010  13024  13030  13031     1  0.0000000  1.0460000  1
  13010  13024  13030  13031     1  0.0000000  0.6694400  3
  13010  13032  13016  13019     1  0.0000000  1.6038667  3
  13011  13010  13024  13028     1  0.0000000  0.6508444  3
  13011  13010  13024  13029     1  0.0000000  0.6508444  3
  13011  13014  13015  13017     1  0.0000000  0.6508444  3
  13011  13014  13022  13025     1  0.0000000  1.0460000  1
  13011  13014  13022  13025     1  0.0000000  0.6694400  3
  13012  13010  13011  13014     1  0.0000000  0.6508444  3
  13012  13010  13011  13023     1  0.0000000  1.0460000  1
  13012  13010  13011  13023     1  0.0000000  0.0000000  3
  13012  13010  13011  13013     1  0.0000000  0.6508444  3
  13012  13010  13024  13030     1  0.0000000  1.0460000  1
  13012  13010  13024  13030     1  0.0000000  0.0000000  3
  13012  13010  13024  13028     1  0.0000000  0.6508444  3
  13012  13010  13024  13029     1  0.0000000  0.6508444  3
  13012  13010  13032  13016     1  0.0000000  1.6038667  3
  13013  13011  13010  13024     1  0.0000000  0.6508444  3
  13013  13011  13010  13032     1  0.0000000  1.0460000  1
  13013  13011  13010  13032     1  0.0000000  0.0000000  3
  13013  13011  13014  13015     1  0.0000000  0.6508444  3
  13013  13011  13014  13022     1  0.0000000  1.0460000  1
  13013  13011  13014  13022     1  0.0000000  0.0000000  3
  13013  13011  13014  13018     1  0.0000000  0.6508444  3
  13013  13011  13023  13026     1  0.0000000  0.6973333  3
  13014  13011  13023  13026     1  0.0000000  1.0460000  1
  13014  13011  13023  13026     1  0.0000000  0.6694400  3
  13014  13015  13016  13019     1  0.0000000  0.6508444  3
  13014  13015  13021  13027     1  0.0000000  1.0460000  1
  13014  13015  13021  13027     1  0.0000000  0.6694400  3
  13015  13014  13022  13025     1  0.0000000  1.0460000  1
  13015  13014  13022  13025     1  0.0000000  0.6694400  3
  13016  13015  13014  13018     1  0.0000000  0.6508444  3
  13016  13015  13021  13027     1  0.0000000  1.0460000  1
  13016  13015  13021  13027     1  0.0000000  0.6694400  3
  13017  13015  13014  13022     1  0.0000000  1.0460000  1
  13017  13015  13014  13022     1  0.0000000  0.0000000  3
  13017  13015  13014  13018     1  0.0000000  0.6508444  3
  13017  13015  13016  13020     1  0.0000000  1.0460000  1
  13017  13015  13016  13020     1  0.0000000  0.0000000  3
  13017  13015  13016  13032     1  0.0000000  1.0460000  1
  13017  13015  13016  13032     1  0.0000000  0.0000000  3
  13017  13015  13016  13019     1  0.0000000  0.6508444  3
  13017  13015  13021  13027     1  0.0000000  0.6973333  3
  13018  13014  13011  13023     1  0.0000000  1.0460000  1
  13018  13014  13011  13023     1  0.0000000  0.0000000  3
  13018  13014  13015  13021     1  0.0000000  1.0460000  1
  13018  13014  13015  13021     1  0.0000000  0.0000000  3
  13018  13014  13022  13025     1  0.0000000  0.6973333  3
  13019  13016  13015  13021     1  0.0000000  0.6508444  3
  13028  13024  13010  13032     1  0.0000000  1.0460000  1
  13028  13024  13010  13032     1  0.0000000  0.0000000  3
  13028  13024  13030  13031     1  0.0000000  0.6973333  3
  13029  13024  13010  13032     1  0.0000000  1.0460000  1
  13029  13024  13010  13032     1  0.0000000  0.0000000  3
  13029  13024  13030  13031     1  0.0000000  0.6973333  3
  13033  13034  13037  13041     1  0.0000000  0.6508444  3
  13033  13034  13046  13049     1  0.0000000  1.0460000  1
  13033  13034  13046  13049     1  0.0000000  0.6694400  3
  13033  13047  13053  13054     1  0.0000000  1.0460000  1
  13033  13047  13053  13054     1  0.0000000  0.6694400  3
  13033  13055  13039  13042     1  0.0000000  1.6038667  3
  13034  13037  13038  13040     1  0.0000000  0.6508444  3
  13034  13037  13045  13048     1  0.0000000  1.0460000  1
  13034  13037  13045  13048     1  0.0000000  0.6694400  3
  13034  13033  13047  13051     1  0.0000000  0.6508444  3
  13034  13033  13047  13052     1  0.0000000  0.6508444  3
  13035  13033  13034  13037     1  0.0000000  0.6508444  3
  13035  13033  13034  13046     1  0.0000000  1.0460000  1
  13035  13033  13034  13046     1  0.0000000  0.0000000  3
  13035  13033  13034  13036     1  0.0000000  0.6508444  3
  13035  13033  13047  13053     1  0.0000000  1.0460000  1
  13035  13033  13047  13053     1  0.0000000  0.0000000  3
  13035  13033  13047  13051     1  0.0000000  0.6508444  3
  13035  13033  13047  13052     1  0.0000000  0.6508444  3
  13035  13033  13055  13039     1  0.0000000  1.6038667  3
  13036  13034  13037  13038     1  0.0000000  0.6508444  3
  13036  13034  13037  13045     1  0.0000000  1.0460000  1
  13036  13034  13037  13045     1  0.0000000  0.0000000  3
  13036  13034  13037  13041     1  0.0000000  0.6508444  3
  13036  13034  13046  13049     1  0.0000000  0.6973333  3
  13036  13034  13033  13047     1  0.0000000  0.6508444  3
  13036  13034  13033  13055     1  0.0000000  1.0460000  1
  13036  13034  13033  13055     1  0.0000000  0.0000000  3
  13037  13038  13039  13042     1  0.0000000  0.6508444  3
  13037  13038  13044  13050     1  0.0000000  1.0460000  1
  13037  13038  13044  13050     1  0.0000000  0.6694400  3
  13037  13034  13046  13049     1  0.0000000  1.0460000  1
  13037  13034  13046  13049     1  0.0000000  0.6694400  3
  13038  13037  13045  13048     1  0.0000000  1.0460000  1
  13038  13037  13045  13048     1  0.0000000  0.6694400  3
  13039  13038  13044  13050     1  0.0000000  1.0460000  1
  13039  13038  13044  13050     1  0.0000000  0.6694400  3
  13039  13038  13037  13041     1  0.0000000  0.6508444  3
  13040  13038  13039  13043     1  0.0000000  1.0460000  1
  13040  13038  13039  13043     1  0.0000000  0.0000000  3
  13040  13038  13039  13055     1  0.0000000  1.0460000  1
  13040  13038  13039  13055     1  0.0000000  0.0000000  3
  13040  13038  13039  13042     1  0.0000000  0.6508444  3
  13040  13038  13044  13050     1  0.0000000  0.6973333  3
  13040  13038  13037  13045     1  0.0000000  1.0460000  1
  13040  13038  13037  13045     1  0.0000000  0.0000000  3
  13040  13038  13037  13041     1  0.0000000  0.6508444  3
  13041  13037  13038  13044     1  0.0000000  1.0460000  1
  13041  13037  13038  13044     1  0.0000000  0.0000000  3
  13041  13037  13045  13048     1  0.0000000  0.6973333  3
  13041  13037  13034  13046     1  0.0000000  1.0460000  1
  13041  13037  13034  13046     1  0.0000000  0.0000000  3
  13042  13039  13038  13044     1  0.0000000  0.6508444  3
  13051  13047  13053  13054     1  0.0000000  0.6973333  3
  13051  13047  13033  13055     1  0.0000000  1.0460000  1
  13051  13047  13033  13055     1  0.0000000  0.0000000  3
  13052  13047  13053  13054     1  0.0000000  0.6973333  3
  13052  13047  13033  13055     1  0.0000000  1.0460000  1
  13052  13047  13033  13055     1  0.0000000  0.0000000  3
  13056  13057  13060  13064     1  0.0000000  0.6508444  3
  13056  13057  13069  13072     1  0.0000000  1.0460000  1
  13056  13057  13069  13072     1  0.0000000  0.6694400  3
  13056  13070  13076  13077     1  0.0000000  1.0460000  1
  13056  13070  13076  13077     1  0.0000000  0.6694400  3
  13056  13078  13062  13065     1  0.0000000  1.6038667  3
  13057  13056  13070  13074     1  0.0000000  0.6508444  3
  13057  13056  13070  13075     1  0.0000000  0.6508444  3
  13057  13060  13061  13063     1  0.0000000  0.6508444  3
  13057  13060  13068  13071     1  0.0000000  1.0460000  1
  13057  13060  13068  13071     1  0.0000000  0.6694400  3
  13058  13056  13057  13060     1  0.0000000  0.6508444  3
  13058  13056  13057  13069     1  0.0000000  1.0460000  1
  13058  13056  13057  13069     1  0.0000000  0.0000000  3
  13058  13056  13057  13059     1  0.0000000  0.6508444  3
  13058  13056  13070  13076     1  0.0000000  1.0460000  1
  13058  13056  13070  13076     1  0.0000000  0.0000000  3
  13058  13056  13070  13074     1  0.0000000  0.6508444  3
  13058  13056  13070  13075     1  0.0000000  0.6508444  3
  13058  13056  13078  13062     1  0.0000000  1.6038667  3
  13059  13057  13056  13070     1  0.0000000  0.6508444  3
  13059  13057  13056  13078     1  0.0000000  1.0460000  1
  13059  13057  13056  13078     1  0.0000000  0.0000000  3
  13059  13057  13060  13061     1  0.0000000  0.6508444  3
  13059  13057  13060  13068     1  0.0000000  1.0460000  1
  13059  13057  13060  13068     1  0.0000000  0.0000000  3
  13059  13057  13060  13064     1  0.0000000  0.6508444  3
  13059  13057  13069  13072     1  0.0000000  0.6973333  3
  13060  13057  13069  13072     1  0.0000000  1.0460000  1
  13060  13057  13069  13072     1  0.0000000  0.6694400  3
  13060  13061  13062  13065     1  0.0000000  0.6508444  3
  13060  13061  13067  13073     1  0.0000000  1.0460000  1
  13060  13061  13067  13073     1  0.0000000  0.6694400  3
  13061  13060  13068  13071     1  0.0000000  1.0460000  1
  13061  13060  13068  13071     1  0.0000000  0.6694400  3
  13062  13061  13060  13064     1  0.0000000  0.6508444  3
  13062  13061  13067  13073     1  0.0000000  1.0460000  1
  13062  13061  13067  13073     1  0.0000000  0.6694400  3
  13063  13061  13060  13068     1  0.0000000  1.0460000  1
  13063  13061  13060  13068     1  0.0000000  0.0000000  3
  13063  13061  13060  13064     1  0.0000000  0.6508444  3
  13063  13061  13062  13066     1  0.0000000  1.0460000  1
  13063  13061  13062  13066     1  0.0000000  0.0000000  3
  13063  13061  13062  13078     1  0.0000000  1.0460000  1
  13063  13061  13062  13078     1  0.0000000  0.0000000  3
  13063  13061  13062  13065     1  0.0000000  0.6508444  3
  13063  13061  13067  13073     1  0.0000000  0.6973333  3
  13064  13060  13057  13069     1  0.0000000  1.0460000  1
  13064  13060  13057  13069     1  0.0000000  0.0000000  3
  13064  13060  13061  13067     1  0.0000000  1.0460000  1
  13064  13060  13061  13067     1  0.0000000  0.0000000  3
  13064  13060  13068  13071     1  0.0000000  0.6973333  3
  13065  13062  13061  13067     1  0.0000000  0.6508444  3
  13074  13070  13056  13078     1  0.0000000  1.0460000  1
  13074  13070  13056  13078     1  0.0000000  0.0000000  3
  13074  13070  13076  13077     1  0.0000000  0.6973333  3
  13075  13070  13056  13078     1  0.0000000  1.0460000  1
  13075  13070  13056  13078     1  0.0000000  0.0000000  3
  13075  13070  13076  13077     1  0.0000000  0.6973333  3
  13079  13080  13083  13087     1  0.0000000  0.6508444  3
  13079  13080  13092  13095     1  0.0000000  1.0460000  1
  13079  13080  13092  13095     1  0.0000000  0.6694400  3
  13079  13093  13099  13100     1  0.0000000  1.0460000  1
  13079  13093  13099  13100     1  0.0000000  0.6694400  3
  13079  13101  13085  13088     1  0.0000000  1.6038667  3
  13080  13083  13084  13086     1  0.0000000  0.6508444  3
  13080  13083  13091  13094     1  0.0000000  1.0460000  1
  13080  13083  13091  13094     1  0.0000000  0.6694400  3
  13080  13079  13093  13097     1  0.0000000  0.6508444  3
  13080  13079  13093  13098     1  0.0000000  0.6508444  3
  13081  13079  13080  13083     1  0.0000000  0.6508444  3
  13081  13079  13080  13092     1  0.0000000  1.0460000  1
  13081  13079  13080  13092     1  0.0000000  0.0000000  3
  13081  13079  13080  13082     1  0.0000000  0.6508444  3
  13081  13079  13093  13099     1  0.0000000  1.0460000  1
  13081  13079  13093  13099     1  0.0000000  0.0000000  3
  13081  13079  13093  13097     1  0.0000000  0.6508444  3
  13081  13079  13093  13098     1  0.0000000  0.6508444  3
  13081  13079  13101  13085     1  0.0000000  1.6038667  3
  13082  13080  13083  13084     1  0.0000000  0.6508444  3
  13082  13080  13083  13091     1  0.0000000  1.0460000  1
  13082  13080  13083  13091     1  0.0000000  0.0000000  3
  13082  13080  13083  13087     1  0.0000000  0.6508444  3
  13082  13080  13092  13095     1  0.0000000  0.6973333  3
  13082  13080  13079  13093     1  0.0000000  0.6508444  3
  13082  13080  13079  13101     1  0.0000000  1.0460000  1
  13082  13080  13079  13101     1  0.0000000  0.0000000  3
  13083  13084  13085  13088     1  0.0000000  0.6508444  3
  13083  13084  13090  13096     1  0.0000000  1.0460000  1
  13083  13084  13090  13096     1  0.0000000  0.6694400  3
  13083  13080  13092  13095     1  0.0000000  1.0460000  1
  13083  13080  13092  13095     1  0.0000000  0.6694400  3
  13084  13083  13091  13094     1  0.0000000  1.0460000  1
  13084  13083  13091  13094     1  0.0000000  0.6694400  3
  13085  13084  13090  13096     1  0.0000000  1.0460000  1
  13085  13084  13090  13096     1  0.0000000  0.6694400  3
  13085  13084  13083  13087     1  0.0000000  0.6508444  3
  13086  13084  13085  13089     1  0.0000000  1.0460000  1
  13086  13084  13085  13089     1  0.0000000  0.0000000  3
  13086  13084  13085  13101     1  0.0000000  1.0460000  1
  13086  13084  13085  13101     1  0.0000000  0.0000000  3
  13086  13084  13085  13088     1  0.0000000  0.6508444  3
  13086  13084  13090  13096     1  0.0000000  0.6973333  3
  13086  13084  13083  13091     1  0.0000000  1.0460000  1
  13086  13084  13083  13091     1  0.0000000  0.0000000  3
  13086  13084  13083  13087     1  0.0000000  0.6508444  3
  13087  13083  13084  13090     1  0.0000000  1.0460000  1
  13087  13083  13084  13090     1  0.0000000  0.0000000  3
  13087  13083  13091  13094     1  0.0000000  0.6973333  3
  13087  13083  13080  13092     1  0.0000000  1.0460000  1
  13087  13083  13080  13092     1  0.0000000  0.0000000  3
  13088  13085  13084  13090     1  0.0000000  0.6508444  3
  13097  13093  13099  13100     1  0.0000000  0.6973333  3
  13097  13093  13079  13101     1  0.0000000  1.0460000  1
  13097  13093  13079  13101     1  0.0000000  0.0000000  3
  13098  13093  13099  13100     1  0.0000000  0.6973333  3
  13098  13093  13079  13101     1  0.0000000  1.0460000  1
  13098  13093  13079  13101     1  0.0000000  0.0000000  3
  13102  13103  13106  13110     1  0.0000000  0.6508444  3
  13102  13103  13115  13118     1  0.0000000  1.0460000  1
  13102  13103  13115  13118     1  0.0000000  0.6694400  3
  13102  13116  13122  13123     1  0.0000000  1.0460000  1
  13102  13116  13122  13123     1  0.0000000  0.6694400  3
  13102  13124  13108  13111     1  0.0000000  1.6038667  3
  13103  13102  13116  13120     1  0.0000000  0.6508444  3
  13103  13102  13116  13121     1  0.0000000  0.6508444  3
  13103  13106  13107  13109     1  0.0000000  0.6508444  3
  13103  13106  13114  13117     1  0.0000000  1.0460000  1
  13103  13106  13114  13117     1  0.0000000  0.6694400  3
  13104  13102  13103  13106     1  0.0000000  0.6508444  3
  13104  13102  13103  13115     1  0.0000000  1.0460000  1
  13104  13102  13103  13115     1  0.0000000  0.0000000  3
  13104  13102  13103  13105     1  0.0000000  0.6508444  3
  13104  13102  13116  13122     1  0.0000000  1.0460000  1
  13104  13102  13116  13122     1  0.0000000  0.0000000  3
  13104  13102  13116  13120     1  0.0000000  0.6508444  3
  13104  13102  13116  13121     1  0.0000000  0.6508444  3
  13104  13102  13124  13108     1  0.0000000  1.6038667  3
  13105  13103  13102  13116     1  0.0000000  0.6508444  3
  13105  13103  13102  13124     1  0.0000000  1.0460000  1
  13105  13103  13102  13124     1  0.0000000  0.0000000  3
  13105  13103  13106  13107     1  0.0000000  0.6508444  3
  13105  13103  13106  13114     1  0.0000000  1.0460000  1
  13105  13103  13106  13114     1  0.0000000  0.0000000  3
  13105  13103  13106  13110     1  0.0000000  0.6508444  3
  13105  13103  13115  13118     1  0.0000000  0.6973333  3
  13106  13103  13115  13118     1  0.0000000  1.0460000  1
  13106  13103  13115  13118     1  0.0000000  0.6694400  3
  13106  13107  13108  13111     1  0.0000000  0.6508444  3
  13106  13107  13113  13119     1  0.0000000  1.0460000  1
  13106  13107  13113  13119     1  0.0000000  0.6694400  3
  13107  13106  13114  13117     1  0.0000000  1.0460000  1
  13107  13106  13114  13117     1  0.0000000  0.6694400  3
  13108  13107  13106  13110     1  0.0000000  0.6508444  3
  13108  13107  13113  13119     1  0.0000000  1.0460000  1
  13108  13107  13113  13119     1  0.0000000  0.6694400  3
  13109  13107  13106  13114     1  0.0000000  1.0460000  1
  13109  13107  13106  13114     1  0.0000000  0.0000000  3
  13109  13107  13106  13110     1  0.0000000  0.6508444  3
  13109  13107  13108  13112     1  0.0000000  1.0460000  1
  13109  13107  13108  13112     1  0.0000000  0.0000000  3
  13109  13107  13108  13124     1  0.0000000  1.0460000  1
  13109  13107  13108  13124     1  0.0000000  0.0000000  3
  13109  13107  13108  13111     1  0.0000000  0.6508444  3
  13109  13107  13113  13119     1  0.0000000  0.6973333  3
  13110  13106  13103  13115     1  0.0000000  1.0460000  1
  13110  13106  13103  13115     1  0.0000000  0.0000000  3
  13110  13106  13107  13113     1  0.0000000  1.0460000  1
  13110  13106  13107  13113     1  0.0000000  0.0000000  3
  13110  13106  13114  13117     1  0.0000000  0.6973333  3
  13111  13108  13107  13113     1  0.0000000  0.6508444  3
  13120  13116  13102  13124     1  0.0000000  1.0460000  1
  13120  13116  13102  13124     1  0.0000000  0.0000000  3
  13120  13116  13122  13123     1  0.0000000  0.6973333  3
  13121  13116  13102  13124     1  0.0000000  1.0460000  1
  13121  13116  13102  13124     1  0.0000000  0.0000000  3
  13121  13116  13122  13123     1  0.0000000  0.6973333  3
  13125  13126  13129  13133     1  0.0000000  0.6508444  3
  13125  13126  13138  13141     1  0.0000000  1.0460000  1
  13125  13126  13138  13141     1  0.0000000  0.6694400  3
  13125  13139  13145  13146     1  0.0000000  1.0460000  1
  13125  13139  13145  13146     1  0.0000000  0.6694400  3
  13125  13147  13131  13134     1  0.0000000  1.6038667  3
  13126  13129  13130  13132     1  0.0000000  0.6508444  3
  13126  13129  13137  13140     1  0.0000000  1.0460000  1
  13126  13129  13137  13140     1  0.0000000  0.6694400  3
  13126  13125  13139  13143     1  0.0000000  0.6508444  3
  13126  13125  13139  13144     1  0.0000000  0.6508444  3
  13127  13125  13126  13129     1  0.0000000  0.6508444  3
  13127  13125  13126  13138     1  0.0000000  1.0460000  1
  13127  13125  13126  13138     1  0.0000000  0.0000000  3
  13127  13125  13126  13128     1  0.0000000  0.6508444  3
  13127  13125  13139  13145     1  0.0000000  1.0460000  1
  13127  13125  13139  13145     1  0.0000000  0.0000000  3
  13127  13125  13139  13143     1  0.0000000  0.6508444  3
  13127  13125  13139  13144     1  0.0000000  0.6508444  3
  13127  13125  13147  13131     1  0.0000000  1.6038667  3
  13128  13126  13129  13130     1  0.0000000  0.6508444  3
  13128  13126  13129  13137     1  0.0000000  1.0460000  1
  13128  13126  13129  13137     1  0.0000000  0.0000000  3
  13128  13126  13129  13133     1  0.0000000  0.6508444  3
  13128  13126  13138  13141     1  0.0000000  0.6973333  3
  13128  13126  13125  13139     1  0.0000000  0.6508444  3
  13128  13126  13125  13147     1  0.0000000  1.0460000  1
  13128  13126  13125  13147     1  0.0000000  0.0000000  3
  13129  13130  13131  13134     1  0.0000000  0.6508444  3
  13129  13130  13136  13142     1  0.0000000  1.0460000  1
  13129  13130  13136  13142     1  0.0000000  0.6694400  3
  13129  13126  13138  13141     1  0.0000000  1.0460000  1
  13129  13126  13138  13141     1  0.0000000  0.6694400  3
  13130  13129  13137  13140     1  0.0000000  1.0460000  1
  13130  13129  13137  13140     1  0.0000000  0.6694400  3
  13131  13130  13136  13142     1  0.0000000  1.0460000  1
  13131  13130  13136  13142     1  0.0000000  0.6694400  3
  13131  13130  13129  13133     1  0.0000000  0.6508444  3
  13132  13130  13131  13135     1  0.0000000  1.0460000  1
  13132  13130  13131  13135     1  0.0000000  0.0000000  3
  13132  13130  13131  13147     1  0.0000000  1.0460000  1
  13132  13130  13131  13147     1  0.0000000  0.0000000  3
  13132  13130  13131  13134     1  0.0000000  0.6508444  3
  13132  13130  13136  13142     1  0.0000000  0.6973333  3
  13132  13130  13129  13137     1  0.0000000  1.0460000  1
  13132  13130  13129  13137     1  0.0000000  0.0000000  3
  13132  13130  13129  13133     1  0.0000000  0.6508444  3
  13133  13129  13130  13136     1  0.0000000  1.0460000  1
  13133  13129  13130  13136     1  0.0000000  0.0000000  3
  13133  13129  13137  13140     1  0.0000000  0.6973333  3
  13133  13129  13126  13138     1  0.0000000  1.0460000  1
  13133  13129  13126  13138     1  0.0000000  0.0000000  3
  13134  13131  13130  13136     1  0.0000000  0.6508444  3
  13143  13139  13145  13146     1  0.0000000  0.6973333  3
  13143  13139  13125  13147     1  0.0000000  1.0460000  1
  13143  13139  13125  13147     1  0.0000000  0.0000000  3
  13144  13139  13145  13146     1  0.0000000  0.6973333  3
  13144  13139  13125  13147     1  0.0000000  1.0460000  1
  13144  13139  13125  13147     1  0.0000000  0.0000000  3
  13148  13149  13152  13156     1  0.0000000  0.6508444  3
  13148  13149  13161  13164     1  0.0000000  1.0460000  1
  13148  13149  13161  13164     1  0.0000000  0.6694400  3
  13148  13162  13168  13169     1  0.0000000  1.0460000  1
  13148  13162  13168  13169     1  0.0000000  0.6694400  3
  13148  13170  13154  13157     1  0.0000000  1.6038667  3
  13149  13148  13162  13166     1  0.0000000  0.6508444  3
  13149  13148  13162  13167     1  0.0000000  0.6508444  3
  13149  13152  13153  13155     1  0.0000000  0.6508444  3
  13149  13152  13160  13163     1  0.0000000  1.0460000  1
  13149  13152  13160  13163     1  0.0000000  0.6694400  3
  13150  13148  13149  13152     1  0.0000000  0.6508444  3
  13150  13148  13149  13161     1  0.0000000  1.0460000  1
  13150  13148  13149  13161     1  0.0000000  0.0000000  3
  13150  13148  13149  13151     1  0.0000000  0.6508444  3
  13150  13148  13162  13168     1  0.0000000  1.0460000  1
  13150  13148  13162  13168     1  0.0000000  0.0000000  3
  13150  13148  13162  13166     1  0.0000000  0.6508444  3
  13150  13148  13162  13167     1  0.0000000  0.6508444  3
  13150  13148  13170  13154     1  0.0000000  1.6038667  3
  13151  13149  13148  13162     1  0.0000000  0.6508444  3
  13151  13149  13148  13170     1  0.0000000  1.0460000  1
  13151  13149  13148  13170     1  0.0000000  0.0000000  3
  13151  13149  13152  13153     1  0.0000000  0.6508444  3
  13151  13149  13152  13160     1  0.0000000  1.0460000  1
  13151  13149  13152  13160     1  0.0000000  0.0000000  3
  13151  13149  13152  13156     1  0.0000000  0.6508444  3
  13151  13149  13161  13164     1  0.0000000  0.6973333  3
  13152  13149  13161  13164     1  0.0000000  1.0460000  1
  13152  13149  13161  13164     1  0.0000000  0.6694400  3
  13152  13153  13154  13157     1  0.0000000  0.6508444  3
  13152  13153  13159  13165     1  0.0000000  1.0460000  1
  13152  13153  13159  13165     1  0.0000000  0.6694400  3
  13153  13152  13160  13163     1  0.0000000  1.0460000  1
  13153  13152  13160  13163     1  0.0000000  0.6694400  3
  13154  13153  13152  13156     1  0.0000000  0.6508444  3
  13154  13153  13159  13165     1  0.0000000  1.0460000  1
  13154  13153  13159  13165     1  0.0000000  0.6694400  3
  13155  13153  13152  13160     1  0.0000000  1.0460000  1
  13155  13153  13152  13160     1  0.0000000  0.0000000  3
  13155  13153  13152  13156     1  0.0000000  0.6508444  3
  13155  13153  13154  13158     1  0.0000000  1.0460000  1
  13155  13153  13154  13158     1  0.0000000  0.0000000  3
  13155  13153  13154  13170     1  0.0000000  1.0460000  1
  13155  13153  13154  13170     1  0.0000000  0.0000000  3
  13155  13153  13154  13157     1  0.0000000  0.6508444  3
  13155  13153  13159  13165     1  0.0000000  0.6973333  3
  13156  13152  13149  13161     1  0.0000000  1.0460000  1
  13156  13152  13149  13161     1  0.0000000  0.0000000  3
  13156  13152  13153  13159     1  0.0000000  1.0460000  1
  13156  13152  13153  13159     1  0.0000000  0.0000000  3
  13156  13152  13160  13163     1  0.0000000  0.6973333  3
  13157  13154  13153  13159     1  0.0000000  0.6508444  3
  13166  13162  13148  13170     1  0.0000000  1.0460000  1
  13166  13162  13148  13170     1  0.0000000  0.0000000  3
  13166  13162  13168  13169     1  0.0000000  0.6973333  3
  13167  13162  13148  13170     1  0.0000000  1.0460000  1
  13167  13162  13148  13170     1  0.0000000  0.0000000  3
  13167  13162  13168  13169     1  0.0000000  0.6973333  3
  13171  13172  13175  13179     1  0.0000000  0.6508444  3
  13171  13172  13184  13187     1  0.0000000  1.0460000  1
  13171  13172  13184  13187     1  0.0000000  0.6694400  3
  13171  13185  13191  13192     1  0.0000000  1.0460000  1
  13171  13185  13191  13192     1  0.0000000  0.6694400  3
  13171  13193  13177  13180     1  0.0000000  1.6038667  3
  13172  13175  13176  13178     1  0.0000000  0.6508444  3
  13172  13175  13183  13186     1  0.0000000  1.0460000  1
  13172  13175  13183  13186     1  0.0000000  0.6694400  3
  13172  13171  13185  13189     1  0.0000000  0.6508444  3
  13172  13171  13185  13190     1  0.0000000  0.6508444  3
  13173  13171  13172  13175     1  0.0000000  0.6508444  3
  13173  13171  13172  13184     1  0.0000000  1.0460000  1
  13173  13171  13172  13184     1  0.0000000  0.0000000  3
  13173  13171  13172  13174     1  0.0000000  0.6508444  3
  13173  13171  13185  13191     1  0.0000000  1.0460000  1
  13173  13171  13185  13191     1  0.0000000  0.0000000  3
  13173  13171  13185  13189     1  0.0000000  0.6508444  3
  13173  13171  13185  13190     1  0.0000000  0.6508444  3
  13173  13171  13193  13177     1  0.0000000  1.6038667  3
  13174  13172  13175  13176     1  0.0000000  0.6508444  3
  13174  13172  13175  13183     1  0.0000000  1.0460000  1
  13174  13172  13175  13183     1  0.0000000  0.0000000  3
  13174  13172  13175  13179     1  0.0000000  0.6508444  3
  13174  13172  13184  13187     1  0.0000000  0.6973333  3
  13174  13172  13171  13185     1  0.0000000  0.6508444  3
  13174  13172  13171  13193     1  0.0000000  1.0460000  1
  13174  13172  13171  13193     1  0.0000000  0.0000000  3
  13175  13176  13177  13180     1  0.0000000  0.6508444  3
  13175  13176  13182  13188     1  0.0000000  1.0460000  1
  13175  13176  13182  13188     1  0.0000000  0.6694400  3
  13175  13172  13184  13187     1  0.0000000  1.0460000  1
  13175  13172  13184  13187     1  0.0000000  0.6694400  3
  13176  13175  13183  13186     1  0.0000000  1.0460000  1
  13176  13175  13183  13186     1  0.0000000  0.6694400  3
  13177  13176  13182  13188     1  0.0000000  1.0460000  1
  13177  13176  13182  13188     1  0.0000000  0.6694400  3
  13177  13176  13175  13179     1  0.0000000  0.6508444  3
  13178  13176  13177  13181     1  0.0000000  1.0460000  1
  13178  13176  13177  13181     1  0.0000000  0.0000000  3
  13178  13176  13177  13193     1  0.0000000  1.0460000  1
  13178  13176  13177  13193     1  0.0000000  0.0000000  3
  13178  13176  13177  13180     1  0.0000000  0.6508444  3
  13178  13176  13182  13188     1  0.0000000  0.6973333  3
  13178  13176  13175  13183     1  0.0000000  1.0460000  1
  13178  13176  13175  13183     1  0.0000000  0.0000000  3
  13178  13176  13175  13179     1  0.0000000  0.6508444  3
  13179  13175  13176  13182     1  0.0000000  1.0460000  1
  13179  13175  13176  13182     1  0.0000000  0.0000000  3
  13179  13175  13183  13186     1  0.0000000  0.6973333  3
  13179  13175  13172  13184     1  0.0000000  1.0460000  1
  13179  13175  13172  13184     1  0.0000000  0.0000000  3
  13180  13177  13176  13182     1  0.0000000  0.6508444  3
  13189  13185  13191  13192     1  0.0000000  0.6973333  3
  13189  13185  13171  13193     1  0.0000000  1.0460000  1
  13189  13185  13171  13193     1  0.0000000  0.0000000  3
  13190  13185  13191  13192     1  0.0000000  0.6973333  3
  13190  13185  13171  13193     1  0.0000000  1.0460000  1
  13190  13185  13171  13193     1  0.0000000  0.0000000  3
  13194  13195  13198  13202     1  0.0000000  0.6508444  3
  13194  13195  13207  13210     1  0.0000000  1.0460000  1
  13194  13195  13207  13210     1  0.0000000  0.6694400  3
  13194  13208  13214  13215     1  0.0000000  1.0460000  1
  13194  13208  13214  13215     1  0.0000000  0.6694400  3
  13194  13216  13200  13203     1  0.0000000  1.6038667  3
  13195  13194  13208  13212     1  0.0000000  0.6508444  3
  13195  13194  13208  13213     1  0.0000000  0.6508444  3
  13195  13198  13199  13201     1  0.0000000  0.6508444  3
  13195  13198  13206  13209     1  0.0000000  1.0460000  1
  13195  13198  13206  13209     1  0.0000000  0.6694400  3
  13196  13194  13195  13198     1  0.0000000  0.6508444  3
  13196  13194  13195  13207     1  0.0000000  1.0460000  1
  13196  13194  13195  13207     1  0.0000000  0.0000000  3
  13196  13194  13195  13197     1  0.0000000  0.6508444  3
  13196  13194  13208  13214     1  0.0000000  1.0460000  1
  13196  13194  13208  13214     1  0.0000000  0.0000000  3
  13196  13194  13208  13212     1  0.0000000  0.6508444  3
  13196  13194  13208  13213     1  0.0000000  0.6508444  3
  13196  13194  13216  13200     1  0.0000000  1.6038667  3
  13197  13195  13194  13208     1  0.0000000  0.6508444  3
  13197  13195  13194  13216     1  0.0000000  1.0460000  1
  13197  13195  13194  13216     1  0.0000000  0.0000000  3
  13197  13195  13198  13199     1  0.0000000  0.6508444  3
  13197  13195  13198  13206     1  0.0000000  1.0460000  1
  13197  13195  13198  13206     1  0.0000000  0.0000000  3
  13197  13195  13198  13202     1  0.0000000  0.6508444  3
  13197  13195  13207  13210     1  0.0000000  0.6973333  3
  13198  13195  13207  13210     1  0.0000000  1.0460000  1
  13198  13195  13207  13210     1  0.0000000  0.6694400  3
  13198  13199  13200  13203     1  0.0000000  0.6508444  3
  13198  13199  13205  13211     1  0.0000000  1.0460000  1
  13198  13199  13205  13211     1  0.0000000  0.6694400  3
  13199  13198  13206  13209     1  0.0000000  1.0460000  1
  13199  13198  13206  13209     1  0.0000000  0.6694400  3
  13200  13199  13198  13202     1  0.0000000  0.6508444  3
  13200  13199  13205  13211     1  0.0000000  1.0460000  1
  13200  13199  13205  13211     1  0.0000000  0.6694400  3
  13201  13199  13198  13206     1  0.0000000  1.0460000  1
  13201  13199  13198  13206     1  0.0000000  0.0000000  3
  13201  13199  13198  13202     1  0.0000000  0.6508444  3
  13201  13199  13200  13204     1  0.0000000  1.0460000  1
  13201  13199  13200  13204     1  0.0000000  0.0000000  3
  13201  13199  13200  13216     1  0.0000000  1.0460000  1
  13201  13199  13200  13216     1  0.0000000  0.0000000  3
  13201  13199  13200  13203     1  0.0000000  0.6508444  3
  13201  13199  13205  13211     1  0.0000000  0.6973333  3
  13202  13198  13195  13207     1  0.0000000  1.0460000  1
  13202  13198  13195  13207     1  0.0000000  0.0000000  3
  13202  13198  13199  13205     1  0.0000000  1.0460000  1
  13202  13198  13199  13205     1  0.0000000  0.0000000  3
  13202  13198  13206  13209     1  0.0000000  0.6973333  3
  13203  13200  13199  13205     1  0.0000000  0.6508444  3
  13212  13208  13194  13216     1  0.0000000  1.0460000  1
  13212  13208  13194  13216     1  0.0000000  0.0000000  3
  13212  13208  13214  13215     1  0.0000000  0.6973333  3
  13213  13208  13194  13216     1  0.0000000  1.0460000  1
  13213  13208  13194  13216     1  0.0000000  0.0000000  3
  13213  13208  13214  13215     1  0.0000000  0.6973333  3
  13217  13218  13221  13225     1  0.0000000  0.6508444  3
  13217  13218  13230  13233     1  0.0000000  1.0460000  1
  13217  13218  13230  13233     1  0.0000000  0.6694400  3
  13217  13231  13237  13238     1  0.0000000  1.0460000  1
  13217  13231  13237  13238     1  0.0000000  0.6694400  3
  13217  13239  13223  13226     1  0.0000000  1.6038667  3
  13218  13221  13222  13224     1  0.0000000  0.6508444  3
  13218  13221  13229  13232     1  0.0000000  1.0460000  1
  13218  13221  13229  13232     1  0.0000000  0.6694400  3
  13218  13217  13231  13235     1  0.0000000  0.6508444  3
  13218  13217  13231  13236     1  0.0000000  0.6508444  3
  13219  13217  13218  13221     1  0.0000000  0.6508444  3
  13219  13217  13218  13230     1  0.0000000  1.0460000  1
  13219  13217  13218  13230     1  0.0000000  0.0000000  3
  13219  13217  13218  13220     1  0.0000000  0.6508444  3
  13219  13217  13231  13237     1  0.0000000  1.0460000  1
  13219  13217  13231  13237     1  0.0000000  0.0000000  3
  13219  13217  13231  13235     1  0.0000000  0.6508444  3
  13219  13217  13231  13236     1  0.0000000  0.6508444  3
  13219  13217  13239  13223     1  0.0000000  1.6038667  3
  13220  13218  13221  13222     1  0.0000000  0.6508444  3
  13220  13218  13221  13229     1  0.0000000  1.0460000  1
  13220  13218  13221  13229     1  0.0000000  0.0000000  3
  13220  13218  13221  13225     1  0.0000000  0.6508444  3
  13220  13218  13230  13233     1  0.0000000  0.6973333  3
  13220  13218  13217  13231     1  0.0000000  0.6508444  3
  13220  13218  13217  13239     1  0.0000000  1.0460000  1
  13220  13218  13217  13239     1  0.0000000  0.0000000  3
  13221  13222  13223  13226     1  0.0000000  0.6508444  3
  13221  13222  13228  13234     1  0.0000000  1.0460000  1
  13221  13222  13228  13234     1  0.0000000  0.6694400  3
  13221  13218  13230  13233     1  0.0000000  1.0460000  1
  13221  13218  13230  13233     1  0.0000000  0.6694400  3
  13222  13221  13229  13232     1  0.0000000  1.0460000  1
  13222  13221  13229  13232     1  0.0000000  0.6694400  3
  13223  13222  13228  13234     1  0.0000000  1.0460000  1
  13223  13222  13228  13234     1  0.0000000  0.6694400  3
  13223  13222  13221  13225     1  0.0000000  0.6508444  3
  13224  13222  13223  13227     1  0.0000000  1.0460000  1
  13224  13222  13223  13227     1  0.0000000  0.0000000  3
  13224  13222  13223  13239     1  0.0000000  1.0460000  1
  13224  13222  13223  13239     1  0.0000000  0.0000000  3
  13224  13222  13223  13226     1  0.0000000  0.6508444  3
  13224  13222  13228  13234     1  0.0000000  0.6973333  3
  13224  13222  13221  13229     1  0.0000000  1.0460000  1
  13224  13222  13221  13229     1  0.0000000  0.0000000  3
  13224  13222  13221  13225     1  0.0000000  0.6508444  3
  13225  13221  13222  13228     1  0.0000000  1.0460000  1
  13225  13221  13222  13228     1  0.0000000  0.0000000  3
  13225  13221  13229  13232     1  0.0000000  0.6973333  3
  13225  13221  13218  13230     1  0.0000000  1.0460000  1
  13225  13221  13218  13230     1  0.0000000  0.0000000  3
  13226  13223  13222  13228     1  0.0000000  0.6508444  3
  13235  13231  13237  13238     1  0.0000000  0.6973333  3
  13235  13231  13217  13239     1  0.0000000  1.0460000  1
  13235  13231  13217  13239     1  0.0000000  0.0000000  3
  13236  13231  13237  13238     1  0.0000000  0.6973333  3
  13236  13231  13217  13239     1  0.0000000  1.0460000  1
  13236  13231  13217  13239     1  0.0000000  0.0000000  3
  13240  13241  13244  13248     1  0.0000000  0.6508444  3
  13240  13241  13253  13256     1  0.0000000  1.0460000  1
  13240  13241  13253  13256     1  0.0000000  0.6694400  3
  13240  13254  13260  13261     1  0.0000000  1.0460000  1
  13240  13254  13260  13261     1  0.0000000  0.6694400  3
  13240  13262  13246  13249     1  0.0000000  1.6038667  3
  13241  13240  13254  13258     1  0.0000000  0.6508444  3
  13241  13240  13254  13259     1  0.0000000  0.6508444  3
  13241  13244  13245  13247     1  0.0000000  0.6508444  3
  13241  13244  13252  13255     1  0.0000000  1.0460000  1
  13241  13244  13252  13255     1  0.0000000  0.6694400  3
  13242  13240  13241  13244     1  0.0000000  0.6508444  3
  13242  13240  13241  13253     1  0.0000000  1.0460000  1
  13242  13240  13241  13253     1  0.0000000  0.0000000  3
  13242  13240  13241  13243     1  0.0000000  0.6508444  3
  13242  13240  13254  13260     1  0.0000000  1.0460000  1
  13242  13240  13254  13260     1  0.0000000  0.0000000  3
  13242  13240  13254  13258     1  0.0000000  0.6508444  3
  13242  13240  13254  13259     1  0.0000000  0.6508444  3
  13242  13240  13262  13246     1  0.0000000  1.6038667  3
  13243  13241  13240  13254     1  0.0000000  0.6508444  3
  13243  13241  13240  13262     1  0.0000000  1.0460000  1
  13243  13241  13240  13262     1  0.0000000  0.0000000  3
  13243  13241  13244  13245     1  0.0000000  0.6508444  3
  13243  13241  13244  13252     1  0.0000000  1.0460000  1
  13243  13241  13244  13252     1  0.0000000  0.0000000  3
  13243  13241  13244  13248     1  0.0000000  0.6508444  3
  13243  13241  13253  13256     1  0.0000000  0.6973333  3
  13244  13241  13253  13256     1  0.0000000  1.0460000  1
  13244  13241  13253  13256     1  0.0000000  0.6694400  3
  13244  13245  13246  13249     1  0.0000000  0.6508444  3
  13244  13245  13251  13257     1  0.0000000  1.0460000  1
  13244  13245  13251  13257     1  0.0000000  0.6694400  3
  13245  13244  13252  13255     1  0.0000000  1.0460000  1
  13245  13244  13252  13255     1  0.0000000  0.6694400  3
  13246  13245  13244  13248     1  0.0000000  0.6508444  3
  13246  13245  13251  13257     1  0.0000000  1.0460000  1
  13246  13245  13251  13257     1  0.0000000  0.6694400  3
  13247  13245  13244  13252     1  0.0000000  1.0460000  1
  13247  13245  13244  13252     1  0.0000000  0.0000000  3
  13247  13245  13244  13248     1  0.0000000  0.6508444  3
  13247  13245  13246  13250     1  0.0000000  1.0460000  1
  13247  13245  13246  13250     1  0.0000000  0.0000000  3
  13247  13245  13246  13262     1  0.0000000  1.0460000  1
  13247  13245  13246  13262     1  0.0000000  0.0000000  3
  13247  13245  13246  13249     1  0.0000000  0.6508444  3
  13247  13245  13251  13257     1  0.0000000  0.6973333  3
  13248  13244  13241  13253     1  0.0000000  1.0460000  1
  13248  13244  13241  13253     1  0.0000000  0.0000000  3
  13248  13244  13245  13251     1  0.0000000  1.0460000  1
  13248  13244  13245  13251     1  0.0000000  0.0000000  3
  13248  13244  13252  13255     1  0.0000000  0.6973333  3
  13249  13246  13245  13251     1  0.0000000  0.6508444  3
  13258  13254  13240  13262     1  0.0000000  1.0460000  1
  13258  13254  13240  13262     1  0.0000000  0.0000000  3
  13258  13254  13260  13261     1  0.0000000  0.6973333  3
  13259  13254  13240  13262     1  0.0000000  1.0460000  1
  13259  13254  13240  13262     1  0.0000000  0.0000000  3
  13259  13254  13260  13261     1  0.0000000  0.6973333  3
  13263  13264  13267  13271     1  0.0000000  0.6508444  3
  13263  13264  13276  13279     1  0.0000000  1.0460000  1
  13263  13264  13276  13279     1  0.0000000  0.6694400  3
  13263  13277  13283  13284     1  0.0000000  1.0460000  1
  13263  13277  13283  13284     1  0.0000000  0.6694400  3
  13263  13285  13269  13272     1  0.0000000  1.6038667  3
  13264  13267  13268  13270     1  0.0000000  0.6508444  3
  13264  13267  13275  13278     1  0.0000000  1.0460000  1
  13264  13267  13275  13278     1  0.0000000  0.6694400  3
  13264  13263  13277  13281     1  0.0000000  0.6508444  3
  13264  13263  13277  13282     1  0.0000000  0.6508444  3
  13265  13263  13264  13267     1  0.0000000  0.6508444  3
  13265  13263  13264  13276     1  0.0000000  1.0460000  1
  13265  13263  13264  13276     1  0.0000000  0.0000000  3
  13265  13263  13264  13266     1  0.0000000  0.6508444  3
  13265  13263  13277  13283     1  0.0000000  1.0460000  1
  13265  13263  13277  13283     1  0.0000000  0.0000000  3
  13265  13263  13277  13281     1  0.0000000  0.6508444  3
  13265  13263  13277  13282     1  0.0000000  0.6508444  3
  13265  13263  13285  13269     1  0.0000000  1.6038667  3
  13266  13264  13267  13268     1  0.0000000  0.6508444  3
  13266  13264  13267  13275     1  0.0000000  1.0460000  1
  13266  13264  13267  13275     1  0.0000000  0.0000000  3
  13266  13264  13267  13271     1  0.0000000  0.6508444  3
  13266  13264  13276  13279     1  0.0000000  0.6973333  3
  13266  13264  13263  13277     1  0.0000000  0.6508444  3
  13266  13264  13263  13285     1  0.0000000  1.0460000  1
  13266  13264  13263  13285     1  0.0000000  0.0000000  3
  13267  13268  13269  13272     1  0.0000000  0.6508444  3
  13267  13268  13274  13280     1  0.0000000  1.0460000  1
  13267  13268  13274  13280     1  0.0000000  0.6694400  3
  13267  13264  13276  13279     1  0.0000000  1.0460000  1
  13267  13264  13276  13279     1  0.0000000  0.6694400  3
  13268  13267  13275  13278     1  0.0000000  1.0460000  1
  13268  13267  13275  13278     1  0.0000000  0.6694400  3
  13269  13268  13274  13280     1  0.0000000  1.0460000  1
  13269  13268  13274  13280     1  0.0000000  0.6694400  3
  13269  13268  13267  13271     1  0.0000000  0.6508444  3
  13270  13268  13269  13273     1  0.0000000  1.0460000  1
  13270  13268  13269  13273     1  0.0000000  0.0000000  3
  13270  13268  13269  13285     1  0.0000000  1.0460000  1
  13270  13268  13269  13285     1  0.0000000  0.0000000  3
  13270  13268  13269  13272     1  0.0000000  0.6508444  3
  13270  13268  13274  13280     1  0.0000000  0.6973333  3
  13270  13268  13267  13275     1  0.0000000  1.0460000  1
  13270  13268  13267  13275     1  0.0000000  0.0000000  3
  13270  13268  13267  13271     1  0.0000000  0.6508444  3
  13271  13267  13268  13274     1  0.0000000  1.0460000  1
  13271  13267  13268  13274     1  0.0000000  0.0000000  3
  13271  13267  13275  13278     1  0.0000000  0.6973333  3
  13271  13267  13264  13276     1  0.0000000  1.0460000  1
  13271  13267  13264  13276     1  0.0000000  0.0000000  3
  13272  13269  13268  13274     1  0.0000000  0.6508444  3
  13281  13277  13283  13284     1  0.0000000  0.6973333  3
  13281  13277  13263  13285     1  0.0000000  1.0460000  1
  13281  13277  13263  13285     1  0.0000000  0.0000000  3
  13282  13277  13283  13284     1  0.0000000  0.6973333  3
  13282  13277  13263  13285     1  0.0000000  1.0460000  1
  13282  13277  13263  13285     1  0.0000000  0.0000000  3
  13286  13287  13290  13294     1  0.0000000  0.6508444  3
  13286  13287  13299  13302     1  0.0000000  1.0460000  1
  13286  13287  13299  13302     1  0.0000000  0.6694400  3
  13286  13300  13306  13307     1  0.0000000  1.0460000  1
  13286  13300  13306  13307     1  0.0000000  0.6694400  3
  13286  13308  13292  13295     1  0.0000000  1.6038667  3
  13287  13286  13300  13304     1  0.0000000  0.6508444  3
  13287  13286  13300  13305     1  0.0000000  0.6508444  3
  13287  13290  13291  13293     1  0.0000000  0.6508444  3
  13287  13290  13298  13301     1  0.0000000  1.0460000  1
  13287  13290  13298  13301     1  0.0000000  0.6694400  3
  13288  13286  13287  13290     1  0.0000000  0.6508444  3
  13288  13286  13287  13299     1  0.0000000  1.0460000  1
  13288  13286  13287  13299     1  0.0000000  0.0000000  3
  13288  13286  13287  13289     1  0.0000000  0.6508444  3
  13288  13286  13300  13306     1  0.0000000  1.0460000  1
  13288  13286  13300  13306     1  0.0000000  0.0000000  3
  13288  13286  13300  13304     1  0.0000000  0.6508444  3
  13288  13286  13300  13305     1  0.0000000  0.6508444  3
  13288  13286  13308  13292     1  0.0000000  1.6038667  3
  13289  13287  13286  13300     1  0.0000000  0.6508444  3
  13289  13287  13286  13308     1  0.0000000  1.0460000  1
  13289  13287  13286  13308     1  0.0000000  0.0000000  3
  13289  13287  13290  13291     1  0.0000000  0.6508444  3
  13289  13287  13290  13298     1  0.0000000  1.0460000  1
  13289  13287  13290  13298     1  0.0000000  0.0000000  3
  13289  13287  13290  13294     1  0.0000000  0.6508444  3
  13289  13287  13299  13302     1  0.0000000  0.6973333  3
  13290  13287  13299  13302     1  0.0000000  1.0460000  1
  13290  13287  13299  13302     1  0.0000000  0.6694400  3
  13290  13291  13292  13295     1  0.0000000  0.6508444  3
  13290  13291  13297  13303     1  0.0000000  1.0460000  1
  13290  13291  13297  13303     1  0.0000000  0.6694400  3
  13291  13290  13298  13301     1  0.0000000  1.0460000  1
  13291  13290  13298  13301     1  0.0000000  0.6694400  3
  13292  13291  13290  13294     1  0.0000000  0.6508444  3
  13292  13291  13297  13303     1  0.0000000  1.0460000  1
  13292  13291  13297  13303     1  0.0000000  0.6694400  3
  13293  13291  13290  13298     1  0.0000000  1.0460000  1
  13293  13291  13290  13298     1  0.0000000  0.0000000  3
  13293  13291  13290  13294     1  0.0000000  0.6508444  3
  13293  13291  13292  13296     1  0.0000000  1.0460000  1
  13293  13291  13292  13296     1  0.0000000  0.0000000  3
  13293  13291  13292  13308     1  0.0000000  1.0460000  1
  13293  13291  13292  13308     1  0.0000000  0.0000000  3
  13293  13291  13292  13295     1  0.0000000  0.6508444  3
  13293  13291  13297  13303     1  0.0000000  0.6973333  3
  13294  13290  13287  13299     1  0.0000000  1.0460000  1
  13294  13290  13287  13299     1  0.0000000  0.0000000  3
  13294  13290  13291  13297     1  0.0000000  1.0460000  1
  13294  13290  13291  13297     1  0.0000000  0.0000000  3
  13294  13290  13298  13301     1  0.0000000  0.6973333  3
  13295  13292  13291  13297     1  0.0000000  0.6508444  3
  13304  13300  13286  13308     1  0.0000000  1.0460000  1
  13304  13300  13286  13308     1  0.0000000  0.0000000  3
  13304  13300  13306  13307     1  0.0000000  0.6973333  3
  13305  13300  13286  13308     1  0.0000000  1.0460000  1
  13305  13300  13286  13308     1  0.0000000  0.0000000  3
  13305  13300  13306  13307     1  0.0000000  0.6973333  3
  13309  13310  13313  13317     1  0.0000000  0.6508444  3
  13309  13310  13322  13325     1  0.0000000  1.0460000  1
  13309  13310  13322  13325     1  0.0000000  0.6694400  3
  13309  13323  13329  13330     1  0.0000000  1.0460000  1
  13309  13323  13329  13330     1  0.0000000  0.6694400  3
  13309  13331  13315  13318     1  0.0000000  1.6038667  3
  13310  13313  13314  13316     1  0.0000000  0.6508444  3
  13310  13313  13321  13324     1  0.0000000  1.0460000  1
  13310  13313  13321  13324     1  0.0000000  0.6694400  3
  13310  13309  13323  13327     1  0.0000000  0.6508444  3
  13310  13309  13323  13328     1  0.0000000  0.6508444  3
  13311  13309  13310  13313     1  0.0000000  0.6508444  3
  13311  13309  13310  13322     1  0.0000000  1.0460000  1
  13311  13309  13310  13322     1  0.0000000  0.0000000  3
  13311  13309  13310  13312     1  0.0000000  0.6508444  3
  13311  13309  13323  13329     1  0.0000000  1.0460000  1
  13311  13309  13323  13329     1  0.0000000  0.0000000  3
  13311  13309  13323  13327     1  0.0000000  0.6508444  3
  13311  13309  13323  13328     1  0.0000000  0.6508444  3
  13311  13309  13331  13315     1  0.0000000  1.6038667  3
  13312  13310  13313  13314     1  0.0000000  0.6508444  3
  13312  13310  13313  13321     1  0.0000000  1.0460000  1
  13312  13310  13313  13321     1  0.0000000  0.0000000  3
  13312  13310  13313  13317     1  0.0000000  0.6508444  3
  13312  13310  13322  13325     1  0.0000000  0.6973333  3
  13312  13310  13309  13323     1  0.0000000  0.6508444  3
  13312  13310  13309  13331     1  0.0000000  1.0460000  1
  13312  13310  13309  13331     1  0.0000000  0.0000000  3
  13313  13314  13315  13318     1  0.0000000  0.6508444  3
  13313  13314  13320  13326     1  0.0000000  1.0460000  1
  13313  13314  13320  13326     1  0.0000000  0.6694400  3
  13313  13310  13322  13325     1  0.0000000  1.0460000  1
  13313  13310  13322  13325     1  0.0000000  0.6694400  3
  13314  13313  13321  13324     1  0.0000000  1.0460000  1
  13314  13313  13321  13324     1  0.0000000  0.6694400  3
  13315  13314  13320  13326     1  0.0000000  1.0460000  1
  13315  13314  13320  13326     1  0.0000000  0.6694400  3
  13315  13314  13313  13317     1  0.0000000  0.6508444  3
  13316  13314  13315  13319     1  0.0000000  1.0460000  1
  13316  13314  13315  13319     1  0.0000000  0.0000000  3
  13316  13314  13315  13331     1  0.0000000  1.0460000  1
  13316  13314  13315  13331     1  0.0000000  0.0000000  3
  13316  13314  13315  13318     1  0.0000000  0.6508444  3
  13316  13314  13320  13326     1  0.0000000  0.6973333  3
  13316  13314  13313  13321     1  0.0000000  1.0460000  1
  13316  13314  13313  13321     1  0.0000000  0.0000000  3
  13316  13314  13313  13317     1  0.0000000  0.6508444  3
  13317  13313  13314  13320     1  0.0000000  1.0460000  1
  13317  13313  13314  13320     1  0.0000000  0.0000000  3
  13317  13313  13321  13324     1  0.0000000  0.6973333  3
  13317  13313  13310  13322     1  0.0000000  1.0460000  1
  13317  13313  13310  13322     1  0.0000000  0.0000000  3
  13318  13315  13314  13320     1  0.0000000  0.6508444  3
  13327  13323  13329  13330     1  0.0000000  0.6973333  3
  13327  13323  13309  13331     1  0.0000000  1.0460000  1
  13327  13323  13309  13331     1  0.0000000  0.0000000  3
  13328  13323  13329  13330     1  0.0000000  0.6973333  3
  13328  13323  13309  13331     1  0.0000000  1.0460000  1
  13328  13323  13309  13331     1  0.0000000  0.0000000  3
  13332  13333  13336  13340     1  0.0000000  0.6508444  3
  13332  13333  13345  13348     1  0.0000000  1.0460000  1
  13332  13333  13345  13348     1  0.0000000  0.6694400  3
  13332  13346  13352  13353     1  0.0000000  1.0460000  1
  13332  13346  13352  13353     1  0.0000000  0.6694400  3
  13332  13354  13338  13341     1  0.0000000  1.6038667  3
  13333  13332  13346  13350     1  0.0000000  0.6508444  3
  13333  13332  13346  13351     1  0.0000000  0.6508444  3
  13333  13336  13337  13339     1  0.0000000  0.6508444  3
  13333  13336  13344  13347     1  0.0000000  1.0460000  1
  13333  13336  13344  13347     1  0.0000000  0.6694400  3
  13334  13332  13333  13336     1  0.0000000  0.6508444  3
  13334  13332  13333  13345     1  0.0000000  1.0460000  1
  13334  13332  13333  13345     1  0.0000000  0.0000000  3
  13334  13332  13333  13335     1  0.0000000  0.6508444  3
  13334  13332  13346  13352     1  0.0000000  1.0460000  1
  13334  13332  13346  13352     1  0.0000000  0.0000000  3
  13334  13332  13346  13350     1  0.0000000  0.6508444  3
  13334  13332  13346  13351     1  0.0000000  0.6508444  3
  13334  13332  13354  13338     1  0.0000000  1.6038667  3
  13335  13333  13332  13346     1  0.0000000  0.6508444  3
  13335  13333  13332  13354     1  0.0000000  1.0460000  1
  13335  13333  13332  13354     1  0.0000000  0.0000000  3
  13335  13333  13336  13337     1  0.0000000  0.6508444  3
  13335  13333  13336  13344     1  0.0000000  1.0460000  1
  13335  13333  13336  13344     1  0.0000000  0.0000000  3
  13335  13333  13336  13340     1  0.0000000  0.6508444  3
  13335  13333  13345  13348     1  0.0000000  0.6973333  3
  13336  13333  13345  13348     1  0.0000000  1.0460000  1
  13336  13333  13345  13348     1  0.0000000  0.6694400  3
  13336  13337  13338  13341     1  0.0000000  0.6508444  3
  13336  13337  13343  13349     1  0.0000000  1.0460000  1
  13336  13337  13343  13349     1  0.0000000  0.6694400  3
  13337  13336  13344  13347     1  0.0000000  1.0460000  1
  13337  13336  13344  13347     1  0.0000000  0.6694400  3
  13338  13337  13336  13340     1  0.0000000  0.6508444  3
  13338  13337  13343  13349     1  0.0000000  1.0460000  1
  13338  13337  13343  13349     1  0.0000000  0.6694400  3
  13339  13337  13336  13344     1  0.0000000  1.0460000  1
  13339  13337  13336  13344     1  0.0000000  0.0000000  3
  13339  13337  13336  13340     1  0.0000000  0.6508444  3
  13339  13337  13338  13342     1  0.0000000  1.0460000  1
  13339  13337  13338  13342     1  0.0000000  0.0000000  3
  13339  13337  13338  13354     1  0.0000000  1.0460000  1
  13339  13337  13338  13354     1  0.0000000  0.0000000  3
  13339  13337  13338  13341     1  0.0000000  0.6508444  3
  13339  13337  13343  13349     1  0.0000000  0.6973333  3
  13340  13336  13333  13345     1  0.0000000  1.0460000  1
  13340  13336  13333  13345     1  0.0000000  0.0000000  3
  13340  13336  13337  13343     1  0.0000000  1.0460000  1
  13340  13336  13337  13343     1  0.0000000  0.0000000  3
  13340  13336  13344  13347     1  0.0000000  0.6973333  3
  13341  13338  13337  13343     1  0.0000000  0.6508444  3
  13350  13346  13332  13354     1  0.0000000  1.0460000  1
  13350  13346  13332  13354     1  0.0000000  0.0000000  3
  13350  13346  13352  13353     1  0.0000000  0.6973333  3
  13351  13346  13332  13354     1  0.0000000  1.0460000  1
  13351  13346  13332  13354     1  0.0000000  0.0000000  3
  13351  13346  13352  13353     1  0.0000000  0.6973333  3
  13355  13356  13359  13363     1  0.0000000  0.6508444  3
  13355  13356  13368  13371     1  0.0000000  1.0460000  1
  13355  13356  13368  13371     1  0.0000000  0.6694400  3
  13355  13369  13375  13376     1  0.0000000  1.0460000  1
  13355  13369  13375  13376     1  0.0000000  0.6694400  3
  13355  13377  13361  13364     1  0.0000000  1.6038667  3
  13356  13359  13360  13362     1  0.0000000  0.6508444  3
  13356  13359  13367  13370     1  0.0000000  1.0460000  1
  13356  13359  13367  13370     1  0.0000000  0.6694400  3
  13356  13355  13369  13373     1  0.0000000  0.6508444  3
  13356  13355  13369  13374     1  0.0000000  0.6508444  3
  13357  13355  13356  13359     1  0.0000000  0.6508444  3
  13357  13355  13356  13368     1  0.0000000  1.0460000  1
  13357  13355  13356  13368     1  0.0000000  0.0000000  3
  13357  13355  13356  13358     1  0.0000000  0.6508444  3
  13357  13355  13369  13375     1  0.0000000  1.0460000  1
  13357  13355  13369  13375     1  0.0000000  0.0000000  3
  13357  13355  13369  13373     1  0.0000000  0.6508444  3
  13357  13355  13369  13374     1  0.0000000  0.6508444  3
  13357  13355  13377  13361     1  0.0000000  1.6038667  3
  13358  13356  13359  13360     1  0.0000000  0.6508444  3
  13358  13356  13359  13367     1  0.0000000  1.0460000  1
  13358  13356  13359  13367     1  0.0000000  0.0000000  3
  13358  13356  13359  13363     1  0.0000000  0.6508444  3
  13358  13356  13368  13371     1  0.0000000  0.6973333  3
  13358  13356  13355  13369     1  0.0000000  0.6508444  3
  13358  13356  13355  13377     1  0.0000000  1.0460000  1
  13358  13356  13355  13377     1  0.0000000  0.0000000  3
  13359  13360  13361  13364     1  0.0000000  0.6508444  3
  13359  13360  13366  13372     1  0.0000000  1.0460000  1
  13359  13360  13366  13372     1  0.0000000  0.6694400  3
  13359  13356  13368  13371     1  0.0000000  1.0460000  1
  13359  13356  13368  13371     1  0.0000000  0.6694400  3
  13360  13359  13367  13370     1  0.0000000  1.0460000  1
  13360  13359  13367  13370     1  0.0000000  0.6694400  3
  13361  13360  13366  13372     1  0.0000000  1.0460000  1
  13361  13360  13366  13372     1  0.0000000  0.6694400  3
  13361  13360  13359  13363     1  0.0000000  0.6508444  3
  13362  13360  13361  13365     1  0.0000000  1.0460000  1
  13362  13360  13361  13365     1  0.0000000  0.0000000  3
  13362  13360  13361  13377     1  0.0000000  1.0460000  1
  13362  13360  13361  13377     1  0.0000000  0.0000000  3
  13362  13360  13361  13364     1  0.0000000  0.6508444  3
  13362  13360  13366  13372     1  0.0000000  0.6973333  3
  13362  13360  13359  13367     1  0.0000000  1.0460000  1
  13362  13360  13359  13367     1  0.0000000  0.0000000  3
  13362  13360  13359  13363     1  0.0000000  0.6508444  3
  13363  13359  13360  13366     1  0.0000000  1.0460000  1
  13363  13359  13360  13366     1  0.0000000  0.0000000  3
  13363  13359  13367  13370     1  0.0000000  0.6973333  3
  13363  13359  13356  13368     1  0.0000000  1.0460000  1
  13363  13359  13356  13368     1  0.0000000  0.0000000  3
  13364  13361  13360  13366     1  0.0000000  0.6508444  3
  13373  13369  13375  13376     1  0.0000000  0.6973333  3
  13373  13369  13355  13377     1  0.0000000  1.0460000  1
  13373  13369  13355  13377     1  0.0000000  0.0000000  3
  13374  13369  13375  13376     1  0.0000000  0.6973333  3
  13374  13369  13355  13377     1  0.0000000  1.0460000  1
  13374  13369  13355  13377     1  0.0000000  0.0000000  3
  13378  13379  13382  13386     1  0.0000000  0.6508444  3
  13378  13379  13391  13394     1  0.0000000  1.0460000  1
  13378  13379  13391  13394     1  0.0000000  0.6694400  3
  13378  13392  13398  13399     1  0.0000000  1.0460000  1
  13378  13392  13398  13399     1  0.0000000  0.6694400  3
  13378  13400  13384  13387     1  0.0000000  1.6038667  3
  13379  13378  13392  13396     1  0.0000000  0.6508444  3
  13379  13378  13392  13397     1  0.0000000  0.6508444  3
  13379  13382  13383  13385     1  0.0000000  0.6508444  3
  13379  13382  13390  13393     1  0.0000000  1.0460000  1
  13379  13382  13390  13393     1  0.0000000  0.6694400  3
  13380  13378  13379  13382     1  0.0000000  0.6508444  3
  13380  13378  13379  13391     1  0.0000000  1.0460000  1
  13380  13378  13379  13391     1  0.0000000  0.0000000  3
  13380  13378  13379  13381     1  0.0000000  0.6508444  3
  13380  13378  13392  13398     1  0.0000000  1.0460000  1
  13380  13378  13392  13398     1  0.0000000  0.0000000  3
  13380  13378  13392  13396     1  0.0000000  0.6508444  3
  13380  13378  13392  13397     1  0.0000000  0.6508444  3
  13380  13378  13400  13384     1  0.0000000  1.6038667  3
  13381  13379  13378  13392     1  0.0000000  0.6508444  3
  13381  13379  13378  13400     1  0.0000000  1.0460000  1
  13381  13379  13378  13400     1  0.0000000  0.0000000  3
  13381  13379  13382  13383     1  0.0000000  0.6508444  3
  13381  13379  13382  13390     1  0.0000000  1.0460000  1
  13381  13379  13382  13390     1  0.0000000  0.0000000  3
  13381  13379  13382  13386     1  0.0000000  0.6508444  3
  13381  13379  13391  13394     1  0.0000000  0.6973333  3
  13382  13379  13391  13394     1  0.0000000  1.0460000  1
  13382  13379  13391  13394     1  0.0000000  0.6694400  3
  13382  13383  13384  13387     1  0.0000000  0.6508444  3
  13382  13383  13389  13395     1  0.0000000  1.0460000  1
  13382  13383  13389  13395     1  0.0000000  0.6694400  3
  13383  13382  13390  13393     1  0.0000000  1.0460000  1
  13383  13382  13390  13393     1  0.0000000  0.6694400  3
  13384  13383  13382  13386     1  0.0000000  0.6508444  3
  13384  13383  13389  13395     1  0.0000000  1.0460000  1
  13384  13383  13389  13395     1  0.0000000  0.6694400  3
  13385  13383  13382  13390     1  0.0000000  1.0460000  1
  13385  13383  13382  13390     1  0.0000000  0.0000000  3
  13385  13383  13382  13386     1  0.0000000  0.6508444  3
  13385  13383  13384  13388     1  0.0000000  1.0460000  1
  13385  13383  13384  13388     1  0.0000000  0.0000000  3
  13385  13383  13384  13400     1  0.0000000  1.0460000  1
  13385  13383  13384  13400     1  0.0000000  0.0000000  3
  13385  13383  13384  13387     1  0.0000000  0.6508444  3
  13385  13383  13389  13395     1  0.0000000  0.6973333  3
  13386  13382  13379  13391     1  0.0000000  1.0460000  1
  13386  13382  13379  13391     1  0.0000000  0.0000000  3
  13386  13382  13383  13389     1  0.0000000  1.0460000  1
  13386  13382  13383  13389     1  0.0000000  0.0000000  3
  13386  13382  13390  13393     1  0.0000000  0.6973333  3
  13387  13384  13383  13389     1  0.0000000  0.6508444  3
  13396  13392  13378  13400     1  0.0000000  1.0460000  1
  13396  13392  13378  13400     1  0.0000000  0.0000000  3
  13396  13392  13398  13399     1  0.0000000  0.6973333  3
  13397  13392  13378  13400     1  0.0000000  1.0460000  1
  13397  13392  13378  13400     1  0.0000000  0.0000000  3
  13397  13392  13398  13399     1  0.0000000  0.6973333  3
  13401  13402  13405  13409     1  0.0000000  0.6508444  3
  13401  13402  13414  13417     1  0.0000000  1.0460000  1
  13401  13402  13414  13417     1  0.0000000  0.6694400  3
  13401  13415  13421  13422     1  0.0000000  1.0460000  1
  13401  13415  13421  13422     1  0.0000000  0.6694400  3
  13401  13423  13407  13410     1  0.0000000  1.6038667  3
  13402  13405  13406  13408     1  0.0000000  0.6508444  3
  13402  13405  13413  13416     1  0.0000000  1.0460000  1
  13402  13405  13413  13416     1  0.0000000  0.6694400  3
  13402  13401  13415  13419     1  0.0000000  0.6508444  3
  13402  13401  13415  13420     1  0.0000000  0.6508444  3
  13403  13401  13402  13405     1  0.0000000  0.6508444  3
  13403  13401  13402  13414     1  0.0000000  1.0460000  1
  13403  13401  13402  13414     1  0.0000000  0.0000000  3
  13403  13401  13402  13404     1  0.0000000  0.6508444  3
  13403  13401  13415  13421     1  0.0000000  1.0460000  1
  13403  13401  13415  13421     1  0.0000000  0.0000000  3
  13403  13401  13415  13419     1  0.0000000  0.6508444  3
  13403  13401  13415  13420     1  0.0000000  0.6508444  3
  13403  13401  13423  13407     1  0.0000000  1.6038667  3
  13404  13402  13405  13406     1  0.0000000  0.6508444  3
  13404  13402  13405  13413     1  0.0000000  1.0460000  1
  13404  13402  13405  13413     1  0.0000000  0.0000000  3
  13404  13402  13405  13409     1  0.0000000  0.6508444  3
  13404  13402  13414  13417     1  0.0000000  0.6973333  3
  13404  13402  13401  13415     1  0.0000000  0.6508444  3
  13404  13402  13401  13423     1  0.0000000  1.0460000  1
  13404  13402  13401  13423     1  0.0000000  0.0000000  3
  13405  13406  13407  13410     1  0.0000000  0.6508444  3
  13405  13406  13412  13418     1  0.0000000  1.0460000  1
  13405  13406  13412  13418     1  0.0000000  0.6694400  3
  13405  13402  13414  13417     1  0.0000000  1.0460000  1
  13405  13402  13414  13417     1  0.0000000  0.6694400  3
  13406  13405  13413  13416     1  0.0000000  1.0460000  1
  13406  13405  13413  13416     1  0.0000000  0.6694400  3
  13407  13406  13412  13418     1  0.0000000  1.0460000  1
  13407  13406  13412  13418     1  0.0000000  0.6694400  3
  13407  13406  13405  13409     1  0.0000000  0.6508444  3
  13408  13406  13407  13411     1  0.0000000  1.0460000  1
  13408  13406  13407  13411     1  0.0000000  0.0000000  3
  13408  13406  13407  13423     1  0.0000000  1.0460000  1
  13408  13406  13407  13423     1  0.0000000  0.0000000  3
  13408  13406  13407  13410     1  0.0000000  0.6508444  3
  13408  13406  13412  13418     1  0.0000000  0.6973333  3
  13408  13406  13405  13413     1  0.0000000  1.0460000  1
  13408  13406  13405  13413     1  0.0000000  0.0000000  3
  13408  13406  13405  13409     1  0.0000000  0.6508444  3
  13409  13405  13406  13412     1  0.0000000  1.0460000  1
  13409  13405  13406  13412     1  0.0000000  0.0000000  3
  13409  13405  13413  13416     1  0.0000000  0.6973333  3
  13409  13405  13402  13414     1  0.0000000  1.0460000  1
  13409  13405  13402  13414     1  0.0000000  0.0000000  3
  13410  13407  13406  13412     1  0.0000000  0.6508444  3
  13419  13415  13421  13422     1  0.0000000  0.6973333  3
  13419  13415  13401  13423     1  0.0000000  1.0460000  1
  13419  13415  13401  13423     1  0.0000000  0.0000000  3
  13420  13415  13421  13422     1  0.0000000  0.6973333  3
  13420  13415  13401  13423     1  0.0000000  1.0460000  1
  13420  13415  13401  13423     1  0.0000000  0.0000000  3
  13424  13425  13428  13432     1  0.0000000  0.6508444  3
  13424  13425  13437  13440     1  0.0000000  1.0460000  1
  13424  13425  13437  13440     1  0.0000000  0.6694400  3
  13424  13438  13444  13445     1  0.0000000  1.0460000  1
  13424  13438  13444  13445     1  0.0000000  0.6694400  3
  13424  13446  13430  13433     1  0.0000000  1.6038667  3
  13425  13424  13438  13442     1  0.0000000  0.6508444  3
  13425  13424  13438  13443     1  0.0000000  0.6508444  3
  13425  13428  13429  13431     1  0.0000000  0.6508444  3
  13425  13428  13436  13439     1  0.0000000  1.0460000  1
  13425  13428  13436  13439     1  0.0000000  0.6694400  3
  13426  13424  13425  13428     1  0.0000000  0.6508444  3
  13426  13424  13425  13437     1  0.0000000  1.0460000  1
  13426  13424  13425  13437     1  0.0000000  0.0000000  3
  13426  13424  13425  13427     1  0.0000000  0.6508444  3
  13426  13424  13438  13444     1  0.0000000  1.0460000  1
  13426  13424  13438  13444     1  0.0000000  0.0000000  3
  13426  13424  13438  13442     1  0.0000000  0.6508444  3
  13426  13424  13438  13443     1  0.0000000  0.6508444  3
  13426  13424  13446  13430     1  0.0000000  1.6038667  3
  13427  13425  13424  13438     1  0.0000000  0.6508444  3
  13427  13425  13424  13446     1  0.0000000  1.0460000  1
  13427  13425  13424  13446     1  0.0000000  0.0000000  3
  13427  13425  13428  13429     1  0.0000000  0.6508444  3
  13427  13425  13428  13436     1  0.0000000  1.0460000  1
  13427  13425  13428  13436     1  0.0000000  0.0000000  3
  13427  13425  13428  13432     1  0.0000000  0.6508444  3
  13427  13425  13437  13440     1  0.0000000  0.6973333  3
  13428  13425  13437  13440     1  0.0000000  1.0460000  1
  13428  13425  13437  13440     1  0.0000000  0.6694400  3
  13428  13429  13430  13433     1  0.0000000  0.6508444  3
  13428  13429  13435  13441     1  0.0000000  1.0460000  1
  13428  13429  13435  13441     1  0.0000000  0.6694400  3
  13429  13428  13436  13439     1  0.0000000  1.0460000  1
  13429  13428  13436  13439     1  0.0000000  0.6694400  3
  13430  13429  13428  13432     1  0.0000000  0.6508444  3
  13430  13429  13435  13441     1  0.0000000  1.0460000  1
  13430  13429  13435  13441     1  0.0000000  0.6694400  3
  13431  13429  13428  13436     1  0.0000000  1.0460000  1
  13431  13429  13428  13436     1  0.0000000  0.0000000  3
  13431  13429  13428  13432     1  0.0000000  0.6508444  3
  13431  13429  13430  13434     1  0.0000000  1.0460000  1
  13431  13429  13430  13434     1  0.0000000  0.0000000  3
  13431  13429  13430  13446     1  0.0000000  1.0460000  1
  13431  13429  13430  13446     1  0.0000000  0.0000000  3
  13431  13429  13430  13433     1  0.0000000  0.6508444  3
  13431  13429  13435  13441     1  0.0000000  0.6973333  3
  13432  13428  13425  13437     1  0.0000000  1.0460000  1
  13432  13428  13425  13437     1  0.0000000  0.0000000  3
  13432  13428  13429  13435     1  0.0000000  1.0460000  1
  13432  13428  13429  13435     1  0.0000000  0.0000000  3
  13432  13428  13436  13439     1  0.0000000  0.6973333  3
  13433  13430  13429  13435     1  0.0000000  0.6508444  3
  13442  13438  13424  13446     1  0.0000000  1.0460000  1
  13442  13438  13424  13446     1  0.0000000  0.0000000  3
  13442  13438  13444  13445     1  0.0000000  0.6973333  3
  13443  13438  13424  13446     1  0.0000000  1.0460000  1
  13443  13438  13424  13446     1  0.0000000  0.0000000  3
  13443  13438  13444  13445     1  0.0000000  0.6973333  3
  13447  13448  13451  13455     1  0.0000000  0.6508444  3
  13447  13448  13460  13463     1  0.0000000  1.0460000  1
  13447  13448  13460  13463     1  0.0000000  0.6694400  3
  13447  13461  13467  13468     1  0.0000000  1.0460000  1
  13447  13461  13467  13468     1  0.0000000  0.6694400  3
  13447  13469  13453  13456     1  0.0000000  1.6038667  3
  13448  13451  13452  13454     1  0.0000000  0.6508444  3
  13448  13451  13459  13462     1  0.0000000  1.0460000  1
  13448  13451  13459  13462     1  0.0000000  0.6694400  3
  13448  13447  13461  13465     1  0.0000000  0.6508444  3
  13448  13447  13461  13466     1  0.0000000  0.6508444  3
  13449  13447  13448  13451     1  0.0000000  0.6508444  3
  13449  13447  13448  13460     1  0.0000000  1.0460000  1
  13449  13447  13448  13460     1  0.0000000  0.0000000  3
  13449  13447  13448  13450     1  0.0000000  0.6508444  3
  13449  13447  13461  13467     1  0.0000000  1.0460000  1
  13449  13447  13461  13467     1  0.0000000  0.0000000  3
  13449  13447  13461  13465     1  0.0000000  0.6508444  3
  13449  13447  13461  13466     1  0.0000000  0.6508444  3
  13449  13447  13469  13453     1  0.0000000  1.6038667  3
  13450  13448  13451  13452     1  0.0000000  0.6508444  3
  13450  13448  13451  13459     1  0.0000000  1.0460000  1
  13450  13448  13451  13459     1  0.0000000  0.0000000  3
  13450  13448  13451  13455     1  0.0000000  0.6508444  3
  13450  13448  13460  13463     1  0.0000000  0.6973333  3
  13450  13448  13447  13461     1  0.0000000  0.6508444  3
  13450  13448  13447  13469     1  0.0000000  1.0460000  1
  13450  13448  13447  13469     1  0.0000000  0.0000000  3
  13451  13452  13453  13456     1  0.0000000  0.6508444  3
  13451  13452  13458  13464     1  0.0000000  1.0460000  1
  13451  13452  13458  13464     1  0.0000000  0.6694400  3
  13451  13448  13460  13463     1  0.0000000  1.0460000  1
  13451  13448  13460  13463     1  0.0000000  0.6694400  3
  13452  13451  13459  13462     1  0.0000000  1.0460000  1
  13452  13451  13459  13462     1  0.0000000  0.6694400  3
  13453  13452  13458  13464     1  0.0000000  1.0460000  1
  13453  13452  13458  13464     1  0.0000000  0.6694400  3
  13453  13452  13451  13455     1  0.0000000  0.6508444  3
  13454  13452  13453  13457     1  0.0000000  1.0460000  1
  13454  13452  13453  13457     1  0.0000000  0.0000000  3
  13454  13452  13453  13469     1  0.0000000  1.0460000  1
  13454  13452  13453  13469     1  0.0000000  0.0000000  3
  13454  13452  13453  13456     1  0.0000000  0.6508444  3
  13454  13452  13458  13464     1  0.0000000  0.6973333  3
  13454  13452  13451  13459     1  0.0000000  1.0460000  1
  13454  13452  13451  13459     1  0.0000000  0.0000000  3
  13454  13452  13451  13455     1  0.0000000  0.6508444  3
  13455  13451  13452  13458     1  0.0000000  1.0460000  1
  13455  13451  13452  13458     1  0.0000000  0.0000000  3
  13455  13451  13459  13462     1  0.0000000  0.6973333  3
  13455  13451  13448  13460     1  0.0000000  1.0460000  1
  13455  13451  13448  13460     1  0.0000000  0.0000000  3
  13456  13453  13452  13458     1  0.0000000  0.6508444  3
  13465  13461  13467  13468     1  0.0000000  0.6973333  3
  13465  13461  13447  13469     1  0.0000000  1.0460000  1
  13465  13461  13447  13469     1  0.0000000  0.0000000  3
  13466  13461  13467  13468     1  0.0000000  0.6973333  3
  13466  13461  13447  13469     1  0.0000000  1.0460000  1
  13466  13461  13447  13469     1  0.0000000  0.0000000  3
  13470  13471  13474  13478     1  0.0000000  0.6508444  3
  13470  13471  13483  13486     1  0.0000000  1.0460000  1
  13470  13471  13483  13486     1  0.0000000  0.6694400  3
  13470  13484  13490  13491     1  0.0000000  1.0460000  1
  13470  13484  13490  13491     1  0.0000000  0.6694400  3
  13470  13492  13476  13479     1  0.0000000  1.6038667  3
  13471  13470  13484  13488     1  0.0000000  0.6508444  3
  13471  13470  13484  13489     1  0.0000000  0.6508444  3
  13471  13474  13475  13477     1  0.0000000  0.6508444  3
  13471  13474  13482  13485     1  0.0000000  1.0460000  1
  13471  13474  13482  13485     1  0.0000000  0.6694400  3
  13472  13470  13471  13474     1  0.0000000  0.6508444  3
  13472  13470  13471  13483     1  0.0000000  1.0460000  1
  13472  13470  13471  13483     1  0.0000000  0.0000000  3
  13472  13470  13471  13473     1  0.0000000  0.6508444  3
  13472  13470  13484  13490     1  0.0000000  1.0460000  1
  13472  13470  13484  13490     1  0.0000000  0.0000000  3
  13472  13470  13484  13488     1  0.0000000  0.6508444  3
  13472  13470  13484  13489     1  0.0000000  0.6508444  3
  13472  13470  13492  13476     1  0.0000000  1.6038667  3
  13473  13471  13470  13484     1  0.0000000  0.6508444  3
  13473  13471  13470  13492     1  0.0000000  1.0460000  1
  13473  13471  13470  13492     1  0.0000000  0.0000000  3
  13473  13471  13474  13475     1  0.0000000  0.6508444  3
  13473  13471  13474  13482     1  0.0000000  1.0460000  1
  13473  13471  13474  13482     1  0.0000000  0.0000000  3
  13473  13471  13474  13478     1  0.0000000  0.6508444  3
  13473  13471  13483  13486     1  0.0000000  0.6973333  3
  13474  13471  13483  13486     1  0.0000000  1.0460000  1
  13474  13471  13483  13486     1  0.0000000  0.6694400  3
  13474  13475  13476  13479     1  0.0000000  0.6508444  3
  13474  13475  13481  13487     1  0.0000000  1.0460000  1
  13474  13475  13481  13487     1  0.0000000  0.6694400  3
  13475  13474  13482  13485     1  0.0000000  1.0460000  1
  13475  13474  13482  13485     1  0.0000000  0.6694400  3
  13476  13475  13474  13478     1  0.0000000  0.6508444  3
  13476  13475  13481  13487     1  0.0000000  1.0460000  1
  13476  13475  13481  13487     1  0.0000000  0.6694400  3
  13477  13475  13474  13482     1  0.0000000  1.0460000  1
  13477  13475  13474  13482     1  0.0000000  0.0000000  3
  13477  13475  13474  13478     1  0.0000000  0.6508444  3
  13477  13475  13476  13480     1  0.0000000  1.0460000  1
  13477  13475  13476  13480     1  0.0000000  0.0000000  3
  13477  13475  13476  13492     1  0.0000000  1.0460000  1
  13477  13475  13476  13492     1  0.0000000  0.0000000  3
  13477  13475  13476  13479     1  0.0000000  0.6508444  3
  13477  13475  13481  13487     1  0.0000000  0.6973333  3
  13478  13474  13471  13483     1  0.0000000  1.0460000  1
  13478  13474  13471  13483     1  0.0000000  0.0000000  3
  13478  13474  13475  13481     1  0.0000000  1.0460000  1
  13478  13474  13475  13481     1  0.0000000  0.0000000  3
  13478  13474  13482  13485     1  0.0000000  0.6973333  3
  13479  13476  13475  13481     1  0.0000000  0.6508444  3
  13488  13484  13470  13492     1  0.0000000  1.0460000  1
  13488  13484  13470  13492     1  0.0000000  0.0000000  3
  13488  13484  13490  13491     1  0.0000000  0.6973333  3
  13489  13484  13470  13492     1  0.0000000  1.0460000  1
  13489  13484  13470  13492     1  0.0000000  0.0000000  3
  13489  13484  13490  13491     1  0.0000000  0.6973333  3
  13493  13494  13497  13501     1  0.0000000  0.6508444  3
  13493  13494  13506  13509     1  0.0000000  1.0460000  1
  13493  13494  13506  13509     1  0.0000000  0.6694400  3
  13493  13507  13513  13514     1  0.0000000  1.0460000  1
  13493  13507  13513  13514     1  0.0000000  0.6694400  3
  13493  13515  13499  13502     1  0.0000000  1.6038667  3
  13494  13497  13498  13500     1  0.0000000  0.6508444  3
  13494  13497  13505  13508     1  0.0000000  1.0460000  1
  13494  13497  13505  13508     1  0.0000000  0.6694400  3
  13494  13493  13507  13511     1  0.0000000  0.6508444  3
  13494  13493  13507  13512     1  0.0000000  0.6508444  3
  13495  13493  13494  13497     1  0.0000000  0.6508444  3
  13495  13493  13494  13506     1  0.0000000  1.0460000  1
  13495  13493  13494  13506     1  0.0000000  0.0000000  3
  13495  13493  13494  13496     1  0.0000000  0.6508444  3
  13495  13493  13507  13513     1  0.0000000  1.0460000  1
  13495  13493  13507  13513     1  0.0000000  0.0000000  3
  13495  13493  13507  13511     1  0.0000000  0.6508444  3
  13495  13493  13507  13512     1  0.0000000  0.6508444  3
  13495  13493  13515  13499     1  0.0000000  1.6038667  3
  13496  13494  13497  13498     1  0.0000000  0.6508444  3
  13496  13494  13497  13505     1  0.0000000  1.0460000  1
  13496  13494  13497  13505     1  0.0000000  0.0000000  3
  13496  13494  13497  13501     1  0.0000000  0.6508444  3
  13496  13494  13506  13509     1  0.0000000  0.6973333  3
  13496  13494  13493  13507     1  0.0000000  0.6508444  3
  13496  13494  13493  13515     1  0.0000000  1.0460000  1
  13496  13494  13493  13515     1  0.0000000  0.0000000  3
  13497  13498  13499  13502     1  0.0000000  0.6508444  3
  13497  13498  13504  13510     1  0.0000000  1.0460000  1
  13497  13498  13504  13510     1  0.0000000  0.6694400  3
  13497  13494  13506  13509     1  0.0000000  1.0460000  1
  13497  13494  13506  13509     1  0.0000000  0.6694400  3
  13498  13497  13505  13508     1  0.0000000  1.0460000  1
  13498  13497  13505  13508     1  0.0000000  0.6694400  3
  13499  13498  13504  13510     1  0.0000000  1.0460000  1
  13499  13498  13504  13510     1  0.0000000  0.6694400  3
  13499  13498  13497  13501     1  0.0000000  0.6508444  3
  13500  13498  13499  13503     1  0.0000000  1.0460000  1
  13500  13498  13499  13503     1  0.0000000  0.0000000  3
  13500  13498  13499  13515     1  0.0000000  1.0460000  1
  13500  13498  13499  13515     1  0.0000000  0.0000000  3
  13500  13498  13499  13502     1  0.0000000  0.6508444  3
  13500  13498  13504  13510     1  0.0000000  0.6973333  3
  13500  13498  13497  13505     1  0.0000000  1.0460000  1
  13500  13498  13497  13505     1  0.0000000  0.0000000  3
  13500  13498  13497  13501     1  0.0000000  0.6508444  3
  13501  13497  13498  13504     1  0.0000000  1.0460000  1
  13501  13497  13498  13504     1  0.0000000  0.0000000  3
  13501  13497  13505  13508     1  0.0000000  0.6973333  3
  13501  13497  13494  13506     1  0.0000000  1.0460000  1
  13501  13497  13494  13506     1  0.0000000  0.0000000  3
  13502  13499  13498  13504     1  0.0000000  0.6508444  3
  13511  13507  13513  13514     1  0.0000000  0.6973333  3
  13511  13507  13493  13515     1  0.0000000  1.0460000  1
  13511  13507  13493  13515     1  0.0000000  0.0000000  3
  13512  13507  13513  13514     1  0.0000000  0.6973333  3
  13512  13507  13493  13515     1  0.0000000  1.0460000  1
  13512  13507  13493  13515     1  0.0000000  0.0000000  3
  13516  13517  13520  13524     1  0.0000000  0.6508444  3
  13516  13517  13529  13532     1  0.0000000  1.0460000  1
  13516  13517  13529  13532     1  0.0000000  0.6694400  3
  13516  13530  13536  13537     1  0.0000000  1.0460000  1
  13516  13530  13536  13537     1  0.0000000  0.6694400  3
  13516  13538  13522  13525     1  0.0000000  1.6038667  3
  13517  13516  13530  13534     1  0.0000000  0.6508444  3
  13517  13516  13530  13535     1  0.0000000  0.6508444  3
  13517  13520  13521  13523     1  0.0000000  0.6508444  3
  13517  13520  13528  13531     1  0.0000000  1.0460000  1
  13517  13520  13528  13531     1  0.0000000  0.6694400  3
  13518  13516  13517  13520     1  0.0000000  0.6508444  3
  13518  13516  13517  13529     1  0.0000000  1.0460000  1
  13518  13516  13517  13529     1  0.0000000  0.0000000  3
  13518  13516  13517  13519     1  0.0000000  0.6508444  3
  13518  13516  13530  13536     1  0.0000000  1.0460000  1
  13518  13516  13530  13536     1  0.0000000  0.0000000  3
  13518  13516  13530  13534     1  0.0000000  0.6508444  3
  13518  13516  13530  13535     1  0.0000000  0.6508444  3
  13518  13516  13538  13522     1  0.0000000  1.6038667  3
  13519  13517  13516  13530     1  0.0000000  0.6508444  3
  13519  13517  13516  13538     1  0.0000000  1.0460000  1
  13519  13517  13516  13538     1  0.0000000  0.0000000  3
  13519  13517  13520  13521     1  0.0000000  0.6508444  3
  13519  13517  13520  13528     1  0.0000000  1.0460000  1
  13519  13517  13520  13528     1  0.0000000  0.0000000  3
  13519  13517  13520  13524     1  0.0000000  0.6508444  3
  13519  13517  13529  13532     1  0.0000000  0.6973333  3
  13520  13517  13529  13532     1  0.0000000  1.0460000  1
  13520  13517  13529  13532     1  0.0000000  0.6694400  3
  13520  13521  13522  13525     1  0.0000000  0.6508444  3
  13520  13521  13527  13533     1  0.0000000  1.0460000  1
  13520  13521  13527  13533     1  0.0000000  0.6694400  3
  13521  13520  13528  13531     1  0.0000000  1.0460000  1
  13521  13520  13528  13531     1  0.0000000  0.6694400  3
  13522  13521  13520  13524     1  0.0000000  0.6508444  3
  13522  13521  13527  13533     1  0.0000000  1.0460000  1
  13522  13521  13527  13533     1  0.0000000  0.6694400  3
  13523  13521  13520  13528     1  0.0000000  1.0460000  1
  13523  13521  13520  13528     1  0.0000000  0.0000000  3
  13523  13521  13520  13524     1  0.0000000  0.6508444  3
  13523  13521  13522  13526     1  0.0000000  1.0460000  1
  13523  13521  13522  13526     1  0.0000000  0.0000000  3
  13523  13521  13522  13538     1  0.0000000  1.0460000  1
  13523  13521  13522  13538     1  0.0000000  0.0000000  3
  13523  13521  13522  13525     1  0.0000000  0.6508444  3
  13523  13521  13527  13533     1  0.0000000  0.6973333  3
  13524  13520  13517  13529     1  0.0000000  1.0460000  1
  13524  13520  13517  13529     1  0.0000000  0.0000000  3
  13524  13520  13521  13527     1  0.0000000  1.0460000  1
  13524  13520  13521  13527     1  0.0000000  0.0000000  3
  13524  13520  13528  13531     1  0.0000000  0.6973333  3
  13525  13522  13521  13527     1  0.0000000  0.6508444  3
  13534  13530  13516  13538     1  0.0000000  1.0460000  1
  13534  13530  13516  13538     1  0.0000000  0.0000000  3
  13534  13530  13536  13537     1  0.0000000  0.6973333  3
  13535  13530  13516  13538     1  0.0000000  1.0460000  1
  13535  13530  13516  13538     1  0.0000000  0.0000000  3
  13535  13530  13536  13537     1  0.0000000  0.6973333  3
  13539  13540  13543  13547     1  0.0000000  0.6508444  3
  13539  13540  13552  13555     1  0.0000000  1.0460000  1
  13539  13540  13552  13555     1  0.0000000  0.6694400  3
  13539  13553  13559  13560     1  0.0000000  1.0460000  1
  13539  13553  13559  13560     1  0.0000000  0.6694400  3
  13539  13561  13545  13548     1  0.0000000  1.6038667  3
  13540  13543  13544  13546     1  0.0000000  0.6508444  3
  13540  13543  13551  13554     1  0.0000000  1.0460000  1
  13540  13543  13551  13554     1  0.0000000  0.6694400  3
  13540  13539  13553  13557     1  0.0000000  0.6508444  3
  13540  13539  13553  13558     1  0.0000000  0.6508444  3
  13541  13539  13540  13543     1  0.0000000  0.6508444  3
  13541  13539  13540  13552     1  0.0000000  1.0460000  1
  13541  13539  13540  13552     1  0.0000000  0.0000000  3
  13541  13539  13540  13542     1  0.0000000  0.6508444  3
  13541  13539  13553  13559     1  0.0000000  1.0460000  1
  13541  13539  13553  13559     1  0.0000000  0.0000000  3
  13541  13539  13553  13557     1  0.0000000  0.6508444  3
  13541  13539  13553  13558     1  0.0000000  0.6508444  3
  13541  13539  13561  13545     1  0.0000000  1.6038667  3
  13542  13540  13543  13544     1  0.0000000  0.6508444  3
  13542  13540  13543  13551     1  0.0000000  1.0460000  1
  13542  13540  13543  13551     1  0.0000000  0.0000000  3
  13542  13540  13543  13547     1  0.0000000  0.6508444  3
  13542  13540  13552  13555     1  0.0000000  0.6973333  3
  13542  13540  13539  13553     1  0.0000000  0.6508444  3
  13542  13540  13539  13561     1  0.0000000  1.0460000  1
  13542  13540  13539  13561     1  0.0000000  0.0000000  3
  13543  13544  13545  13548     1  0.0000000  0.6508444  3
  13543  13544  13550  13556     1  0.0000000  1.0460000  1
  13543  13544  13550  13556     1  0.0000000  0.6694400  3
  13543  13540  13552  13555     1  0.0000000  1.0460000  1
  13543  13540  13552  13555     1  0.0000000  0.6694400  3
  13544  13543  13551  13554     1  0.0000000  1.0460000  1
  13544  13543  13551  13554     1  0.0000000  0.6694400  3
  13545  13544  13550  13556     1  0.0000000  1.0460000  1
  13545  13544  13550  13556     1  0.0000000  0.6694400  3
  13545  13544  13543  13547     1  0.0000000  0.6508444  3
  13546  13544  13545  13549     1  0.0000000  1.0460000  1
  13546  13544  13545  13549     1  0.0000000  0.0000000  3
  13546  13544  13545  13561     1  0.0000000  1.0460000  1
  13546  13544  13545  13561     1  0.0000000  0.0000000  3
  13546  13544  13545  13548     1  0.0000000  0.6508444  3
  13546  13544  13550  13556     1  0.0000000  0.6973333  3
  13546  13544  13543  13551     1  0.0000000  1.0460000  1
  13546  13544  13543  13551     1  0.0000000  0.0000000  3
  13546  13544  13543  13547     1  0.0000000  0.6508444  3
  13547  13543  13544  13550     1  0.0000000  1.0460000  1
  13547  13543  13544  13550     1  0.0000000  0.0000000  3
  13547  13543  13551  13554     1  0.0000000  0.6973333  3
  13547  13543  13540  13552     1  0.0000000  1.0460000  1
  13547  13543  13540  13552     1  0.0000000  0.0000000  3
  13548  13545  13544  13550     1  0.0000000  0.6508444  3
  13557  13553  13559  13560     1  0.0000000  0.6973333  3
  13557  13553  13539  13561     1  0.0000000  1.0460000  1
  13557  13553  13539  13561     1  0.0000000  0.0000000  3
  13558  13553  13559  13560     1  0.0000000  0.6973333  3
  13558  13553  13539  13561     1  0.0000000  1.0460000  1
  13558  13553  13539  13561     1  0.0000000  0.0000000  3
  13562  13563  13566  13570     1  0.0000000  0.6508444  3
  13562  13563  13575  13578     1  0.0000000  1.0460000  1
  13562  13563  13575  13578     1  0.0000000  0.6694400  3
  13562  13576  13582  13583     1  0.0000000  1.0460000  1
  13562  13576  13582  13583     1  0.0000000  0.6694400  3
  13562  13584  13568  13571     1  0.0000000  1.6038667  3
  13563  13562  13576  13580     1  0.0000000  0.6508444  3
  13563  13562  13576  13581     1  0.0000000  0.6508444  3
  13563  13566  13567  13569     1  0.0000000  0.6508444  3
  13563  13566  13574  13577     1  0.0000000  1.0460000  1
  13563  13566  13574  13577     1  0.0000000  0.6694400  3
  13564  13562  13563  13566     1  0.0000000  0.6508444  3
  13564  13562  13563  13575     1  0.0000000  1.0460000  1
  13564  13562  13563  13575     1  0.0000000  0.0000000  3
  13564  13562  13563  13565     1  0.0000000  0.6508444  3
  13564  13562  13576  13582     1  0.0000000  1.0460000  1
  13564  13562  13576  13582     1  0.0000000  0.0000000  3
  13564  13562  13576  13580     1  0.0000000  0.6508444  3
  13564  13562  13576  13581     1  0.0000000  0.6508444  3
  13564  13562  13584  13568     1  0.0000000  1.6038667  3
  13565  13563  13562  13576     1  0.0000000  0.6508444  3
  13565  13563  13562  13584     1  0.0000000  1.0460000  1
  13565  13563  13562  13584     1  0.0000000  0.0000000  3
  13565  13563  13566  13567     1  0.0000000  0.6508444  3
  13565  13563  13566  13574     1  0.0000000  1.0460000  1
  13565  13563  13566  13574     1  0.0000000  0.0000000  3
  13565  13563  13566  13570     1  0.0000000  0.6508444  3
  13565  13563  13575  13578     1  0.0000000  0.6973333  3
  13566  13563  13575  13578     1  0.0000000  1.0460000  1
  13566  13563  13575  13578     1  0.0000000  0.6694400  3
  13566  13567  13568  13571     1  0.0000000  0.6508444  3
  13566  13567  13573  13579     1  0.0000000  1.0460000  1
  13566  13567  13573  13579     1  0.0000000  0.6694400  3
  13567  13566  13574  13577     1  0.0000000  1.0460000  1
  13567  13566  13574  13577     1  0.0000000  0.6694400  3
  13568  13567  13566  13570     1  0.0000000  0.6508444  3
  13568  13567  13573  13579     1  0.0000000  1.0460000  1
  13568  13567  13573  13579     1  0.0000000  0.6694400  3
  13569  13567  13566  13574     1  0.0000000  1.0460000  1
  13569  13567  13566  13574     1  0.0000000  0.0000000  3
  13569  13567  13566  13570     1  0.0000000  0.6508444  3
  13569  13567  13568  13572     1  0.0000000  1.0460000  1
  13569  13567  13568  13572     1  0.0000000  0.0000000  3
  13569  13567  13568  13584     1  0.0000000  1.0460000  1
  13569  13567  13568  13584     1  0.0000000  0.0000000  3
  13569  13567  13568  13571     1  0.0000000  0.6508444  3
  13569  13567  13573  13579     1  0.0000000  0.6973333  3
  13570  13566  13563  13575     1  0.0000000  1.0460000  1
  13570  13566  13563  13575     1  0.0000000  0.0000000  3
  13570  13566  13567  13573     1  0.0000000  1.0460000  1
  13570  13566  13567  13573     1  0.0000000  0.0000000  3
  13570  13566  13574  13577     1  0.0000000  0.6973333  3
  13571  13568  13567  13573     1  0.0000000  0.6508444  3
  13580  13576  13562  13584     1  0.0000000  1.0460000  1
  13580  13576  13562  13584     1  0.0000000  0.0000000  3
  13580  13576  13582  13583     1  0.0000000  0.6973333  3
  13581  13576  13562  13584     1  0.0000000  1.0460000  1
  13581  13576  13562  13584     1  0.0000000  0.0000000  3
  13581  13576  13582  13583     1  0.0000000  0.6973333  3
  13585  13586  13589  13593     1  0.0000000  0.6508444  3
  13585  13586  13598  13601     1  0.0000000  1.0460000  1
  13585  13586  13598  13601     1  0.0000000  0.6694400  3
  13585  13599  13605  13606     1  0.0000000  1.0460000  1
  13585  13599  13605  13606     1  0.0000000  0.6694400  3
  13585  13607  13591  13594     1  0.0000000  1.6038667  3
  13586  13589  13590  13592     1  0.0000000  0.6508444  3
  13586  13589  13597  13600     1  0.0000000  1.0460000  1
  13586  13589  13597  13600     1  0.0000000  0.6694400  3
  13586  13585  13599  13603     1  0.0000000  0.6508444  3
  13586  13585  13599  13604     1  0.0000000  0.6508444  3
  13587  13585  13586  13589     1  0.0000000  0.6508444  3
  13587  13585  13586  13598     1  0.0000000  1.0460000  1
  13587  13585  13586  13598     1  0.0000000  0.0000000  3
  13587  13585  13586  13588     1  0.0000000  0.6508444  3
  13587  13585  13599  13605     1  0.0000000  1.0460000  1
  13587  13585  13599  13605     1  0.0000000  0.0000000  3
  13587  13585  13599  13603     1  0.0000000  0.6508444  3
  13587  13585  13599  13604     1  0.0000000  0.6508444  3
  13587  13585  13607  13591     1  0.0000000  1.6038667  3
  13588  13586  13589  13590     1  0.0000000  0.6508444  3
  13588  13586  13589  13597     1  0.0000000  1.0460000  1
  13588  13586  13589  13597     1  0.0000000  0.0000000  3
  13588  13586  13589  13593     1  0.0000000  0.6508444  3
  13588  13586  13598  13601     1  0.0000000  0.6973333  3
  13588  13586  13585  13599     1  0.0000000  0.6508444  3
  13588  13586  13585  13607     1  0.0000000  1.0460000  1
  13588  13586  13585  13607     1  0.0000000  0.0000000  3
  13589  13590  13591  13594     1  0.0000000  0.6508444  3
  13589  13590  13596  13602     1  0.0000000  1.0460000  1
  13589  13590  13596  13602     1  0.0000000  0.6694400  3
  13589  13586  13598  13601     1  0.0000000  1.0460000  1
  13589  13586  13598  13601     1  0.0000000  0.6694400  3
  13590  13589  13597  13600     1  0.0000000  1.0460000  1
  13590  13589  13597  13600     1  0.0000000  0.6694400  3
  13591  13590  13596  13602     1  0.0000000  1.0460000  1
  13591  13590  13596  13602     1  0.0000000  0.6694400  3
  13591  13590  13589  13593     1  0.0000000  0.6508444  3
  13592  13590  13591  13595     1  0.0000000  1.0460000  1
  13592  13590  13591  13595     1  0.0000000  0.0000000  3
  13592  13590  13591  13607     1  0.0000000  1.0460000  1
  13592  13590  13591  13607     1  0.0000000  0.0000000  3
  13592  13590  13591  13594     1  0.0000000  0.6508444  3
  13592  13590  13596  13602     1  0.0000000  0.6973333  3
  13592  13590  13589  13597     1  0.0000000  1.0460000  1
  13592  13590  13589  13597     1  0.0000000  0.0000000  3
  13592  13590  13589  13593     1  0.0000000  0.6508444  3
  13593  13589  13590  13596     1  0.0000000  1.0460000  1
  13593  13589  13590  13596     1  0.0000000  0.0000000  3
  13593  13589  13597  13600     1  0.0000000  0.6973333  3
  13593  13589  13586  13598     1  0.0000000  1.0460000  1
  13593  13589  13586  13598     1  0.0000000  0.0000000  3
  13594  13591  13590  13596     1  0.0000000  0.6508444  3
  13603  13599  13605  13606     1  0.0000000  0.6973333  3
  13603  13599  13585  13607     1  0.0000000  1.0460000  1
  13603  13599  13585  13607     1  0.0000000  0.0000000  3
  13604  13599  13605  13606     1  0.0000000  0.6973333  3
  13604  13599  13585  13607     1  0.0000000  1.0460000  1
  13604  13599  13585  13607     1  0.0000000  0.0000000  3
  13608  13609  13612  13616     1  0.0000000  0.6508444  3
  13608  13609  13621  13624     1  0.0000000  1.0460000  1
  13608  13609  13621  13624     1  0.0000000  0.6694400  3
  13608  13622  13628  13629     1  0.0000000  1.0460000  1
  13608  13622  13628  13629     1  0.0000000  0.6694400  3
  13608  13630  13614  13617     1  0.0000000  1.6038667  3
  13609  13608  13622  13626     1  0.0000000  0.6508444  3
  13609  13608  13622  13627     1  0.0000000  0.6508444  3
  13609  13612  13613  13615     1  0.0000000  0.6508444  3
  13609  13612  13620  13623     1  0.0000000  1.0460000  1
  13609  13612  13620  13623     1  0.0000000  0.6694400  3
  13610  13608  13609  13612     1  0.0000000  0.6508444  3
  13610  13608  13609  13621     1  0.0000000  1.0460000  1
  13610  13608  13609  13621     1  0.0000000  0.0000000  3
  13610  13608  13609  13611     1  0.0000000  0.6508444  3
  13610  13608  13622  13628     1  0.0000000  1.0460000  1
  13610  13608  13622  13628     1  0.0000000  0.0000000  3
  13610  13608  13622  13626     1  0.0000000  0.6508444  3
  13610  13608  13622  13627     1  0.0000000  0.6508444  3
  13610  13608  13630  13614     1  0.0000000  1.6038667  3
  13611  13609  13608  13622     1  0.0000000  0.6508444  3
  13611  13609  13608  13630     1  0.0000000  1.0460000  1
  13611  13609  13608  13630     1  0.0000000  0.0000000  3
  13611  13609  13612  13613     1  0.0000000  0.6508444  3
  13611  13609  13612  13620     1  0.0000000  1.0460000  1
  13611  13609  13612  13620     1  0.0000000  0.0000000  3
  13611  13609  13612  13616     1  0.0000000  0.6508444  3
  13611  13609  13621  13624     1  0.0000000  0.6973333  3
  13612  13609  13621  13624     1  0.0000000  1.0460000  1
  13612  13609  13621  13624     1  0.0000000  0.6694400  3
  13612  13613  13614  13617     1  0.0000000  0.6508444  3
  13612  13613  13619  13625     1  0.0000000  1.0460000  1
  13612  13613  13619  13625     1  0.0000000  0.6694400  3
  13613  13612  13620  13623     1  0.0000000  1.0460000  1
  13613  13612  13620  13623     1  0.0000000  0.6694400  3
  13614  13613  13612  13616     1  0.0000000  0.6508444  3
  13614  13613  13619  13625     1  0.0000000  1.0460000  1
  13614  13613  13619  13625     1  0.0000000  0.6694400  3
  13615  13613  13612  13620     1  0.0000000  1.0460000  1
  13615  13613  13612  13620     1  0.0000000  0.0000000  3
  13615  13613  13612  13616     1  0.0000000  0.6508444  3
  13615  13613  13614  13618     1  0.0000000  1.0460000  1
  13615  13613  13614  13618     1  0.0000000  0.0000000  3
  13615  13613  13614  13630     1  0.0000000  1.0460000  1
  13615  13613  13614  13630     1  0.0000000  0.0000000  3
  13615  13613  13614  13617     1  0.0000000  0.6508444  3
  13615  13613  13619  13625     1  0.0000000  0.6973333  3
  13616  13612  13609  13621     1  0.0000000  1.0460000  1
  13616  13612  13609  13621     1  0.0000000  0.0000000  3
  13616  13612  13613  13619     1  0.0000000  1.0460000  1
  13616  13612  13613  13619     1  0.0000000  0.0000000  3
  13616  13612  13620  13623     1  0.0000000  0.6973333  3
  13617  13614  13613  13619     1  0.0000000  0.6508444  3
  13626  13622  13608  13630     1  0.0000000  1.0460000  1
  13626  13622  13608  13630     1  0.0000000  0.0000000  3
  13626  13622  13628  13629     1  0.0000000  0.6973333  3
  13627  13622  13608  13630     1  0.0000000  1.0460000  1
  13627  13622  13608  13630     1  0.0000000  0.0000000  3
  13627  13622  13628  13629     1  0.0000000  0.6973333  3
  13631  13632  13635  13639     1  0.0000000  0.6508444  3
  13631  13632  13644  13647     1  0.0000000  1.0460000  1
  13631  13632  13644  13647     1  0.0000000  0.6694400  3
  13631  13645  13651  13652     1  0.0000000  1.0460000  1
  13631  13645  13651  13652     1  0.0000000  0.6694400  3
  13631  13653  13637  13640     1  0.0000000  1.6038667  3
  13632  13635  13636  13638     1  0.0000000  0.6508444  3
  13632  13635  13643  13646     1  0.0000000  1.0460000  1
  13632  13635  13643  13646     1  0.0000000  0.6694400  3
  13632  13631  13645  13649     1  0.0000000  0.6508444  3
  13632  13631  13645  13650     1  0.0000000  0.6508444  3
  13633  13631  13632  13635     1  0.0000000  0.6508444  3
  13633  13631  13632  13644     1  0.0000000  1.0460000  1
  13633  13631  13632  13644     1  0.0000000  0.0000000  3
  13633  13631  13632  13634     1  0.0000000  0.6508444  3
  13633  13631  13645  13651     1  0.0000000  1.0460000  1
  13633  13631  13645  13651     1  0.0000000  0.0000000  3
  13633  13631  13645  13649     1  0.0000000  0.6508444  3
  13633  13631  13645  13650     1  0.0000000  0.6508444  3
  13633  13631  13653  13637     1  0.0000000  1.6038667  3
  13634  13632  13635  13636     1  0.0000000  0.6508444  3
  13634  13632  13635  13643     1  0.0000000  1.0460000  1
  13634  13632  13635  13643     1  0.0000000  0.0000000  3
  13634  13632  13635  13639     1  0.0000000  0.6508444  3
  13634  13632  13644  13647     1  0.0000000  0.6973333  3
  13634  13632  13631  13645     1  0.0000000  0.6508444  3
  13634  13632  13631  13653     1  0.0000000  1.0460000  1
  13634  13632  13631  13653     1  0.0000000  0.0000000  3
  13635  13636  13637  13640     1  0.0000000  0.6508444  3
  13635  13636  13642  13648     1  0.0000000  1.0460000  1
  13635  13636  13642  13648     1  0.0000000  0.6694400  3
  13635  13632  13644  13647     1  0.0000000  1.0460000  1
  13635  13632  13644  13647     1  0.0000000  0.6694400  3
  13636  13635  13643  13646     1  0.0000000  1.0460000  1
  13636  13635  13643  13646     1  0.0000000  0.6694400  3
  13637  13636  13642  13648     1  0.0000000  1.0460000  1
  13637  13636  13642  13648     1  0.0000000  0.6694400  3
  13637  13636  13635  13639     1  0.0000000  0.6508444  3
  13638  13636  13637  13641     1  0.0000000  1.0460000  1
  13638  13636  13637  13641     1  0.0000000  0.0000000  3
  13638  13636  13637  13653     1  0.0000000  1.0460000  1
  13638  13636  13637  13653     1  0.0000000  0.0000000  3
  13638  13636  13637  13640     1  0.0000000  0.6508444  3
  13638  13636  13642  13648     1  0.0000000  0.6973333  3
  13638  13636  13635  13643     1  0.0000000  1.0460000  1
  13638  13636  13635  13643     1  0.0000000  0.0000000  3
  13638  13636  13635  13639     1  0.0000000  0.6508444  3
  13639  13635  13636  13642     1  0.0000000  1.0460000  1
  13639  13635  13636  13642     1  0.0000000  0.0000000  3
  13639  13635  13643  13646     1  0.0000000  0.6973333  3
  13639  13635  13632  13644     1  0.0000000  1.0460000  1
  13639  13635  13632  13644     1  0.0000000  0.0000000  3
  13640  13637  13636  13642     1  0.0000000  0.6508444  3
  13649  13645  13651  13652     1  0.0000000  0.6973333  3
  13649  13645  13631  13653     1  0.0000000  1.0460000  1
  13649  13645  13631  13653     1  0.0000000  0.0000000  3
  13650  13645  13651  13652     1  0.0000000  0.6973333  3
  13650  13645  13631  13653     1  0.0000000  1.0460000  1
  13650  13645  13631  13653     1  0.0000000  0.0000000  3
  13654  13655  13658  13662     1  0.0000000  0.6508444  3
  13654  13655  13667  13670     1  0.0000000  1.0460000  1
  13654  13655  13667  13670     1  0.0000000  0.6694400  3
  13654  13668  13674  13675     1  0.0000000  1.0460000  1
  13654  13668  13674  13675     1  0.0000000  0.6694400  3
  13654  13676  13660  13663     1  0.0000000  1.6038667  3
  13655  13654  13668  13672     1  0.0000000  0.6508444  3
  13655  13654  13668  13673     1  0.0000000  0.6508444  3
  13655  13658  13659  13661     1  0.0000000  0.6508444  3
  13655  13658  13666  13669     1  0.0000000  1.0460000  1
  13655  13658  13666  13669     1  0.0000000  0.6694400  3
  13656  13654  13655  13658     1  0.0000000  0.6508444  3
  13656  13654  13655  13667     1  0.0000000  1.0460000  1
  13656  13654  13655  13667     1  0.0000000  0.0000000  3
  13656  13654  13655  13657     1  0.0000000  0.6508444  3
  13656  13654  13668  13674     1  0.0000000  1.0460000  1
  13656  13654  13668  13674     1  0.0000000  0.0000000  3
  13656  13654  13668  13672     1  0.0000000  0.6508444  3
  13656  13654  13668  13673     1  0.0000000  0.6508444  3
  13656  13654  13676  13660     1  0.0000000  1.6038667  3
  13657  13655  13654  13668     1  0.0000000  0.6508444  3
  13657  13655  13654  13676     1  0.0000000  1.0460000  1
  13657  13655  13654  13676     1  0.0000000  0.0000000  3
  13657  13655  13658  13659     1  0.0000000  0.6508444  3
  13657  13655  13658  13666     1  0.0000000  1.0460000  1
  13657  13655  13658  13666     1  0.0000000  0.0000000  3
  13657  13655  13658  13662     1  0.0000000  0.6508444  3
  13657  13655  13667  13670     1  0.0000000  0.6973333  3
  13658  13655  13667  13670     1  0.0000000  1.0460000  1
  13658  13655  13667  13670     1  0.0000000  0.6694400  3
  13658  13659  13660  13663     1  0.0000000  0.6508444  3
  13658  13659  13665  13671     1  0.0000000  1.0460000  1
  13658  13659  13665  13671     1  0.0000000  0.6694400  3
  13659  13658  13666  13669     1  0.0000000  1.0460000  1
  13659  13658  13666  13669     1  0.0000000  0.6694400  3
  13660  13659  13658  13662     1  0.0000000  0.6508444  3
  13660  13659  13665  13671     1  0.0000000  1.0460000  1
  13660  13659  13665  13671     1  0.0000000  0.6694400  3
  13661  13659  13658  13666     1  0.0000000  1.0460000  1
  13661  13659  13658  13666     1  0.0000000  0.0000000  3
  13661  13659  13658  13662     1  0.0000000  0.6508444  3
  13661  13659  13660  13664     1  0.0000000  1.0460000  1
  13661  13659  13660  13664     1  0.0000000  0.0000000  3
  13661  13659  13660  13676     1  0.0000000  1.0460000  1
  13661  13659  13660  13676     1  0.0000000  0.0000000  3
  13661  13659  13660  13663     1  0.0000000  0.6508444  3
  13661  13659  13665  13671     1  0.0000000  0.6973333  3
  13662  13658  13655  13667     1  0.0000000  1.0460000  1
  13662  13658  13655  13667     1  0.0000000  0.0000000  3
  13662  13658  13659  13665     1  0.0000000  1.0460000  1
  13662  13658  13659  13665     1  0.0000000  0.0000000  3
  13662  13658  13666  13669     1  0.0000000  0.6973333  3
  13663  13660  13659  13665     1  0.0000000  0.6508444  3
  13672  13668  13654  13676     1  0.0000000  1.0460000  1
  13672  13668  13654  13676     1  0.0000000  0.0000000  3
  13672  13668  13674  13675     1  0.0000000  0.6973333  3
  13673  13668  13654  13676     1  0.0000000  1.0460000  1
  13673  13668  13654  13676     1  0.0000000  0.0000000  3
  13673  13668  13674  13675     1  0.0000000  0.6973333  3
  13677  13678  13681  13685     1  0.0000000  0.6508444  3
  13677  13678  13690  13693     1  0.0000000  1.0460000  1
  13677  13678  13690  13693     1  0.0000000  0.6694400  3
  13677  13691  13697  13698     1  0.0000000  1.0460000  1
  13677  13691  13697  13698     1  0.0000000  0.6694400  3
  13677  13699  13683  13686     1  0.0000000  1.6038667  3
  13678  13681  13682  13684     1  0.0000000  0.6508444  3
  13678  13681  13689  13692     1  0.0000000  1.0460000  1
  13678  13681  13689  13692     1  0.0000000  0.6694400  3
  13678  13677  13691  13695     1  0.0000000  0.6508444  3
  13678  13677  13691  13696     1  0.0000000  0.6508444  3
  13679  13677  13678  13681     1  0.0000000  0.6508444  3
  13679  13677  13678  13690     1  0.0000000  1.0460000  1
  13679  13677  13678  13690     1  0.0000000  0.0000000  3
  13679  13677  13678  13680     1  0.0000000  0.6508444  3
  13679  13677  13691  13697     1  0.0000000  1.0460000  1
  13679  13677  13691  13697     1  0.0000000  0.0000000  3
  13679  13677  13691  13695     1  0.0000000  0.6508444  3
  13679  13677  13691  13696     1  0.0000000  0.6508444  3
  13679  13677  13699  13683     1  0.0000000  1.6038667  3
  13680  13678  13681  13682     1  0.0000000  0.6508444  3
  13680  13678  13681  13689     1  0.0000000  1.0460000  1
  13680  13678  13681  13689     1  0.0000000  0.0000000  3
  13680  13678  13681  13685     1  0.0000000  0.6508444  3
  13680  13678  13690  13693     1  0.0000000  0.6973333  3
  13680  13678  13677  13691     1  0.0000000  0.6508444  3
  13680  13678  13677  13699     1  0.0000000  1.0460000  1
  13680  13678  13677  13699     1  0.0000000  0.0000000  3
  13681  13682  13683  13686     1  0.0000000  0.6508444  3
  13681  13682  13688  13694     1  0.0000000  1.0460000  1
  13681  13682  13688  13694     1  0.0000000  0.6694400  3
  13681  13678  13690  13693     1  0.0000000  1.0460000  1
  13681  13678  13690  13693     1  0.0000000  0.6694400  3
  13682  13681  13689  13692     1  0.0000000  1.0460000  1
  13682  13681  13689  13692     1  0.0000000  0.6694400  3
  13683  13682  13688  13694     1  0.0000000  1.0460000  1
  13683  13682  13688  13694     1  0.0000000  0.6694400  3
  13683  13682  13681  13685     1  0.0000000  0.6508444  3
  13684  13682  13683  13687     1  0.0000000  1.0460000  1
  13684  13682  13683  13687     1  0.0000000  0.0000000  3
  13684  13682  13683  13699     1  0.0000000  1.0460000  1
  13684  13682  13683  13699     1  0.0000000  0.0000000  3
  13684  13682  13683  13686     1  0.0000000  0.6508444  3
  13684  13682  13688  13694     1  0.0000000  0.6973333  3
  13684  13682  13681  13689     1  0.0000000  1.0460000  1
  13684  13682  13681  13689     1  0.0000000  0.0000000  3
  13684  13682  13681  13685     1  0.0000000  0.6508444  3
  13685  13681  13682  13688     1  0.0000000  1.0460000  1
  13685  13681  13682  13688     1  0.0000000  0.0000000  3
  13685  13681  13689  13692     1  0.0000000  0.6973333  3
  13685  13681  13678  13690     1  0.0000000  1.0460000  1
  13685  13681  13678  13690     1  0.0000000  0.0000000  3
  13686  13683  13682  13688     1  0.0000000  0.6508444  3
  13695  13691  13697  13698     1  0.0000000  0.6973333  3
  13695  13691  13677  13699     1  0.0000000  1.0460000  1
  13695  13691  13677  13699     1  0.0000000  0.0000000  3
  13696  13691  13697  13698     1  0.0000000  0.6973333  3
  13696  13691  13677  13699     1  0.0000000  1.0460000  1
  13696  13691  13677  13699     1  0.0000000  0.0000000  3
  13700  13701  13704  13708     1  0.0000000  0.6508444  3
  13700  13701  13713  13716     1  0.0000000  1.0460000  1
  13700  13701  13713  13716     1  0.0000000  0.6694400  3
  13700  13714  13720  13721     1  0.0000000  1.0460000  1
  13700  13714  13720  13721     1  0.0000000  0.6694400  3
  13700  13722  13706  13709     1  0.0000000  1.6038667  3
  13701  13700  13714  13718     1  0.0000000  0.6508444  3
  13701  13700  13714  13719     1  0.0000000  0.6508444  3
  13701  13704  13705  13707     1  0.0000000  0.6508444  3
  13701  13704  13712  13715     1  0.0000000  1.0460000  1
  13701  13704  13712  13715     1  0.0000000  0.6694400  3
  13702  13700  13701  13704     1  0.0000000  0.6508444  3
  13702  13700  13701  13713     1  0.0000000  1.0460000  1
  13702  13700  13701  13713     1  0.0000000  0.0000000  3
  13702  13700  13701  13703     1  0.0000000  0.6508444  3
  13702  13700  13714  13720     1  0.0000000  1.0460000  1
  13702  13700  13714  13720     1  0.0000000  0.0000000  3
  13702  13700  13714  13718     1  0.0000000  0.6508444  3
  13702  13700  13714  13719     1  0.0000000  0.6508444  3
  13702  13700  13722  13706     1  0.0000000  1.6038667  3
  13703  13701  13700  13714     1  0.0000000  0.6508444  3
  13703  13701  13700  13722     1  0.0000000  1.0460000  1
  13703  13701  13700  13722     1  0.0000000  0.0000000  3
  13703  13701  13704  13705     1  0.0000000  0.6508444  3
  13703  13701  13704  13712     1  0.0000000  1.0460000  1
  13703  13701  13704  13712     1  0.0000000  0.0000000  3
  13703  13701  13704  13708     1  0.0000000  0.6508444  3
  13703  13701  13713  13716     1  0.0000000  0.6973333  3
  13704  13701  13713  13716     1  0.0000000  1.0460000  1
  13704  13701  13713  13716     1  0.0000000  0.6694400  3
  13704  13705  13706  13709     1  0.0000000  0.6508444  3
  13704  13705  13711  13717     1  0.0000000  1.0460000  1
  13704  13705  13711  13717     1  0.0000000  0.6694400  3
  13705  13704  13712  13715     1  0.0000000  1.0460000  1
  13705  13704  13712  13715     1  0.0000000  0.6694400  3
  13706  13705  13704  13708     1  0.0000000  0.6508444  3
  13706  13705  13711  13717     1  0.0000000  1.0460000  1
  13706  13705  13711  13717     1  0.0000000  0.6694400  3
  13707  13705  13704  13712     1  0.0000000  1.0460000  1
  13707  13705  13704  13712     1  0.0000000  0.0000000  3
  13707  13705  13704  13708     1  0.0000000  0.6508444  3
  13707  13705  13706  13710     1  0.0000000  1.0460000  1
  13707  13705  13706  13710     1  0.0000000  0.0000000  3
  13707  13705  13706  13722     1  0.0000000  1.0460000  1
  13707  13705  13706  13722     1  0.0000000  0.0000000  3
  13707  13705  13706  13709     1  0.0000000  0.6508444  3
  13707  13705  13711  13717     1  0.0000000  0.6973333  3
  13708  13704  13701  13713     1  0.0000000  1.0460000  1
  13708  13704  13701  13713     1  0.0000000  0.0000000  3
  13708  13704  13705  13711     1  0.0000000  1.0460000  1
  13708  13704  13705  13711     1  0.0000000  0.0000000  3
  13708  13704  13712  13715     1  0.0000000  0.6973333  3
  13709  13706  13705  13711     1  0.0000000  0.6508444  3
  13718  13714  13700  13722     1  0.0000000  1.0460000  1
  13718  13714  13700  13722     1  0.0000000  0.0000000  3
  13718  13714  13720  13721     1  0.0000000  0.6973333  3
  13719  13714  13700  13722     1  0.0000000  1.0460000  1
  13719  13714  13700  13722     1  0.0000000  0.0000000  3
  13719  13714  13720  13721     1  0.0000000  0.6973333  3
  13723  13724  13727  13731     1  0.0000000  0.6508444  3
  13723  13724  13736  13739     1  0.0000000  1.0460000  1
  13723  13724  13736  13739     1  0.0000000  0.6694400  3
  13723  13737  13743  13744     1  0.0000000  1.0460000  1
  13723  13737  13743  13744     1  0.0000000  0.6694400  3
  13723  13745  13729  13732     1  0.0000000  1.6038667  3
  13724  13727  13728  13730     1  0.0000000  0.6508444  3
  13724  13727  13735  13738     1  0.0000000  1.0460000  1
  13724  13727  13735  13738     1  0.0000000  0.6694400  3
  13724  13723  13737  13741     1  0.0000000  0.6508444  3
  13724  13723  13737  13742     1  0.0000000  0.6508444  3
  13725  13723  13724  13727     1  0.0000000  0.6508444  3
  13725  13723  13724  13736     1  0.0000000  1.0460000  1
  13725  13723  13724  13736     1  0.0000000  0.0000000  3
  13725  13723  13724  13726     1  0.0000000  0.6508444  3
  13725  13723  13737  13743     1  0.0000000  1.0460000  1
  13725  13723  13737  13743     1  0.0000000  0.0000000  3
  13725  13723  13737  13741     1  0.0000000  0.6508444  3
  13725  13723  13737  13742     1  0.0000000  0.6508444  3
  13725  13723  13745  13729     1  0.0000000  1.6038667  3
  13726  13724  13727  13728     1  0.0000000  0.6508444  3
  13726  13724  13727  13735     1  0.0000000  1.0460000  1
  13726  13724  13727  13735     1  0.0000000  0.0000000  3
  13726  13724  13727  13731     1  0.0000000  0.6508444  3
  13726  13724  13736  13739     1  0.0000000  0.6973333  3
  13726  13724  13723  13737     1  0.0000000  0.6508444  3
  13726  13724  13723  13745     1  0.0000000  1.0460000  1
  13726  13724  13723  13745     1  0.0000000  0.0000000  3
  13727  13728  13729  13732     1  0.0000000  0.6508444  3
  13727  13728  13734  13740     1  0.0000000  1.0460000  1
  13727  13728  13734  13740     1  0.0000000  0.6694400  3
  13727  13724  13736  13739     1  0.0000000  1.0460000  1
  13727  13724  13736  13739     1  0.0000000  0.6694400  3
  13728  13727  13735  13738     1  0.0000000  1.0460000  1
  13728  13727  13735  13738     1  0.0000000  0.6694400  3
  13729  13728  13734  13740     1  0.0000000  1.0460000  1
  13729  13728  13734  13740     1  0.0000000  0.6694400  3
  13729  13728  13727  13731     1  0.0000000  0.6508444  3
  13730  13728  13729  13733     1  0.0000000  1.0460000  1
  13730  13728  13729  13733     1  0.0000000  0.0000000  3
  13730  13728  13729  13745     1  0.0000000  1.0460000  1
  13730  13728  13729  13745     1  0.0000000  0.0000000  3
  13730  13728  13729  13732     1  0.0000000  0.6508444  3
  13730  13728  13734  13740     1  0.0000000  0.6973333  3
  13730  13728  13727  13735     1  0.0000000  1.0460000  1
  13730  13728  13727  13735     1  0.0000000  0.0000000  3
  13730  13728  13727  13731     1  0.0000000  0.6508444  3
  13731  13727  13728  13734     1  0.0000000  1.0460000  1
  13731  13727  13728  13734     1  0.0000000  0.0000000  3
  13731  13727  13735  13738     1  0.0000000  0.6973333  3
  13731  13727  13724  13736     1  0.0000000  1.0460000  1
  13731  13727  13724  13736     1  0.0000000  0.0000000  3
  13732  13729  13728  13734     1  0.0000000  0.6508444  3
  13741  13737  13743  13744     1  0.0000000  0.6973333  3
  13741  13737  13723  13745     1  0.0000000  1.0460000  1
  13741  13737  13723  13745     1  0.0000000  0.0000000  3
  13742  13737  13743  13744     1  0.0000000  0.6973333  3
  13742  13737  13723  13745     1  0.0000000  1.0460000  1
  13742  13737  13723  13745     1  0.0000000  0.0000000  3
  13746  13747  13750  13754     1  0.0000000  0.6508444  3
  13746  13747  13759  13762     1  0.0000000  1.0460000  1
  13746  13747  13759  13762     1  0.0000000  0.6694400  3
  13746  13760  13766  13767     1  0.0000000  1.0460000  1
  13746  13760  13766  13767     1  0.0000000  0.6694400  3
  13746  13768  13752  13755     1  0.0000000  1.6038667  3
  13747  13746  13760  13764     1  0.0000000  0.6508444  3
  13747  13746  13760  13765     1  0.0000000  0.6508444  3
  13747  13750  13751  13753     1  0.0000000  0.6508444  3
  13747  13750  13758  13761     1  0.0000000  1.0460000  1
  13747  13750  13758  13761     1  0.0000000  0.6694400  3
  13748  13746  13747  13750     1  0.0000000  0.6508444  3
  13748  13746  13747  13759     1  0.0000000  1.0460000  1
  13748  13746  13747  13759     1  0.0000000  0.0000000  3
  13748  13746  13747  13749     1  0.0000000  0.6508444  3
  13748  13746  13760  13766     1  0.0000000  1.0460000  1
  13748  13746  13760  13766     1  0.0000000  0.0000000  3
  13748  13746  13760  13764     1  0.0000000  0.6508444  3
  13748  13746  13760  13765     1  0.0000000  0.6508444  3
  13748  13746  13768  13752     1  0.0000000  1.6038667  3
  13749  13747  13746  13760     1  0.0000000  0.6508444  3
  13749  13747  13746  13768     1  0.0000000  1.0460000  1
  13749  13747  13746  13768     1  0.0000000  0.0000000  3
  13749  13747  13750  13751     1  0.0000000  0.6508444  3
  13749  13747  13750  13758     1  0.0000000  1.0460000  1
  13749  13747  13750  13758     1  0.0000000  0.0000000  3
  13749  13747  13750  13754     1  0.0000000  0.6508444  3
  13749  13747  13759  13762     1  0.0000000  0.6973333  3
  13750  13747  13759  13762     1  0.0000000  1.0460000  1
  13750  13747  13759  13762     1  0.0000000  0.6694400  3
  13750  13751  13752  13755     1  0.0000000  0.6508444  3
  13750  13751  13757  13763     1  0.0000000  1.0460000  1
  13750  13751  13757  13763     1  0.0000000  0.6694400  3
  13751  13750  13758  13761     1  0.0000000  1.0460000  1
  13751  13750  13758  13761     1  0.0000000  0.6694400  3
  13752  13751  13750  13754     1  0.0000000  0.6508444  3
  13752  13751  13757  13763     1  0.0000000  1.0460000  1
  13752  13751  13757  13763     1  0.0000000  0.6694400  3
  13753  13751  13750  13758     1  0.0000000  1.0460000  1
  13753  13751  13750  13758     1  0.0000000  0.0000000  3
  13753  13751  13750  13754     1  0.0000000  0.6508444  3
  13753  13751  13752  13756     1  0.0000000  1.0460000  1
  13753  13751  13752  13756     1  0.0000000  0.0000000  3
  13753  13751  13752  13768     1  0.0000000  1.0460000  1
  13753  13751  13752  13768     1  0.0000000  0.0000000  3
  13753  13751  13752  13755     1  0.0000000  0.6508444  3
  13753  13751  13757  13763     1  0.0000000  0.6973333  3
  13754  13750  13747  13759     1  0.0000000  1.0460000  1
  13754  13750  13747  13759     1  0.0000000  0.0000000  3
  13754  13750  13751  13757     1  0.0000000  1.0460000  1
  13754  13750  13751  13757     1  0.0000000  0.0000000  3
  13754  13750  13758  13761     1  0.0000000  0.6973333  3
  13755  13752  13751  13757     1  0.0000000  0.6508444  3
  13764  13760  13746  13768     1  0.0000000  1.0460000  1
  13764  13760  13746  13768     1  0.0000000  0.0000000  3
  13764  13760  13766  13767     1  0.0000000  0.6973333  3
  13765  13760  13746  13768     1  0.0000000  1.0460000  1
  13765  13760  13746  13768     1  0.0000000  0.0000000  3
  13765  13760  13766  13767     1  0.0000000  0.6973333  3
  13769  13770  13773  13777     1  0.0000000  0.6508444  3
  13769  13770  13782  13785     1  0.0000000  1.0460000  1
  13769  13770  13782  13785     1  0.0000000  0.6694400  3
  13769  13783  13789  13790     1  0.0000000  1.0460000  1
  13769  13783  13789  13790     1  0.0000000  0.6694400  3
  13769  13791  13775  13778     1  0.0000000  1.6038667  3
  13770  13773  13774  13776     1  0.0000000  0.6508444  3
  13770  13773  13781  13784     1  0.0000000  1.0460000  1
  13770  13773  13781  13784     1  0.0000000  0.6694400  3
  13770  13769  13783  13787     1  0.0000000  0.6508444  3
  13770  13769  13783  13788     1  0.0000000  0.6508444  3
  13771  13769  13770  13773     1  0.0000000  0.6508444  3
  13771  13769  13770  13782     1  0.0000000  1.0460000  1
  13771  13769  13770  13782     1  0.0000000  0.0000000  3
  13771  13769  13770  13772     1  0.0000000  0.6508444  3
  13771  13769  13783  13789     1  0.0000000  1.0460000  1
  13771  13769  13783  13789     1  0.0000000  0.0000000  3
  13771  13769  13783  13787     1  0.0000000  0.6508444  3
  13771  13769  13783  13788     1  0.0000000  0.6508444  3
  13771  13769  13791  13775     1  0.0000000  1.6038667  3
  13772  13770  13773  13774     1  0.0000000  0.6508444  3
  13772  13770  13773  13781     1  0.0000000  1.0460000  1
  13772  13770  13773  13781     1  0.0000000  0.0000000  3
  13772  13770  13773  13777     1  0.0000000  0.6508444  3
  13772  13770  13782  13785     1  0.0000000  0.6973333  3
  13772  13770  13769  13783     1  0.0000000  0.6508444  3
  13772  13770  13769  13791     1  0.0000000  1.0460000  1
  13772  13770  13769  13791     1  0.0000000  0.0000000  3
  13773  13774  13775  13778     1  0.0000000  0.6508444  3
  13773  13774  13780  13786     1  0.0000000  1.0460000  1
  13773  13774  13780  13786     1  0.0000000  0.6694400  3
  13773  13770  13782  13785     1  0.0000000  1.0460000  1
  13773  13770  13782  13785     1  0.0000000  0.6694400  3
  13774  13773  13781  13784     1  0.0000000  1.0460000  1
  13774  13773  13781  13784     1  0.0000000  0.6694400  3
  13775  13774  13780  13786     1  0.0000000  1.0460000  1
  13775  13774  13780  13786     1  0.0000000  0.6694400  3
  13775  13774  13773  13777     1  0.0000000  0.6508444  3
  13776  13774  13775  13779     1  0.0000000  1.0460000  1
  13776  13774  13775  13779     1  0.0000000  0.0000000  3
  13776  13774  13775  13791     1  0.0000000  1.0460000  1
  13776  13774  13775  13791     1  0.0000000  0.0000000  3
  13776  13774  13775  13778     1  0.0000000  0.6508444  3
  13776  13774  13780  13786     1  0.0000000  0.6973333  3
  13776  13774  13773  13781     1  0.0000000  1.0460000  1
  13776  13774  13773  13781     1  0.0000000  0.0000000  3
  13776  13774  13773  13777     1  0.0000000  0.6508444  3
  13777  13773  13774  13780     1  0.0000000  1.0460000  1
  13777  13773  13774  13780     1  0.0000000  0.0000000  3
  13777  13773  13781  13784     1  0.0000000  0.6973333  3
  13777  13773  13770  13782     1  0.0000000  1.0460000  1
  13777  13773  13770  13782     1  0.0000000  0.0000000  3
  13778  13775  13774  13780     1  0.0000000  0.6508444  3
  13787  13783  13789  13790     1  0.0000000  0.6973333  3
  13787  13783  13769  13791     1  0.0000000  1.0460000  1
  13787  13783  13769  13791     1  0.0000000  0.0000000  3
  13788  13783  13789  13790     1  0.0000000  0.6973333  3
  13788  13783  13769  13791     1  0.0000000  1.0460000  1
  13788  13783  13769  13791     1  0.0000000  0.0000000  3
  13792  13793  13796  13800     1  0.0000000  0.6508444  3
  13792  13793  13805  13808     1  0.0000000  1.0460000  1
  13792  13793  13805  13808     1  0.0000000  0.6694400  3
  13792  13806  13812  13813     1  0.0000000  1.0460000  1
  13792  13806  13812  13813     1  0.0000000  0.6694400  3
  13792  13814  13798  13801     1  0.0000000  1.6038667  3
  13793  13792  13806  13810     1  0.0000000  0.6508444  3
  13793  13792  13806  13811     1  0.0000000  0.6508444  3
  13793  13796  13797  13799     1  0.0000000  0.6508444  3
  13793  13796  13804  13807     1  0.0000000  1.0460000  1
  13793  13796  13804  13807     1  0.0000000  0.6694400  3
  13794  13792  13793  13796     1  0.0000000  0.6508444  3
  13794  13792  13793  13805     1  0.0000000  1.0460000  1
  13794  13792  13793  13805     1  0.0000000  0.0000000  3
  13794  13792  13793  13795     1  0.0000000  0.6508444  3
  13794  13792  13806  13812     1  0.0000000  1.0460000  1
  13794  13792  13806  13812     1  0.0000000  0.0000000  3
  13794  13792  13806  13810     1  0.0000000  0.6508444  3
  13794  13792  13806  13811     1  0.0000000  0.6508444  3
  13794  13792  13814  13798     1  0.0000000  1.6038667  3
  13795  13793  13792  13806     1  0.0000000  0.6508444  3
  13795  13793  13792  13814     1  0.0000000  1.0460000  1
  13795  13793  13792  13814     1  0.0000000  0.0000000  3
  13795  13793  13796  13797     1  0.0000000  0.6508444  3
  13795  13793  13796  13804     1  0.0000000  1.0460000  1
  13795  13793  13796  13804     1  0.0000000  0.0000000  3
  13795  13793  13796  13800     1  0.0000000  0.6508444  3
  13795  13793  13805  13808     1  0.0000000  0.6973333  3
  13796  13793  13805  13808     1  0.0000000  1.0460000  1
  13796  13793  13805  13808     1  0.0000000  0.6694400  3
  13796  13797  13798  13801     1  0.0000000  0.6508444  3
  13796  13797  13803  13809     1  0.0000000  1.0460000  1
  13796  13797  13803  13809     1  0.0000000  0.6694400  3
  13797  13796  13804  13807     1  0.0000000  1.0460000  1
  13797  13796  13804  13807     1  0.0000000  0.6694400  3
  13798  13797  13796  13800     1  0.0000000  0.6508444  3
  13798  13797  13803  13809     1  0.0000000  1.0460000  1
  13798  13797  13803  13809     1  0.0000000  0.6694400  3
  13799  13797  13796  13804     1  0.0000000  1.0460000  1
  13799  13797  13796  13804     1  0.0000000  0.0000000  3
  13799  13797  13796  13800     1  0.0000000  0.6508444  3
  13799  13797  13798  13802     1  0.0000000  1.0460000  1
  13799  13797  13798  13802     1  0.0000000  0.0000000  3
  13799  13797  13798  13814     1  0.0000000  1.0460000  1
  13799  13797  13798  13814     1  0.0000000  0.0000000  3
  13799  13797  13798  13801     1  0.0000000  0.6508444  3
  13799  13797  13803  13809     1  0.0000000  0.6973333  3
  13800  13796  13793  13805     1  0.0000000  1.0460000  1
  13800  13796  13793  13805     1  0.0000000  0.0000000  3
  13800  13796  13797  13803     1  0.0000000  1.0460000  1
  13800  13796  13797  13803     1  0.0000000  0.0000000  3
  13800  13796  13804  13807     1  0.0000000  0.6973333  3
  13801  13798  13797  13803     1  0.0000000  0.6508444  3
  13810  13806  13792  13814     1  0.0000000  1.0460000  1
  13810  13806  13792  13814     1  0.0000000  0.0000000  3
  13810  13806  13812  13813     1  0.0000000  0.6973333  3
  13811  13806  13792  13814     1  0.0000000  1.0460000  1
  13811  13806  13792  13814     1  0.0000000  0.0000000  3
  13811  13806  13812  13813     1  0.0000000  0.6973333  3
  13815  13816  13819  13823     1  0.0000000  0.6508444  3
  13815  13816  13828  13831     1  0.0000000  1.0460000  1
  13815  13816  13828  13831     1  0.0000000  0.6694400  3
  13815  13829  13835  13836     1  0.0000000  1.0460000  1
  13815  13829  13835  13836     1  0.0000000  0.6694400  3
  13815  13837  13821  13824     1  0.0000000  1.6038667  3
  13816  13819  13820  13822     1  0.0000000  0.6508444  3
  13816  13819  13827  13830     1  0.0000000  1.0460000  1
  13816  13819  13827  13830     1  0.0000000  0.6694400  3
  13816  13815  13829  13833     1  0.0000000  0.6508444  3
  13816  13815  13829  13834     1  0.0000000  0.6508444  3
  13817  13815  13816  13819     1  0.0000000  0.6508444  3
  13817  13815  13816  13828     1  0.0000000  1.0460000  1
  13817  13815  13816  13828     1  0.0000000  0.0000000  3
  13817  13815  13816  13818     1  0.0000000  0.6508444  3
  13817  13815  13829  13835     1  0.0000000  1.0460000  1
  13817  13815  13829  13835     1  0.0000000  0.0000000  3
  13817  13815  13829  13833     1  0.0000000  0.6508444  3
  13817  13815  13829  13834     1  0.0000000  0.6508444  3
  13817  13815  13837  13821     1  0.0000000  1.6038667  3
  13818  13816  13819  13820     1  0.0000000  0.6508444  3
  13818  13816  13819  13827     1  0.0000000  1.0460000  1
  13818  13816  13819  13827     1  0.0000000  0.0000000  3
  13818  13816  13819  13823     1  0.0000000  0.6508444  3
  13818  13816  13828  13831     1  0.0000000  0.6973333  3
  13818  13816  13815  13829     1  0.0000000  0.6508444  3
  13818  13816  13815  13837     1  0.0000000  1.0460000  1
  13818  13816  13815  13837     1  0.0000000  0.0000000  3
  13819  13820  13821  13824     1  0.0000000  0.6508444  3
  13819  13820  13826  13832     1  0.0000000  1.0460000  1
  13819  13820  13826  13832     1  0.0000000  0.6694400  3
  13819  13816  13828  13831     1  0.0000000  1.0460000  1
  13819  13816  13828  13831     1  0.0000000  0.6694400  3
  13820  13819  13827  13830     1  0.0000000  1.0460000  1
  13820  13819  13827  13830     1  0.0000000  0.6694400  3
  13821  13820  13826  13832     1  0.0000000  1.0460000  1
  13821  13820  13826  13832     1  0.0000000  0.6694400  3
  13821  13820  13819  13823     1  0.0000000  0.6508444  3
  13822  13820  13821  13825     1  0.0000000  1.0460000  1
  13822  13820  13821  13825     1  0.0000000  0.0000000  3
  13822  13820  13821  13837     1  0.0000000  1.0460000  1
  13822  13820  13821  13837     1  0.0000000  0.0000000  3
  13822  13820  13821  13824     1  0.0000000  0.6508444  3
  13822  13820  13826  13832     1  0.0000000  0.6973333  3
  13822  13820  13819  13827     1  0.0000000  1.0460000  1
  13822  13820  13819  13827     1  0.0000000  0.0000000  3
  13822  13820  13819  13823     1  0.0000000  0.6508444  3
  13823  13819  13820  13826     1  0.0000000  1.0460000  1
  13823  13819  13820  13826     1  0.0000000  0.0000000  3
  13823  13819  13827  13830     1  0.0000000  0.6973333  3
  13823  13819  13816  13828     1  0.0000000  1.0460000  1
  13823  13819  13816  13828     1  0.0000000  0.0000000  3
  13824  13821  13820  13826     1  0.0000000  0.6508444  3
  13833  13829  13835  13836     1  0.0000000  0.6973333  3
  13833  13829  13815  13837     1  0.0000000  1.0460000  1
  13833  13829  13815  13837     1  0.0000000  0.0000000  3
  13834  13829  13835  13836     1  0.0000000  0.6973333  3
  13834  13829  13815  13837     1  0.0000000  1.0460000  1
  13834  13829  13815  13837     1  0.0000000  0.0000000  3
  13838  13839  13842  13846     1  0.0000000  0.6508444  3
  13838  13839  13851  13854     1  0.0000000  1.0460000  1
  13838  13839  13851  13854     1  0.0000000  0.6694400  3
  13838  13852  13858  13859     1  0.0000000  1.0460000  1
  13838  13852  13858  13859     1  0.0000000  0.6694400  3
  13838  13860  13844  13847     1  0.0000000  1.6038667  3
  13839  13838  13852  13856     1  0.0000000  0.6508444  3
  13839  13838  13852  13857     1  0.0000000  0.6508444  3
  13839  13842  13843  13845     1  0.0000000  0.6508444  3
  13839  13842  13850  13853     1  0.0000000  1.0460000  1
  13839  13842  13850  13853     1  0.0000000  0.6694400  3
  13840  13838  13839  13842     1  0.0000000  0.6508444  3
  13840  13838  13839  13851     1  0.0000000  1.0460000  1
  13840  13838  13839  13851     1  0.0000000  0.0000000  3
  13840  13838  13839  13841     1  0.0000000  0.6508444  3
  13840  13838  13852  13858     1  0.0000000  1.0460000  1
  13840  13838  13852  13858     1  0.0000000  0.0000000  3
  13840  13838  13852  13856     1  0.0000000  0.6508444  3
  13840  13838  13852  13857     1  0.0000000  0.6508444  3
  13840  13838  13860  13844     1  0.0000000  1.6038667  3
  13841  13839  13838  13852     1  0.0000000  0.6508444  3
  13841  13839  13838  13860     1  0.0000000  1.0460000  1
  13841  13839  13838  13860     1  0.0000000  0.0000000  3
  13841  13839  13842  13843     1  0.0000000  0.6508444  3
  13841  13839  13842  13850     1  0.0000000  1.0460000  1
  13841  13839  13842  13850     1  0.0000000  0.0000000  3
  13841  13839  13842  13846     1  0.0000000  0.6508444  3
  13841  13839  13851  13854     1  0.0000000  0.6973333  3
  13842  13839  13851  13854     1  0.0000000  1.0460000  1
  13842  13839  13851  13854     1  0.0000000  0.6694400  3
  13842  13843  13844  13847     1  0.0000000  0.6508444  3
  13842  13843  13849  13855     1  0.0000000  1.0460000  1
  13842  13843  13849  13855     1  0.0000000  0.6694400  3
  13843  13842  13850  13853     1  0.0000000  1.0460000  1
  13843  13842  13850  13853     1  0.0000000  0.6694400  3
  13844  13843  13842  13846     1  0.0000000  0.6508444  3
  13844  13843  13849  13855     1  0.0000000  1.0460000  1
  13844  13843  13849  13855     1  0.0000000  0.6694400  3
  13845  13843  13842  13850     1  0.0000000  1.0460000  1
  13845  13843  13842  13850     1  0.0000000  0.0000000  3
  13845  13843  13842  13846     1  0.0000000  0.6508444  3
  13845  13843  13844  13848     1  0.0000000  1.0460000  1
  13845  13843  13844  13848     1  0.0000000  0.0000000  3
  13845  13843  13844  13860     1  0.0000000  1.0460000  1
  13845  13843  13844  13860     1  0.0000000  0.0000000  3
  13845  13843  13844  13847     1  0.0000000  0.6508444  3
  13845  13843  13849  13855     1  0.0000000  0.6973333  3
  13846  13842  13839  13851     1  0.0000000  1.0460000  1
  13846  13842  13839  13851     1  0.0000000  0.0000000  3
  13846  13842  13843  13849     1  0.0000000  1.0460000  1
  13846  13842  13843  13849     1  0.0000000  0.0000000  3
  13846  13842  13850  13853     1  0.0000000  0.6973333  3
  13847  13844  13843  13849     1  0.0000000  0.6508444  3
  13856  13852  13838  13860     1  0.0000000  1.0460000  1
  13856  13852  13838  13860     1  0.0000000  0.0000000  3
  13856  13852  13858  13859     1  0.0000000  0.6973333  3
  13857  13852  13838  13860     1  0.0000000  1.0460000  1
  13857  13852  13838  13860     1  0.0000000  0.0000000  3
  13857  13852  13858  13859     1  0.0000000  0.6973333  3
  13861  13862  13865  13869     1  0.0000000  0.6508444  3
  13861  13862  13874  13877     1  0.0000000  1.0460000  1
  13861  13862  13874  13877     1  0.0000000  0.6694400  3
  13861  13875  13881  13882     1  0.0000000  1.0460000  1
  13861  13875  13881  13882     1  0.0000000  0.6694400  3
  13861  13883  13867  13870     1  0.0000000  1.6038667  3
  13862  13865  13866  13868     1  0.0000000  0.6508444  3
  13862  13865  13873  13876     1  0.0000000  1.0460000  1
  13862  13865  13873  13876     1  0.0000000  0.6694400  3
  13862  13861  13875  13879     1  0.0000000  0.6508444  3
  13862  13861  13875  13880     1  0.0000000  0.6508444  3
  13863  13861  13862  13865     1  0.0000000  0.6508444  3
  13863  13861  13862  13874     1  0.0000000  1.0460000  1
  13863  13861  13862  13874     1  0.0000000  0.0000000  3
  13863  13861  13862  13864     1  0.0000000  0.6508444  3
  13863  13861  13875  13881     1  0.0000000  1.0460000  1
  13863  13861  13875  13881     1  0.0000000  0.0000000  3
  13863  13861  13875  13879     1  0.0000000  0.6508444  3
  13863  13861  13875  13880     1  0.0000000  0.6508444  3
  13863  13861  13883  13867     1  0.0000000  1.6038667  3
  13864  13862  13865  13866     1  0.0000000  0.6508444  3
  13864  13862  13865  13873     1  0.0000000  1.0460000  1
  13864  13862  13865  13873     1  0.0000000  0.0000000  3
  13864  13862  13865  13869     1  0.0000000  0.6508444  3
  13864  13862  13874  13877     1  0.0000000  0.6973333  3
  13864  13862  13861  13875     1  0.0000000  0.6508444  3
  13864  13862  13861  13883     1  0.0000000  1.0460000  1
  13864  13862  13861  13883     1  0.0000000  0.0000000  3
  13865  13866  13867  13870     1  0.0000000  0.6508444  3
  13865  13866  13872  13878     1  0.0000000  1.0460000  1
  13865  13866  13872  13878     1  0.0000000  0.6694400  3
  13865  13862  13874  13877     1  0.0000000  1.0460000  1
  13865  13862  13874  13877     1  0.0000000  0.6694400  3
  13866  13865  13873  13876     1  0.0000000  1.0460000  1
  13866  13865  13873  13876     1  0.0000000  0.6694400  3
  13867  13866  13872  13878     1  0.0000000  1.0460000  1
  13867  13866  13872  13878     1  0.0000000  0.6694400  3
  13867  13866  13865  13869     1  0.0000000  0.6508444  3
  13868  13866  13867  13871     1  0.0000000  1.0460000  1
  13868  13866  13867  13871     1  0.0000000  0.0000000  3
  13868  13866  13867  13883     1  0.0000000  1.0460000  1
  13868  13866  13867  13883     1  0.0000000  0.0000000  3
  13868  13866  13867  13870     1  0.0000000  0.6508444  3
  13868  13866  13872  13878     1  0.0000000  0.6973333  3
  13868  13866  13865  13873     1  0.0000000  1.0460000  1
  13868  13866  13865  13873     1  0.0000000  0.0000000  3
  13868  13866  13865  13869     1  0.0000000  0.6508444  3
  13869  13865  13866  13872     1  0.0000000  1.0460000  1
  13869  13865  13866  13872     1  0.0000000  0.0000000  3
  13869  13865  13873  13876     1  0.0000000  0.6973333  3
  13869  13865  13862  13874     1  0.0000000  1.0460000  1
  13869  13865  13862  13874     1  0.0000000  0.0000000  3
  13870  13867  13866  13872     1  0.0000000  0.6508444  3
  13879  13875  13881  13882     1  0.0000000  0.6973333  3
  13879  13875  13861  13883     1  0.0000000  1.0460000  1
  13879  13875  13861  13883     1  0.0000000  0.0000000  3
  13880  13875  13881  13882     1  0.0000000  0.6973333  3
  13880  13875  13861  13883     1  0.0000000  1.0460000  1
  13880  13875  13861  13883     1  0.0000000  0.0000000  3
  13884  13885  13888  13892     1  0.0000000  0.6508444  3
  13884  13885  13897  13900     1  0.0000000  1.0460000  1
  13884  13885  13897  13900     1  0.0000000  0.6694400  3
  13884  13898  13904  13905     1  0.0000000  1.0460000  1
  13884  13898  13904  13905     1  0.0000000  0.6694400  3
  13884  13906  13890  13893     1  0.0000000  1.6038667  3
  13885  13884  13898  13902     1  0.0000000  0.6508444  3
  13885  13884  13898  13903     1  0.0000000  0.6508444  3
  13885  13888  13889  13891     1  0.0000000  0.6508444  3
  13885  13888  13896  13899     1  0.0000000  1.0460000  1
  13885  13888  13896  13899     1  0.0000000  0.6694400  3
  13886  13884  13885  13888     1  0.0000000  0.6508444  3
  13886  13884  13885  13897     1  0.0000000  1.0460000  1
  13886  13884  13885  13897     1  0.0000000  0.0000000  3
  13886  13884  13885  13887     1  0.0000000  0.6508444  3
  13886  13884  13898  13904     1  0.0000000  1.0460000  1
  13886  13884  13898  13904     1  0.0000000  0.0000000  3
  13886  13884  13898  13902     1  0.0000000  0.6508444  3
  13886  13884  13898  13903     1  0.0000000  0.6508444  3
  13886  13884  13906  13890     1  0.0000000  1.6038667  3
  13887  13885  13884  13898     1  0.0000000  0.6508444  3
  13887  13885  13884  13906     1  0.0000000  1.0460000  1
  13887  13885  13884  13906     1  0.0000000  0.0000000  3
  13887  13885  13888  13889     1  0.0000000  0.6508444  3
  13887  13885  13888  13896     1  0.0000000  1.0460000  1
  13887  13885  13888  13896     1  0.0000000  0.0000000  3
  13887  13885  13888  13892     1  0.0000000  0.6508444  3
  13887  13885  13897  13900     1  0.0000000  0.6973333  3
  13888  13885  13897  13900     1  0.0000000  1.0460000  1
  13888  13885  13897  13900     1  0.0000000  0.6694400  3
  13888  13889  13890  13893     1  0.0000000  0.6508444  3
  13888  13889  13895  13901     1  0.0000000  1.0460000  1
  13888  13889  13895  13901     1  0.0000000  0.6694400  3
  13889  13888  13896  13899     1  0.0000000  1.0460000  1
  13889  13888  13896  13899     1  0.0000000  0.6694400  3
  13890  13889  13888  13892     1  0.0000000  0.6508444  3
  13890  13889  13895  13901     1  0.0000000  1.0460000  1
  13890  13889  13895  13901     1  0.0000000  0.6694400  3
  13891  13889  13888  13896     1  0.0000000  1.0460000  1
  13891  13889  13888  13896     1  0.0000000  0.0000000  3
  13891  13889  13888  13892     1  0.0000000  0.6508444  3
  13891  13889  13890  13894     1  0.0000000  1.0460000  1
  13891  13889  13890  13894     1  0.0000000  0.0000000  3
  13891  13889  13890  13906     1  0.0000000  1.0460000  1
  13891  13889  13890  13906     1  0.0000000  0.0000000  3
  13891  13889  13890  13893     1  0.0000000  0.6508444  3
  13891  13889  13895  13901     1  0.0000000  0.6973333  3
  13892  13888  13885  13897     1  0.0000000  1.0460000  1
  13892  13888  13885  13897     1  0.0000000  0.0000000  3
  13892  13888  13889  13895     1  0.0000000  1.0460000  1
  13892  13888  13889  13895     1  0.0000000  0.0000000  3
  13892  13888  13896  13899     1  0.0000000  0.6973333  3
  13893  13890  13889  13895     1  0.0000000  0.6508444  3
  13902  13898  13884  13906     1  0.0000000  1.0460000  1
  13902  13898  13884  13906     1  0.0000000  0.0000000  3
  13902  13898  13904  13905     1  0.0000000  0.6973333  3
  13903  13898  13884  13906     1  0.0000000  1.0460000  1
  13903  13898  13884  13906     1  0.0000000  0.0000000  3
  13903  13898  13904  13905     1  0.0000000  0.6973333  3
  13907  13908  13911  13915     1  0.0000000  0.6508444  3
  13907  13908  13920  13923     1  0.0000000  1.0460000  1
  13907  13908  13920  13923     1  0.0000000  0.6694400  3
  13907  13921  13927  13928     1  0.0000000  1.0460000  1
  13907  13921  13927  13928     1  0.0000000  0.6694400  3
  13907  13929  13913  13916     1  0.0000000  1.6038667  3
  13908  13911  13912  13914     1  0.0000000  0.6508444  3
  13908  13911  13919  13922     1  0.0000000  1.0460000  1
  13908  13911  13919  13922     1  0.0000000  0.6694400  3
  13908  13907  13921  13925     1  0.0000000  0.6508444  3
  13908  13907  13921  13926     1  0.0000000  0.6508444  3
  13909  13907  13908  13911     1  0.0000000  0.6508444  3
  13909  13907  13908  13920     1  0.0000000  1.0460000  1
  13909  13907  13908  13920     1  0.0000000  0.0000000  3
  13909  13907  13908  13910     1  0.0000000  0.6508444  3
  13909  13907  13921  13927     1  0.0000000  1.0460000  1
  13909  13907  13921  13927     1  0.0000000  0.0000000  3
  13909  13907  13921  13925     1  0.0000000  0.6508444  3
  13909  13907  13921  13926     1  0.0000000  0.6508444  3
  13909  13907  13929  13913     1  0.0000000  1.6038667  3
  13910  13908  13911  13912     1  0.0000000  0.6508444  3
  13910  13908  13911  13919     1  0.0000000  1.0460000  1
  13910  13908  13911  13919     1  0.0000000  0.0000000  3
  13910  13908  13911  13915     1  0.0000000  0.6508444  3
  13910  13908  13920  13923     1  0.0000000  0.6973333  3
  13910  13908  13907  13921     1  0.0000000  0.6508444  3
  13910  13908  13907  13929     1  0.0000000  1.0460000  1
  13910  13908  13907  13929     1  0.0000000  0.0000000  3
  13911  13912  13913  13916     1  0.0000000  0.6508444  3
  13911  13912  13918  13924     1  0.0000000  1.0460000  1
  13911  13912  13918  13924     1  0.0000000  0.6694400  3
  13911  13908  13920  13923     1  0.0000000  1.0460000  1
  13911  13908  13920  13923     1  0.0000000  0.6694400  3
  13912  13911  13919  13922     1  0.0000000  1.0460000  1
  13912  13911  13919  13922     1  0.0000000  0.6694400  3
  13913  13912  13918  13924     1  0.0000000  1.0460000  1
  13913  13912  13918  13924     1  0.0000000  0.6694400  3
  13913  13912  13911  13915     1  0.0000000  0.6508444  3
  13914  13912  13913  13917     1  0.0000000  1.0460000  1
  13914  13912  13913  13917     1  0.0000000  0.0000000  3
  13914  13912  13913  13929     1  0.0000000  1.0460000  1
  13914  13912  13913  13929     1  0.0000000  0.0000000  3
  13914  13912  13913  13916     1  0.0000000  0.6508444  3
  13914  13912  13918  13924     1  0.0000000  0.6973333  3
  13914  13912  13911  13919     1  0.0000000  1.0460000  1
  13914  13912  13911  13919     1  0.0000000  0.0000000  3
  13914  13912  13911  13915     1  0.0000000  0.6508444  3
  13915  13911  13912  13918     1  0.0000000  1.0460000  1
  13915  13911  13912  13918     1  0.0000000  0.0000000  3
  13915  13911  13919  13922     1  0.0000000  0.6973333  3
  13915  13911  13908  13920     1  0.0000000  1.0460000  1
  13915  13911  13908  13920     1  0.0000000  0.0000000  3
  13916  13913  13912  13918     1  0.0000000  0.6508444  3
  13925  13921  13927  13928     1  0.0000000  0.6973333  3
  13925  13921  13907  13929     1  0.0000000  1.0460000  1
  13925  13921  13907  13929     1  0.0000000  0.0000000  3
  13926  13921  13927  13928     1  0.0000000  0.6973333  3
  13926  13921  13907  13929     1  0.0000000  1.0460000  1
  13926  13921  13907  13929     1  0.0000000  0.0000000  3
  13930  13931  13934  13938     1  0.0000000  0.6508444  3
  13930  13931  13943  13946     1  0.0000000  1.0460000  1
  13930  13931  13943  13946     1  0.0000000  0.6694400  3
  13930  13944  13950  13951     1  0.0000000  1.0460000  1
  13930  13944  13950  13951     1  0.0000000  0.6694400  3
  13930  13952  13936  13939     1  0.0000000  1.6038667  3
  13931  13930  13944  13948     1  0.0000000  0.6508444  3
  13931  13930  13944  13949     1  0.0000000  0.6508444  3
  13931  13934  13935  13937     1  0.0000000  0.6508444  3
  13931  13934  13942  13945     1  0.0000000  1.0460000  1
  13931  13934  13942  13945     1  0.0000000  0.6694400  3
  13932  13930  13931  13934     1  0.0000000  0.6508444  3
  13932  13930  13931  13943     1  0.0000000  1.0460000  1
  13932  13930  13931  13943     1  0.0000000  0.0000000  3
  13932  13930  13931  13933     1  0.0000000  0.6508444  3
  13932  13930  13944  13950     1  0.0000000  1.0460000  1
  13932  13930  13944  13950     1  0.0000000  0.0000000  3
  13932  13930  13944  13948     1  0.0000000  0.6508444  3
  13932  13930  13944  13949     1  0.0000000  0.6508444  3
  13932  13930  13952  13936     1  0.0000000  1.6038667  3
  13933  13931  13930  13944     1  0.0000000  0.6508444  3
  13933  13931  13930  13952     1  0.0000000  1.0460000  1
  13933  13931  13930  13952     1  0.0000000  0.0000000  3
  13933  13931  13934  13935     1  0.0000000  0.6508444  3
  13933  13931  13934  13942     1  0.0000000  1.0460000  1
  13933  13931  13934  13942     1  0.0000000  0.0000000  3
  13933  13931  13934  13938     1  0.0000000  0.6508444  3
  13933  13931  13943  13946     1  0.0000000  0.6973333  3
  13934  13931  13943  13946     1  0.0000000  1.0460000  1
  13934  13931  13943  13946     1  0.0000000  0.6694400  3
  13934  13935  13936  13939     1  0.0000000  0.6508444  3
  13934  13935  13941  13947     1  0.0000000  1.0460000  1
  13934  13935  13941  13947     1  0.0000000  0.6694400  3
  13935  13934  13942  13945     1  0.0000000  1.0460000  1
  13935  13934  13942  13945     1  0.0000000  0.6694400  3
  13936  13935  13934  13938     1  0.0000000  0.6508444  3
  13936  13935  13941  13947     1  0.0000000  1.0460000  1
  13936  13935  13941  13947     1  0.0000000  0.6694400  3
  13937  13935  13934  13942     1  0.0000000  1.0460000  1
  13937  13935  13934  13942     1  0.0000000  0.0000000  3
  13937  13935  13934  13938     1  0.0000000  0.6508444  3
  13937  13935  13936  13940     1  0.0000000  1.0460000  1
  13937  13935  13936  13940     1  0.0000000  0.0000000  3
  13937  13935  13936  13952     1  0.0000000  1.0460000  1
  13937  13935  13936  13952     1  0.0000000  0.0000000  3
  13937  13935  13936  13939     1  0.0000000  0.6508444  3
  13937  13935  13941  13947     1  0.0000000  0.6973333  3
  13938  13934  13931  13943     1  0.0000000  1.0460000  1
  13938  13934  13931  13943     1  0.0000000  0.0000000  3
  13938  13934  13935  13941     1  0.0000000  1.0460000  1
  13938  13934  13935  13941     1  0.0000000  0.0000000  3
  13938  13934  13942  13945     1  0.0000000  0.6973333  3
  13939  13936  13935  13941     1  0.0000000  0.6508444  3
  13948  13944  13930  13952     1  0.0000000  1.0460000  1
  13948  13944  13930  13952     1  0.0000000  0.0000000  3
  13948  13944  13950  13951     1  0.0000000  0.6973333  3
  13949  13944  13930  13952     1  0.0000000  1.0460000  1
  13949  13944  13930  13952     1  0.0000000  0.0000000  3
  13949  13944  13950  13951     1  0.0000000  0.6973333  3
  13953  13954  13957  13961     1  0.0000000  0.6508444  3
  13953  13954  13966  13969     1  0.0000000  1.0460000  1
  13953  13954  13966  13969     1  0.0000000  0.6694400  3
  13953  13967  13973  13974     1  0.0000000  1.0460000  1
  13953  13967  13973  13974     1  0.0000000  0.6694400  3
  13953  13975  13959  13962     1  0.0000000  1.6038667  3
  13954  13957  13958  13960     1  0.0000000  0.6508444  3
  13954  13957  13965  13968     1  0.0000000  1.0460000  1
  13954  13957  13965  13968     1  0.0000000  0.6694400  3
  13954  13953  13967  13971     1  0.0000000  0.6508444  3
  13954  13953  13967  13972     1  0.0000000  0.6508444  3
  13955  13953  13954  13957     1  0.0000000  0.6508444  3
  13955  13953  13954  13966     1  0.0000000  1.0460000  1
  13955  13953  13954  13966     1  0.0000000  0.0000000  3
  13955  13953  13954  13956     1  0.0000000  0.6508444  3
  13955  13953  13967  13973     1  0.0000000  1.0460000  1
  13955  13953  13967  13973     1  0.0000000  0.0000000  3
  13955  13953  13967  13971     1  0.0000000  0.6508444  3
  13955  13953  13967  13972     1  0.0000000  0.6508444  3
  13955  13953  13975  13959     1  0.0000000  1.6038667  3
  13956  13954  13957  13958     1  0.0000000  0.6508444  3
  13956  13954  13957  13965     1  0.0000000  1.0460000  1
  13956  13954  13957  13965     1  0.0000000  0.0000000  3
  13956  13954  13957  13961     1  0.0000000  0.6508444  3
  13956  13954  13966  13969     1  0.0000000  0.6973333  3
  13956  13954  13953  13967     1  0.0000000  0.6508444  3
  13956  13954  13953  13975     1  0.0000000  1.0460000  1
  13956  13954  13953  13975     1  0.0000000  0.0000000  3
  13957  13958  13959  13962     1  0.0000000  0.6508444  3
  13957  13958  13964  13970     1  0.0000000  1.0460000  1
  13957  13958  13964  13970     1  0.0000000  0.6694400  3
  13957  13954  13966  13969     1  0.0000000  1.0460000  1
  13957  13954  13966  13969     1  0.0000000  0.6694400  3
  13958  13957  13965  13968     1  0.0000000  1.0460000  1
  13958  13957  13965  13968     1  0.0000000  0.6694400  3
  13959  13958  13964  13970     1  0.0000000  1.0460000  1
  13959  13958  13964  13970     1  0.0000000  0.6694400  3
  13959  13958  13957  13961     1  0.0000000  0.6508444  3
  13960  13958  13959  13963     1  0.0000000  1.0460000  1
  13960  13958  13959  13963     1  0.0000000  0.0000000  3
  13960  13958  13959  13975     1  0.0000000  1.0460000  1
  13960  13958  13959  13975     1  0.0000000  0.0000000  3
  13960  13958  13959  13962     1  0.0000000  0.6508444  3
  13960  13958  13964  13970     1  0.0000000  0.6973333  3
  13960  13958  13957  13965     1  0.0000000  1.0460000  1
  13960  13958  13957  13965     1  0.0000000  0.0000000  3
  13960  13958  13957  13961     1  0.0000000  0.6508444  3
  13961  13957  13958  13964     1  0.0000000  1.0460000  1
  13961  13957  13958  13964     1  0.0000000  0.0000000  3
  13961  13957  13965  13968     1  0.0000000  0.6973333  3
  13961  13957  13954  13966     1  0.0000000  1.0460000  1
  13961  13957  13954  13966     1  0.0000000  0.0000000  3
  13962  13959  13958  13964     1  0.0000000  0.6508444  3
  13971  13967  13973  13974     1  0.0000000  0.6973333  3
  13971  13967  13953  13975     1  0.0000000  1.0460000  1
  13971  13967  13953  13975     1  0.0000000  0.0000000  3
  13972  13967  13973  13974     1  0.0000000  0.6973333  3
  13972  13967  13953  13975     1  0.0000000  1.0460000  1
  13972  13967  13953  13975     1  0.0000000  0.0000000  3
  13976  13977  13980  13984     1  0.0000000  0.6508444  3
  13976  13977  13989  13992     1  0.0000000  1.0460000  1
  13976  13977  13989  13992     1  0.0000000  0.6694400  3
  13976  13990  13996  13997     1  0.0000000  1.0460000  1
  13976  13990  13996  13997     1  0.0000000  0.6694400  3
  13976  13998  13982  13985     1  0.0000000  1.6038667  3
  13977  13976  13990  13994     1  0.0000000  0.6508444  3
  13977  13976  13990  13995     1  0.0000000  0.6508444  3
  13977  13980  13981  13983     1  0.0000000  0.6508444  3
  13977  13980  13988  13991     1  0.0000000  1.0460000  1
  13977  13980  13988  13991     1  0.0000000  0.6694400  3
  13978  13976  13977  13980     1  0.0000000  0.6508444  3
  13978  13976  13977  13989     1  0.0000000  1.0460000  1
  13978  13976  13977  13989     1  0.0000000  0.0000000  3
  13978  13976  13977  13979     1  0.0000000  0.6508444  3
  13978  13976  13990  13996     1  0.0000000  1.0460000  1
  13978  13976  13990  13996     1  0.0000000  0.0000000  3
  13978  13976  13990  13994     1  0.0000000  0.6508444  3
  13978  13976  13990  13995     1  0.0000000  0.6508444  3
  13978  13976  13998  13982     1  0.0000000  1.6038667  3
  13979  13977  13976  13990     1  0.0000000  0.6508444  3
  13979  13977  13976  13998     1  0.0000000  1.0460000  1
  13979  13977  13976  13998     1  0.0000000  0.0000000  3
  13979  13977  13980  13981     1  0.0000000  0.6508444  3
  13979  13977  13980  13988     1  0.0000000  1.0460000  1
  13979  13977  13980  13988     1  0.0000000  0.0000000  3
  13979  13977  13980  13984     1  0.0000000  0.6508444  3
  13979  13977  13989  13992     1  0.0000000  0.6973333  3
  13980  13977  13989  13992     1  0.0000000  1.0460000  1
  13980  13977  13989  13992     1  0.0000000  0.6694400  3
  13980  13981  13982  13985     1  0.0000000  0.6508444  3
  13980  13981  13987  13993     1  0.0000000  1.0460000  1
  13980  13981  13987  13993     1  0.0000000  0.6694400  3
  13981  13980  13988  13991     1  0.0000000  1.0460000  1
  13981  13980  13988  13991     1  0.0000000  0.6694400  3
  13982  13981  13980  13984     1  0.0000000  0.6508444  3
  13982  13981  13987  13993     1  0.0000000  1.0460000  1
  13982  13981  13987  13993     1  0.0000000  0.6694400  3
  13983  13981  13980  13988     1  0.0000000  1.0460000  1
  13983  13981  13980  13988     1  0.0000000  0.0000000  3
  13983  13981  13980  13984     1  0.0000000  0.6508444  3
  13983  13981  13982  13986     1  0.0000000  1.0460000  1
  13983  13981  13982  13986     1  0.0000000  0.0000000  3
  13983  13981  13982  13998     1  0.0000000  1.0460000  1
  13983  13981  13982  13998     1  0.0000000  0.0000000  3
  13983  13981  13982  13985     1  0.0000000  0.6508444  3
  13983  13981  13987  13993     1  0.0000000  0.6973333  3
  13984  13980  13977  13989     1  0.0000000  1.0460000  1
  13984  13980  13977  13989     1  0.0000000  0.0000000  3
  13984  13980  13981  13987     1  0.0000000  1.0460000  1
  13984  13980  13981  13987     1  0.0000000  0.0000000  3
  13984  13980  13988  13991     1  0.0000000  0.6973333  3
  13985  13982  13981  13987     1  0.0000000  0.6508444  3
  13994  13990  13976  13998     1  0.0000000  1.0460000  1
  13994  13990  13976  13998     1  0.0000000  0.0000000  3
  13994  13990  13996  13997     1  0.0000000  0.6973333  3
  13995  13990  13976  13998     1  0.0000000  1.0460000  1
  13995  13990  13976  13998     1  0.0000000  0.0000000  3
  13995  13990  13996  13997     1  0.0000000  0.6973333  3
  13999  14000  14003  14007     1  0.0000000  0.6508444  3
  13999  14000  14012  14015     1  0.0000000  1.0460000  1
  13999  14000  14012  14015     1  0.0000000  0.6694400  3
  13999  14013  14019  14020     1  0.0000000  1.0460000  1
  13999  14013  14019  14020     1  0.0000000  0.6694400  3
  13999  14021  14005  14008     1  0.0000000  1.6038667  3
  14000  14003  14004  14006     1  0.0000000  0.6508444  3
  14000  14003  14011  14014     1  0.0000000  1.0460000  1
  14000  14003  14011  14014     1  0.0000000  0.6694400  3
  14000  13999  14013  14017     1  0.0000000  0.6508444  3
  14000  13999  14013  14018     1  0.0000000  0.6508444  3
  14001  13999  14000  14003     1  0.0000000  0.6508444  3
  14001  13999  14000  14012     1  0.0000000  1.0460000  1
  14001  13999  14000  14012     1  0.0000000  0.0000000  3
  14001  13999  14000  14002     1  0.0000000  0.6508444  3
  14001  13999  14013  14019     1  0.0000000  1.0460000  1
  14001  13999  14013  14019     1  0.0000000  0.0000000  3
  14001  13999  14013  14017     1  0.0000000  0.6508444  3
  14001  13999  14013  14018     1  0.0000000  0.6508444  3
  14001  13999  14021  14005     1  0.0000000  1.6038667  3
  14002  14000  14003  14004     1  0.0000000  0.6508444  3
  14002  14000  14003  14011     1  0.0000000  1.0460000  1
  14002  14000  14003  14011     1  0.0000000  0.0000000  3
  14002  14000  14003  14007     1  0.0000000  0.6508444  3
  14002  14000  14012  14015     1  0.0000000  0.6973333  3
  14002  14000  13999  14013     1  0.0000000  0.6508444  3
  14002  14000  13999  14021     1  0.0000000  1.0460000  1
  14002  14000  13999  14021     1  0.0000000  0.0000000  3
  14003  14004  14005  14008     1  0.0000000  0.6508444  3
  14003  14004  14010  14016     1  0.0000000  1.0460000  1
  14003  14004  14010  14016     1  0.0000000  0.6694400  3
  14003  14000  14012  14015     1  0.0000000  1.0460000  1
  14003  14000  14012  14015     1  0.0000000  0.6694400  3
  14004  14003  14011  14014     1  0.0000000  1.0460000  1
  14004  14003  14011  14014     1  0.0000000  0.6694400  3
  14005  14004  14010  14016     1  0.0000000  1.0460000  1
  14005  14004  14010  14016     1  0.0000000  0.6694400  3
  14005  14004  14003  14007     1  0.0000000  0.6508444  3
  14006  14004  14005  14009     1  0.0000000  1.0460000  1
  14006  14004  14005  14009     1  0.0000000  0.0000000  3
  14006  14004  14005  14021     1  0.0000000  1.0460000  1
  14006  14004  14005  14021     1  0.0000000  0.0000000  3
  14006  14004  14005  14008     1  0.0000000  0.6508444  3
  14006  14004  14010  14016     1  0.0000000  0.6973333  3
  14006  14004  14003  14011     1  0.0000000  1.0460000  1
  14006  14004  14003  14011     1  0.0000000  0.0000000  3
  14006  14004  14003  14007     1  0.0000000  0.6508444  3
  14007  14003  14004  14010     1  0.0000000  1.0460000  1
  14007  14003  14004  14010     1  0.0000000  0.0000000  3
  14007  14003  14011  14014     1  0.0000000  0.6973333  3
  14007  14003  14000  14012     1  0.0000000  1.0460000  1
  14007  14003  14000  14012     1  0.0000000  0.0000000  3
  14008  14005  14004  14010     1  0.0000000  0.6508444  3
  14017  14013  14019  14020     1  0.0000000  0.6973333  3
  14017  14013  13999  14021     1  0.0000000  1.0460000  1
  14017  14013  13999  14021     1  0.0000000  0.0000000  3
  14018  14013  14019  14020     1  0.0000000  0.6973333  3
  14018  14013  13999  14021     1  0.0000000  1.0460000  1
  14018  14013  13999  14021     1  0.0000000  0.0000000  3
  14022  14023  14026  14030     1  0.0000000  0.6508444  3
  14022  14023  14035  14038     1  0.0000000  1.0460000  1
  14022  14023  14035  14038     1  0.0000000  0.6694400  3
  14022  14036  14042  14043     1  0.0000000  1.0460000  1
  14022  14036  14042  14043     1  0.0000000  0.6694400  3
  14022  14044  14028  14031     1  0.0000000  1.6038667  3
  14023  14022  14036  14040     1  0.0000000  0.6508444  3
  14023  14022  14036  14041     1  0.0000000  0.6508444  3
  14023  14026  14027  14029     1  0.0000000  0.6508444  3
  14023  14026  14034  14037     1  0.0000000  1.0460000  1
  14023  14026  14034  14037     1  0.0000000  0.6694400  3
  14024  14022  14023  14026     1  0.0000000  0.6508444  3
  14024  14022  14023  14035     1  0.0000000  1.0460000  1
  14024  14022  14023  14035     1  0.0000000  0.0000000  3
  14024  14022  14023  14025     1  0.0000000  0.6508444  3
  14024  14022  14036  14042     1  0.0000000  1.0460000  1
  14024  14022  14036  14042     1  0.0000000  0.0000000  3
  14024  14022  14036  14040     1  0.0000000  0.6508444  3
  14024  14022  14036  14041     1  0.0000000  0.6508444  3
  14024  14022  14044  14028     1  0.0000000  1.6038667  3
  14025  14023  14022  14036     1  0.0000000  0.6508444  3
  14025  14023  14022  14044     1  0.0000000  1.0460000  1
  14025  14023  14022  14044     1  0.0000000  0.0000000  3
  14025  14023  14026  14027     1  0.0000000  0.6508444  3
  14025  14023  14026  14034     1  0.0000000  1.0460000  1
  14025  14023  14026  14034     1  0.0000000  0.0000000  3
  14025  14023  14026  14030     1  0.0000000  0.6508444  3
  14025  14023  14035  14038     1  0.0000000  0.6973333  3
  14026  14023  14035  14038     1  0.0000000  1.0460000  1
  14026  14023  14035  14038     1  0.0000000  0.6694400  3
  14026  14027  14028  14031     1  0.0000000  0.6508444  3
  14026  14027  14033  14039     1  0.0000000  1.0460000  1
  14026  14027  14033  14039     1  0.0000000  0.6694400  3
  14027  14026  14034  14037     1  0.0000000  1.0460000  1
  14027  14026  14034  14037     1  0.0000000  0.6694400  3
  14028  14027  14026  14030     1  0.0000000  0.6508444  3
  14028  14027  14033  14039     1  0.0000000  1.0460000  1
  14028  14027  14033  14039     1  0.0000000  0.6694400  3
  14029  14027  14026  14034     1  0.0000000  1.0460000  1
  14029  14027  14026  14034     1  0.0000000  0.0000000  3
  14029  14027  14026  14030     1  0.0000000  0.6508444  3
  14029  14027  14028  14032     1  0.0000000  1.0460000  1
  14029  14027  14028  14032     1  0.0000000  0.0000000  3
  14029  14027  14028  14044     1  0.0000000  1.0460000  1
  14029  14027  14028  14044     1  0.0000000  0.0000000  3
  14029  14027  14028  14031     1  0.0000000  0.6508444  3
  14029  14027  14033  14039     1  0.0000000  0.6973333  3
  14030  14026  14023  14035     1  0.0000000  1.0460000  1
  14030  14026  14023  14035     1  0.0000000  0.0000000  3
  14030  14026  14027  14033     1  0.0000000  1.0460000  1
  14030  14026  14027  14033     1  0.0000000  0.0000000  3
  14030  14026  14034  14037     1  0.0000000  0.6973333  3
  14031  14028  14027  14033     1  0.0000000  0.6508444  3
  14040  14036  14022  14044     1  0.0000000  1.0460000  1
  14040  14036  14022  14044     1  0.0000000  0.0000000  3
  14040  14036  14042  14043     1  0.0000000  0.6973333  3
  14041  14036  14022  14044     1  0.0000000  1.0460000  1
  14041  14036  14022  14044     1  0.0000000  0.0000000  3
  14041  14036  14042  14043     1  0.0000000  0.6973333  3
  14045  14046  14049  14053     1  0.0000000  0.6508444  3
  14045  14046  14058  14061     1  0.0000000  1.0460000  1
  14045  14046  14058  14061     1  0.0000000  0.6694400  3
  14045  14059  14065  14066     1  0.0000000  1.0460000  1
  14045  14059  14065  14066     1  0.0000000  0.6694400  3
  14045  14067  14051  14054     1  0.0000000  1.6038667  3
  14046  14049  14050  14052     1  0.0000000  0.6508444  3
  14046  14049  14057  14060     1  0.0000000  1.0460000  1
  14046  14049  14057  14060     1  0.0000000  0.6694400  3
  14046  14045  14059  14063     1  0.0000000  0.6508444  3
  14046  14045  14059  14064     1  0.0000000  0.6508444  3
  14047  14045  14046  14049     1  0.0000000  0.6508444  3
  14047  14045  14046  14058     1  0.0000000  1.0460000  1
  14047  14045  14046  14058     1  0.0000000  0.0000000  3
  14047  14045  14046  14048     1  0.0000000  0.6508444  3
  14047  14045  14059  14065     1  0.0000000  1.0460000  1
  14047  14045  14059  14065     1  0.0000000  0.0000000  3
  14047  14045  14059  14063     1  0.0000000  0.6508444  3
  14047  14045  14059  14064     1  0.0000000  0.6508444  3
  14047  14045  14067  14051     1  0.0000000  1.6038667  3
  14048  14046  14049  14050     1  0.0000000  0.6508444  3
  14048  14046  14049  14057     1  0.0000000  1.0460000  1
  14048  14046  14049  14057     1  0.0000000  0.0000000  3
  14048  14046  14049  14053     1  0.0000000  0.6508444  3
  14048  14046  14058  14061     1  0.0000000  0.6973333  3
  14048  14046  14045  14059     1  0.0000000  0.6508444  3
  14048  14046  14045  14067     1  0.0000000  1.0460000  1
  14048  14046  14045  14067     1  0.0000000  0.0000000  3
  14049  14050  14051  14054     1  0.0000000  0.6508444  3
  14049  14050  14056  14062     1  0.0000000  1.0460000  1
  14049  14050  14056  14062     1  0.0000000  0.6694400  3
  14049  14046  14058  14061     1  0.0000000  1.0460000  1
  14049  14046  14058  14061     1  0.0000000  0.6694400  3
  14050  14049  14057  14060     1  0.0000000  1.0460000  1
  14050  14049  14057  14060     1  0.0000000  0.6694400  3
  14051  14050  14056  14062     1  0.0000000  1.0460000  1
  14051  14050  14056  14062     1  0.0000000  0.6694400  3
  14051  14050  14049  14053     1  0.0000000  0.6508444  3
  14052  14050  14051  14055     1  0.0000000  1.0460000  1
  14052  14050  14051  14055     1  0.0000000  0.0000000  3
  14052  14050  14051  14067     1  0.0000000  1.0460000  1
  14052  14050  14051  14067     1  0.0000000  0.0000000  3
  14052  14050  14051  14054     1  0.0000000  0.6508444  3
  14052  14050  14056  14062     1  0.0000000  0.6973333  3
  14052  14050  14049  14057     1  0.0000000  1.0460000  1
  14052  14050  14049  14057     1  0.0000000  0.0000000  3
  14052  14050  14049  14053     1  0.0000000  0.6508444  3
  14053  14049  14050  14056     1  0.0000000  1.0460000  1
  14053  14049  14050  14056     1  0.0000000  0.0000000  3
  14053  14049  14057  14060     1  0.0000000  0.6973333  3
  14053  14049  14046  14058     1  0.0000000  1.0460000  1
  14053  14049  14046  14058     1  0.0000000  0.0000000  3
  14054  14051  14050  14056     1  0.0000000  0.6508444  3
  14063  14059  14065  14066     1  0.0000000  0.6973333  3
  14063  14059  14045  14067     1  0.0000000  1.0460000  1
  14063  14059  14045  14067     1  0.0000000  0.0000000  3
  14064  14059  14065  14066     1  0.0000000  0.6973333  3
  14064  14059  14045  14067     1  0.0000000  1.0460000  1
  14064  14059  14045  14067     1  0.0000000  0.0000000  3
  14068  14069  14072  14076     1  0.0000000  0.6508444  3
  14068  14069  14081  14084     1  0.0000000  1.0460000  1
  14068  14069  14081  14084     1  0.0000000  0.6694400  3
  14068  14082  14088  14089     1  0.0000000  1.0460000  1
  14068  14082  14088  14089     1  0.0000000  0.6694400  3
  14068  14090  14074  14077     1  0.0000000  1.6038667  3
  14069  14068  14082  14086     1  0.0000000  0.6508444  3
  14069  14068  14082  14087     1  0.0000000  0.6508444  3
  14069  14072  14073  14075     1  0.0000000  0.6508444  3
  14069  14072  14080  14083     1  0.0000000  1.0460000  1
  14069  14072  14080  14083     1  0.0000000  0.6694400  3
  14070  14068  14069  14072     1  0.0000000  0.6508444  3
  14070  14068  14069  14081     1  0.0000000  1.0460000  1
  14070  14068  14069  14081     1  0.0000000  0.0000000  3
  14070  14068  14069  14071     1  0.0000000  0.6508444  3
  14070  14068  14082  14088     1  0.0000000  1.0460000  1
  14070  14068  14082  14088     1  0.0000000  0.0000000  3
  14070  14068  14082  14086     1  0.0000000  0.6508444  3
  14070  14068  14082  14087     1  0.0000000  0.6508444  3
  14070  14068  14090  14074     1  0.0000000  1.6038667  3
  14071  14069  14068  14082     1  0.0000000  0.6508444  3
  14071  14069  14068  14090     1  0.0000000  1.0460000  1
  14071  14069  14068  14090     1  0.0000000  0.0000000  3
  14071  14069  14072  14073     1  0.0000000  0.6508444  3
  14071  14069  14072  14080     1  0.0000000  1.0460000  1
  14071  14069  14072  14080     1  0.0000000  0.0000000  3
  14071  14069  14072  14076     1  0.0000000  0.6508444  3
  14071  14069  14081  14084     1  0.0000000  0.6973333  3
  14072  14069  14081  14084     1  0.0000000  1.0460000  1
  14072  14069  14081  14084     1  0.0000000  0.6694400  3
  14072  14073  14074  14077     1  0.0000000  0.6508444  3
  14072  14073  14079  14085     1  0.0000000  1.0460000  1
  14072  14073  14079  14085     1  0.0000000  0.6694400  3
  14073  14072  14080  14083     1  0.0000000  1.0460000  1
  14073  14072  14080  14083     1  0.0000000  0.6694400  3
  14074  14073  14072  14076     1  0.0000000  0.6508444  3
  14074  14073  14079  14085     1  0.0000000  1.0460000  1
  14074  14073  14079  14085     1  0.0000000  0.6694400  3
  14075  14073  14072  14080     1  0.0000000  1.0460000  1
  14075  14073  14072  14080     1  0.0000000  0.0000000  3
  14075  14073  14072  14076     1  0.0000000  0.6508444  3
  14075  14073  14074  14078     1  0.0000000  1.0460000  1
  14075  14073  14074  14078     1  0.0000000  0.0000000  3
  14075  14073  14074  14090     1  0.0000000  1.0460000  1
  14075  14073  14074  14090     1  0.0000000  0.0000000  3
  14075  14073  14074  14077     1  0.0000000  0.6508444  3
  14075  14073  14079  14085     1  0.0000000  0.6973333  3
  14076  14072  14069  14081     1  0.0000000  1.0460000  1
  14076  14072  14069  14081     1  0.0000000  0.0000000  3
  14076  14072  14073  14079     1  0.0000000  1.0460000  1
  14076  14072  14073  14079     1  0.0000000  0.0000000  3
  14076  14072  14080  14083     1  0.0000000  0.6973333  3
  14077  14074  14073  14079     1  0.0000000  0.6508444  3
  14086  14082  14068  14090     1  0.0000000  1.0460000  1
  14086  14082  14068  14090     1  0.0000000  0.0000000  3
  14086  14082  14088  14089     1  0.0000000  0.6973333  3
  14087  14082  14068  14090     1  0.0000000  1.0460000  1
  14087  14082  14068  14090     1  0.0000000  0.0000000  3
  14087  14082  14088  14089     1  0.0000000  0.6973333  3
  14091  14092  14095  14099     1  0.0000000  0.6508444  3
  14091  14092  14104  14107     1  0.0000000  1.0460000  1
  14091  14092  14104  14107     1  0.0000000  0.6694400  3
  14091  14105  14111  14112     1  0.0000000  1.0460000  1
  14091  14105  14111  14112     1  0.0000000  0.6694400  3
  14091  14113  14097  14100     1  0.0000000  1.6038667  3
  14092  14095  14096  14098     1  0.0000000  0.6508444  3
  14092  14095  14103  14106     1  0.0000000  1.0460000  1
  14092  14095  14103  14106     1  0.0000000  0.6694400  3
  14092  14091  14105  14109     1  0.0000000  0.6508444  3
  14092  14091  14105  14110     1  0.0000000  0.6508444  3
  14093  14091  14092  14095     1  0.0000000  0.6508444  3
  14093  14091  14092  14104     1  0.0000000  1.0460000  1
  14093  14091  14092  14104     1  0.0000000  0.0000000  3
  14093  14091  14092  14094     1  0.0000000  0.6508444  3
  14093  14091  14105  14111     1  0.0000000  1.0460000  1
  14093  14091  14105  14111     1  0.0000000  0.0000000  3
  14093  14091  14105  14109     1  0.0000000  0.6508444  3
  14093  14091  14105  14110     1  0.0000000  0.6508444  3
  14093  14091  14113  14097     1  0.0000000  1.6038667  3
  14094  14092  14095  14096     1  0.0000000  0.6508444  3
  14094  14092  14095  14103     1  0.0000000  1.0460000  1
  14094  14092  14095  14103     1  0.0000000  0.0000000  3
  14094  14092  14095  14099     1  0.0000000  0.6508444  3
  14094  14092  14104  14107     1  0.0000000  0.6973333  3
  14094  14092  14091  14105     1  0.0000000  0.6508444  3
  14094  14092  14091  14113     1  0.0000000  1.0460000  1
  14094  14092  14091  14113     1  0.0000000  0.0000000  3
  14095  14096  14097  14100     1  0.0000000  0.6508444  3
  14095  14096  14102  14108     1  0.0000000  1.0460000  1
  14095  14096  14102  14108     1  0.0000000  0.6694400  3
  14095  14092  14104  14107     1  0.0000000  1.0460000  1
  14095  14092  14104  14107     1  0.0000000  0.6694400  3
  14096  14095  14103  14106     1  0.0000000  1.0460000  1
  14096  14095  14103  14106     1  0.0000000  0.6694400  3
  14097  14096  14102  14108     1  0.0000000  1.0460000  1
  14097  14096  14102  14108     1  0.0000000  0.6694400  3
  14097  14096  14095  14099     1  0.0000000  0.6508444  3
  14098  14096  14097  14101     1  0.0000000  1.0460000  1
  14098  14096  14097  14101     1  0.0000000  0.0000000  3
  14098  14096  14097  14113     1  0.0000000  1.0460000  1
  14098  14096  14097  14113     1  0.0000000  0.0000000  3
  14098  14096  14097  14100     1  0.0000000  0.6508444  3
  14098  14096  14102  14108     1  0.0000000  0.6973333  3
  14098  14096  14095  14103     1  0.0000000  1.0460000  1
  14098  14096  14095  14103     1  0.0000000  0.0000000  3
  14098  14096  14095  14099     1  0.0000000  0.6508444  3
  14099  14095  14096  14102     1  0.0000000  1.0460000  1
  14099  14095  14096  14102     1  0.0000000  0.0000000  3
  14099  14095  14103  14106     1  0.0000000  0.6973333  3
  14099  14095  14092  14104     1  0.0000000  1.0460000  1
  14099  14095  14092  14104     1  0.0000000  0.0000000  3
  14100  14097  14096  14102     1  0.0000000  0.6508444  3
  14109  14105  14111  14112     1  0.0000000  0.6973333  3
  14109  14105  14091  14113     1  0.0000000  1.0460000  1
  14109  14105  14091  14113     1  0.0000000  0.0000000  3
  14110  14105  14111  14112     1  0.0000000  0.6973333  3
  14110  14105  14091  14113     1  0.0000000  1.0460000  1
  14110  14105  14091  14113     1  0.0000000  0.0000000  3
  14114  14115  14118  14122     1  0.0000000  0.6508444  3
  14114  14115  14127  14130     1  0.0000000  1.0460000  1
  14114  14115  14127  14130     1  0.0000000  0.6694400  3
  14114  14128  14134  14135     1  0.0000000  1.0460000  1
  14114  14128  14134  14135     1  0.0000000  0.6694400  3
  14114  14136  14120  14123     1  0.0000000  1.6038667  3
  14115  14114  14128  14132     1  0.0000000  0.6508444  3
  14115  14114  14128  14133     1  0.0000000  0.6508444  3
  14115  14118  14119  14121     1  0.0000000  0.6508444  3
  14115  14118  14126  14129     1  0.0000000  1.0460000  1
  14115  14118  14126  14129     1  0.0000000  0.6694400  3
  14116  14114  14115  14118     1  0.0000000  0.6508444  3
  14116  14114  14115  14127     1  0.0000000  1.0460000  1
  14116  14114  14115  14127     1  0.0000000  0.0000000  3
  14116  14114  14115  14117     1  0.0000000  0.6508444  3
  14116  14114  14128  14134     1  0.0000000  1.0460000  1
  14116  14114  14128  14134     1  0.0000000  0.0000000  3
  14116  14114  14128  14132     1  0.0000000  0.6508444  3
  14116  14114  14128  14133     1  0.0000000  0.6508444  3
  14116  14114  14136  14120     1  0.0000000  1.6038667  3
  14117  14115  14114  14128     1  0.0000000  0.6508444  3
  14117  14115  14114  14136     1  0.0000000  1.0460000  1
  14117  14115  14114  14136     1  0.0000000  0.0000000  3
  14117  14115  14118  14119     1  0.0000000  0.6508444  3
  14117  14115  14118  14126     1  0.0000000  1.0460000  1
  14117  14115  14118  14126     1  0.0000000  0.0000000  3
  14117  14115  14118  14122     1  0.0000000  0.6508444  3
  14117  14115  14127  14130     1  0.0000000  0.6973333  3
  14118  14115  14127  14130     1  0.0000000  1.0460000  1
  14118  14115  14127  14130     1  0.0000000  0.6694400  3
  14118  14119  14120  14123     1  0.0000000  0.6508444  3
  14118  14119  14125  14131     1  0.0000000  1.0460000  1
  14118  14119  14125  14131     1  0.0000000  0.6694400  3
  14119  14118  14126  14129     1  0.0000000  1.0460000  1
  14119  14118  14126  14129     1  0.0000000  0.6694400  3
  14120  14119  14118  14122     1  0.0000000  0.6508444  3
  14120  14119  14125  14131     1  0.0000000  1.0460000  1
  14120  14119  14125  14131     1  0.0000000  0.6694400  3
  14121  14119  14118  14126     1  0.0000000  1.0460000  1
  14121  14119  14118  14126     1  0.0000000  0.0000000  3
  14121  14119  14118  14122     1  0.0000000  0.6508444  3
  14121  14119  14120  14124     1  0.0000000  1.0460000  1
  14121  14119  14120  14124     1  0.0000000  0.0000000  3
  14121  14119  14120  14136     1  0.0000000  1.0460000  1
  14121  14119  14120  14136     1  0.0000000  0.0000000  3
  14121  14119  14120  14123     1  0.0000000  0.6508444  3
  14121  14119  14125  14131     1  0.0000000  0.6973333  3
  14122  14118  14115  14127     1  0.0000000  1.0460000  1
  14122  14118  14115  14127     1  0.0000000  0.0000000  3
  14122  14118  14119  14125     1  0.0000000  1.0460000  1
  14122  14118  14119  14125     1  0.0000000  0.0000000  3
  14122  14118  14126  14129     1  0.0000000  0.6973333  3
  14123  14120  14119  14125     1  0.0000000  0.6508444  3
  14132  14128  14114  14136     1  0.0000000  1.0460000  1
  14132  14128  14114  14136     1  0.0000000  0.0000000  3
  14132  14128  14134  14135     1  0.0000000  0.6973333  3
  14133  14128  14114  14136     1  0.0000000  1.0460000  1
  14133  14128  14114  14136     1  0.0000000  0.0000000  3
  14133  14128  14134  14135     1  0.0000000  0.6973333  3
  14137  14138  14141  14145     1  0.0000000  0.6508444  3
  14137  14138  14150  14153     1  0.0000000  1.0460000  1
  14137  14138  14150  14153     1  0.0000000  0.6694400  3
  14137  14151  14157  14158     1  0.0000000  1.0460000  1
  14137  14151  14157  14158     1  0.0000000  0.6694400  3
  14137  14159  14143  14146     1  0.0000000  1.6038667  3
  14138  14141  14142  14144     1  0.0000000  0.6508444  3
  14138  14141  14149  14152     1  0.0000000  1.0460000  1
  14138  14141  14149  14152     1  0.0000000  0.6694400  3
  14138  14137  14151  14155     1  0.0000000  0.6508444  3
  14138  14137  14151  14156     1  0.0000000  0.6508444  3
  14139  14137  14138  14141     1  0.0000000  0.6508444  3
  14139  14137  14138  14150     1  0.0000000  1.0460000  1
  14139  14137  14138  14150     1  0.0000000  0.0000000  3
  14139  14137  14138  14140     1  0.0000000  0.6508444  3
  14139  14137  14151  14157     1  0.0000000  1.0460000  1
  14139  14137  14151  14157     1  0.0000000  0.0000000  3
  14139  14137  14151  14155     1  0.0000000  0.6508444  3
  14139  14137  14151  14156     1  0.0000000  0.6508444  3
  14139  14137  14159  14143     1  0.0000000  1.6038667  3
  14140  14138  14141  14142     1  0.0000000  0.6508444  3
  14140  14138  14141  14149     1  0.0000000  1.0460000  1
  14140  14138  14141  14149     1  0.0000000  0.0000000  3
  14140  14138  14141  14145     1  0.0000000  0.6508444  3
  14140  14138  14150  14153     1  0.0000000  0.6973333  3
  14140  14138  14137  14151     1  0.0000000  0.6508444  3
  14140  14138  14137  14159     1  0.0000000  1.0460000  1
  14140  14138  14137  14159     1  0.0000000  0.0000000  3
  14141  14142  14143  14146     1  0.0000000  0.6508444  3
  14141  14142  14148  14154     1  0.0000000  1.0460000  1
  14141  14142  14148  14154     1  0.0000000  0.6694400  3
  14141  14138  14150  14153     1  0.0000000  1.0460000  1
  14141  14138  14150  14153     1  0.0000000  0.6694400  3
  14142  14141  14149  14152     1  0.0000000  1.0460000  1
  14142  14141  14149  14152     1  0.0000000  0.6694400  3
  14143  14142  14148  14154     1  0.0000000  1.0460000  1
  14143  14142  14148  14154     1  0.0000000  0.6694400  3
  14143  14142  14141  14145     1  0.0000000  0.6508444  3
  14144  14142  14143  14147     1  0.0000000  1.0460000  1
  14144  14142  14143  14147     1  0.0000000  0.0000000  3
  14144  14142  14143  14159     1  0.0000000  1.0460000  1
  14144  14142  14143  14159     1  0.0000000  0.0000000  3
  14144  14142  14143  14146     1  0.0000000  0.6508444  3
  14144  14142  14148  14154     1  0.0000000  0.6973333  3
  14144  14142  14141  14149     1  0.0000000  1.0460000  1
  14144  14142  14141  14149     1  0.0000000  0.0000000  3
  14144  14142  14141  14145     1  0.0000000  0.6508444  3
  14145  14141  14142  14148     1  0.0000000  1.0460000  1
  14145  14141  14142  14148     1  0.0000000  0.0000000  3
  14145  14141  14149  14152     1  0.0000000  0.6973333  3
  14145  14141  14138  14150     1  0.0000000  1.0460000  1
  14145  14141  14138  14150     1  0.0000000  0.0000000  3
  14146  14143  14142  14148     1  0.0000000  0.6508444  3
  14155  14151  14157  14158     1  0.0000000  0.6973333  3
  14155  14151  14137  14159     1  0.0000000  1.0460000  1
  14155  14151  14137  14159     1  0.0000000  0.0000000  3
  14156  14151  14157  14158     1  0.0000000  0.6973333  3
  14156  14151  14137  14159     1  0.0000000  1.0460000  1
  14156  14151  14137  14159     1  0.0000000  0.0000000  3
  14160  14161  14164  14168     1  0.0000000  0.6508444  3
  14160  14161  14173  14176     1  0.0000000  1.0460000  1
  14160  14161  14173  14176     1  0.0000000  0.6694400  3
  14160  14174  14180  14181     1  0.0000000  1.0460000  1
  14160  14174  14180  14181     1  0.0000000  0.6694400  3
  14160  14182  14166  14169     1  0.0000000  1.6038667  3
  14161  14160  14174  14178     1  0.0000000  0.6508444  3
  14161  14160  14174  14179     1  0.0000000  0.6508444  3
  14161  14164  14165  14167     1  0.0000000  0.6508444  3
  14161  14164  14172  14175     1  0.0000000  1.0460000  1
  14161  14164  14172  14175     1  0.0000000  0.6694400  3
  14162  14160  14161  14164     1  0.0000000  0.6508444  3
  14162  14160  14161  14173     1  0.0000000  1.0460000  1
  14162  14160  14161  14173     1  0.0000000  0.0000000  3
  14162  14160  14161  14163     1  0.0000000  0.6508444  3
  14162  14160  14174  14180     1  0.0000000  1.0460000  1
  14162  14160  14174  14180     1  0.0000000  0.0000000  3
  14162  14160  14174  14178     1  0.0000000  0.6508444  3
  14162  14160  14174  14179     1  0.0000000  0.6508444  3
  14162  14160  14182  14166     1  0.0000000  1.6038667  3
  14163  14161  14160  14174     1  0.0000000  0.6508444  3
  14163  14161  14160  14182     1  0.0000000  1.0460000  1
  14163  14161  14160  14182     1  0.0000000  0.0000000  3
  14163  14161  14164  14165     1  0.0000000  0.6508444  3
  14163  14161  14164  14172     1  0.0000000  1.0460000  1
  14163  14161  14164  14172     1  0.0000000  0.0000000  3
  14163  14161  14164  14168     1  0.0000000  0.6508444  3
  14163  14161  14173  14176     1  0.0000000  0.6973333  3
  14164  14161  14173  14176     1  0.0000000  1.0460000  1
  14164  14161  14173  14176     1  0.0000000  0.6694400  3
  14164  14165  14166  14169     1  0.0000000  0.6508444  3
  14164  14165  14171  14177     1  0.0000000  1.0460000  1
  14164  14165  14171  14177     1  0.0000000  0.6694400  3
  14165  14164  14172  14175     1  0.0000000  1.0460000  1
  14165  14164  14172  14175     1  0.0000000  0.6694400  3
  14166  14165  14164  14168     1  0.0000000  0.6508444  3
  14166  14165  14171  14177     1  0.0000000  1.0460000  1
  14166  14165  14171  14177     1  0.0000000  0.6694400  3
  14167  14165  14164  14172     1  0.0000000  1.0460000  1
  14167  14165  14164  14172     1  0.0000000  0.0000000  3
  14167  14165  14164  14168     1  0.0000000  0.6508444  3
  14167  14165  14166  14170     1  0.0000000  1.0460000  1
  14167  14165  14166  14170     1  0.0000000  0.0000000  3
  14167  14165  14166  14182     1  0.0000000  1.0460000  1
  14167  14165  14166  14182     1  0.0000000  0.0000000  3
  14167  14165  14166  14169     1  0.0000000  0.6508444  3
  14167  14165  14171  14177     1  0.0000000  0.6973333  3
  14168  14164  14161  14173     1  0.0000000  1.0460000  1
  14168  14164  14161  14173     1  0.0000000  0.0000000  3
  14168  14164  14165  14171     1  0.0000000  1.0460000  1
  14168  14164  14165  14171     1  0.0000000  0.0000000  3
  14168  14164  14172  14175     1  0.0000000  0.6973333  3
  14169  14166  14165  14171     1  0.0000000  0.6508444  3
  14178  14174  14160  14182     1  0.0000000  1.0460000  1
  14178  14174  14160  14182     1  0.0000000  0.0000000  3
  14178  14174  14180  14181     1  0.0000000  0.6973333  3
  14179  14174  14160  14182     1  0.0000000  1.0460000  1
  14179  14174  14160  14182     1  0.0000000  0.0000000  3
  14179  14174  14180  14181     1  0.0000000  0.6973333  3
  14183  14184  14187  14191     1  0.0000000  0.6508444  3
  14183  14184  14196  14199     1  0.0000000  1.0460000  1
  14183  14184  14196  14199     1  0.0000000  0.6694400  3
  14183  14197  14203  14204     1  0.0000000  1.0460000  1
  14183  14197  14203  14204     1  0.0000000  0.6694400  3
  14183  14205  14189  14192     1  0.0000000  1.6038667  3
  14184  14187  14188  14190     1  0.0000000  0.6508444  3
  14184  14187  14195  14198     1  0.0000000  1.0460000  1
  14184  14187  14195  14198     1  0.0000000  0.6694400  3
  14184  14183  14197  14201     1  0.0000000  0.6508444  3
  14184  14183  14197  14202     1  0.0000000  0.6508444  3
  14185  14183  14184  14187     1  0.0000000  0.6508444  3
  14185  14183  14184  14196     1  0.0000000  1.0460000  1
  14185  14183  14184  14196     1  0.0000000  0.0000000  3
  14185  14183  14184  14186     1  0.0000000  0.6508444  3
  14185  14183  14197  14203     1  0.0000000  1.0460000  1
  14185  14183  14197  14203     1  0.0000000  0.0000000  3
  14185  14183  14197  14201     1  0.0000000  0.6508444  3
  14185  14183  14197  14202     1  0.0000000  0.6508444  3
  14185  14183  14205  14189     1  0.0000000  1.6038667  3
  14186  14184  14187  14188     1  0.0000000  0.6508444  3
  14186  14184  14187  14195     1  0.0000000  1.0460000  1
  14186  14184  14187  14195     1  0.0000000  0.0000000  3
  14186  14184  14187  14191     1  0.0000000  0.6508444  3
  14186  14184  14196  14199     1  0.0000000  0.6973333  3
  14186  14184  14183  14197     1  0.0000000  0.6508444  3
  14186  14184  14183  14205     1  0.0000000  1.0460000  1
  14186  14184  14183  14205     1  0.0000000  0.0000000  3
  14187  14188  14189  14192     1  0.0000000  0.6508444  3
  14187  14188  14194  14200     1  0.0000000  1.0460000  1
  14187  14188  14194  14200     1  0.0000000  0.6694400  3
  14187  14184  14196  14199     1  0.0000000  1.0460000  1
  14187  14184  14196  14199     1  0.0000000  0.6694400  3
  14188  14187  14195  14198     1  0.0000000  1.0460000  1
  14188  14187  14195  14198     1  0.0000000  0.6694400  3
  14189  14188  14194  14200     1  0.0000000  1.0460000  1
  14189  14188  14194  14200     1  0.0000000  0.6694400  3
  14189  14188  14187  14191     1  0.0000000  0.6508444  3
  14190  14188  14189  14193     1  0.0000000  1.0460000  1
  14190  14188  14189  14193     1  0.0000000  0.0000000  3
  14190  14188  14189  14205     1  0.0000000  1.0460000  1
  14190  14188  14189  14205     1  0.0000000  0.0000000  3
  14190  14188  14189  14192     1  0.0000000  0.6508444  3
  14190  14188  14194  14200     1  0.0000000  0.6973333  3
  14190  14188  14187  14195     1  0.0000000  1.0460000  1
  14190  14188  14187  14195     1  0.0000000  0.0000000  3
  14190  14188  14187  14191     1  0.0000000  0.6508444  3
  14191  14187  14188  14194     1  0.0000000  1.0460000  1
  14191  14187  14188  14194     1  0.0000000  0.0000000  3
  14191  14187  14195  14198     1  0.0000000  0.6973333  3
  14191  14187  14184  14196     1  0.0000000  1.0460000  1
  14191  14187  14184  14196     1  0.0000000  0.0000000  3
  14192  14189  14188  14194     1  0.0000000  0.6508444  3
  14201  14197  14203  14204     1  0.0000000  0.6973333  3
  14201  14197  14183  14205     1  0.0000000  1.0460000  1
  14201  14197  14183  14205     1  0.0000000  0.0000000  3
  14202  14197  14203  14204     1  0.0000000  0.6973333  3
  14202  14197  14183  14205     1  0.0000000  1.0460000  1
  14202  14197  14183  14205     1  0.0000000  0.0000000  3
  14206  14207  14210  14214     1  0.0000000  0.6508444  3
  14206  14207  14219  14222     1  0.0000000  1.0460000  1
  14206  14207  14219  14222     1  0.0000000  0.6694400  3
  14206  14220  14226  14227     1  0.0000000  1.0460000  1
  14206  14220  14226  14227     1  0.0000000  0.6694400  3
  14206  14228  14212  14215     1  0.0000000  1.6038667  3
  14207  14206  14220  14224     1  0.0000000  0.6508444  3
  14207  14206  14220  14225     1  0.0000000  0.6508444  3
  14207  14210  14211  14213     1  0.0000000  0.6508444  3
  14207  14210  14218  14221     1  0.0000000  1.0460000  1
  14207  14210  14218  14221     1  0.0000000  0.6694400  3
  14208  14206  14207  14210     1  0.0000000  0.6508444  3
  14208  14206  14207  14219     1  0.0000000  1.0460000  1
  14208  14206  14207  14219     1  0.0000000  0.0000000  3
  14208  14206  14207  14209     1  0.0000000  0.6508444  3
  14208  14206  14220  14226     1  0.0000000  1.0460000  1
  14208  14206  14220  14226     1  0.0000000  0.0000000  3
  14208  14206  14220  14224     1  0.0000000  0.6508444  3
  14208  14206  14220  14225     1  0.0000000  0.6508444  3
  14208  14206  14228  14212     1  0.0000000  1.6038667  3
  14209  14207  14206  14220     1  0.0000000  0.6508444  3
  14209  14207  14206  14228     1  0.0000000  1.0460000  1
  14209  14207  14206  14228     1  0.0000000  0.0000000  3
  14209  14207  14210  14211     1  0.0000000  0.6508444  3
  14209  14207  14210  14218     1  0.0000000  1.0460000  1
  14209  14207  14210  14218     1  0.0000000  0.0000000  3
  14209  14207  14210  14214     1  0.0000000  0.6508444  3
  14209  14207  14219  14222     1  0.0000000  0.6973333  3
  14210  14207  14219  14222     1  0.0000000  1.0460000  1
  14210  14207  14219  14222     1  0.0000000  0.6694400  3
  14210  14211  14212  14215     1  0.0000000  0.6508444  3
  14210  14211  14217  14223     1  0.0000000  1.0460000  1
  14210  14211  14217  14223     1  0.0000000  0.6694400  3
  14211  14210  14218  14221     1  0.0000000  1.0460000  1
  14211  14210  14218  14221     1  0.0000000  0.6694400  3
  14212  14211  14210  14214     1  0.0000000  0.6508444  3
  14212  14211  14217  14223     1  0.0000000  1.0460000  1
  14212  14211  14217  14223     1  0.0000000  0.6694400  3
  14213  14211  14210  14218     1  0.0000000  1.0460000  1
  14213  14211  14210  14218     1  0.0000000  0.0000000  3
  14213  14211  14210  14214     1  0.0000000  0.6508444  3
  14213  14211  14212  14216     1  0.0000000  1.0460000  1
  14213  14211  14212  14216     1  0.0000000  0.0000000  3
  14213  14211  14212  14228     1  0.0000000  1.0460000  1
  14213  14211  14212  14228     1  0.0000000  0.0000000  3
  14213  14211  14212  14215     1  0.0000000  0.6508444  3
  14213  14211  14217  14223     1  0.0000000  0.6973333  3
  14214  14210  14207  14219     1  0.0000000  1.0460000  1
  14214  14210  14207  14219     1  0.0000000  0.0000000  3
  14214  14210  14211  14217     1  0.0000000  1.0460000  1
  14214  14210  14211  14217     1  0.0000000  0.0000000  3
  14214  14210  14218  14221     1  0.0000000  0.6973333  3
  14215  14212  14211  14217     1  0.0000000  0.6508444  3
  14224  14220  14206  14228     1  0.0000000  1.0460000  1
  14224  14220  14206  14228     1  0.0000000  0.0000000  3
  14224  14220  14226  14227     1  0.0000000  0.6973333  3
  14225  14220  14206  14228     1  0.0000000  1.0460000  1
  14225  14220  14206  14228     1  0.0000000  0.0000000  3
  14225  14220  14226  14227     1  0.0000000  0.6973333  3
  14229  14230  14233  14237     1  0.0000000  0.6508444  3
  14229  14230  14242  14245     1  0.0000000  1.0460000  1
  14229  14230  14242  14245     1  0.0000000  0.6694400  3
  14229  14243  14249  14250     1  0.0000000  1.0460000  1
  14229  14243  14249  14250     1  0.0000000  0.6694400  3
  14229  14251  14235  14238     1  0.0000000  1.6038667  3
  14230  14233  14234  14236     1  0.0000000  0.6508444  3
  14230  14233  14241  14244     1  0.0000000  1.0460000  1
  14230  14233  14241  14244     1  0.0000000  0.6694400  3
  14230  14229  14243  14247     1  0.0000000  0.6508444  3
  14230  14229  14243  14248     1  0.0000000  0.6508444  3
  14231  14229  14230  14233     1  0.0000000  0.6508444  3
  14231  14229  14230  14242     1  0.0000000  1.0460000  1
  14231  14229  14230  14242     1  0.0000000  0.0000000  3
  14231  14229  14230  14232     1  0.0000000  0.6508444  3
  14231  14229  14243  14249     1  0.0000000  1.0460000  1
  14231  14229  14243  14249     1  0.0000000  0.0000000  3
  14231  14229  14243  14247     1  0.0000000  0.6508444  3
  14231  14229  14243  14248     1  0.0000000  0.6508444  3
  14231  14229  14251  14235     1  0.0000000  1.6038667  3
  14232  14230  14233  14234     1  0.0000000  0.6508444  3
  14232  14230  14233  14241     1  0.0000000  1.0460000  1
  14232  14230  14233  14241     1  0.0000000  0.0000000  3
  14232  14230  14233  14237     1  0.0000000  0.6508444  3
  14232  14230  14242  14245     1  0.0000000  0.6973333  3
  14232  14230  14229  14243     1  0.0000000  0.6508444  3
  14232  14230  14229  14251     1  0.0000000  1.0460000  1
  14232  14230  14229  14251     1  0.0000000  0.0000000  3
  14233  14234  14235  14238     1  0.0000000  0.6508444  3
  14233  14234  14240  14246     1  0.0000000  1.0460000  1
  14233  14234  14240  14246     1  0.0000000  0.6694400  3
  14233  14230  14242  14245     1  0.0000000  1.0460000  1
  14233  14230  14242  14245     1  0.0000000  0.6694400  3
  14234  14233  14241  14244     1  0.0000000  1.0460000  1
  14234  14233  14241  14244     1  0.0000000  0.6694400  3
  14235  14234  14240  14246     1  0.0000000  1.0460000  1
  14235  14234  14240  14246     1  0.0000000  0.6694400  3
  14235  14234  14233  14237     1  0.0000000  0.6508444  3
  14236  14234  14235  14239     1  0.0000000  1.0460000  1
  14236  14234  14235  14239     1  0.0000000  0.0000000  3
  14236  14234  14235  14251     1  0.0000000  1.0460000  1
  14236  14234  14235  14251     1  0.0000000  0.0000000  3
  14236  14234  14235  14238     1  0.0000000  0.6508444  3
  14236  14234  14240  14246     1  0.0000000  0.6973333  3
  14236  14234  14233  14241     1  0.0000000  1.0460000  1
  14236  14234  14233  14241     1  0.0000000  0.0000000  3
  14236  14234  14233  14237     1  0.0000000  0.6508444  3
  14237  14233  14234  14240     1  0.0000000  1.0460000  1
  14237  14233  14234  14240     1  0.0000000  0.0000000  3
  14237  14233  14241  14244     1  0.0000000  0.6973333  3
  14237  14233  14230  14242     1  0.0000000  1.0460000  1
  14237  14233  14230  14242     1  0.0000000  0.0000000  3
  14238  14235  14234  14240     1  0.0000000  0.6508444  3
  14247  14243  14249  14250     1  0.0000000  0.6973333  3
  14247  14243  14229  14251     1  0.0000000  1.0460000  1
  14247  14243  14229  14251     1  0.0000000  0.0000000  3
  14248  14243  14249  14250     1  0.0000000  0.6973333  3
  14248  14243  14229  14251     1  0.0000000  1.0460000  1
  14248  14243  14229  14251     1  0.0000000  0.0000000  3
  14252  14253  14256  14260     1  0.0000000  0.6508444  3
  14252  14253  14265  14268     1  0.0000000  1.0460000  1
  14252  14253  14265  14268     1  0.0000000  0.6694400  3
  14252  14266  14272  14273     1  0.0000000  1.0460000  1
  14252  14266  14272  14273     1  0.0000000  0.6694400  3
  14252  14274  14258  14261     1  0.0000000  1.6038667  3
  14253  14252  14266  14270     1  0.0000000  0.6508444  3
  14253  14252  14266  14271     1  0.0000000  0.6508444  3
  14253  14256  14257  14259     1  0.0000000  0.6508444  3
  14253  14256  14264  14267     1  0.0000000  1.0460000  1
  14253  14256  14264  14267     1  0.0000000  0.6694400  3
  14254  14252  14253  14256     1  0.0000000  0.6508444  3
  14254  14252  14253  14265     1  0.0000000  1.0460000  1
  14254  14252  14253  14265     1  0.0000000  0.0000000  3
  14254  14252  14253  14255     1  0.0000000  0.6508444  3
  14254  14252  14266  14272     1  0.0000000  1.0460000  1
  14254  14252  14266  14272     1  0.0000000  0.0000000  3
  14254  14252  14266  14270     1  0.0000000  0.6508444  3
  14254  14252  14266  14271     1  0.0000000  0.6508444  3
  14254  14252  14274  14258     1  0.0000000  1.6038667  3
  14255  14253  14252  14266     1  0.0000000  0.6508444  3
  14255  14253  14252  14274     1  0.0000000  1.0460000  1
  14255  14253  14252  14274     1  0.0000000  0.0000000  3
  14255  14253  14256  14257     1  0.0000000  0.6508444  3
  14255  14253  14256  14264     1  0.0000000  1.0460000  1
  14255  14253  14256  14264     1  0.0000000  0.0000000  3
  14255  14253  14256  14260     1  0.0000000  0.6508444  3
  14255  14253  14265  14268     1  0.0000000  0.6973333  3
  14256  14253  14265  14268     1  0.0000000  1.0460000  1
  14256  14253  14265  14268     1  0.0000000  0.6694400  3
  14256  14257  14258  14261     1  0.0000000  0.6508444  3
  14256  14257  14263  14269     1  0.0000000  1.0460000  1
  14256  14257  14263  14269     1  0.0000000  0.6694400  3
  14257  14256  14264  14267     1  0.0000000  1.0460000  1
  14257  14256  14264  14267     1  0.0000000  0.6694400  3
  14258  14257  14256  14260     1  0.0000000  0.6508444  3
  14258  14257  14263  14269     1  0.0000000  1.0460000  1
  14258  14257  14263  14269     1  0.0000000  0.6694400  3
  14259  14257  14256  14264     1  0.0000000  1.0460000  1
  14259  14257  14256  14264     1  0.0000000  0.0000000  3
  14259  14257  14256  14260     1  0.0000000  0.6508444  3
  14259  14257  14258  14262     1  0.0000000  1.0460000  1
  14259  14257  14258  14262     1  0.0000000  0.0000000  3
  14259  14257  14258  14274     1  0.0000000  1.0460000  1
  14259  14257  14258  14274     1  0.0000000  0.0000000  3
  14259  14257  14258  14261     1  0.0000000  0.6508444  3
  14259  14257  14263  14269     1  0.0000000  0.6973333  3
  14260  14256  14253  14265     1  0.0000000  1.0460000  1
  14260  14256  14253  14265     1  0.0000000  0.0000000  3
  14260  14256  14257  14263     1  0.0000000  1.0460000  1
  14260  14256  14257  14263     1  0.0000000  0.0000000  3
  14260  14256  14264  14267     1  0.0000000  0.6973333  3
  14261  14258  14257  14263     1  0.0000000  0.6508444  3
  14270  14266  14252  14274     1  0.0000000  1.0460000  1
  14270  14266  14252  14274     1  0.0000000  0.0000000  3
  14270  14266  14272  14273     1  0.0000000  0.6973333  3
  14271  14266  14252  14274     1  0.0000000  1.0460000  1
  14271  14266  14252  14274     1  0.0000000  0.0000000  3
  14271  14266  14272  14273     1  0.0000000  0.6973333  3
  14275  14276  14279  14283     1  0.0000000  0.6508444  3
  14275  14276  14288  14291     1  0.0000000  1.0460000  1
  14275  14276  14288  14291     1  0.0000000  0.6694400  3
  14275  14289  14295  14296     1  0.0000000  1.0460000  1
  14275  14289  14295  14296     1  0.0000000  0.6694400  3
  14275  14297  14281  14284     1  0.0000000  1.6038667  3
  14276  14279  14280  14282     1  0.0000000  0.6508444  3
  14276  14279  14287  14290     1  0.0000000  1.0460000  1
  14276  14279  14287  14290     1  0.0000000  0.6694400  3
  14276  14275  14289  14293     1  0.0000000  0.6508444  3
  14276  14275  14289  14294     1  0.0000000  0.6508444  3
  14277  14275  14276  14279     1  0.0000000  0.6508444  3
  14277  14275  14276  14288     1  0.0000000  1.0460000  1
  14277  14275  14276  14288     1  0.0000000  0.0000000  3
  14277  14275  14276  14278     1  0.0000000  0.6508444  3
  14277  14275  14289  14295     1  0.0000000  1.0460000  1
  14277  14275  14289  14295     1  0.0000000  0.0000000  3
  14277  14275  14289  14293     1  0.0000000  0.6508444  3
  14277  14275  14289  14294     1  0.0000000  0.6508444  3
  14277  14275  14297  14281     1  0.0000000  1.6038667  3
  14278  14276  14279  14280     1  0.0000000  0.6508444  3
  14278  14276  14279  14287     1  0.0000000  1.0460000  1
  14278  14276  14279  14287     1  0.0000000  0.0000000  3
  14278  14276  14279  14283     1  0.0000000  0.6508444  3
  14278  14276  14288  14291     1  0.0000000  0.6973333  3
  14278  14276  14275  14289     1  0.0000000  0.6508444  3
  14278  14276  14275  14297     1  0.0000000  1.0460000  1
  14278  14276  14275  14297     1  0.0000000  0.0000000  3
  14279  14280  14281  14284     1  0.0000000  0.6508444  3
  14279  14280  14286  14292     1  0.0000000  1.0460000  1
  14279  14280  14286  14292     1  0.0000000  0.6694400  3
  14279  14276  14288  14291     1  0.0000000  1.0460000  1
  14279  14276  14288  14291     1  0.0000000  0.6694400  3
  14280  14279  14287  14290     1  0.0000000  1.0460000  1
  14280  14279  14287  14290     1  0.0000000  0.6694400  3
  14281  14280  14286  14292     1  0.0000000  1.0460000  1
  14281  14280  14286  14292     1  0.0000000  0.6694400  3
  14281  14280  14279  14283     1  0.0000000  0.6508444  3
  14282  14280  14281  14285     1  0.0000000  1.0460000  1
  14282  14280  14281  14285     1  0.0000000  0.0000000  3
  14282  14280  14281  14297     1  0.0000000  1.0460000  1
  14282  14280  14281  14297     1  0.0000000  0.0000000  3
  14282  14280  14281  14284     1  0.0000000  0.6508444  3
  14282  14280  14286  14292     1  0.0000000  0.6973333  3
  14282  14280  14279  14287     1  0.0000000  1.0460000  1
  14282  14280  14279  14287     1  0.0000000  0.0000000  3
  14282  14280  14279  14283     1  0.0000000  0.6508444  3
  14283  14279  14280  14286     1  0.0000000  1.0460000  1
  14283  14279  14280  14286     1  0.0000000  0.0000000  3
  14283  14279  14287  14290     1  0.0000000  0.6973333  3
  14283  14279  14276  14288     1  0.0000000  1.0460000  1
  14283  14279  14276  14288     1  0.0000000  0.0000000  3
  14284  14281  14280  14286     1  0.0000000  0.6508444  3
  14293  14289  14295  14296     1  0.0000000  0.6973333  3
  14293  14289  14275  14297     1  0.0000000  1.0460000  1
  14293  14289  14275  14297     1  0.0000000  0.0000000  3
  14294  14289  14295  14296     1  0.0000000  0.6973333  3
  14294  14289  14275  14297     1  0.0000000  1.0460000  1
  14294  14289  14275  14297     1  0.0000000  0.0000000  3
  14298  14299  14302  14306     1  0.0000000  0.6508444  3
  14298  14299  14311  14314     1  0.0000000  1.0460000  1
  14298  14299  14311  14314     1  0.0000000  0.6694400  3
  14298  14312  14318  14319     1  0.0000000  1.0460000  1
  14298  14312  14318  14319     1  0.0000000  0.6694400  3
  14298  14320  14304  14307     1  0.0000000  1.6038667  3
  14299  14298  14312  14316     1  0.0000000  0.6508444  3
  14299  14298  14312  14317     1  0.0000000  0.6508444  3
  14299  14302  14303  14305     1  0.0000000  0.6508444  3
  14299  14302  14310  14313     1  0.0000000  1.0460000  1
  14299  14302  14310  14313     1  0.0000000  0.6694400  3
  14300  14298  14299  14302     1  0.0000000  0.6508444  3
  14300  14298  14299  14311     1  0.0000000  1.0460000  1
  14300  14298  14299  14311     1  0.0000000  0.0000000  3
  14300  14298  14299  14301     1  0.0000000  0.6508444  3
  14300  14298  14312  14318     1  0.0000000  1.0460000  1
  14300  14298  14312  14318     1  0.0000000  0.0000000  3
  14300  14298  14312  14316     1  0.0000000  0.6508444  3
  14300  14298  14312  14317     1  0.0000000  0.6508444  3
  14300  14298  14320  14304     1  0.0000000  1.6038667  3
  14301  14299  14298  14312     1  0.0000000  0.6508444  3
  14301  14299  14298  14320     1  0.0000000  1.0460000  1
  14301  14299  14298  14320     1  0.0000000  0.0000000  3
  14301  14299  14302  14303     1  0.0000000  0.6508444  3
  14301  14299  14302  14310     1  0.0000000  1.0460000  1
  14301  14299  14302  14310     1  0.0000000  0.0000000  3
  14301  14299  14302  14306     1  0.0000000  0.6508444  3
  14301  14299  14311  14314     1  0.0000000  0.6973333  3
  14302  14299  14311  14314     1  0.0000000  1.0460000  1
  14302  14299  14311  14314     1  0.0000000  0.6694400  3
  14302  14303  14304  14307     1  0.0000000  0.6508444  3
  14302  14303  14309  14315     1  0.0000000  1.0460000  1
  14302  14303  14309  14315     1  0.0000000  0.6694400  3
  14303  14302  14310  14313     1  0.0000000  1.0460000  1
  14303  14302  14310  14313     1  0.0000000  0.6694400  3
  14304  14303  14302  14306     1  0.0000000  0.6508444  3
  14304  14303  14309  14315     1  0.0000000  1.0460000  1
  14304  14303  14309  14315     1  0.0000000  0.6694400  3
  14305  14303  14302  14310     1  0.0000000  1.0460000  1
  14305  14303  14302  14310     1  0.0000000  0.0000000  3
  14305  14303  14302  14306     1  0.0000000  0.6508444  3
  14305  14303  14304  14308     1  0.0000000  1.0460000  1
  14305  14303  14304  14308     1  0.0000000  0.0000000  3
  14305  14303  14304  14320     1  0.0000000  1.0460000  1
  14305  14303  14304  14320     1  0.0000000  0.0000000  3
  14305  14303  14304  14307     1  0.0000000  0.6508444  3
  14305  14303  14309  14315     1  0.0000000  0.6973333  3
  14306  14302  14299  14311     1  0.0000000  1.0460000  1
  14306  14302  14299  14311     1  0.0000000  0.0000000  3
  14306  14302  14303  14309     1  0.0000000  1.0460000  1
  14306  14302  14303  14309     1  0.0000000  0.0000000  3
  14306  14302  14310  14313     1  0.0000000  0.6973333  3
  14307  14304  14303  14309     1  0.0000000  0.6508444  3
  14316  14312  14298  14320     1  0.0000000  1.0460000  1
  14316  14312  14298  14320     1  0.0000000  0.0000000  3
  14316  14312  14318  14319     1  0.0000000  0.6973333  3
  14317  14312  14298  14320     1  0.0000000  1.0460000  1
  14317  14312  14298  14320     1  0.0000000  0.0000000  3
  14317  14312  14318  14319     1  0.0000000  0.6973333  3
  14321  14322  14325  14329     1  0.0000000  0.6508444  3
  14321  14322  14334  14337     1  0.0000000  1.0460000  1
  14321  14322  14334  14337     1  0.0000000  0.6694400  3
  14321  14335  14341  14342     1  0.0000000  1.0460000  1
  14321  14335  14341  14342     1  0.0000000  0.6694400  3
  14321  14343  14327  14330     1  0.0000000  1.6038667  3
  14322  14325  14326  14328     1  0.0000000  0.6508444  3
  14322  14325  14333  14336     1  0.0000000  1.0460000  1
  14322  14325  14333  14336     1  0.0000000  0.6694400  3
  14322  14321  14335  14339     1  0.0000000  0.6508444  3
  14322  14321  14335  14340     1  0.0000000  0.6508444  3
  14323  14321  14322  14325     1  0.0000000  0.6508444  3
  14323  14321  14322  14334     1  0.0000000  1.0460000  1
  14323  14321  14322  14334     1  0.0000000  0.0000000  3
  14323  14321  14322  14324     1  0.0000000  0.6508444  3
  14323  14321  14335  14341     1  0.0000000  1.0460000  1
  14323  14321  14335  14341     1  0.0000000  0.0000000  3
  14323  14321  14335  14339     1  0.0000000  0.6508444  3
  14323  14321  14335  14340     1  0.0000000  0.6508444  3
  14323  14321  14343  14327     1  0.0000000  1.6038667  3
  14324  14322  14325  14326     1  0.0000000  0.6508444  3
  14324  14322  14325  14333     1  0.0000000  1.0460000  1
  14324  14322  14325  14333     1  0.0000000  0.0000000  3
  14324  14322  14325  14329     1  0.0000000  0.6508444  3
  14324  14322  14334  14337     1  0.0000000  0.6973333  3
  14324  14322  14321  14335     1  0.0000000  0.6508444  3
  14324  14322  14321  14343     1  0.0000000  1.0460000  1
  14324  14322  14321  14343     1  0.0000000  0.0000000  3
  14325  14326  14327  14330     1  0.0000000  0.6508444  3
  14325  14326  14332  14338     1  0.0000000  1.0460000  1
  14325  14326  14332  14338     1  0.0000000  0.6694400  3
  14325  14322  14334  14337     1  0.0000000  1.0460000  1
  14325  14322  14334  14337     1  0.0000000  0.6694400  3
  14326  14325  14333  14336     1  0.0000000  1.0460000  1
  14326  14325  14333  14336     1  0.0000000  0.6694400  3
  14327  14326  14332  14338     1  0.0000000  1.0460000  1
  14327  14326  14332  14338     1  0.0000000  0.6694400  3
  14327  14326  14325  14329     1  0.0000000  0.6508444  3
  14328  14326  14327  14331     1  0.0000000  1.0460000  1
  14328  14326  14327  14331     1  0.0000000  0.0000000  3
  14328  14326  14327  14343     1  0.0000000  1.0460000  1
  14328  14326  14327  14343     1  0.0000000  0.0000000  3
  14328  14326  14327  14330     1  0.0000000  0.6508444  3
  14328  14326  14332  14338     1  0.0000000  0.6973333  3
  14328  14326  14325  14333     1  0.0000000  1.0460000  1
  14328  14326  14325  14333     1  0.0000000  0.0000000  3
  14328  14326  14325  14329     1  0.0000000  0.6508444  3
  14329  14325  14326  14332     1  0.0000000  1.0460000  1
  14329  14325  14326  14332     1  0.0000000  0.0000000  3
  14329  14325  14333  14336     1  0.0000000  0.6973333  3
  14329  14325  14322  14334     1  0.0000000  1.0460000  1
  14329  14325  14322  14334     1  0.0000000  0.0000000  3
  14330  14327  14326  14332     1  0.0000000  0.6508444  3
  14339  14335  14341  14342     1  0.0000000  0.6973333  3
  14339  14335  14321  14343     1  0.0000000  1.0460000  1
  14339  14335  14321  14343     1  0.0000000  0.0000000  3
  14340  14335  14341  14342     1  0.0000000  0.6973333  3
  14340  14335  14321  14343     1  0.0000000  1.0460000  1
  14340  14335  14321  14343     1  0.0000000  0.0000000  3
  14344  14345  14348  14352     1  0.0000000  0.6508444  3
  14344  14345  14357  14360     1  0.0000000  1.0460000  1
  14344  14345  14357  14360     1  0.0000000  0.6694400  3
  14344  14358  14364  14365     1  0.0000000  1.0460000  1
  14344  14358  14364  14365     1  0.0000000  0.6694400  3
  14344  14366  14350  14353     1  0.0000000  1.6038667  3
  14345  14344  14358  14362     1  0.0000000  0.6508444  3
  14345  14344  14358  14363     1  0.0000000  0.6508444  3
  14345  14348  14349  14351     1  0.0000000  0.6508444  3
  14345  14348  14356  14359     1  0.0000000  1.0460000  1
  14345  14348  14356  14359     1  0.0000000  0.6694400  3
  14346  14344  14345  14348     1  0.0000000  0.6508444  3
  14346  14344  14345  14357     1  0.0000000  1.0460000  1
  14346  14344  14345  14357     1  0.0000000  0.0000000  3
  14346  14344  14345  14347     1  0.0000000  0.6508444  3
  14346  14344  14358  14364     1  0.0000000  1.0460000  1
  14346  14344  14358  14364     1  0.0000000  0.0000000  3
  14346  14344  14358  14362     1  0.0000000  0.6508444  3
  14346  14344  14358  14363     1  0.0000000  0.6508444  3
  14346  14344  14366  14350     1  0.0000000  1.6038667  3
  14347  14345  14344  14358     1  0.0000000  0.6508444  3
  14347  14345  14344  14366     1  0.0000000  1.0460000  1
  14347  14345  14344  14366     1  0.0000000  0.0000000  3
  14347  14345  14348  14349     1  0.0000000  0.6508444  3
  14347  14345  14348  14356     1  0.0000000  1.0460000  1
  14347  14345  14348  14356     1  0.0000000  0.0000000  3
  14347  14345  14348  14352     1  0.0000000  0.6508444  3
  14347  14345  14357  14360     1  0.0000000  0.6973333  3
  14348  14345  14357  14360     1  0.0000000  1.0460000  1
  14348  14345  14357  14360     1  0.0000000  0.6694400  3
  14348  14349  14350  14353     1  0.0000000  0.6508444  3
  14348  14349  14355  14361     1  0.0000000  1.0460000  1
  14348  14349  14355  14361     1  0.0000000  0.6694400  3
  14349  14348  14356  14359     1  0.0000000  1.0460000  1
  14349  14348  14356  14359     1  0.0000000  0.6694400  3
  14350  14349  14348  14352     1  0.0000000  0.6508444  3
  14350  14349  14355  14361     1  0.0000000  1.0460000  1
  14350  14349  14355  14361     1  0.0000000  0.6694400  3
  14351  14349  14348  14356     1  0.0000000  1.0460000  1
  14351  14349  14348  14356     1  0.0000000  0.0000000  3
  14351  14349  14348  14352     1  0.0000000  0.6508444  3
  14351  14349  14350  14354     1  0.0000000  1.0460000  1
  14351  14349  14350  14354     1  0.0000000  0.0000000  3
  14351  14349  14350  14366     1  0.0000000  1.0460000  1
  14351  14349  14350  14366     1  0.0000000  0.0000000  3
  14351  14349  14350  14353     1  0.0000000  0.6508444  3
  14351  14349  14355  14361     1  0.0000000  0.6973333  3
  14352  14348  14345  14357     1  0.0000000  1.0460000  1
  14352  14348  14345  14357     1  0.0000000  0.0000000  3
  14352  14348  14349  14355     1  0.0000000  1.0460000  1
  14352  14348  14349  14355     1  0.0000000  0.0000000  3
  14352  14348  14356  14359     1  0.0000000  0.6973333  3
  14353  14350  14349  14355     1  0.0000000  0.6508444  3
  14362  14358  14344  14366     1  0.0000000  1.0460000  1
  14362  14358  14344  14366     1  0.0000000  0.0000000  3
  14362  14358  14364  14365     1  0.0000000  0.6973333  3
  14363  14358  14344  14366     1  0.0000000  1.0460000  1
  14363  14358  14344  14366     1  0.0000000  0.0000000  3
  14363  14358  14364  14365     1  0.0000000  0.6973333  3
  14367  14368  14371  14375     1  0.0000000  0.6508444  3
  14367  14368  14380  14383     1  0.0000000  1.0460000  1
  14367  14368  14380  14383     1  0.0000000  0.6694400  3
  14367  14381  14387  14388     1  0.0000000  1.0460000  1
  14367  14381  14387  14388     1  0.0000000  0.6694400  3
  14367  14389  14373  14376     1  0.0000000  1.6038667  3
  14368  14371  14372  14374     1  0.0000000  0.6508444  3
  14368  14371  14379  14382     1  0.0000000  1.0460000  1
  14368  14371  14379  14382     1  0.0000000  0.6694400  3
  14368  14367  14381  14385     1  0.0000000  0.6508444  3
  14368  14367  14381  14386     1  0.0000000  0.6508444  3
  14369  14367  14368  14371     1  0.0000000  0.6508444  3
  14369  14367  14368  14380     1  0.0000000  1.0460000  1
  14369  14367  14368  14380     1  0.0000000  0.0000000  3
  14369  14367  14368  14370     1  0.0000000  0.6508444  3
  14369  14367  14381  14387     1  0.0000000  1.0460000  1
  14369  14367  14381  14387     1  0.0000000  0.0000000  3
  14369  14367  14381  14385     1  0.0000000  0.6508444  3
  14369  14367  14381  14386     1  0.0000000  0.6508444  3
  14369  14367  14389  14373     1  0.0000000  1.6038667  3
  14370  14368  14371  14372     1  0.0000000  0.6508444  3
  14370  14368  14371  14379     1  0.0000000  1.0460000  1
  14370  14368  14371  14379     1  0.0000000  0.0000000  3
  14370  14368  14371  14375     1  0.0000000  0.6508444  3
  14370  14368  14380  14383     1  0.0000000  0.6973333  3
  14370  14368  14367  14381     1  0.0000000  0.6508444  3
  14370  14368  14367  14389     1  0.0000000  1.0460000  1
  14370  14368  14367  14389     1  0.0000000  0.0000000  3
  14371  14372  14373  14376     1  0.0000000  0.6508444  3
  14371  14372  14378  14384     1  0.0000000  1.0460000  1
  14371  14372  14378  14384     1  0.0000000  0.6694400  3
  14371  14368  14380  14383     1  0.0000000  1.0460000  1
  14371  14368  14380  14383     1  0.0000000  0.6694400  3
  14372  14371  14379  14382     1  0.0000000  1.0460000  1
  14372  14371  14379  14382     1  0.0000000  0.6694400  3
  14373  14372  14378  14384     1  0.0000000  1.0460000  1
  14373  14372  14378  14384     1  0.0000000  0.6694400  3
  14373  14372  14371  14375     1  0.0000000  0.6508444  3
  14374  14372  14373  14377     1  0.0000000  1.0460000  1
  14374  14372  14373  14377     1  0.0000000  0.0000000  3
  14374  14372  14373  14389     1  0.0000000  1.0460000  1
  14374  14372  14373  14389     1  0.0000000  0.0000000  3
  14374  14372  14373  14376     1  0.0000000  0.6508444  3
  14374  14372  14378  14384     1  0.0000000  0.6973333  3
  14374  14372  14371  14379     1  0.0000000  1.0460000  1
  14374  14372  14371  14379     1  0.0000000  0.0000000  3
  14374  14372  14371  14375     1  0.0000000  0.6508444  3
  14375  14371  14372  14378     1  0.0000000  1.0460000  1
  14375  14371  14372  14378     1  0.0000000  0.0000000  3
  14375  14371  14379  14382     1  0.0000000  0.6973333  3
  14375  14371  14368  14380     1  0.0000000  1.0460000  1
  14375  14371  14368  14380     1  0.0000000  0.0000000  3
  14376  14373  14372  14378     1  0.0000000  0.6508444  3
  14385  14381  14387  14388     1  0.0000000  0.6973333  3
  14385  14381  14367  14389     1  0.0000000  1.0460000  1
  14385  14381  14367  14389     1  0.0000000  0.0000000  3
  14386  14381  14387  14388     1  0.0000000  0.6973333  3
  14386  14381  14367  14389     1  0.0000000  1.0460000  1
  14386  14381  14367  14389     1  0.0000000  0.0000000  3
  14390  14391  14394  14398     1  0.0000000  0.6508444  3
  14390  14391  14403  14406     1  0.0000000  1.0460000  1
  14390  14391  14403  14406     1  0.0000000  0.6694400  3
  14390  14404  14410  14411     1  0.0000000  1.0460000  1
  14390  14404  14410  14411     1  0.0000000  0.6694400  3
  14390  14412  14396  14399     1  0.0000000  1.6038667  3
  14391  14390  14404  14408     1  0.0000000  0.6508444  3
  14391  14390  14404  14409     1  0.0000000  0.6508444  3
  14391  14394  14395  14397     1  0.0000000  0.6508444  3
  14391  14394  14402  14405     1  0.0000000  1.0460000  1
  14391  14394  14402  14405     1  0.0000000  0.6694400  3
  14392  14390  14391  14394     1  0.0000000  0.6508444  3
  14392  14390  14391  14403     1  0.0000000  1.0460000  1
  14392  14390  14391  14403     1  0.0000000  0.0000000  3
  14392  14390  14391  14393     1  0.0000000  0.6508444  3
  14392  14390  14404  14410     1  0.0000000  1.0460000  1
  14392  14390  14404  14410     1  0.0000000  0.0000000  3
  14392  14390  14404  14408     1  0.0000000  0.6508444  3
  14392  14390  14404  14409     1  0.0000000  0.6508444  3
  14392  14390  14412  14396     1  0.0000000  1.6038667  3
  14393  14391  14390  14404     1  0.0000000  0.6508444  3
  14393  14391  14390  14412     1  0.0000000  1.0460000  1
  14393  14391  14390  14412     1  0.0000000  0.0000000  3
  14393  14391  14394  14395     1  0.0000000  0.6508444  3
  14393  14391  14394  14402     1  0.0000000  1.0460000  1
  14393  14391  14394  14402     1  0.0000000  0.0000000  3
  14393  14391  14394  14398     1  0.0000000  0.6508444  3
  14393  14391  14403  14406     1  0.0000000  0.6973333  3
  14394  14391  14403  14406     1  0.0000000  1.0460000  1
  14394  14391  14403  14406     1  0.0000000  0.6694400  3
  14394  14395  14396  14399     1  0.0000000  0.6508444  3
  14394  14395  14401  14407     1  0.0000000  1.0460000  1
  14394  14395  14401  14407     1  0.0000000  0.6694400  3
  14395  14394  14402  14405     1  0.0000000  1.0460000  1
  14395  14394  14402  14405     1  0.0000000  0.6694400  3
  14396  14395  14394  14398     1  0.0000000  0.6508444  3
  14396  14395  14401  14407     1  0.0000000  1.0460000  1
  14396  14395  14401  14407     1  0.0000000  0.6694400  3
  14397  14395  14394  14402     1  0.0000000  1.0460000  1
  14397  14395  14394  14402     1  0.0000000  0.0000000  3
  14397  14395  14394  14398     1  0.0000000  0.6508444  3
  14397  14395  14396  14400     1  0.0000000  1.0460000  1
  14397  14395  14396  14400     1  0.0000000  0.0000000  3
  14397  14395  14396  14412     1  0.0000000  1.0460000  1
  14397  14395  14396  14412     1  0.0000000  0.0000000  3
  14397  14395  14396  14399     1  0.0000000  0.6508444  3
  14397  14395  14401  14407     1  0.0000000  0.6973333  3
  14398  14394  14391  14403     1  0.0000000  1.0460000  1
  14398  14394  14391  14403     1  0.0000000  0.0000000  3
  14398  14394  14395  14401     1  0.0000000  1.0460000  1
  14398  14394  14395  14401     1  0.0000000  0.0000000  3
  14398  14394  14402  14405     1  0.0000000  0.6973333  3
  14399  14396  14395  14401     1  0.0000000  0.6508444  3
  14408  14404  14390  14412     1  0.0000000  1.0460000  1
  14408  14404  14390  14412     1  0.0000000  0.0000000  3
  14408  14404  14410  14411     1  0.0000000  0.6973333  3
  14409  14404  14390  14412     1  0.0000000  1.0460000  1
  14409  14404  14390  14412     1  0.0000000  0.0000000  3
  14409  14404  14410  14411     1  0.0000000  0.6973333  3
  14413  14414  14417  14421     1  0.0000000  0.6508444  3
  14413  14414  14426  14429     1  0.0000000  1.0460000  1
  14413  14414  14426  14429     1  0.0000000  0.6694400  3
  14413  14427  14433  14434     1  0.0000000  1.0460000  1
  14413  14427  14433  14434     1  0.0000000  0.6694400  3
  14413  14435  14419  14422     1  0.0000000  1.6038667  3
  14414  14417  14418  14420     1  0.0000000  0.6508444  3
  14414  14417  14425  14428     1  0.0000000  1.0460000  1
  14414  14417  14425  14428     1  0.0000000  0.6694400  3
  14414  14413  14427  14431     1  0.0000000  0.6508444  3
  14414  14413  14427  14432     1  0.0000000  0.6508444  3
  14415  14413  14414  14417     1  0.0000000  0.6508444  3
  14415  14413  14414  14426     1  0.0000000  1.0460000  1
  14415  14413  14414  14426     1  0.0000000  0.0000000  3
  14415  14413  14414  14416     1  0.0000000  0.6508444  3
  14415  14413  14427  14433     1  0.0000000  1.0460000  1
  14415  14413  14427  14433     1  0.0000000  0.0000000  3
  14415  14413  14427  14431     1  0.0000000  0.6508444  3
  14415  14413  14427  14432     1  0.0000000  0.6508444  3
  14415  14413  14435  14419     1  0.0000000  1.6038667  3
  14416  14414  14417  14418     1  0.0000000  0.6508444  3
  14416  14414  14417  14425     1  0.0000000  1.0460000  1
  14416  14414  14417  14425     1  0.0000000  0.0000000  3
  14416  14414  14417  14421     1  0.0000000  0.6508444  3
  14416  14414  14426  14429     1  0.0000000  0.6973333  3
  14416  14414  14413  14427     1  0.0000000  0.6508444  3
  14416  14414  14413  14435     1  0.0000000  1.0460000  1
  14416  14414  14413  14435     1  0.0000000  0.0000000  3
  14417  14418  14419  14422     1  0.0000000  0.6508444  3
  14417  14418  14424  14430     1  0.0000000  1.0460000  1
  14417  14418  14424  14430     1  0.0000000  0.6694400  3
  14417  14414  14426  14429     1  0.0000000  1.0460000  1
  14417  14414  14426  14429     1  0.0000000  0.6694400  3
  14418  14417  14425  14428     1  0.0000000  1.0460000  1
  14418  14417  14425  14428     1  0.0000000  0.6694400  3
  14419  14418  14424  14430     1  0.0000000  1.0460000  1
  14419  14418  14424  14430     1  0.0000000  0.6694400  3
  14419  14418  14417  14421     1  0.0000000  0.6508444  3
  14420  14418  14419  14423     1  0.0000000  1.0460000  1
  14420  14418  14419  14423     1  0.0000000  0.0000000  3
  14420  14418  14419  14435     1  0.0000000  1.0460000  1
  14420  14418  14419  14435     1  0.0000000  0.0000000  3
  14420  14418  14419  14422     1  0.0000000  0.6508444  3
  14420  14418  14424  14430     1  0.0000000  0.6973333  3
  14420  14418  14417  14425     1  0.0000000  1.0460000  1
  14420  14418  14417  14425     1  0.0000000  0.0000000  3
  14420  14418  14417  14421     1  0.0000000  0.6508444  3
  14421  14417  14418  14424     1  0.0000000  1.0460000  1
  14421  14417  14418  14424     1  0.0000000  0.0000000  3
  14421  14417  14425  14428     1  0.0000000  0.6973333  3
  14421  14417  14414  14426     1  0.0000000  1.0460000  1
  14421  14417  14414  14426     1  0.0000000  0.0000000  3
  14422  14419  14418  14424     1  0.0000000  0.6508444  3
  14431  14427  14433  14434     1  0.0000000  0.6973333  3
  14431  14427  14413  14435     1  0.0000000  1.0460000  1
  14431  14427  14413  14435     1  0.0000000  0.0000000  3
  14432  14427  14433  14434     1  0.0000000  0.6973333  3
  14432  14427  14413  14435     1  0.0000000  1.0460000  1
  14432  14427  14413  14435     1  0.0000000  0.0000000  3
  14436  14437  14440  14444     1  0.0000000  0.6508444  3
  14436  14437  14449  14452     1  0.0000000  1.0460000  1
  14436  14437  14449  14452     1  0.0000000  0.6694400  3
  14436  14450  14456  14457     1  0.0000000  1.0460000  1
  14436  14450  14456  14457     1  0.0000000  0.6694400  3
  14436  14458  14442  14445     1  0.0000000  1.6038667  3
  14437  14436  14450  14454     1  0.0000000  0.6508444  3
  14437  14436  14450  14455     1  0.0000000  0.6508444  3
  14437  14440  14441  14443     1  0.0000000  0.6508444  3
  14437  14440  14448  14451     1  0.0000000  1.0460000  1
  14437  14440  14448  14451     1  0.0000000  0.6694400  3
  14438  14436  14437  14440     1  0.0000000  0.6508444  3
  14438  14436  14437  14449     1  0.0000000  1.0460000  1
  14438  14436  14437  14449     1  0.0000000  0.0000000  3
  14438  14436  14437  14439     1  0.0000000  0.6508444  3
  14438  14436  14450  14456     1  0.0000000  1.0460000  1
  14438  14436  14450  14456     1  0.0000000  0.0000000  3
  14438  14436  14450  14454     1  0.0000000  0.6508444  3
  14438  14436  14450  14455     1  0.0000000  0.6508444  3
  14438  14436  14458  14442     1  0.0000000  1.6038667  3
  14439  14437  14436  14450     1  0.0000000  0.6508444  3
  14439  14437  14436  14458     1  0.0000000  1.0460000  1
  14439  14437  14436  14458     1  0.0000000  0.0000000  3
  14439  14437  14440  14441     1  0.0000000  0.6508444  3
  14439  14437  14440  14448     1  0.0000000  1.0460000  1
  14439  14437  14440  14448     1  0.0000000  0.0000000  3
  14439  14437  14440  14444     1  0.0000000  0.6508444  3
  14439  14437  14449  14452     1  0.0000000  0.6973333  3
  14440  14437  14449  14452     1  0.0000000  1.0460000  1
  14440  14437  14449  14452     1  0.0000000  0.6694400  3
  14440  14441  14442  14445     1  0.0000000  0.6508444  3
  14440  14441  14447  14453     1  0.0000000  1.0460000  1
  14440  14441  14447  14453     1  0.0000000  0.6694400  3
  14441  14440  14448  14451     1  0.0000000  1.0460000  1
  14441  14440  14448  14451     1  0.0000000  0.6694400  3
  14442  14441  14440  14444     1  0.0000000  0.6508444  3
  14442  14441  14447  14453     1  0.0000000  1.0460000  1
  14442  14441  14447  14453     1  0.0000000  0.6694400  3
  14443  14441  14440  14448     1  0.0000000  1.0460000  1
  14443  14441  14440  14448     1  0.0000000  0.0000000  3
  14443  14441  14440  14444     1  0.0000000  0.6508444  3
  14443  14441  14442  14446     1  0.0000000  1.0460000  1
  14443  14441  14442  14446     1  0.0000000  0.0000000  3
  14443  14441  14442  14458     1  0.0000000  1.0460000  1
  14443  14441  14442  14458     1  0.0000000  0.0000000  3
  14443  14441  14442  14445     1  0.0000000  0.6508444  3
  14443  14441  14447  14453     1  0.0000000  0.6973333  3
  14444  14440  14437  14449     1  0.0000000  1.0460000  1
  14444  14440  14437  14449     1  0.0000000  0.0000000  3
  14444  14440  14441  14447     1  0.0000000  1.0460000  1
  14444  14440  14441  14447     1  0.0000000  0.0000000  3
  14444  14440  14448  14451     1  0.0000000  0.6973333  3
  14445  14442  14441  14447     1  0.0000000  0.6508444  3
  14454  14450  14436  14458     1  0.0000000  1.0460000  1
  14454  14450  14436  14458     1  0.0000000  0.0000000  3
  14454  14450  14456  14457     1  0.0000000  0.6973333  3
  14455  14450  14436  14458     1  0.0000000  1.0460000  1
  14455  14450  14436  14458     1  0.0000000  0.0000000  3
  14455  14450  14456  14457     1  0.0000000  0.6973333  3
  14459  14460  14463  14467     1  0.0000000  0.6508444  3
  14459  14460  14472  14475     1  0.0000000  1.0460000  1
  14459  14460  14472  14475     1  0.0000000  0.6694400  3
  14459  14473  14479  14480     1  0.0000000  1.0460000  1
  14459  14473  14479  14480     1  0.0000000  0.6694400  3
  14459  14481  14465  14468     1  0.0000000  1.6038667  3
  14460  14463  14464  14466     1  0.0000000  0.6508444  3
  14460  14463  14471  14474     1  0.0000000  1.0460000  1
  14460  14463  14471  14474     1  0.0000000  0.6694400  3
  14460  14459  14473  14477     1  0.0000000  0.6508444  3
  14460  14459  14473  14478     1  0.0000000  0.6508444  3
  14461  14459  14460  14463     1  0.0000000  0.6508444  3
  14461  14459  14460  14472     1  0.0000000  1.0460000  1
  14461  14459  14460  14472     1  0.0000000  0.0000000  3
  14461  14459  14460  14462     1  0.0000000  0.6508444  3
  14461  14459  14473  14479     1  0.0000000  1.0460000  1
  14461  14459  14473  14479     1  0.0000000  0.0000000  3
  14461  14459  14473  14477     1  0.0000000  0.6508444  3
  14461  14459  14473  14478     1  0.0000000  0.6508444  3
  14461  14459  14481  14465     1  0.0000000  1.6038667  3
  14462  14460  14463  14464     1  0.0000000  0.6508444  3
  14462  14460  14463  14471     1  0.0000000  1.0460000  1
  14462  14460  14463  14471     1  0.0000000  0.0000000  3
  14462  14460  14463  14467     1  0.0000000  0.6508444  3
  14462  14460  14472  14475     1  0.0000000  0.6973333  3
  14462  14460  14459  14473     1  0.0000000  0.6508444  3
  14462  14460  14459  14481     1  0.0000000  1.0460000  1
  14462  14460  14459  14481     1  0.0000000  0.0000000  3
  14463  14464  14465  14468     1  0.0000000  0.6508444  3
  14463  14464  14470  14476     1  0.0000000  1.0460000  1
  14463  14464  14470  14476     1  0.0000000  0.6694400  3
  14463  14460  14472  14475     1  0.0000000  1.0460000  1
  14463  14460  14472  14475     1  0.0000000  0.6694400  3
  14464  14463  14471  14474     1  0.0000000  1.0460000  1
  14464  14463  14471  14474     1  0.0000000  0.6694400  3
  14465  14464  14470  14476     1  0.0000000  1.0460000  1
  14465  14464  14470  14476     1  0.0000000  0.6694400  3
  14465  14464  14463  14467     1  0.0000000  0.6508444  3
  14466  14464  14465  14469     1  0.0000000  1.0460000  1
  14466  14464  14465  14469     1  0.0000000  0.0000000  3
  14466  14464  14465  14481     1  0.0000000  1.0460000  1
  14466  14464  14465  14481     1  0.0000000  0.0000000  3
  14466  14464  14465  14468     1  0.0000000  0.6508444  3
  14466  14464  14470  14476     1  0.0000000  0.6973333  3
  14466  14464  14463  14471     1  0.0000000  1.0460000  1
  14466  14464  14463  14471     1  0.0000000  0.0000000  3
  14466  14464  14463  14467     1  0.0000000  0.6508444  3
  14467  14463  14464  14470     1  0.0000000  1.0460000  1
  14467  14463  14464  14470     1  0.0000000  0.0000000  3
  14467  14463  14471  14474     1  0.0000000  0.6973333  3
  14467  14463  14460  14472     1  0.0000000  1.0460000  1
  14467  14463  14460  14472     1  0.0000000  0.0000000  3
  14468  14465  14464  14470     1  0.0000000  0.6508444  3
  14477  14473  14479  14480     1  0.0000000  0.6973333  3
  14477  14473  14459  14481     1  0.0000000  1.0460000  1
  14477  14473  14459  14481     1  0.0000000  0.0000000  3
  14478  14473  14479  14480     1  0.0000000  0.6973333  3
  14478  14473  14459  14481     1  0.0000000  1.0460000  1
  14478  14473  14459  14481     1  0.0000000  0.0000000  3
  14482  14483  14486  14490     1  0.0000000  0.6508444  3
  14482  14483  14495  14498     1  0.0000000  1.0460000  1
  14482  14483  14495  14498     1  0.0000000  0.6694400  3
  14482  14496  14502  14503     1  0.0000000  1.0460000  1
  14482  14496  14502  14503     1  0.0000000  0.6694400  3
  14482  14504  14488  14491     1  0.0000000  1.6038667  3
  14483  14482  14496  14500     1  0.0000000  0.6508444  3
  14483  14482  14496  14501     1  0.0000000  0.6508444  3
  14483  14486  14487  14489     1  0.0000000  0.6508444  3
  14483  14486  14494  14497     1  0.0000000  1.0460000  1
  14483  14486  14494  14497     1  0.0000000  0.6694400  3
  14484  14482  14483  14486     1  0.0000000  0.6508444  3
  14484  14482  14483  14495     1  0.0000000  1.0460000  1
  14484  14482  14483  14495     1  0.0000000  0.0000000  3
  14484  14482  14483  14485     1  0.0000000  0.6508444  3
  14484  14482  14496  14502     1  0.0000000  1.0460000  1
  14484  14482  14496  14502     1  0.0000000  0.0000000  3
  14484  14482  14496  14500     1  0.0000000  0.6508444  3
  14484  14482  14496  14501     1  0.0000000  0.6508444  3
  14484  14482  14504  14488     1  0.0000000  1.6038667  3
  14485  14483  14482  14496     1  0.0000000  0.6508444  3
  14485  14483  14482  14504     1  0.0000000  1.0460000  1
  14485  14483  14482  14504     1  0.0000000  0.0000000  3
  14485  14483  14486  14487     1  0.0000000  0.6508444  3
  14485  14483  14486  14494     1  0.0000000  1.0460000  1
  14485  14483  14486  14494     1  0.0000000  0.0000000  3
  14485  14483  14486  14490     1  0.0000000  0.6508444  3
  14485  14483  14495  14498     1  0.0000000  0.6973333  3
  14486  14483  14495  14498     1  0.0000000  1.0460000  1
  14486  14483  14495  14498     1  0.0000000  0.6694400  3
  14486  14487  14488  14491     1  0.0000000  0.6508444  3
  14486  14487  14493  14499     1  0.0000000  1.0460000  1
  14486  14487  14493  14499     1  0.0000000  0.6694400  3
  14487  14486  14494  14497     1  0.0000000  1.0460000  1
  14487  14486  14494  14497     1  0.0000000  0.6694400  3
  14488  14487  14486  14490     1  0.0000000  0.6508444  3
  14488  14487  14493  14499     1  0.0000000  1.0460000  1
  14488  14487  14493  14499     1  0.0000000  0.6694400  3
  14489  14487  14486  14494     1  0.0000000  1.0460000  1
  14489  14487  14486  14494     1  0.0000000  0.0000000  3
  14489  14487  14486  14490     1  0.0000000  0.6508444  3
  14489  14487  14488  14492     1  0.0000000  1.0460000  1
  14489  14487  14488  14492     1  0.0000000  0.0000000  3
  14489  14487  14488  14504     1  0.0000000  1.0460000  1
  14489  14487  14488  14504     1  0.0000000  0.0000000  3
  14489  14487  14488  14491     1  0.0000000  0.6508444  3
  14489  14487  14493  14499     1  0.0000000  0.6973333  3
  14490  14486  14483  14495     1  0.0000000  1.0460000  1
  14490  14486  14483  14495     1  0.0000000  0.0000000  3
  14490  14486  14487  14493     1  0.0000000  1.0460000  1
  14490  14486  14487  14493     1  0.0000000  0.0000000  3
  14490  14486  14494  14497     1  0.0000000  0.6973333  3
  14491  14488  14487  14493     1  0.0000000  0.6508444  3
  14500  14496  14482  14504     1  0.0000000  1.0460000  1
  14500  14496  14482  14504     1  0.0000000  0.0000000  3
  14500  14496  14502  14503     1  0.0000000  0.6973333  3
  14501  14496  14482  14504     1  0.0000000  1.0460000  1
  14501  14496  14482  14504     1  0.0000000  0.0000000  3
  14501  14496  14502  14503     1  0.0000000  0.6973333  3
  14505  14506  14509  14513     1  0.0000000  0.6508444  3
  14505  14506  14518  14521     1  0.0000000  1.0460000  1
  14505  14506  14518  14521     1  0.0000000  0.6694400  3
  14505  14519  14525  14526     1  0.0000000  1.0460000  1
  14505  14519  14525  14526     1  0.0000000  0.6694400  3
  14505  14527  14511  14514     1  0.0000000  1.6038667  3
  14506  14509  14510  14512     1  0.0000000  0.6508444  3
  14506  14509  14517  14520     1  0.0000000  1.0460000  1
  14506  14509  14517  14520     1  0.0000000  0.6694400  3
  14506  14505  14519  14523     1  0.0000000  0.6508444  3
  14506  14505  14519  14524     1  0.0000000  0.6508444  3
  14507  14505  14506  14509     1  0.0000000  0.6508444  3
  14507  14505  14506  14518     1  0.0000000  1.0460000  1
  14507  14505  14506  14518     1  0.0000000  0.0000000  3
  14507  14505  14506  14508     1  0.0000000  0.6508444  3
  14507  14505  14519  14525     1  0.0000000  1.0460000  1
  14507  14505  14519  14525     1  0.0000000  0.0000000  3
  14507  14505  14519  14523     1  0.0000000  0.6508444  3
  14507  14505  14519  14524     1  0.0000000  0.6508444  3
  14507  14505  14527  14511     1  0.0000000  1.6038667  3
  14508  14506  14509  14510     1  0.0000000  0.6508444  3
  14508  14506  14509  14517     1  0.0000000  1.0460000  1
  14508  14506  14509  14517     1  0.0000000  0.0000000  3
  14508  14506  14509  14513     1  0.0000000  0.6508444  3
  14508  14506  14518  14521     1  0.0000000  0.6973333  3
  14508  14506  14505  14519     1  0.0000000  0.6508444  3
  14508  14506  14505  14527     1  0.0000000  1.0460000  1
  14508  14506  14505  14527     1  0.0000000  0.0000000  3
  14509  14510  14511  14514     1  0.0000000  0.6508444  3
  14509  14510  14516  14522     1  0.0000000  1.0460000  1
  14509  14510  14516  14522     1  0.0000000  0.6694400  3
  14509  14506  14518  14521     1  0.0000000  1.0460000  1
  14509  14506  14518  14521     1  0.0000000  0.6694400  3
  14510  14509  14517  14520     1  0.0000000  1.0460000  1
  14510  14509  14517  14520     1  0.0000000  0.6694400  3
  14511  14510  14516  14522     1  0.0000000  1.0460000  1
  14511  14510  14516  14522     1  0.0000000  0.6694400  3
  14511  14510  14509  14513     1  0.0000000  0.6508444  3
  14512  14510  14511  14515     1  0.0000000  1.0460000  1
  14512  14510  14511  14515     1  0.0000000  0.0000000  3
  14512  14510  14511  14527     1  0.0000000  1.0460000  1
  14512  14510  14511  14527     1  0.0000000  0.0000000  3
  14512  14510  14511  14514     1  0.0000000  0.6508444  3
  14512  14510  14516  14522     1  0.0000000  0.6973333  3
  14512  14510  14509  14517     1  0.0000000  1.0460000  1
  14512  14510  14509  14517     1  0.0000000  0.0000000  3
  14512  14510  14509  14513     1  0.0000000  0.6508444  3
  14513  14509  14510  14516     1  0.0000000  1.0460000  1
  14513  14509  14510  14516     1  0.0000000  0.0000000  3
  14513  14509  14517  14520     1  0.0000000  0.6973333  3
  14513  14509  14506  14518     1  0.0000000  1.0460000  1
  14513  14509  14506  14518     1  0.0000000  0.0000000  3
  14514  14511  14510  14516     1  0.0000000  0.6508444  3
  14523  14519  14525  14526     1  0.0000000  0.6973333  3
  14523  14519  14505  14527     1  0.0000000  1.0460000  1
  14523  14519  14505  14527     1  0.0000000  0.0000000  3
  14524  14519  14525  14526     1  0.0000000  0.6973333  3
  14524  14519  14505  14527     1  0.0000000  1.0460000  1
  14524  14519  14505  14527     1  0.0000000  0.0000000  3
  14528  14529  14532  14536     1  0.0000000  0.6508444  3
  14528  14529  14541  14544     1  0.0000000  1.0460000  1
  14528  14529  14541  14544     1  0.0000000  0.6694400  3
  14528  14542  14548  14549     1  0.0000000  1.0460000  1
  14528  14542  14548  14549     1  0.0000000  0.6694400  3
  14528  14550  14534  14537     1  0.0000000  1.6038667  3
  14529  14528  14542  14546     1  0.0000000  0.6508444  3
  14529  14528  14542  14547     1  0.0000000  0.6508444  3
  14529  14532  14533  14535     1  0.0000000  0.6508444  3
  14529  14532  14540  14543     1  0.0000000  1.0460000  1
  14529  14532  14540  14543     1  0.0000000  0.6694400  3
  14530  14528  14529  14532     1  0.0000000  0.6508444  3
  14530  14528  14529  14541     1  0.0000000  1.0460000  1
  14530  14528  14529  14541     1  0.0000000  0.0000000  3
  14530  14528  14529  14531     1  0.0000000  0.6508444  3
  14530  14528  14542  14548     1  0.0000000  1.0460000  1
  14530  14528  14542  14548     1  0.0000000  0.0000000  3
  14530  14528  14542  14546     1  0.0000000  0.6508444  3
  14530  14528  14542  14547     1  0.0000000  0.6508444  3
  14530  14528  14550  14534     1  0.0000000  1.6038667  3
  14531  14529  14528  14542     1  0.0000000  0.6508444  3
  14531  14529  14528  14550     1  0.0000000  1.0460000  1
  14531  14529  14528  14550     1  0.0000000  0.0000000  3
  14531  14529  14532  14533     1  0.0000000  0.6508444  3
  14531  14529  14532  14540     1  0.0000000  1.0460000  1
  14531  14529  14532  14540     1  0.0000000  0.0000000  3
  14531  14529  14532  14536     1  0.0000000  0.6508444  3
  14531  14529  14541  14544     1  0.0000000  0.6973333  3
  14532  14529  14541  14544     1  0.0000000  1.0460000  1
  14532  14529  14541  14544     1  0.0000000  0.6694400  3
  14532  14533  14534  14537     1  0.0000000  0.6508444  3
  14532  14533  14539  14545     1  0.0000000  1.0460000  1
  14532  14533  14539  14545     1  0.0000000  0.6694400  3
  14533  14532  14540  14543     1  0.0000000  1.0460000  1
  14533  14532  14540  14543     1  0.0000000  0.6694400  3
  14534  14533  14532  14536     1  0.0000000  0.6508444  3
  14534  14533  14539  14545     1  0.0000000  1.0460000  1
  14534  14533  14539  14545     1  0.0000000  0.6694400  3
  14535  14533  14532  14540     1  0.0000000  1.0460000  1
  14535  14533  14532  14540     1  0.0000000  0.0000000  3
  14535  14533  14532  14536     1  0.0000000  0.6508444  3
  14535  14533  14534  14538     1  0.0000000  1.0460000  1
  14535  14533  14534  14538     1  0.0000000  0.0000000  3
  14535  14533  14534  14550     1  0.0000000  1.0460000  1
  14535  14533  14534  14550     1  0.0000000  0.0000000  3
  14535  14533  14534  14537     1  0.0000000  0.6508444  3
  14535  14533  14539  14545     1  0.0000000  0.6973333  3
  14536  14532  14529  14541     1  0.0000000  1.0460000  1
  14536  14532  14529  14541     1  0.0000000  0.0000000  3
  14536  14532  14533  14539     1  0.0000000  1.0460000  1
  14536  14532  14533  14539     1  0.0000000  0.0000000  3
  14536  14532  14540  14543     1  0.0000000  0.6973333  3
  14537  14534  14533  14539     1  0.0000000  0.6508444  3
  14546  14542  14528  14550     1  0.0000000  1.0460000  1
  14546  14542  14528  14550     1  0.0000000  0.0000000  3
  14546  14542  14548  14549     1  0.0000000  0.6973333  3
  14547  14542  14528  14550     1  0.0000000  1.0460000  1
  14547  14542  14528  14550     1  0.0000000  0.0000000  3
  14547  14542  14548  14549     1  0.0000000  0.6973333  3
  14551  14552  14555  14559     1  0.0000000  0.6508444  3
  14551  14552  14564  14567     1  0.0000000  1.0460000  1
  14551  14552  14564  14567     1  0.0000000  0.6694400  3
  14551  14565  14571  14572     1  0.0000000  1.0460000  1
  14551  14565  14571  14572     1  0.0000000  0.6694400  3
  14551  14573  14557  14560     1  0.0000000  1.6038667  3
  14552  14555  14556  14558     1  0.0000000  0.6508444  3
  14552  14555  14563  14566     1  0.0000000  1.0460000  1
  14552  14555  14563  14566     1  0.0000000  0.6694400  3
  14552  14551  14565  14569     1  0.0000000  0.6508444  3
  14552  14551  14565  14570     1  0.0000000  0.6508444  3
  14553  14551  14552  14555     1  0.0000000  0.6508444  3
  14553  14551  14552  14564     1  0.0000000  1.0460000  1
  14553  14551  14552  14564     1  0.0000000  0.0000000  3
  14553  14551  14552  14554     1  0.0000000  0.6508444  3
  14553  14551  14565  14571     1  0.0000000  1.0460000  1
  14553  14551  14565  14571     1  0.0000000  0.0000000  3
  14553  14551  14565  14569     1  0.0000000  0.6508444  3
  14553  14551  14565  14570     1  0.0000000  0.6508444  3
  14553  14551  14573  14557     1  0.0000000  1.6038667  3
  14554  14552  14555  14556     1  0.0000000  0.6508444  3
  14554  14552  14555  14563     1  0.0000000  1.0460000  1
  14554  14552  14555  14563     1  0.0000000  0.0000000  3
  14554  14552  14555  14559     1  0.0000000  0.6508444  3
  14554  14552  14564  14567     1  0.0000000  0.6973333  3
  14554  14552  14551  14565     1  0.0000000  0.6508444  3
  14554  14552  14551  14573     1  0.0000000  1.0460000  1
  14554  14552  14551  14573     1  0.0000000  0.0000000  3
  14555  14556  14557  14560     1  0.0000000  0.6508444  3
  14555  14556  14562  14568     1  0.0000000  1.0460000  1
  14555  14556  14562  14568     1  0.0000000  0.6694400  3
  14555  14552  14564  14567     1  0.0000000  1.0460000  1
  14555  14552  14564  14567     1  0.0000000  0.6694400  3
  14556  14555  14563  14566     1  0.0000000  1.0460000  1
  14556  14555  14563  14566     1  0.0000000  0.6694400  3
  14557  14556  14562  14568     1  0.0000000  1.0460000  1
  14557  14556  14562  14568     1  0.0000000  0.6694400  3
  14557  14556  14555  14559     1  0.0000000  0.6508444  3
  14558  14556  14557  14561     1  0.0000000  1.0460000  1
  14558  14556  14557  14561     1  0.0000000  0.0000000  3
  14558  14556  14557  14573     1  0.0000000  1.0460000  1
  14558  14556  14557  14573     1  0.0000000  0.0000000  3
  14558  14556  14557  14560     1  0.0000000  0.6508444  3
  14558  14556  14562  14568     1  0.0000000  0.6973333  3
  14558  14556  14555  14563     1  0.0000000  1.0460000  1
  14558  14556  14555  14563     1  0.0000000  0.0000000  3
  14558  14556  14555  14559     1  0.0000000  0.6508444  3
  14559  14555  14556  14562     1  0.0000000  1.0460000  1
  14559  14555  14556  14562     1  0.0000000  0.0000000  3
  14559  14555  14563  14566     1  0.0000000  0.6973333  3
  14559  14555  14552  14564     1  0.0000000  1.0460000  1
  14559  14555  14552  14564     1  0.0000000  0.0000000  3
  14560  14557  14556  14562     1  0.0000000  0.6508444  3
  14569  14565  14571  14572     1  0.0000000  0.6973333  3
  14569  14565  14551  14573     1  0.0000000  1.0460000  1
  14569  14565  14551  14573     1  0.0000000  0.0000000  3
  14570  14565  14571  14572     1  0.0000000  0.6973333  3
  14570  14565  14551  14573     1  0.0000000  1.0460000  1
  14570  14565  14551  14573     1  0.0000000  0.0000000  3
  14574  14575  14578  14582     1  0.0000000  0.6508444  3
  14574  14575  14587  14590     1  0.0000000  1.0460000  1
  14574  14575  14587  14590     1  0.0000000  0.6694400  3
  14574  14588  14594  14595     1  0.0000000  1.0460000  1
  14574  14588  14594  14595     1  0.0000000  0.6694400  3
  14574  14596  14580  14583     1  0.0000000  1.6038667  3
  14575  14574  14588  14592     1  0.0000000  0.6508444  3
  14575  14574  14588  14593     1  0.0000000  0.6508444  3
  14575  14578  14579  14581     1  0.0000000  0.6508444  3
  14575  14578  14586  14589     1  0.0000000  1.0460000  1
  14575  14578  14586  14589     1  0.0000000  0.6694400  3
  14576  14574  14575  14578     1  0.0000000  0.6508444  3
  14576  14574  14575  14587     1  0.0000000  1.0460000  1
  14576  14574  14575  14587     1  0.0000000  0.0000000  3
  14576  14574  14575  14577     1  0.0000000  0.6508444  3
  14576  14574  14588  14594     1  0.0000000  1.0460000  1
  14576  14574  14588  14594     1  0.0000000  0.0000000  3
  14576  14574  14588  14592     1  0.0000000  0.6508444  3
  14576  14574  14588  14593     1  0.0000000  0.6508444  3
  14576  14574  14596  14580     1  0.0000000  1.6038667  3
  14577  14575  14574  14588     1  0.0000000  0.6508444  3
  14577  14575  14574  14596     1  0.0000000  1.0460000  1
  14577  14575  14574  14596     1  0.0000000  0.0000000  3
  14577  14575  14578  14579     1  0.0000000  0.6508444  3
  14577  14575  14578  14586     1  0.0000000  1.0460000  1
  14577  14575  14578  14586     1  0.0000000  0.0000000  3
  14577  14575  14578  14582     1  0.0000000  0.6508444  3
  14577  14575  14587  14590     1  0.0000000  0.6973333  3
  14578  14575  14587  14590     1  0.0000000  1.0460000  1
  14578  14575  14587  14590     1  0.0000000  0.6694400  3
  14578  14579  14580  14583     1  0.0000000  0.6508444  3
  14578  14579  14585  14591     1  0.0000000  1.0460000  1
  14578  14579  14585  14591     1  0.0000000  0.6694400  3
  14579  14578  14586  14589     1  0.0000000  1.0460000  1
  14579  14578  14586  14589     1  0.0000000  0.6694400  3
  14580  14579  14578  14582     1  0.0000000  0.6508444  3
  14580  14579  14585  14591     1  0.0000000  1.0460000  1
  14580  14579  14585  14591     1  0.0000000  0.6694400  3
  14581  14579  14578  14586     1  0.0000000  1.0460000  1
  14581  14579  14578  14586     1  0.0000000  0.0000000  3
  14581  14579  14578  14582     1  0.0000000  0.6508444  3
  14581  14579  14580  14584     1  0.0000000  1.0460000  1
  14581  14579  14580  14584     1  0.0000000  0.0000000  3
  14581  14579  14580  14596     1  0.0000000  1.0460000  1
  14581  14579  14580  14596     1  0.0000000  0.0000000  3
  14581  14579  14580  14583     1  0.0000000  0.6508444  3
  14581  14579  14585  14591     1  0.0000000  0.6973333  3
  14582  14578  14575  14587     1  0.0000000  1.0460000  1
  14582  14578  14575  14587     1  0.0000000  0.0000000  3
  14582  14578  14579  14585     1  0.0000000  1.0460000  1
  14582  14578  14579  14585     1  0.0000000  0.0000000  3
  14582  14578  14586  14589     1  0.0000000  0.6973333  3
  14583  14580  14579  14585     1  0.0000000  0.6508444  3
  14592  14588  14574  14596     1  0.0000000  1.0460000  1
  14592  14588  14574  14596     1  0.0000000  0.0000000  3
  14592  14588  14594  14595     1  0.0000000  0.6973333  3
  14593  14588  14574  14596     1  0.0000000  1.0460000  1
  14593  14588  14574  14596     1  0.0000000  0.0000000  3
  14593  14588  14594  14595     1  0.0000000  0.6973333  3
  14597  14598  14601  14605     1  0.0000000  0.6508444  3
  14597  14598  14610  14613     1  0.0000000  1.0460000  1
  14597  14598  14610  14613     1  0.0000000  0.6694400  3
  14597  14611  14617  14618     1  0.0000000  1.0460000  1
  14597  14611  14617  14618     1  0.0000000  0.6694400  3
  14597  14619  14603  14606     1  0.0000000  1.6038667  3
  14598  14601  14602  14604     1  0.0000000  0.6508444  3
  14598  14601  14609  14612     1  0.0000000  1.0460000  1
  14598  14601  14609  14612     1  0.0000000  0.6694400  3
  14598  14597  14611  14615     1  0.0000000  0.6508444  3
  14598  14597  14611  14616     1  0.0000000  0.6508444  3
  14599  14597  14598  14601     1  0.0000000  0.6508444  3
  14599  14597  14598  14610     1  0.0000000  1.0460000  1
  14599  14597  14598  14610     1  0.0000000  0.0000000  3
  14599  14597  14598  14600     1  0.0000000  0.6508444  3
  14599  14597  14611  14617     1  0.0000000  1.0460000  1
  14599  14597  14611  14617     1  0.0000000  0.0000000  3
  14599  14597  14611  14615     1  0.0000000  0.6508444  3
  14599  14597  14611  14616     1  0.0000000  0.6508444  3
  14599  14597  14619  14603     1  0.0000000  1.6038667  3
  14600  14598  14601  14602     1  0.0000000  0.6508444  3
  14600  14598  14601  14609     1  0.0000000  1.0460000  1
  14600  14598  14601  14609     1  0.0000000  0.0000000  3
  14600  14598  14601  14605     1  0.0000000  0.6508444  3
  14600  14598  14610  14613     1  0.0000000  0.6973333  3
  14600  14598  14597  14611     1  0.0000000  0.6508444  3
  14600  14598  14597  14619     1  0.0000000  1.0460000  1
  14600  14598  14597  14619     1  0.0000000  0.0000000  3
  14601  14602  14603  14606     1  0.0000000  0.6508444  3
  14601  14602  14608  14614     1  0.0000000  1.0460000  1
  14601  14602  14608  14614     1  0.0000000  0.6694400  3
  14601  14598  14610  14613     1  0.0000000  1.0460000  1
  14601  14598  14610  14613     1  0.0000000  0.6694400  3
  14602  14601  14609  14612     1  0.0000000  1.0460000  1
  14602  14601  14609  14612     1  0.0000000  0.6694400  3
  14603  14602  14608  14614     1  0.0000000  1.0460000  1
  14603  14602  14608  14614     1  0.0000000  0.6694400  3
  14603  14602  14601  14605     1  0.0000000  0.6508444  3
  14604  14602  14603  14607     1  0.0000000  1.0460000  1
  14604  14602  14603  14607     1  0.0000000  0.0000000  3
  14604  14602  14603  14619     1  0.0000000  1.0460000  1
  14604  14602  14603  14619     1  0.0000000  0.0000000  3
  14604  14602  14603  14606     1  0.0000000  0.6508444  3
  14604  14602  14608  14614     1  0.0000000  0.6973333  3
  14604  14602  14601  14609     1  0.0000000  1.0460000  1
  14604  14602  14601  14609     1  0.0000000  0.0000000  3
  14604  14602  14601  14605     1  0.0000000  0.6508444  3
  14605  14601  14602  14608     1  0.0000000  1.0460000  1
  14605  14601  14602  14608     1  0.0000000  0.0000000  3
  14605  14601  14609  14612     1  0.0000000  0.6973333  3
  14605  14601  14598  14610     1  0.0000000  1.0460000  1
  14605  14601  14598  14610     1  0.0000000  0.0000000  3
  14606  14603  14602  14608     1  0.0000000  0.6508444  3
  14615  14611  14617  14618     1  0.0000000  0.6973333  3
  14615  14611  14597  14619     1  0.0000000  1.0460000  1
  14615  14611  14597  14619     1  0.0000000  0.0000000  3
  14616  14611  14617  14618     1  0.0000000  0.6973333  3
  14616  14611  14597  14619     1  0.0000000  1.0460000  1
  14616  14611  14597  14619     1  0.0000000  0.0000000  3
  14620  14621  14624  14628     1  0.0000000  0.6508444  3
  14620  14621  14633  14636     1  0.0000000  1.0460000  1
  14620  14621  14633  14636     1  0.0000000  0.6694400  3
  14620  14634  14640  14641     1  0.0000000  1.0460000  1
  14620  14634  14640  14641     1  0.0000000  0.6694400  3
  14620  14642  14626  14629     1  0.0000000  1.6038667  3
  14621  14620  14634  14638     1  0.0000000  0.6508444  3
  14621  14620  14634  14639     1  0.0000000  0.6508444  3
  14621  14624  14625  14627     1  0.0000000  0.6508444  3
  14621  14624  14632  14635     1  0.0000000  1.0460000  1
  14621  14624  14632  14635     1  0.0000000  0.6694400  3
  14622  14620  14621  14624     1  0.0000000  0.6508444  3
  14622  14620  14621  14633     1  0.0000000  1.0460000  1
  14622  14620  14621  14633     1  0.0000000  0.0000000  3
  14622  14620  14621  14623     1  0.0000000  0.6508444  3
  14622  14620  14634  14640     1  0.0000000  1.0460000  1
  14622  14620  14634  14640     1  0.0000000  0.0000000  3
  14622  14620  14634  14638     1  0.0000000  0.6508444  3
  14622  14620  14634  14639     1  0.0000000  0.6508444  3
  14622  14620  14642  14626     1  0.0000000  1.6038667  3
  14623  14621  14620  14634     1  0.0000000  0.6508444  3
  14623  14621  14620  14642     1  0.0000000  1.0460000  1
  14623  14621  14620  14642     1  0.0000000  0.0000000  3
  14623  14621  14624  14625     1  0.0000000  0.6508444  3
  14623  14621  14624  14632     1  0.0000000  1.0460000  1
  14623  14621  14624  14632     1  0.0000000  0.0000000  3
  14623  14621  14624  14628     1  0.0000000  0.6508444  3
  14623  14621  14633  14636     1  0.0000000  0.6973333  3
  14624  14621  14633  14636     1  0.0000000  1.0460000  1
  14624  14621  14633  14636     1  0.0000000  0.6694400  3
  14624  14625  14626  14629     1  0.0000000  0.6508444  3
  14624  14625  14631  14637     1  0.0000000  1.0460000  1
  14624  14625  14631  14637     1  0.0000000  0.6694400  3
  14625  14624  14632  14635     1  0.0000000  1.0460000  1
  14625  14624  14632  14635     1  0.0000000  0.6694400  3
  14626  14625  14624  14628     1  0.0000000  0.6508444  3
  14626  14625  14631  14637     1  0.0000000  1.0460000  1
  14626  14625  14631  14637     1  0.0000000  0.6694400  3
  14627  14625  14624  14632     1  0.0000000  1.0460000  1
  14627  14625  14624  14632     1  0.0000000  0.0000000  3
  14627  14625  14624  14628     1  0.0000000  0.6508444  3
  14627  14625  14626  14630     1  0.0000000  1.0460000  1
  14627  14625  14626  14630     1  0.0000000  0.0000000  3
  14627  14625  14626  14642     1  0.0000000  1.0460000  1
  14627  14625  14626  14642     1  0.0000000  0.0000000  3
  14627  14625  14626  14629     1  0.0000000  0.6508444  3
  14627  14625  14631  14637     1  0.0000000  0.6973333  3
  14628  14624  14621  14633     1  0.0000000  1.0460000  1
  14628  14624  14621  14633     1  0.0000000  0.0000000  3
  14628  14624  14625  14631     1  0.0000000  1.0460000  1
  14628  14624  14625  14631     1  0.0000000  0.0000000  3
  14628  14624  14632  14635     1  0.0000000  0.6973333  3
  14629  14626  14625  14631     1  0.0000000  0.6508444  3
  14638  14634  14620  14642     1  0.0000000  1.0460000  1
  14638  14634  14620  14642     1  0.0000000  0.0000000  3
  14638  14634  14640  14641     1  0.0000000  0.6973333  3
  14639  14634  14620  14642     1  0.0000000  1.0460000  1
  14639  14634  14620  14642     1  0.0000000  0.0000000  3
  14639  14634  14640  14641     1  0.0000000  0.6973333  3
  14643  14644  14647  14651     1  0.0000000  0.6508444  3
  14643  14644  14656  14659     1  0.0000000  1.0460000  1
  14643  14644  14656  14659     1  0.0000000  0.6694400  3
  14643  14657  14663  14664     1  0.0000000  1.0460000  1
  14643  14657  14663  14664     1  0.0000000  0.6694400  3
  14643  14665  14649  14652     1  0.0000000  1.6038667  3
  14644  14647  14648  14650     1  0.0000000  0.6508444  3
  14644  14647  14655  14658     1  0.0000000  1.0460000  1
  14644  14647  14655  14658     1  0.0000000  0.6694400  3
  14644  14643  14657  14661     1  0.0000000  0.6508444  3
  14644  14643  14657  14662     1  0.0000000  0.6508444  3
  14645  14643  14644  14647     1  0.0000000  0.6508444  3
  14645  14643  14644  14656     1  0.0000000  1.0460000  1
  14645  14643  14644  14656     1  0.0000000  0.0000000  3
  14645  14643  14644  14646     1  0.0000000  0.6508444  3
  14645  14643  14657  14663     1  0.0000000  1.0460000  1
  14645  14643  14657  14663     1  0.0000000  0.0000000  3
  14645  14643  14657  14661     1  0.0000000  0.6508444  3
  14645  14643  14657  14662     1  0.0000000  0.6508444  3
  14645  14643  14665  14649     1  0.0000000  1.6038667  3
  14646  14644  14647  14648     1  0.0000000  0.6508444  3
  14646  14644  14647  14655     1  0.0000000  1.0460000  1
  14646  14644  14647  14655     1  0.0000000  0.0000000  3
  14646  14644  14647  14651     1  0.0000000  0.6508444  3
  14646  14644  14656  14659     1  0.0000000  0.6973333  3
  14646  14644  14643  14657     1  0.0000000  0.6508444  3
  14646  14644  14643  14665     1  0.0000000  1.0460000  1
  14646  14644  14643  14665     1  0.0000000  0.0000000  3
  14647  14648  14649  14652     1  0.0000000  0.6508444  3
  14647  14648  14654  14660     1  0.0000000  1.0460000  1
  14647  14648  14654  14660     1  0.0000000  0.6694400  3
  14647  14644  14656  14659     1  0.0000000  1.0460000  1
  14647  14644  14656  14659     1  0.0000000  0.6694400  3
  14648  14647  14655  14658     1  0.0000000  1.0460000  1
  14648  14647  14655  14658     1  0.0000000  0.6694400  3
  14649  14648  14654  14660     1  0.0000000  1.0460000  1
  14649  14648  14654  14660     1  0.0000000  0.6694400  3
  14649  14648  14647  14651     1  0.0000000  0.6508444  3
  14650  14648  14649  14653     1  0.0000000  1.0460000  1
  14650  14648  14649  14653     1  0.0000000  0.0000000  3
  14650  14648  14649  14665     1  0.0000000  1.0460000  1
  14650  14648  14649  14665     1  0.0000000  0.0000000  3
  14650  14648  14649  14652     1  0.0000000  0.6508444  3
  14650  14648  14654  14660     1  0.0000000  0.6973333  3
  14650  14648  14647  14655     1  0.0000000  1.0460000  1
  14650  14648  14647  14655     1  0.0000000  0.0000000  3
  14650  14648  14647  14651     1  0.0000000  0.6508444  3
  14651  14647  14648  14654     1  0.0000000  1.0460000  1
  14651  14647  14648  14654     1  0.0000000  0.0000000  3
  14651  14647  14655  14658     1  0.0000000  0.6973333  3
  14651  14647  14644  14656     1  0.0000000  1.0460000  1
  14651  14647  14644  14656     1  0.0000000  0.0000000  3
  14652  14649  14648  14654     1  0.0000000  0.6508444  3
  14661  14657  14663  14664     1  0.0000000  0.6973333  3
  14661  14657  14643  14665     1  0.0000000  1.0460000  1
  14661  14657  14643  14665     1  0.0000000  0.0000000  3
  14662  14657  14663  14664     1  0.0000000  0.6973333  3
  14662  14657  14643  14665     1  0.0000000  1.0460000  1
  14662  14657  14643  14665     1  0.0000000  0.0000000  3
  14666  14667  14670  14674     1  0.0000000  0.6508444  3
  14666  14667  14679  14682     1  0.0000000  1.0460000  1
  14666  14667  14679  14682     1  0.0000000  0.6694400  3
  14666  14680  14686  14687     1  0.0000000  1.0460000  1
  14666  14680  14686  14687     1  0.0000000  0.6694400  3
  14666  14688  14672  14675     1  0.0000000  1.6038667  3
  14667  14666  14680  14684     1  0.0000000  0.6508444  3
  14667  14666  14680  14685     1  0.0000000  0.6508444  3
  14667  14670  14671  14673     1  0.0000000  0.6508444  3
  14667  14670  14678  14681     1  0.0000000  1.0460000  1
  14667  14670  14678  14681     1  0.0000000  0.6694400  3
  14668  14666  14667  14670     1  0.0000000  0.6508444  3
  14668  14666  14667  14679     1  0.0000000  1.0460000  1
  14668  14666  14667  14679     1  0.0000000  0.0000000  3
  14668  14666  14667  14669     1  0.0000000  0.6508444  3
  14668  14666  14680  14686     1  0.0000000  1.0460000  1
  14668  14666  14680  14686     1  0.0000000  0.0000000  3
  14668  14666  14680  14684     1  0.0000000  0.6508444  3
  14668  14666  14680  14685     1  0.0000000  0.6508444  3
  14668  14666  14688  14672     1  0.0000000  1.6038667  3
  14669  14667  14666  14680     1  0.0000000  0.6508444  3
  14669  14667  14666  14688     1  0.0000000  1.0460000  1
  14669  14667  14666  14688     1  0.0000000  0.0000000  3
  14669  14667  14670  14671     1  0.0000000  0.6508444  3
  14669  14667  14670  14678     1  0.0000000  1.0460000  1
  14669  14667  14670  14678     1  0.0000000  0.0000000  3
  14669  14667  14670  14674     1  0.0000000  0.6508444  3
  14669  14667  14679  14682     1  0.0000000  0.6973333  3
  14670  14667  14679  14682     1  0.0000000  1.0460000  1
  14670  14667  14679  14682     1  0.0000000  0.6694400  3
  14670  14671  14672  14675     1  0.0000000  0.6508444  3
  14670  14671  14677  14683     1  0.0000000  1.0460000  1
  14670  14671  14677  14683     1  0.0000000  0.6694400  3
  14671  14670  14678  14681     1  0.0000000  1.0460000  1
  14671  14670  14678  14681     1  0.0000000  0.6694400  3
  14672  14671  14670  14674     1  0.0000000  0.6508444  3
  14672  14671  14677  14683     1  0.0000000  1.0460000  1
  14672  14671  14677  14683     1  0.0000000  0.6694400  3
  14673  14671  14670  14678     1  0.0000000  1.0460000  1
  14673  14671  14670  14678     1  0.0000000  0.0000000  3
  14673  14671  14670  14674     1  0.0000000  0.6508444  3
  14673  14671  14672  14676     1  0.0000000  1.0460000  1
  14673  14671  14672  14676     1  0.0000000  0.0000000  3
  14673  14671  14672  14688     1  0.0000000  1.0460000  1
  14673  14671  14672  14688     1  0.0000000  0.0000000  3
  14673  14671  14672  14675     1  0.0000000  0.6508444  3
  14673  14671  14677  14683     1  0.0000000  0.6973333  3
  14674  14670  14667  14679     1  0.0000000  1.0460000  1
  14674  14670  14667  14679     1  0.0000000  0.0000000  3
  14674  14670  14671  14677     1  0.0000000  1.0460000  1
  14674  14670  14671  14677     1  0.0000000  0.0000000  3
  14674  14670  14678  14681     1  0.0000000  0.6973333  3
  14675  14672  14671  14677     1  0.0000000  0.6508444  3
  14684  14680  14666  14688     1  0.0000000  1.0460000  1
  14684  14680  14666  14688     1  0.0000000  0.0000000  3
  14684  14680  14686  14687     1  0.0000000  0.6973333  3
  14685  14680  14666  14688     1  0.0000000  1.0460000  1
  14685  14680  14666  14688     1  0.0000000  0.0000000  3
  14685  14680  14686  14687     1  0.0000000  0.6973333  3
  14689  14690  14693  14697     1  0.0000000  0.6508444  3
  14689  14690  14702  14705     1  0.0000000  1.0460000  1
  14689  14690  14702  14705     1  0.0000000  0.6694400  3
  14689  14703  14709  14710     1  0.0000000  1.0460000  1
  14689  14703  14709  14710     1  0.0000000  0.6694400  3
  14689  14711  14695  14698     1  0.0000000  1.6038667  3
  14690  14693  14694  14696     1  0.0000000  0.6508444  3
  14690  14693  14701  14704     1  0.0000000  1.0460000  1
  14690  14693  14701  14704     1  0.0000000  0.6694400  3
  14690  14689  14703  14707     1  0.0000000  0.6508444  3
  14690  14689  14703  14708     1  0.0000000  0.6508444  3
  14691  14689  14690  14693     1  0.0000000  0.6508444  3
  14691  14689  14690  14702     1  0.0000000  1.0460000  1
  14691  14689  14690  14702     1  0.0000000  0.0000000  3
  14691  14689  14690  14692     1  0.0000000  0.6508444  3
  14691  14689  14703  14709     1  0.0000000  1.0460000  1
  14691  14689  14703  14709     1  0.0000000  0.0000000  3
  14691  14689  14703  14707     1  0.0000000  0.6508444  3
  14691  14689  14703  14708     1  0.0000000  0.6508444  3
  14691  14689  14711  14695     1  0.0000000  1.6038667  3
  14692  14690  14693  14694     1  0.0000000  0.6508444  3
  14692  14690  14693  14701     1  0.0000000  1.0460000  1
  14692  14690  14693  14701     1  0.0000000  0.0000000  3
  14692  14690  14693  14697     1  0.0000000  0.6508444  3
  14692  14690  14702  14705     1  0.0000000  0.6973333  3
  14692  14690  14689  14703     1  0.0000000  0.6508444  3
  14692  14690  14689  14711     1  0.0000000  1.0460000  1
  14692  14690  14689  14711     1  0.0000000  0.0000000  3
  14693  14694  14695  14698     1  0.0000000  0.6508444  3
  14693  14694  14700  14706     1  0.0000000  1.0460000  1
  14693  14694  14700  14706     1  0.0000000  0.6694400  3
  14693  14690  14702  14705     1  0.0000000  1.0460000  1
  14693  14690  14702  14705     1  0.0000000  0.6694400  3
  14694  14693  14701  14704     1  0.0000000  1.0460000  1
  14694  14693  14701  14704     1  0.0000000  0.6694400  3
  14695  14694  14700  14706     1  0.0000000  1.0460000  1
  14695  14694  14700  14706     1  0.0000000  0.6694400  3
  14695  14694  14693  14697     1  0.0000000  0.6508444  3
  14696  14694  14695  14699     1  0.0000000  1.0460000  1
  14696  14694  14695  14699     1  0.0000000  0.0000000  3
  14696  14694  14695  14711     1  0.0000000  1.0460000  1
  14696  14694  14695  14711     1  0.0000000  0.0000000  3
  14696  14694  14695  14698     1  0.0000000  0.6508444  3
  14696  14694  14700  14706     1  0.0000000  0.6973333  3
  14696  14694  14693  14701     1  0.0000000  1.0460000  1
  14696  14694  14693  14701     1  0.0000000  0.0000000  3
  14696  14694  14693  14697     1  0.0000000  0.6508444  3
  14697  14693  14694  14700     1  0.0000000  1.0460000  1
  14697  14693  14694  14700     1  0.0000000  0.0000000  3
  14697  14693  14701  14704     1  0.0000000  0.6973333  3
  14697  14693  14690  14702     1  0.0000000  1.0460000  1
  14697  14693  14690  14702     1  0.0000000  0.0000000  3
  14698  14695  14694  14700     1  0.0000000  0.6508444  3
  14707  14703  14709  14710     1  0.0000000  0.6973333  3
  14707  14703  14689  14711     1  0.0000000  1.0460000  1
  14707  14703  14689  14711     1  0.0000000  0.0000000  3
  14708  14703  14709  14710     1  0.0000000  0.6973333  3
  14708  14703  14689  14711     1  0.0000000  1.0460000  1
  14708  14703  14689  14711     1  0.0000000  0.0000000  3
  14712  14713  14716  14720     1  0.0000000  0.6508444  3
  14712  14713  14725  14728     1  0.0000000  1.0460000  1
  14712  14713  14725  14728     1  0.0000000  0.6694400  3
  14712  14726  14732  14733     1  0.0000000  1.0460000  1
  14712  14726  14732  14733     1  0.0000000  0.6694400  3
  14712  14734  14718  14721     1  0.0000000  1.6038667  3
  14713  14712  14726  14730     1  0.0000000  0.6508444  3
  14713  14712  14726  14731     1  0.0000000  0.6508444  3
  14713  14716  14717  14719     1  0.0000000  0.6508444  3
  14713  14716  14724  14727     1  0.0000000  1.0460000  1
  14713  14716  14724  14727     1  0.0000000  0.6694400  3
  14714  14712  14713  14716     1  0.0000000  0.6508444  3
  14714  14712  14713  14725     1  0.0000000  1.0460000  1
  14714  14712  14713  14725     1  0.0000000  0.0000000  3
  14714  14712  14713  14715     1  0.0000000  0.6508444  3
  14714  14712  14726  14732     1  0.0000000  1.0460000  1
  14714  14712  14726  14732     1  0.0000000  0.0000000  3
  14714  14712  14726  14730     1  0.0000000  0.6508444  3
  14714  14712  14726  14731     1  0.0000000  0.6508444  3
  14714  14712  14734  14718     1  0.0000000  1.6038667  3
  14715  14713  14712  14726     1  0.0000000  0.6508444  3
  14715  14713  14712  14734     1  0.0000000  1.0460000  1
  14715  14713  14712  14734     1  0.0000000  0.0000000  3
  14715  14713  14716  14717     1  0.0000000  0.6508444  3
  14715  14713  14716  14724     1  0.0000000  1.0460000  1
  14715  14713  14716  14724     1  0.0000000  0.0000000  3
  14715  14713  14716  14720     1  0.0000000  0.6508444  3
  14715  14713  14725  14728     1  0.0000000  0.6973333  3
  14716  14713  14725  14728     1  0.0000000  1.0460000  1
  14716  14713  14725  14728     1  0.0000000  0.6694400  3
  14716  14717  14718  14721     1  0.0000000  0.6508444  3
  14716  14717  14723  14729     1  0.0000000  1.0460000  1
  14716  14717  14723  14729     1  0.0000000  0.6694400  3
  14717  14716  14724  14727     1  0.0000000  1.0460000  1
  14717  14716  14724  14727     1  0.0000000  0.6694400  3
  14718  14717  14716  14720     1  0.0000000  0.6508444  3
  14718  14717  14723  14729     1  0.0000000  1.0460000  1
  14718  14717  14723  14729     1  0.0000000  0.6694400  3
  14719  14717  14716  14724     1  0.0000000  1.0460000  1
  14719  14717  14716  14724     1  0.0000000  0.0000000  3
  14719  14717  14716  14720     1  0.0000000  0.6508444  3
  14719  14717  14718  14722     1  0.0000000  1.0460000  1
  14719  14717  14718  14722     1  0.0000000  0.0000000  3
  14719  14717  14718  14734     1  0.0000000  1.0460000  1
  14719  14717  14718  14734     1  0.0000000  0.0000000  3
  14719  14717  14718  14721     1  0.0000000  0.6508444  3
  14719  14717  14723  14729     1  0.0000000  0.6973333  3
  14720  14716  14713  14725     1  0.0000000  1.0460000  1
  14720  14716  14713  14725     1  0.0000000  0.0000000  3
  14720  14716  14717  14723     1  0.0000000  1.0460000  1
  14720  14716  14717  14723     1  0.0000000  0.0000000  3
  14720  14716  14724  14727     1  0.0000000  0.6973333  3
  14721  14718  14717  14723     1  0.0000000  0.6508444  3
  14730  14726  14712  14734     1  0.0000000  1.0460000  1
  14730  14726  14712  14734     1  0.0000000  0.0000000  3
  14730  14726  14732  14733     1  0.0000000  0.6973333  3
  14731  14726  14712  14734     1  0.0000000  1.0460000  1
  14731  14726  14712  14734     1  0.0000000  0.0000000  3
  14731  14726  14732  14733     1  0.0000000  0.6973333  3
  14735  14736  14739  14743     1  0.0000000  0.6508444  3
  14735  14736  14748  14751     1  0.0000000  1.0460000  1
  14735  14736  14748  14751     1  0.0000000  0.6694400  3
  14735  14749  14755  14756     1  0.0000000  1.0460000  1
  14735  14749  14755  14756     1  0.0000000  0.6694400  3
  14735  14757  14741  14744     1  0.0000000  1.6038667  3
  14736  14739  14740  14742     1  0.0000000  0.6508444  3
  14736  14739  14747  14750     1  0.0000000  1.0460000  1
  14736  14739  14747  14750     1  0.0000000  0.6694400  3
  14736  14735  14749  14753     1  0.0000000  0.6508444  3
  14736  14735  14749  14754     1  0.0000000  0.6508444  3
  14737  14735  14736  14739     1  0.0000000  0.6508444  3
  14737  14735  14736  14748     1  0.0000000  1.0460000  1
  14737  14735  14736  14748     1  0.0000000  0.0000000  3
  14737  14735  14736  14738     1  0.0000000  0.6508444  3
  14737  14735  14749  14755     1  0.0000000  1.0460000  1
  14737  14735  14749  14755     1  0.0000000  0.0000000  3
  14737  14735  14749  14753     1  0.0000000  0.6508444  3
  14737  14735  14749  14754     1  0.0000000  0.6508444  3
  14737  14735  14757  14741     1  0.0000000  1.6038667  3
  14738  14736  14739  14740     1  0.0000000  0.6508444  3
  14738  14736  14739  14747     1  0.0000000  1.0460000  1
  14738  14736  14739  14747     1  0.0000000  0.0000000  3
  14738  14736  14739  14743     1  0.0000000  0.6508444  3
  14738  14736  14748  14751     1  0.0000000  0.6973333  3
  14738  14736  14735  14749     1  0.0000000  0.6508444  3
  14738  14736  14735  14757     1  0.0000000  1.0460000  1
  14738  14736  14735  14757     1  0.0000000  0.0000000  3
  14739  14740  14741  14744     1  0.0000000  0.6508444  3
  14739  14740  14746  14752     1  0.0000000  1.0460000  1
  14739  14740  14746  14752     1  0.0000000  0.6694400  3
  14739  14736  14748  14751     1  0.0000000  1.0460000  1
  14739  14736  14748  14751     1  0.0000000  0.6694400  3
  14740  14739  14747  14750     1  0.0000000  1.0460000  1
  14740  14739  14747  14750     1  0.0000000  0.6694400  3
  14741  14740  14746  14752     1  0.0000000  1.0460000  1
  14741  14740  14746  14752     1  0.0000000  0.6694400  3
  14741  14740  14739  14743     1  0.0000000  0.6508444  3
  14742  14740  14741  14745     1  0.0000000  1.0460000  1
  14742  14740  14741  14745     1  0.0000000  0.0000000  3
  14742  14740  14741  14757     1  0.0000000  1.0460000  1
  14742  14740  14741  14757     1  0.0000000  0.0000000  3
  14742  14740  14741  14744     1  0.0000000  0.6508444  3
  14742  14740  14746  14752     1  0.0000000  0.6973333  3
  14742  14740  14739  14747     1  0.0000000  1.0460000  1
  14742  14740  14739  14747     1  0.0000000  0.0000000  3
  14742  14740  14739  14743     1  0.0000000  0.6508444  3
  14743  14739  14740  14746     1  0.0000000  1.0460000  1
  14743  14739  14740  14746     1  0.0000000  0.0000000  3
  14743  14739  14747  14750     1  0.0000000  0.6973333  3
  14743  14739  14736  14748     1  0.0000000  1.0460000  1
  14743  14739  14736  14748     1  0.0000000  0.0000000  3
  14744  14741  14740  14746     1  0.0000000  0.6508444  3
  14753  14749  14755  14756     1  0.0000000  0.6973333  3
  14753  14749  14735  14757     1  0.0000000  1.0460000  1
  14753  14749  14735  14757     1  0.0000000  0.0000000  3
  14754  14749  14755  14756     1  0.0000000  0.6973333  3
  14754  14749  14735  14757     1  0.0000000  1.0460000  1
  14754  14749  14735  14757     1  0.0000000  0.0000000  3
  14758  14759  14762  14766     1  0.0000000  0.6508444  3
  14758  14759  14771  14774     1  0.0000000  1.0460000  1
  14758  14759  14771  14774     1  0.0000000  0.6694400  3
  14758  14772  14778  14779     1  0.0000000  1.0460000  1
  14758  14772  14778  14779     1  0.0000000  0.6694400  3
  14758  14780  14764  14767     1  0.0000000  1.6038667  3
  14759  14758  14772  14776     1  0.0000000  0.6508444  3
  14759  14758  14772  14777     1  0.0000000  0.6508444  3
  14759  14762  14763  14765     1  0.0000000  0.6508444  3
  14759  14762  14770  14773     1  0.0000000  1.0460000  1
  14759  14762  14770  14773     1  0.0000000  0.6694400  3
  14760  14758  14759  14762     1  0.0000000  0.6508444  3
  14760  14758  14759  14771     1  0.0000000  1.0460000  1
  14760  14758  14759  14771     1  0.0000000  0.0000000  3
  14760  14758  14759  14761     1  0.0000000  0.6508444  3
  14760  14758  14772  14778     1  0.0000000  1.0460000  1
  14760  14758  14772  14778     1  0.0000000  0.0000000  3
  14760  14758  14772  14776     1  0.0000000  0.6508444  3
  14760  14758  14772  14777     1  0.0000000  0.6508444  3
  14760  14758  14780  14764     1  0.0000000  1.6038667  3
  14761  14759  14758  14772     1  0.0000000  0.6508444  3
  14761  14759  14758  14780     1  0.0000000  1.0460000  1
  14761  14759  14758  14780     1  0.0000000  0.0000000  3
  14761  14759  14762  14763     1  0.0000000  0.6508444  3
  14761  14759  14762  14770     1  0.0000000  1.0460000  1
  14761  14759  14762  14770     1  0.0000000  0.0000000  3
  14761  14759  14762  14766     1  0.0000000  0.6508444  3
  14761  14759  14771  14774     1  0.0000000  0.6973333  3
  14762  14759  14771  14774     1  0.0000000  1.0460000  1
  14762  14759  14771  14774     1  0.0000000  0.6694400  3
  14762  14763  14764  14767     1  0.0000000  0.6508444  3
  14762  14763  14769  14775     1  0.0000000  1.0460000  1
  14762  14763  14769  14775     1  0.0000000  0.6694400  3
  14763  14762  14770  14773     1  0.0000000  1.0460000  1
  14763  14762  14770  14773     1  0.0000000  0.6694400  3
  14764  14763  14762  14766     1  0.0000000  0.6508444  3
  14764  14763  14769  14775     1  0.0000000  1.0460000  1
  14764  14763  14769  14775     1  0.0000000  0.6694400  3
  14765  14763  14762  14770     1  0.0000000  1.0460000  1
  14765  14763  14762  14770     1  0.0000000  0.0000000  3
  14765  14763  14762  14766     1  0.0000000  0.6508444  3
  14765  14763  14764  14768     1  0.0000000  1.0460000  1
  14765  14763  14764  14768     1  0.0000000  0.0000000  3
  14765  14763  14764  14780     1  0.0000000  1.0460000  1
  14765  14763  14764  14780     1  0.0000000  0.0000000  3
  14765  14763  14764  14767     1  0.0000000  0.6508444  3
  14765  14763  14769  14775     1  0.0000000  0.6973333  3
  14766  14762  14759  14771     1  0.0000000  1.0460000  1
  14766  14762  14759  14771     1  0.0000000  0.0000000  3
  14766  14762  14763  14769     1  0.0000000  1.0460000  1
  14766  14762  14763  14769     1  0.0000000  0.0000000  3
  14766  14762  14770  14773     1  0.0000000  0.6973333  3
  14767  14764  14763  14769     1  0.0000000  0.6508444  3
  14776  14772  14758  14780     1  0.0000000  1.0460000  1
  14776  14772  14758  14780     1  0.0000000  0.0000000  3
  14776  14772  14778  14779     1  0.0000000  0.6973333  3
  14777  14772  14758  14780     1  0.0000000  1.0460000  1
  14777  14772  14758  14780     1  0.0000000  0.0000000  3
  14777  14772  14778  14779     1  0.0000000  0.6973333  3
  14781  14782  14785  14789     1  0.0000000  0.6508444  3
  14781  14782  14794  14797     1  0.0000000  1.0460000  1
  14781  14782  14794  14797     1  0.0000000  0.6694400  3
  14781  14795  14801  14802     1  0.0000000  1.0460000  1
  14781  14795  14801  14802     1  0.0000000  0.6694400  3
  14781  14803  14787  14790     1  0.0000000  1.6038667  3
  14782  14785  14786  14788     1  0.0000000  0.6508444  3
  14782  14785  14793  14796     1  0.0000000  1.0460000  1
  14782  14785  14793  14796     1  0.0000000  0.6694400  3
  14782  14781  14795  14799     1  0.0000000  0.6508444  3
  14782  14781  14795  14800     1  0.0000000  0.6508444  3
  14783  14781  14782  14785     1  0.0000000  0.6508444  3
  14783  14781  14782  14794     1  0.0000000  1.0460000  1
  14783  14781  14782  14794     1  0.0000000  0.0000000  3
  14783  14781  14782  14784     1  0.0000000  0.6508444  3
  14783  14781  14795  14801     1  0.0000000  1.0460000  1
  14783  14781  14795  14801     1  0.0000000  0.0000000  3
  14783  14781  14795  14799     1  0.0000000  0.6508444  3
  14783  14781  14795  14800     1  0.0000000  0.6508444  3
  14783  14781  14803  14787     1  0.0000000  1.6038667  3
  14784  14782  14785  14786     1  0.0000000  0.6508444  3
  14784  14782  14785  14793     1  0.0000000  1.0460000  1
  14784  14782  14785  14793     1  0.0000000  0.0000000  3
  14784  14782  14785  14789     1  0.0000000  0.6508444  3
  14784  14782  14794  14797     1  0.0000000  0.6973333  3
  14784  14782  14781  14795     1  0.0000000  0.6508444  3
  14784  14782  14781  14803     1  0.0000000  1.0460000  1
  14784  14782  14781  14803     1  0.0000000  0.0000000  3
  14785  14786  14787  14790     1  0.0000000  0.6508444  3
  14785  14786  14792  14798     1  0.0000000  1.0460000  1
  14785  14786  14792  14798     1  0.0000000  0.6694400  3
  14785  14782  14794  14797     1  0.0000000  1.0460000  1
  14785  14782  14794  14797     1  0.0000000  0.6694400  3
  14786  14785  14793  14796     1  0.0000000  1.0460000  1
  14786  14785  14793  14796     1  0.0000000  0.6694400  3
  14787  14786  14792  14798     1  0.0000000  1.0460000  1
  14787  14786  14792  14798     1  0.0000000  0.6694400  3
  14787  14786  14785  14789     1  0.0000000  0.6508444  3
  14788  14786  14787  14791     1  0.0000000  1.0460000  1
  14788  14786  14787  14791     1  0.0000000  0.0000000  3
  14788  14786  14787  14803     1  0.0000000  1.0460000  1
  14788  14786  14787  14803     1  0.0000000  0.0000000  3
  14788  14786  14787  14790     1  0.0000000  0.6508444  3
  14788  14786  14792  14798     1  0.0000000  0.6973333  3
  14788  14786  14785  14793     1  0.0000000  1.0460000  1
  14788  14786  14785  14793     1  0.0000000  0.0000000  3
  14788  14786  14785  14789     1  0.0000000  0.6508444  3
  14789  14785  14786  14792     1  0.0000000  1.0460000  1
  14789  14785  14786  14792     1  0.0000000  0.0000000  3
  14789  14785  14793  14796     1  0.0000000  0.6973333  3
  14789  14785  14782  14794     1  0.0000000  1.0460000  1
  14789  14785  14782  14794     1  0.0000000  0.0000000  3
  14790  14787  14786  14792     1  0.0000000  0.6508444  3
  14799  14795  14801  14802     1  0.0000000  0.6973333  3
  14799  14795  14781  14803     1  0.0000000  1.0460000  1
  14799  14795  14781  14803     1  0.0000000  0.0000000  3
  14800  14795  14801  14802     1  0.0000000  0.6973333  3
  14800  14795  14781  14803     1  0.0000000  1.0460000  1
  14800  14795  14781  14803     1  0.0000000  0.0000000  3
  14804  14805  14808  14812     1  0.0000000  0.6508444  3
  14804  14805  14817  14820     1  0.0000000  1.0460000  1
  14804  14805  14817  14820     1  0.0000000  0.6694400  3
  14804  14818  14824  14825     1  0.0000000  1.0460000  1
  14804  14818  14824  14825     1  0.0000000  0.6694400  3
  14804  14826  14810  14813     1  0.0000000  1.6038667  3
  14805  14804  14818  14822     1  0.0000000  0.6508444  3
  14805  14804  14818  14823     1  0.0000000  0.6508444  3
  14805  14808  14809  14811     1  0.0000000  0.6508444  3
  14805  14808  14816  14819     1  0.0000000  1.0460000  1
  14805  14808  14816  14819     1  0.0000000  0.6694400  3
  14806  14804  14805  14808     1  0.0000000  0.6508444  3
  14806  14804  14805  14817     1  0.0000000  1.0460000  1
  14806  14804  14805  14817     1  0.0000000  0.0000000  3
  14806  14804  14805  14807     1  0.0000000  0.6508444  3
  14806  14804  14818  14824     1  0.0000000  1.0460000  1
  14806  14804  14818  14824     1  0.0000000  0.0000000  3
  14806  14804  14818  14822     1  0.0000000  0.6508444  3
  14806  14804  14818  14823     1  0.0000000  0.6508444  3
  14806  14804  14826  14810     1  0.0000000  1.6038667  3
  14807  14805  14804  14818     1  0.0000000  0.6508444  3
  14807  14805  14804  14826     1  0.0000000  1.0460000  1
  14807  14805  14804  14826     1  0.0000000  0.0000000  3
  14807  14805  14808  14809     1  0.0000000  0.6508444  3
  14807  14805  14808  14816     1  0.0000000  1.0460000  1
  14807  14805  14808  14816     1  0.0000000  0.0000000  3
  14807  14805  14808  14812     1  0.0000000  0.6508444  3
  14807  14805  14817  14820     1  0.0000000  0.6973333  3
  14808  14805  14817  14820     1  0.0000000  1.0460000  1
  14808  14805  14817  14820     1  0.0000000  0.6694400  3
  14808  14809  14810  14813     1  0.0000000  0.6508444  3
  14808  14809  14815  14821     1  0.0000000  1.0460000  1
  14808  14809  14815  14821     1  0.0000000  0.6694400  3
  14809  14808  14816  14819     1  0.0000000  1.0460000  1
  14809  14808  14816  14819     1  0.0000000  0.6694400  3
  14810  14809  14808  14812     1  0.0000000  0.6508444  3
  14810  14809  14815  14821     1  0.0000000  1.0460000  1
  14810  14809  14815  14821     1  0.0000000  0.6694400  3
  14811  14809  14808  14816     1  0.0000000  1.0460000  1
  14811  14809  14808  14816     1  0.0000000  0.0000000  3
  14811  14809  14808  14812     1  0.0000000  0.6508444  3
  14811  14809  14810  14814     1  0.0000000  1.0460000  1
  14811  14809  14810  14814     1  0.0000000  0.0000000  3
  14811  14809  14810  14826     1  0.0000000  1.0460000  1
  14811  14809  14810  14826     1  0.0000000  0.0000000  3
  14811  14809  14810  14813     1  0.0000000  0.6508444  3
  14811  14809  14815  14821     1  0.0000000  0.6973333  3
  14812  14808  14805  14817     1  0.0000000  1.0460000  1
  14812  14808  14805  14817     1  0.0000000  0.0000000  3
  14812  14808  14809  14815     1  0.0000000  1.0460000  1
  14812  14808  14809  14815     1  0.0000000  0.0000000  3
  14812  14808  14816  14819     1  0.0000000  0.6973333  3
  14813  14810  14809  14815     1  0.0000000  0.6508444  3
  14822  14818  14804  14826     1  0.0000000  1.0460000  1
  14822  14818  14804  14826     1  0.0000000  0.0000000  3
  14822  14818  14824  14825     1  0.0000000  0.6973333  3
  14823  14818  14804  14826     1  0.0000000  1.0460000  1
  14823  14818  14804  14826     1  0.0000000  0.0000000  3
  14823  14818  14824  14825     1  0.0000000  0.6973333  3
  14827  14828  14831  14835     1  0.0000000  0.6508444  3
  14827  14828  14840  14843     1  0.0000000  1.0460000  1
  14827  14828  14840  14843     1  0.0000000  0.6694400  3
  14827  14841  14847  14848     1  0.0000000  1.0460000  1
  14827  14841  14847  14848     1  0.0000000  0.6694400  3
  14827  14849  14833  14836     1  0.0000000  1.6038667  3
  14828  14831  14832  14834     1  0.0000000  0.6508444  3
  14828  14831  14839  14842     1  0.0000000  1.0460000  1
  14828  14831  14839  14842     1  0.0000000  0.6694400  3
  14828  14827  14841  14845     1  0.0000000  0.6508444  3
  14828  14827  14841  14846     1  0.0000000  0.6508444  3
  14829  14827  14828  14831     1  0.0000000  0.6508444  3
  14829  14827  14828  14840     1  0.0000000  1.0460000  1
  14829  14827  14828  14840     1  0.0000000  0.0000000  3
  14829  14827  14828  14830     1  0.0000000  0.6508444  3
  14829  14827  14841  14847     1  0.0000000  1.0460000  1
  14829  14827  14841  14847     1  0.0000000  0.0000000  3
  14829  14827  14841  14845     1  0.0000000  0.6508444  3
  14829  14827  14841  14846     1  0.0000000  0.6508444  3
  14829  14827  14849  14833     1  0.0000000  1.6038667  3
  14830  14828  14831  14832     1  0.0000000  0.6508444  3
  14830  14828  14831  14839     1  0.0000000  1.0460000  1
  14830  14828  14831  14839     1  0.0000000  0.0000000  3
  14830  14828  14831  14835     1  0.0000000  0.6508444  3
  14830  14828  14840  14843     1  0.0000000  0.6973333  3
  14830  14828  14827  14841     1  0.0000000  0.6508444  3
  14830  14828  14827  14849     1  0.0000000  1.0460000  1
  14830  14828  14827  14849     1  0.0000000  0.0000000  3
  14831  14832  14833  14836     1  0.0000000  0.6508444  3
  14831  14832  14838  14844     1  0.0000000  1.0460000  1
  14831  14832  14838  14844     1  0.0000000  0.6694400  3
  14831  14828  14840  14843     1  0.0000000  1.0460000  1
  14831  14828  14840  14843     1  0.0000000  0.6694400  3
  14832  14831  14839  14842     1  0.0000000  1.0460000  1
  14832  14831  14839  14842     1  0.0000000  0.6694400  3
  14833  14832  14838  14844     1  0.0000000  1.0460000  1
  14833  14832  14838  14844     1  0.0000000  0.6694400  3
  14833  14832  14831  14835     1  0.0000000  0.6508444  3
  14834  14832  14833  14837     1  0.0000000  1.0460000  1
  14834  14832  14833  14837     1  0.0000000  0.0000000  3
  14834  14832  14833  14849     1  0.0000000  1.0460000  1
  14834  14832  14833  14849     1  0.0000000  0.0000000  3
  14834  14832  14833  14836     1  0.0000000  0.6508444  3
  14834  14832  14838  14844     1  0.0000000  0.6973333  3
  14834  14832  14831  14839     1  0.0000000  1.0460000  1
  14834  14832  14831  14839     1  0.0000000  0.0000000  3
  14834  14832  14831  14835     1  0.0000000  0.6508444  3
  14835  14831  14832  14838     1  0.0000000  1.0460000  1
  14835  14831  14832  14838     1  0.0000000  0.0000000  3
  14835  14831  14839  14842     1  0.0000000  0.6973333  3
  14835  14831  14828  14840     1  0.0000000  1.0460000  1
  14835  14831  14828  14840     1  0.0000000  0.0000000  3
  14836  14833  14832  14838     1  0.0000000  0.6508444  3
  14845  14841  14847  14848     1  0.0000000  0.6973333  3
  14845  14841  14827  14849     1  0.0000000  1.0460000  1
  14845  14841  14827  14849     1  0.0000000  0.0000000  3
  14846  14841  14847  14848     1  0.0000000  0.6973333  3
  14846  14841  14827  14849     1  0.0000000  1.0460000  1
  14846  14841  14827  14849     1  0.0000000  0.0000000  3
  14850  14851  14854  14858     1  0.0000000  0.6508444  3
  14850  14851  14863  14866     1  0.0000000  1.0460000  1
  14850  14851  14863  14866     1  0.0000000  0.6694400  3
  14850  14864  14870  14871     1  0.0000000  1.0460000  1
  14850  14864  14870  14871     1  0.0000000  0.6694400  3
  14850  14872  14856  14859     1  0.0000000  1.6038667  3
  14851  14850  14864  14868     1  0.0000000  0.6508444  3
  14851  14850  14864  14869     1  0.0000000  0.6508444  3
  14851  14854  14855  14857     1  0.0000000  0.6508444  3
  14851  14854  14862  14865     1  0.0000000  1.0460000  1
  14851  14854  14862  14865     1  0.0000000  0.6694400  3
  14852  14850  14851  14854     1  0.0000000  0.6508444  3
  14852  14850  14851  14863     1  0.0000000  1.0460000  1
  14852  14850  14851  14863     1  0.0000000  0.0000000  3
  14852  14850  14851  14853     1  0.0000000  0.6508444  3
  14852  14850  14864  14870     1  0.0000000  1.0460000  1
  14852  14850  14864  14870     1  0.0000000  0.0000000  3
  14852  14850  14864  14868     1  0.0000000  0.6508444  3
  14852  14850  14864  14869     1  0.0000000  0.6508444  3
  14852  14850  14872  14856     1  0.0000000  1.6038667  3
  14853  14851  14850  14864     1  0.0000000  0.6508444  3
  14853  14851  14850  14872     1  0.0000000  1.0460000  1
  14853  14851  14850  14872     1  0.0000000  0.0000000  3
  14853  14851  14854  14855     1  0.0000000  0.6508444  3
  14853  14851  14854  14862     1  0.0000000  1.0460000  1
  14853  14851  14854  14862     1  0.0000000  0.0000000  3
  14853  14851  14854  14858     1  0.0000000  0.6508444  3
  14853  14851  14863  14866     1  0.0000000  0.6973333  3
  14854  14851  14863  14866     1  0.0000000  1.0460000  1
  14854  14851  14863  14866     1  0.0000000  0.6694400  3
  14854  14855  14856  14859     1  0.0000000  0.6508444  3
  14854  14855  14861  14867     1  0.0000000  1.0460000  1
  14854  14855  14861  14867     1  0.0000000  0.6694400  3
  14855  14854  14862  14865     1  0.0000000  1.0460000  1
  14855  14854  14862  14865     1  0.0000000  0.6694400  3
  14856  14855  14854  14858     1  0.0000000  0.6508444  3
  14856  14855  14861  14867     1  0.0000000  1.0460000  1
  14856  14855  14861  14867     1  0.0000000  0.6694400  3
  14857  14855  14854  14862     1  0.0000000  1.0460000  1
  14857  14855  14854  14862     1  0.0000000  0.0000000  3
  14857  14855  14854  14858     1  0.0000000  0.6508444  3
  14857  14855  14856  14860     1  0.0000000  1.0460000  1
  14857  14855  14856  14860     1  0.0000000  0.0000000  3
  14857  14855  14856  14872     1  0.0000000  1.0460000  1
  14857  14855  14856  14872     1  0.0000000  0.0000000  3
  14857  14855  14856  14859     1  0.0000000  0.6508444  3
  14857  14855  14861  14867     1  0.0000000  0.6973333  3
  14858  14854  14851  14863     1  0.0000000  1.0460000  1
  14858  14854  14851  14863     1  0.0000000  0.0000000  3
  14858  14854  14855  14861     1  0.0000000  1.0460000  1
  14858  14854  14855  14861     1  0.0000000  0.0000000  3
  14858  14854  14862  14865     1  0.0000000  0.6973333  3
  14859  14856  14855  14861     1  0.0000000  0.6508444  3
  14868  14864  14850  14872     1  0.0000000  1.0460000  1
  14868  14864  14850  14872     1  0.0000000  0.0000000  3
  14868  14864  14870  14871     1  0.0000000  0.6973333  3
  14869  14864  14850  14872     1  0.0000000  1.0460000  1
  14869  14864  14850  14872     1  0.0000000  0.0000000  3
  14869  14864  14870  14871     1  0.0000000  0.6973333  3
  14873  14874  14877  14881     1  0.0000000  0.6508444  3
  14873  14874  14886  14889     1  0.0000000  1.0460000  1
  14873  14874  14886  14889     1  0.0000000  0.6694400  3
  14873  14887  14893  14894     1  0.0000000  1.0460000  1
  14873  14887  14893  14894     1  0.0000000  0.6694400  3
  14873  14895  14879  14882     1  0.0000000  1.6038667  3
  14874  14877  14878  14880     1  0.0000000  0.6508444  3
  14874  14877  14885  14888     1  0.0000000  1.0460000  1
  14874  14877  14885  14888     1  0.0000000  0.6694400  3
  14874  14873  14887  14891     1  0.0000000  0.6508444  3
  14874  14873  14887  14892     1  0.0000000  0.6508444  3
  14875  14873  14874  14877     1  0.0000000  0.6508444  3
  14875  14873  14874  14886     1  0.0000000  1.0460000  1
  14875  14873  14874  14886     1  0.0000000  0.0000000  3
  14875  14873  14874  14876     1  0.0000000  0.6508444  3
  14875  14873  14887  14893     1  0.0000000  1.0460000  1
  14875  14873  14887  14893     1  0.0000000  0.0000000  3
  14875  14873  14887  14891     1  0.0000000  0.6508444  3
  14875  14873  14887  14892     1  0.0000000  0.6508444  3
  14875  14873  14895  14879     1  0.0000000  1.6038667  3
  14876  14874  14877  14878     1  0.0000000  0.6508444  3
  14876  14874  14877  14885     1  0.0000000  1.0460000  1
  14876  14874  14877  14885     1  0.0000000  0.0000000  3
  14876  14874  14877  14881     1  0.0000000  0.6508444  3
  14876  14874  14886  14889     1  0.0000000  0.6973333  3
  14876  14874  14873  14887     1  0.0000000  0.6508444  3
  14876  14874  14873  14895     1  0.0000000  1.0460000  1
  14876  14874  14873  14895     1  0.0000000  0.0000000  3
  14877  14878  14879  14882     1  0.0000000  0.6508444  3
  14877  14878  14884  14890     1  0.0000000  1.0460000  1
  14877  14878  14884  14890     1  0.0000000  0.6694400  3
  14877  14874  14886  14889     1  0.0000000  1.0460000  1
  14877  14874  14886  14889     1  0.0000000  0.6694400  3
  14878  14877  14885  14888     1  0.0000000  1.0460000  1
  14878  14877  14885  14888     1  0.0000000  0.6694400  3
  14879  14878  14884  14890     1  0.0000000  1.0460000  1
  14879  14878  14884  14890     1  0.0000000  0.6694400  3
  14879  14878  14877  14881     1  0.0000000  0.6508444  3
  14880  14878  14879  14883     1  0.0000000  1.0460000  1
  14880  14878  14879  14883     1  0.0000000  0.0000000  3
  14880  14878  14879  14895     1  0.0000000  1.0460000  1
  14880  14878  14879  14895     1  0.0000000  0.0000000  3
  14880  14878  14879  14882     1  0.0000000  0.6508444  3
  14880  14878  14884  14890     1  0.0000000  0.6973333  3
  14880  14878  14877  14885     1  0.0000000  1.0460000  1
  14880  14878  14877  14885     1  0.0000000  0.0000000  3
  14880  14878  14877  14881     1  0.0000000  0.6508444  3
  14881  14877  14878  14884     1  0.0000000  1.0460000  1
  14881  14877  14878  14884     1  0.0000000  0.0000000  3
  14881  14877  14885  14888     1  0.0000000  0.6973333  3
  14881  14877  14874  14886     1  0.0000000  1.0460000  1
  14881  14877  14874  14886     1  0.0000000  0.0000000  3
  14882  14879  14878  14884     1  0.0000000  0.6508444  3
  14891  14887  14893  14894     1  0.0000000  0.6973333  3
  14891  14887  14873  14895     1  0.0000000  1.0460000  1
  14891  14887  14873  14895     1  0.0000000  0.0000000  3
  14892  14887  14893  14894     1  0.0000000  0.6973333  3
  14892  14887  14873  14895     1  0.0000000  1.0460000  1
  14892  14887  14873  14895     1  0.0000000  0.0000000  3
  14896  14897  14900  14904     1  0.0000000  0.6508444  3
  14896  14897  14909  14912     1  0.0000000  1.0460000  1
  14896  14897  14909  14912     1  0.0000000  0.6694400  3
  14896  14910  14916  14917     1  0.0000000  1.0460000  1
  14896  14910  14916  14917     1  0.0000000  0.6694400  3
  14896  14918  14902  14905     1  0.0000000  1.6038667  3
  14897  14896  14910  14914     1  0.0000000  0.6508444  3
  14897  14896  14910  14915     1  0.0000000  0.6508444  3
  14897  14900  14901  14903     1  0.0000000  0.6508444  3
  14897  14900  14908  14911     1  0.0000000  1.0460000  1
  14897  14900  14908  14911     1  0.0000000  0.6694400  3
  14898  14896  14897  14900     1  0.0000000  0.6508444  3
  14898  14896  14897  14909     1  0.0000000  1.0460000  1
  14898  14896  14897  14909     1  0.0000000  0.0000000  3
  14898  14896  14897  14899     1  0.0000000  0.6508444  3
  14898  14896  14910  14916     1  0.0000000  1.0460000  1
  14898  14896  14910  14916     1  0.0000000  0.0000000  3
  14898  14896  14910  14914     1  0.0000000  0.6508444  3
  14898  14896  14910  14915     1  0.0000000  0.6508444  3
  14898  14896  14918  14902     1  0.0000000  1.6038667  3
  14899  14897  14896  14910     1  0.0000000  0.6508444  3
  14899  14897  14896  14918     1  0.0000000  1.0460000  1
  14899  14897  14896  14918     1  0.0000000  0.0000000  3
  14899  14897  14900  14901     1  0.0000000  0.6508444  3
  14899  14897  14900  14908     1  0.0000000  1.0460000  1
  14899  14897  14900  14908     1  0.0000000  0.0000000  3
  14899  14897  14900  14904     1  0.0000000  0.6508444  3
  14899  14897  14909  14912     1  0.0000000  0.6973333  3
  14900  14897  14909  14912     1  0.0000000  1.0460000  1
  14900  14897  14909  14912     1  0.0000000  0.6694400  3
  14900  14901  14902  14905     1  0.0000000  0.6508444  3
  14900  14901  14907  14913     1  0.0000000  1.0460000  1
  14900  14901  14907  14913     1  0.0000000  0.6694400  3
  14901  14900  14908  14911     1  0.0000000  1.0460000  1
  14901  14900  14908  14911     1  0.0000000  0.6694400  3
  14902  14901  14900  14904     1  0.0000000  0.6508444  3
  14902  14901  14907  14913     1  0.0000000  1.0460000  1
  14902  14901  14907  14913     1  0.0000000  0.6694400  3
  14903  14901  14900  14908     1  0.0000000  1.0460000  1
  14903  14901  14900  14908     1  0.0000000  0.0000000  3
  14903  14901  14900  14904     1  0.0000000  0.6508444  3
  14903  14901  14902  14906     1  0.0000000  1.0460000  1
  14903  14901  14902  14906     1  0.0000000  0.0000000  3
  14903  14901  14902  14918     1  0.0000000  1.0460000  1
  14903  14901  14902  14918     1  0.0000000  0.0000000  3
  14903  14901  14902  14905     1  0.0000000  0.6508444  3
  14903  14901  14907  14913     1  0.0000000  0.6973333  3
  14904  14900  14897  14909     1  0.0000000  1.0460000  1
  14904  14900  14897  14909     1  0.0000000  0.0000000  3
  14904  14900  14901  14907     1  0.0000000  1.0460000  1
  14904  14900  14901  14907     1  0.0000000  0.0000000  3
  14904  14900  14908  14911     1  0.0000000  0.6973333  3
  14905  14902  14901  14907     1  0.0000000  0.6508444  3
  14914  14910  14896  14918     1  0.0000000  1.0460000  1
  14914  14910  14896  14918     1  0.0000000  0.0000000  3
  14914  14910  14916  14917     1  0.0000000  0.6973333  3
  14915  14910  14896  14918     1  0.0000000  1.0460000  1
  14915  14910  14896  14918     1  0.0000000  0.0000000  3
  14915  14910  14916  14917     1  0.0000000  0.6973333  3
  14919  14920  14923  14927     1  0.0000000  0.6508444  3
  14919  14920  14932  14935     1  0.0000000  1.0460000  1
  14919  14920  14932  14935     1  0.0000000  0.6694400  3
  14919  14933  14939  14940     1  0.0000000  1.0460000  1
  14919  14933  14939  14940     1  0.0000000  0.6694400  3
  14919  14941  14925  14928     1  0.0000000  1.6038667  3
  14920  14923  14924  14926     1  0.0000000  0.6508444  3
  14920  14923  14931  14934     1  0.0000000  1.0460000  1
  14920  14923  14931  14934     1  0.0000000  0.6694400  3
  14920  14919  14933  14937     1  0.0000000  0.6508444  3
  14920  14919  14933  14938     1  0.0000000  0.6508444  3
  14921  14919  14920  14923     1  0.0000000  0.6508444  3
  14921  14919  14920  14932     1  0.0000000  1.0460000  1
  14921  14919  14920  14932     1  0.0000000  0.0000000  3
  14921  14919  14920  14922     1  0.0000000  0.6508444  3
  14921  14919  14933  14939     1  0.0000000  1.0460000  1
  14921  14919  14933  14939     1  0.0000000  0.0000000  3
  14921  14919  14933  14937     1  0.0000000  0.6508444  3
  14921  14919  14933  14938     1  0.0000000  0.6508444  3
  14921  14919  14941  14925     1  0.0000000  1.6038667  3
  14922  14920  14923  14924     1  0.0000000  0.6508444  3
  14922  14920  14923  14931     1  0.0000000  1.0460000  1
  14922  14920  14923  14931     1  0.0000000  0.0000000  3
  14922  14920  14923  14927     1  0.0000000  0.6508444  3
  14922  14920  14932  14935     1  0.0000000  0.6973333  3
  14922  14920  14919  14933     1  0.0000000  0.6508444  3
  14922  14920  14919  14941     1  0.0000000  1.0460000  1
  14922  14920  14919  14941     1  0.0000000  0.0000000  3
  14923  14924  14925  14928     1  0.0000000  0.6508444  3
  14923  14924  14930  14936     1  0.0000000  1.0460000  1
  14923  14924  14930  14936     1  0.0000000  0.6694400  3
  14923  14920  14932  14935     1  0.0000000  1.0460000  1
  14923  14920  14932  14935     1  0.0000000  0.6694400  3
  14924  14923  14931  14934     1  0.0000000  1.0460000  1
  14924  14923  14931  14934     1  0.0000000  0.6694400  3
  14925  14924  14930  14936     1  0.0000000  1.0460000  1
  14925  14924  14930  14936     1  0.0000000  0.6694400  3
  14925  14924  14923  14927     1  0.0000000  0.6508444  3
  14926  14924  14925  14929     1  0.0000000  1.0460000  1
  14926  14924  14925  14929     1  0.0000000  0.0000000  3
  14926  14924  14925  14941     1  0.0000000  1.0460000  1
  14926  14924  14925  14941     1  0.0000000  0.0000000  3
  14926  14924  14925  14928     1  0.0000000  0.6508444  3
  14926  14924  14930  14936     1  0.0000000  0.6973333  3
  14926  14924  14923  14931     1  0.0000000  1.0460000  1
  14926  14924  14923  14931     1  0.0000000  0.0000000  3
  14926  14924  14923  14927     1  0.0000000  0.6508444  3
  14927  14923  14924  14930     1  0.0000000  1.0460000  1
  14927  14923  14924  14930     1  0.0000000  0.0000000  3
  14927  14923  14931  14934     1  0.0000000  0.6973333  3
  14927  14923  14920  14932     1  0.0000000  1.0460000  1
  14927  14923  14920  14932     1  0.0000000  0.0000000  3
  14928  14925  14924  14930     1  0.0000000  0.6508444  3
  14937  14933  14939  14940     1  0.0000000  0.6973333  3
  14937  14933  14919  14941     1  0.0000000  1.0460000  1
  14937  14933  14919  14941     1  0.0000000  0.0000000  3
  14938  14933  14939  14940     1  0.0000000  0.6973333  3
  14938  14933  14919  14941     1  0.0000000  1.0460000  1
  14938  14933  14919  14941     1  0.0000000  0.0000000  3
  14942  14943  14946  14950     1  0.0000000  0.6508444  3
  14942  14943  14955  14958     1  0.0000000  1.0460000  1
  14942  14943  14955  14958     1  0.0000000  0.6694400  3
  14942  14956  14962  14963     1  0.0000000  1.0460000  1
  14942  14956  14962  14963     1  0.0000000  0.6694400  3
  14942  14964  14948  14951     1  0.0000000  1.6038667  3
  14943  14942  14956  14960     1  0.0000000  0.6508444  3
  14943  14942  14956  14961     1  0.0000000  0.6508444  3
  14943  14946  14947  14949     1  0.0000000  0.6508444  3
  14943  14946  14954  14957     1  0.0000000  1.0460000  1
  14943  14946  14954  14957     1  0.0000000  0.6694400  3
  14944  14942  14943  14946     1  0.0000000  0.6508444  3
  14944  14942  14943  14955     1  0.0000000  1.0460000  1
  14944  14942  14943  14955     1  0.0000000  0.0000000  3
  14944  14942  14943  14945     1  0.0000000  0.6508444  3
  14944  14942  14956  14962     1  0.0000000  1.0460000  1
  14944  14942  14956  14962     1  0.0000000  0.0000000  3
  14944  14942  14956  14960     1  0.0000000  0.6508444  3
  14944  14942  14956  14961     1  0.0000000  0.6508444  3
  14944  14942  14964  14948     1  0.0000000  1.6038667  3
  14945  14943  14942  14956     1  0.0000000  0.6508444  3
  14945  14943  14942  14964     1  0.0000000  1.0460000  1
  14945  14943  14942  14964     1  0.0000000  0.0000000  3
  14945  14943  14946  14947     1  0.0000000  0.6508444  3
  14945  14943  14946  14954     1  0.0000000  1.0460000  1
  14945  14943  14946  14954     1  0.0000000  0.0000000  3
  14945  14943  14946  14950     1  0.0000000  0.6508444  3
  14945  14943  14955  14958     1  0.0000000  0.6973333  3
  14946  14943  14955  14958     1  0.0000000  1.0460000  1
  14946  14943  14955  14958     1  0.0000000  0.6694400  3
  14946  14947  14948  14951     1  0.0000000  0.6508444  3
  14946  14947  14953  14959     1  0.0000000  1.0460000  1
  14946  14947  14953  14959     1  0.0000000  0.6694400  3
  14947  14946  14954  14957     1  0.0000000  1.0460000  1
  14947  14946  14954  14957     1  0.0000000  0.6694400  3
  14948  14947  14946  14950     1  0.0000000  0.6508444  3
  14948  14947  14953  14959     1  0.0000000  1.0460000  1
  14948  14947  14953  14959     1  0.0000000  0.6694400  3
  14949  14947  14946  14954     1  0.0000000  1.0460000  1
  14949  14947  14946  14954     1  0.0000000  0.0000000  3
  14949  14947  14946  14950     1  0.0000000  0.6508444  3
  14949  14947  14948  14952     1  0.0000000  1.0460000  1
  14949  14947  14948  14952     1  0.0000000  0.0000000  3
  14949  14947  14948  14964     1  0.0000000  1.0460000  1
  14949  14947  14948  14964     1  0.0000000  0.0000000  3
  14949  14947  14948  14951     1  0.0000000  0.6508444  3
  14949  14947  14953  14959     1  0.0000000  0.6973333  3
  14950  14946  14943  14955     1  0.0000000  1.0460000  1
  14950  14946  14943  14955     1  0.0000000  0.0000000  3
  14950  14946  14947  14953     1  0.0000000  1.0460000  1
  14950  14946  14947  14953     1  0.0000000  0.0000000  3
  14950  14946  14954  14957     1  0.0000000  0.6973333  3
  14951  14948  14947  14953     1  0.0000000  0.6508444  3
  14960  14956  14942  14964     1  0.0000000  1.0460000  1
  14960  14956  14942  14964     1  0.0000000  0.0000000  3
  14960  14956  14962  14963     1  0.0000000  0.6973333  3
  14961  14956  14942  14964     1  0.0000000  1.0460000  1
  14961  14956  14942  14964     1  0.0000000  0.0000000  3
  14961  14956  14962  14963     1  0.0000000  0.6973333  3
  14965  14966  14969  14973     1  0.0000000  0.6508444  3
  14965  14966  14978  14981     1  0.0000000  1.0460000  1
  14965  14966  14978  14981     1  0.0000000  0.6694400  3
  14965  14979  14985  14986     1  0.0000000  1.0460000  1
  14965  14979  14985  14986     1  0.0000000  0.6694400  3
  14965  14987  14971  14974     1  0.0000000  1.6038667  3
  14966  14969  14970  14972     1  0.0000000  0.6508444  3
  14966  14969  14977  14980     1  0.0000000  1.0460000  1
  14966  14969  14977  14980     1  0.0000000  0.6694400  3
  14966  14965  14979  14983     1  0.0000000  0.6508444  3
  14966  14965  14979  14984     1  0.0000000  0.6508444  3
  14967  14965  14966  14969     1  0.0000000  0.6508444  3
  14967  14965  14966  14978     1  0.0000000  1.0460000  1
  14967  14965  14966  14978     1  0.0000000  0.0000000  3
  14967  14965  14966  14968     1  0.0000000  0.6508444  3
  14967  14965  14979  14985     1  0.0000000  1.0460000  1
  14967  14965  14979  14985     1  0.0000000  0.0000000  3
  14967  14965  14979  14983     1  0.0000000  0.6508444  3
  14967  14965  14979  14984     1  0.0000000  0.6508444  3
  14967  14965  14987  14971     1  0.0000000  1.6038667  3
  14968  14966  14969  14970     1  0.0000000  0.6508444  3
  14968  14966  14969  14977     1  0.0000000  1.0460000  1
  14968  14966  14969  14977     1  0.0000000  0.0000000  3
  14968  14966  14969  14973     1  0.0000000  0.6508444  3
  14968  14966  14978  14981     1  0.0000000  0.6973333  3
  14968  14966  14965  14979     1  0.0000000  0.6508444  3
  14968  14966  14965  14987     1  0.0000000  1.0460000  1
  14968  14966  14965  14987     1  0.0000000  0.0000000  3
  14969  14970  14971  14974     1  0.0000000  0.6508444  3
  14969  14970  14976  14982     1  0.0000000  1.0460000  1
  14969  14970  14976  14982     1  0.0000000  0.6694400  3
  14969  14966  14978  14981     1  0.0000000  1.0460000  1
  14969  14966  14978  14981     1  0.0000000  0.6694400  3
  14970  14969  14977  14980     1  0.0000000  1.0460000  1
  14970  14969  14977  14980     1  0.0000000  0.6694400  3
  14971  14970  14976  14982     1  0.0000000  1.0460000  1
  14971  14970  14976  14982     1  0.0000000  0.6694400  3
  14971  14970  14969  14973     1  0.0000000  0.6508444  3
  14972  14970  14971  14975     1  0.0000000  1.0460000  1
  14972  14970  14971  14975     1  0.0000000  0.0000000  3
  14972  14970  14971  14987     1  0.0000000  1.0460000  1
  14972  14970  14971  14987     1  0.0000000  0.0000000  3
  14972  14970  14971  14974     1  0.0000000  0.6508444  3
  14972  14970  14976  14982     1  0.0000000  0.6973333  3
  14972  14970  14969  14977     1  0.0000000  1.0460000  1
  14972  14970  14969  14977     1  0.0000000  0.0000000  3
  14972  14970  14969  14973     1  0.0000000  0.6508444  3
  14973  14969  14970  14976     1  0.0000000  1.0460000  1
  14973  14969  14970  14976     1  0.0000000  0.0000000  3
  14973  14969  14977  14980     1  0.0000000  0.6973333  3
  14973  14969  14966  14978     1  0.0000000  1.0460000  1
  14973  14969  14966  14978     1  0.0000000  0.0000000  3
  14974  14971  14970  14976     1  0.0000000  0.6508444  3
  14983  14979  14985  14986     1  0.0000000  0.6973333  3
  14983  14979  14965  14987     1  0.0000000  1.0460000  1
  14983  14979  14965  14987     1  0.0000000  0.0000000  3
  14984  14979  14985  14986     1  0.0000000  0.6973333  3
  14984  14979  14965  14987     1  0.0000000  1.0460000  1
  14984  14979  14965  14987     1  0.0000000  0.0000000  3
  14988  14989  14992  14996     1  0.0000000  0.6508444  3
  14988  14989  15001  15004     1  0.0000000  1.0460000  1
  14988  14989  15001  15004     1  0.0000000  0.6694400  3
  14988  15002  15008  15009     1  0.0000000  1.0460000  1
  14988  15002  15008  15009     1  0.0000000  0.6694400  3
  14988  15010  14994  14997     1  0.0000000  1.6038667  3
  14989  14988  15002  15006     1  0.0000000  0.6508444  3
  14989  14988  15002  15007     1  0.0000000  0.6508444  3
  14989  14992  14993  14995     1  0.0000000  0.6508444  3
  14989  14992  15000  15003     1  0.0000000  1.0460000  1
  14989  14992  15000  15003     1  0.0000000  0.6694400  3
  14990  14988  14989  14992     1  0.0000000  0.6508444  3
  14990  14988  14989  15001     1  0.0000000  1.0460000  1
  14990  14988  14989  15001     1  0.0000000  0.0000000  3
  14990  14988  14989  14991     1  0.0000000  0.6508444  3
  14990  14988  15002  15008     1  0.0000000  1.0460000  1
  14990  14988  15002  15008     1  0.0000000  0.0000000  3
  14990  14988  15002  15006     1  0.0000000  0.6508444  3
  14990  14988  15002  15007     1  0.0000000  0.6508444  3
  14990  14988  15010  14994     1  0.0000000  1.6038667  3
  14991  14989  14988  15002     1  0.0000000  0.6508444  3
  14991  14989  14988  15010     1  0.0000000  1.0460000  1
  14991  14989  14988  15010     1  0.0000000  0.0000000  3
  14991  14989  14992  14993     1  0.0000000  0.6508444  3
  14991  14989  14992  15000     1  0.0000000  1.0460000  1
  14991  14989  14992  15000     1  0.0000000  0.0000000  3
  14991  14989  14992  14996     1  0.0000000  0.6508444  3
  14991  14989  15001  15004     1  0.0000000  0.6973333  3
  14992  14989  15001  15004     1  0.0000000  1.0460000  1
  14992  14989  15001  15004     1  0.0000000  0.6694400  3
  14992  14993  14994  14997     1  0.0000000  0.6508444  3
  14992  14993  14999  15005     1  0.0000000  1.0460000  1
  14992  14993  14999  15005     1  0.0000000  0.6694400  3
  14993  14992  15000  15003     1  0.0000000  1.0460000  1
  14993  14992  15000  15003     1  0.0000000  0.6694400  3
  14994  14993  14992  14996     1  0.0000000  0.6508444  3
  14994  14993  14999  15005     1  0.0000000  1.0460000  1
  14994  14993  14999  15005     1  0.0000000  0.6694400  3
  14995  14993  14992  15000     1  0.0000000  1.0460000  1
  14995  14993  14992  15000     1  0.0000000  0.0000000  3
  14995  14993  14992  14996     1  0.0000000  0.6508444  3
  14995  14993  14994  14998     1  0.0000000  1.0460000  1
  14995  14993  14994  14998     1  0.0000000  0.0000000  3
  14995  14993  14994  15010     1  0.0000000  1.0460000  1
  14995  14993  14994  15010     1  0.0000000  0.0000000  3
  14995  14993  14994  14997     1  0.0000000  0.6508444  3
  14995  14993  14999  15005     1  0.0000000  0.6973333  3
  14996  14992  14989  15001     1  0.0000000  1.0460000  1
  14996  14992  14989  15001     1  0.0000000  0.0000000  3
  14996  14992  14993  14999     1  0.0000000  1.0460000  1
  14996  14992  14993  14999     1  0.0000000  0.0000000  3
  14996  14992  15000  15003     1  0.0000000  0.6973333  3
  14997  14994  14993  14999     1  0.0000000  0.6508444  3
  15006  15002  14988  15010     1  0.0000000  1.0460000  1
  15006  15002  14988  15010     1  0.0000000  0.0000000  3
  15006  15002  15008  15009     1  0.0000000  0.6973333  3
  15007  15002  14988  15010     1  0.0000000  1.0460000  1
  15007  15002  14988  15010     1  0.0000000  0.0000000  3
  15007  15002  15008  15009     1  0.0000000  0.6973333  3
  15011  15012  15015  15019     1  0.0000000  0.6508444  3
  15011  15012  15024  15027     1  0.0000000  1.0460000  1
  15011  15012  15024  15027     1  0.0000000  0.6694400  3
  15011  15025  15031  15032     1  0.0000000  1.0460000  1
  15011  15025  15031  15032     1  0.0000000  0.6694400  3
  15011  15033  15017  15020     1  0.0000000  1.6038667  3
  15012  15015  15016  15018     1  0.0000000  0.6508444  3
  15012  15015  15023  15026     1  0.0000000  1.0460000  1
  15012  15015  15023  15026     1  0.0000000  0.6694400  3
  15012  15011  15025  15029     1  0.0000000  0.6508444  3
  15012  15011  15025  15030     1  0.0000000  0.6508444  3
  15013  15011  15012  15015     1  0.0000000  0.6508444  3
  15013  15011  15012  15024     1  0.0000000  1.0460000  1
  15013  15011  15012  15024     1  0.0000000  0.0000000  3
  15013  15011  15012  15014     1  0.0000000  0.6508444  3
  15013  15011  15025  15031     1  0.0000000  1.0460000  1
  15013  15011  15025  15031     1  0.0000000  0.0000000  3
  15013  15011  15025  15029     1  0.0000000  0.6508444  3
  15013  15011  15025  15030     1  0.0000000  0.6508444  3
  15013  15011  15033  15017     1  0.0000000  1.6038667  3
  15014  15012  15015  15016     1  0.0000000  0.6508444  3
  15014  15012  15015  15023     1  0.0000000  1.0460000  1
  15014  15012  15015  15023     1  0.0000000  0.0000000  3
  15014  15012  15015  15019     1  0.0000000  0.6508444  3
  15014  15012  15024  15027     1  0.0000000  0.6973333  3
  15014  15012  15011  15025     1  0.0000000  0.6508444  3
  15014  15012  15011  15033     1  0.0000000  1.0460000  1
  15014  15012  15011  15033     1  0.0000000  0.0000000  3
  15015  15016  15017  15020     1  0.0000000  0.6508444  3
  15015  15016  15022  15028     1  0.0000000  1.0460000  1
  15015  15016  15022  15028     1  0.0000000  0.6694400  3
  15015  15012  15024  15027     1  0.0000000  1.0460000  1
  15015  15012  15024  15027     1  0.0000000  0.6694400  3
  15016  15015  15023  15026     1  0.0000000  1.0460000  1
  15016  15015  15023  15026     1  0.0000000  0.6694400  3
  15017  15016  15022  15028     1  0.0000000  1.0460000  1
  15017  15016  15022  15028     1  0.0000000  0.6694400  3
  15017  15016  15015  15019     1  0.0000000  0.6508444  3
  15018  15016  15017  15021     1  0.0000000  1.0460000  1
  15018  15016  15017  15021     1  0.0000000  0.0000000  3
  15018  15016  15017  15033     1  0.0000000  1.0460000  1
  15018  15016  15017  15033     1  0.0000000  0.0000000  3
  15018  15016  15017  15020     1  0.0000000  0.6508444  3
  15018  15016  15022  15028     1  0.0000000  0.6973333  3
  15018  15016  15015  15023     1  0.0000000  1.0460000  1
  15018  15016  15015  15023     1  0.0000000  0.0000000  3
  15018  15016  15015  15019     1  0.0000000  0.6508444  3
  15019  15015  15016  15022     1  0.0000000  1.0460000  1
  15019  15015  15016  15022     1  0.0000000  0.0000000  3
  15019  15015  15023  15026     1  0.0000000  0.6973333  3
  15019  15015  15012  15024     1  0.0000000  1.0460000  1
  15019  15015  15012  15024     1  0.0000000  0.0000000  3
  15020  15017  15016  15022     1  0.0000000  0.6508444  3
  15029  15025  15031  15032     1  0.0000000  0.6973333  3
  15029  15025  15011  15033     1  0.0000000  1.0460000  1
  15029  15025  15011  15033     1  0.0000000  0.0000000  3
  15030  15025  15031  15032     1  0.0000000  0.6973333  3
  15030  15025  15011  15033     1  0.0000000  1.0460000  1
  15030  15025  15011  15033     1  0.0000000  0.0000000  3
  15034  15035  15038  15042     1  0.0000000  0.6508444  3
  15034  15035  15047  15050     1  0.0000000  1.0460000  1
  15034  15035  15047  15050     1  0.0000000  0.6694400  3
  15034  15048  15054  15055     1  0.0000000  1.0460000  1
  15034  15048  15054  15055     1  0.0000000  0.6694400  3
  15034  15056  15040  15043     1  0.0000000  1.6038667  3
  15035  15034  15048  15052     1  0.0000000  0.6508444  3
  15035  15034  15048  15053     1  0.0000000  0.6508444  3
  15035  15038  15039  15041     1  0.0000000  0.6508444  3
  15035  15038  15046  15049     1  0.0000000  1.0460000  1
  15035  15038  15046  15049     1  0.0000000  0.6694400  3
  15036  15034  15035  15038     1  0.0000000  0.6508444  3
  15036  15034  15035  15047     1  0.0000000  1.0460000  1
  15036  15034  15035  15047     1  0.0000000  0.0000000  3
  15036  15034  15035  15037     1  0.0000000  0.6508444  3
  15036  15034  15048  15054     1  0.0000000  1.0460000  1
  15036  15034  15048  15054     1  0.0000000  0.0000000  3
  15036  15034  15048  15052     1  0.0000000  0.6508444  3
  15036  15034  15048  15053     1  0.0000000  0.6508444  3
  15036  15034  15056  15040     1  0.0000000  1.6038667  3
  15037  15035  15034  15048     1  0.0000000  0.6508444  3
  15037  15035  15034  15056     1  0.0000000  1.0460000  1
  15037  15035  15034  15056     1  0.0000000  0.0000000  3
  15037  15035  15038  15039     1  0.0000000  0.6508444  3
  15037  15035  15038  15046     1  0.0000000  1.0460000  1
  15037  15035  15038  15046     1  0.0000000  0.0000000  3
  15037  15035  15038  15042     1  0.0000000  0.6508444  3
  15037  15035  15047  15050     1  0.0000000  0.6973333  3
  15038  15035  15047  15050     1  0.0000000  1.0460000  1
  15038  15035  15047  15050     1  0.0000000  0.6694400  3
  15038  15039  15040  15043     1  0.0000000  0.6508444  3
  15038  15039  15045  15051     1  0.0000000  1.0460000  1
  15038  15039  15045  15051     1  0.0000000  0.6694400  3
  15039  15038  15046  15049     1  0.0000000  1.0460000  1
  15039  15038  15046  15049     1  0.0000000  0.6694400  3
  15040  15039  15038  15042     1  0.0000000  0.6508444  3
  15040  15039  15045  15051     1  0.0000000  1.0460000  1
  15040  15039  15045  15051     1  0.0000000  0.6694400  3
  15041  15039  15038  15046     1  0.0000000  1.0460000  1
  15041  15039  15038  15046     1  0.0000000  0.0000000  3
  15041  15039  15038  15042     1  0.0000000  0.6508444  3
  15041  15039  15040  15044     1  0.0000000  1.0460000  1
  15041  15039  15040  15044     1  0.0000000  0.0000000  3
  15041  15039  15040  15056     1  0.0000000  1.0460000  1
  15041  15039  15040  15056     1  0.0000000  0.0000000  3
  15041  15039  15040  15043     1  0.0000000  0.6508444  3
  15041  15039  15045  15051     1  0.0000000  0.6973333  3
  15042  15038  15035  15047     1  0.0000000  1.0460000  1
  15042  15038  15035  15047     1  0.0000000  0.0000000  3
  15042  15038  15039  15045     1  0.0000000  1.0460000  1
  15042  15038  15039  15045     1  0.0000000  0.0000000  3
  15042  15038  15046  15049     1  0.0000000  0.6973333  3
  15043  15040  15039  15045     1  0.0000000  0.6508444  3
  15052  15048  15034  15056     1  0.0000000  1.0460000  1
  15052  15048  15034  15056     1  0.0000000  0.0000000  3
  15052  15048  15054  15055     1  0.0000000  0.6973333  3
  15053  15048  15034  15056     1  0.0000000  1.0460000  1
  15053  15048  15034  15056     1  0.0000000  0.0000000  3
  15053  15048  15054  15055     1  0.0000000  0.6973333  3
  15057  15058  15061  15065     1  0.0000000  0.6508444  3
  15057  15058  15070  15073     1  0.0000000  1.0460000  1
  15057  15058  15070  15073     1  0.0000000  0.6694400  3
  15057  15071  15077  15078     1  0.0000000  1.0460000  1
  15057  15071  15077  15078     1  0.0000000  0.6694400  3
  15057  15079  15063  15066     1  0.0000000  1.6038667  3
  15058  15061  15062  15064     1  0.0000000  0.6508444  3
  15058  15061  15069  15072     1  0.0000000  1.0460000  1
  15058  15061  15069  15072     1  0.0000000  0.6694400  3
  15058  15057  15071  15075     1  0.0000000  0.6508444  3
  15058  15057  15071  15076     1  0.0000000  0.6508444  3
  15059  15057  15058  15061     1  0.0000000  0.6508444  3
  15059  15057  15058  15070     1  0.0000000  1.0460000  1
  15059  15057  15058  15070     1  0.0000000  0.0000000  3
  15059  15057  15058  15060     1  0.0000000  0.6508444  3
  15059  15057  15071  15077     1  0.0000000  1.0460000  1
  15059  15057  15071  15077     1  0.0000000  0.0000000  3
  15059  15057  15071  15075     1  0.0000000  0.6508444  3
  15059  15057  15071  15076     1  0.0000000  0.6508444  3
  15059  15057  15079  15063     1  0.0000000  1.6038667  3
  15060  15058  15061  15062     1  0.0000000  0.6508444  3
  15060  15058  15061  15069     1  0.0000000  1.0460000  1
  15060  15058  15061  15069     1  0.0000000  0.0000000  3
  15060  15058  15061  15065     1  0.0000000  0.6508444  3
  15060  15058  15070  15073     1  0.0000000  0.6973333  3
  15060  15058  15057  15071     1  0.0000000  0.6508444  3
  15060  15058  15057  15079     1  0.0000000  1.0460000  1
  15060  15058  15057  15079     1  0.0000000  0.0000000  3
  15061  15062  15063  15066     1  0.0000000  0.6508444  3
  15061  15062  15068  15074     1  0.0000000  1.0460000  1
  15061  15062  15068  15074     1  0.0000000  0.6694400  3
  15061  15058  15070  15073     1  0.0000000  1.0460000  1
  15061  15058  15070  15073     1  0.0000000  0.6694400  3
  15062  15061  15069  15072     1  0.0000000  1.0460000  1
  15062  15061  15069  15072     1  0.0000000  0.6694400  3
  15063  15062  15068  15074     1  0.0000000  1.0460000  1
  15063  15062  15068  15074     1  0.0000000  0.6694400  3
  15063  15062  15061  15065     1  0.0000000  0.6508444  3
  15064  15062  15063  15067     1  0.0000000  1.0460000  1
  15064  15062  15063  15067     1  0.0000000  0.0000000  3
  15064  15062  15063  15079     1  0.0000000  1.0460000  1
  15064  15062  15063  15079     1  0.0000000  0.0000000  3
  15064  15062  15063  15066     1  0.0000000  0.6508444  3
  15064  15062  15068  15074     1  0.0000000  0.6973333  3
  15064  15062  15061  15069     1  0.0000000  1.0460000  1
  15064  15062  15061  15069     1  0.0000000  0.0000000  3
  15064  15062  15061  15065     1  0.0000000  0.6508444  3
  15065  15061  15062  15068     1  0.0000000  1.0460000  1
  15065  15061  15062  15068     1  0.0000000  0.0000000  3
  15065  15061  15069  15072     1  0.0000000  0.6973333  3
  15065  15061  15058  15070     1  0.0000000  1.0460000  1
  15065  15061  15058  15070     1  0.0000000  0.0000000  3
  15066  15063  15062  15068     1  0.0000000  0.6508444  3
  15075  15071  15077  15078     1  0.0000000  0.6973333  3
  15075  15071  15057  15079     1  0.0000000  1.0460000  1
  15075  15071  15057  15079     1  0.0000000  0.0000000  3
  15076  15071  15077  15078     1  0.0000000  0.6973333  3
  15076  15071  15057  15079     1  0.0000000  1.0460000  1
  15076  15071  15057  15079     1  0.0000000  0.0000000  3
  15080  15081  15084  15088     1  0.0000000  0.6508444  3
  15080  15081  15093  15096     1  0.0000000  1.0460000  1
  15080  15081  15093  15096     1  0.0000000  0.6694400  3
  15080  15094  15100  15101     1  0.0000000  1.0460000  1
  15080  15094  15100  15101     1  0.0000000  0.6694400  3
  15080  15102  15086  15089     1  0.0000000  1.6038667  3
  15081  15080  15094  15098     1  0.0000000  0.6508444  3
  15081  15080  15094  15099     1  0.0000000  0.6508444  3
  15081  15084  15085  15087     1  0.0000000  0.6508444  3
  15081  15084  15092  15095     1  0.0000000  1.0460000  1
  15081  15084  15092  15095     1  0.0000000  0.6694400  3
  15082  15080  15081  15084     1  0.0000000  0.6508444  3
  15082  15080  15081  15093     1  0.0000000  1.0460000  1
  15082  15080  15081  15093     1  0.0000000  0.0000000  3
  15082  15080  15081  15083     1  0.0000000  0.6508444  3
  15082  15080  15094  15100     1  0.0000000  1.0460000  1
  15082  15080  15094  15100     1  0.0000000  0.0000000  3
  15082  15080  15094  15098     1  0.0000000  0.6508444  3
  15082  15080  15094  15099     1  0.0000000  0.6508444  3
  15082  15080  15102  15086     1  0.0000000  1.6038667  3
  15083  15081  15080  15094     1  0.0000000  0.6508444  3
  15083  15081  15080  15102     1  0.0000000  1.0460000  1
  15083  15081  15080  15102     1  0.0000000  0.0000000  3
  15083  15081  15084  15085     1  0.0000000  0.6508444  3
  15083  15081  15084  15092     1  0.0000000  1.0460000  1
  15083  15081  15084  15092     1  0.0000000  0.0000000  3
  15083  15081  15084  15088     1  0.0000000  0.6508444  3
  15083  15081  15093  15096     1  0.0000000  0.6973333  3
  15084  15081  15093  15096     1  0.0000000  1.0460000  1
  15084  15081  15093  15096     1  0.0000000  0.6694400  3
  15084  15085  15086  15089     1  0.0000000  0.6508444  3
  15084  15085  15091  15097     1  0.0000000  1.0460000  1
  15084  15085  15091  15097     1  0.0000000  0.6694400  3
  15085  15084  15092  15095     1  0.0000000  1.0460000  1
  15085  15084  15092  15095     1  0.0000000  0.6694400  3
  15086  15085  15084  15088     1  0.0000000  0.6508444  3
  15086  15085  15091  15097     1  0.0000000  1.0460000  1
  15086  15085  15091  15097     1  0.0000000  0.6694400  3
  15087  15085  15084  15092     1  0.0000000  1.0460000  1
  15087  15085  15084  15092     1  0.0000000  0.0000000  3
  15087  15085  15084  15088     1  0.0000000  0.6508444  3
  15087  15085  15086  15090     1  0.0000000  1.0460000  1
  15087  15085  15086  15090     1  0.0000000  0.0000000  3
  15087  15085  15086  15102     1  0.0000000  1.0460000  1
  15087  15085  15086  15102     1  0.0000000  0.0000000  3
  15087  15085  15086  15089     1  0.0000000  0.6508444  3
  15087  15085  15091  15097     1  0.0000000  0.6973333  3
  15088  15084  15081  15093     1  0.0000000  1.0460000  1
  15088  15084  15081  15093     1  0.0000000  0.0000000  3
  15088  15084  15085  15091     1  0.0000000  1.0460000  1
  15088  15084  15085  15091     1  0.0000000  0.0000000  3
  15088  15084  15092  15095     1  0.0000000  0.6973333  3
  15089  15086  15085  15091     1  0.0000000  0.6508444  3
  15098  15094  15080  15102     1  0.0000000  1.0460000  1
  15098  15094  15080  15102     1  0.0000000  0.0000000  3
  15098  15094  15100  15101     1  0.0000000  0.6973333  3
  15099  15094  15080  15102     1  0.0000000  1.0460000  1
  15099  15094  15080  15102     1  0.0000000  0.0000000  3
  15099  15094  15100  15101     1  0.0000000  0.6973333  3
  15103  15104  15107  15111     1  0.0000000  0.6508444  3
  15103  15104  15116  15119     1  0.0000000  1.0460000  1
  15103  15104  15116  15119     1  0.0000000  0.6694400  3
  15103  15117  15123  15124     1  0.0000000  1.0460000  1
  15103  15117  15123  15124     1  0.0000000  0.6694400  3
  15103  15125  15109  15112     1  0.0000000  1.6038667  3
  15104  15107  15108  15110     1  0.0000000  0.6508444  3
  15104  15107  15115  15118     1  0.0000000  1.0460000  1
  15104  15107  15115  15118     1  0.0000000  0.6694400  3
  15104  15103  15117  15121     1  0.0000000  0.6508444  3
  15104  15103  15117  15122     1  0.0000000  0.6508444  3
  15105  15103  15104  15107     1  0.0000000  0.6508444  3
  15105  15103  15104  15116     1  0.0000000  1.0460000  1
  15105  15103  15104  15116     1  0.0000000  0.0000000  3
  15105  15103  15104  15106     1  0.0000000  0.6508444  3
  15105  15103  15117  15123     1  0.0000000  1.0460000  1
  15105  15103  15117  15123     1  0.0000000  0.0000000  3
  15105  15103  15117  15121     1  0.0000000  0.6508444  3
  15105  15103  15117  15122     1  0.0000000  0.6508444  3
  15105  15103  15125  15109     1  0.0000000  1.6038667  3
  15106  15104  15107  15108     1  0.0000000  0.6508444  3
  15106  15104  15107  15115     1  0.0000000  1.0460000  1
  15106  15104  15107  15115     1  0.0000000  0.0000000  3
  15106  15104  15107  15111     1  0.0000000  0.6508444  3
  15106  15104  15116  15119     1  0.0000000  0.6973333  3
  15106  15104  15103  15117     1  0.0000000  0.6508444  3
  15106  15104  15103  15125     1  0.0000000  1.0460000  1
  15106  15104  15103  15125     1  0.0000000  0.0000000  3
  15107  15108  15109  15112     1  0.0000000  0.6508444  3
  15107  15108  15114  15120     1  0.0000000  1.0460000  1
  15107  15108  15114  15120     1  0.0000000  0.6694400  3
  15107  15104  15116  15119     1  0.0000000  1.0460000  1
  15107  15104  15116  15119     1  0.0000000  0.6694400  3
  15108  15107  15115  15118     1  0.0000000  1.0460000  1
  15108  15107  15115  15118     1  0.0000000  0.6694400  3
  15109  15108  15114  15120     1  0.0000000  1.0460000  1
  15109  15108  15114  15120     1  0.0000000  0.6694400  3
  15109  15108  15107  15111     1  0.0000000  0.6508444  3
  15110  15108  15109  15113     1  0.0000000  1.0460000  1
  15110  15108  15109  15113     1  0.0000000  0.0000000  3
  15110  15108  15109  15125     1  0.0000000  1.0460000  1
  15110  15108  15109  15125     1  0.0000000  0.0000000  3
  15110  15108  15109  15112     1  0.0000000  0.6508444  3
  15110  15108  15114  15120     1  0.0000000  0.6973333  3
  15110  15108  15107  15115     1  0.0000000  1.0460000  1
  15110  15108  15107  15115     1  0.0000000  0.0000000  3
  15110  15108  15107  15111     1  0.0000000  0.6508444  3
  15111  15107  15108  15114     1  0.0000000  1.0460000  1
  15111  15107  15108  15114     1  0.0000000  0.0000000  3
  15111  15107  15115  15118     1  0.0000000  0.6973333  3
  15111  15107  15104  15116     1  0.0000000  1.0460000  1
  15111  15107  15104  15116     1  0.0000000  0.0000000  3
  15112  15109  15108  15114     1  0.0000000  0.6508444  3
  15121  15117  15123  15124     1  0.0000000  0.6973333  3
  15121  15117  15103  15125     1  0.0000000  1.0460000  1
  15121  15117  15103  15125     1  0.0000000  0.0000000  3
  15122  15117  15123  15124     1  0.0000000  0.6973333  3
  15122  15117  15103  15125     1  0.0000000  1.0460000  1
  15122  15117  15103  15125     1  0.0000000  0.0000000  3
  15126  15127  15130  15134     1  0.0000000  0.6508444  3
  15126  15127  15139  15142     1  0.0000000  1.0460000  1
  15126  15127  15139  15142     1  0.0000000  0.6694400  3
  15126  15140  15146  15147     1  0.0000000  1.0460000  1
  15126  15140  15146  15147     1  0.0000000  0.6694400  3
  15126  15148  15132  15135     1  0.0000000  1.6038667  3
  15127  15126  15140  15144     1  0.0000000  0.6508444  3
  15127  15126  15140  15145     1  0.0000000  0.6508444  3
  15127  15130  15131  15133     1  0.0000000  0.6508444  3
  15127  15130  15138  15141     1  0.0000000  1.0460000  1
  15127  15130  15138  15141     1  0.0000000  0.6694400  3
  15128  15126  15127  15130     1  0.0000000  0.6508444  3
  15128  15126  15127  15139     1  0.0000000  1.0460000  1
  15128  15126  15127  15139     1  0.0000000  0.0000000  3
  15128  15126  15127  15129     1  0.0000000  0.6508444  3
  15128  15126  15140  15146     1  0.0000000  1.0460000  1
  15128  15126  15140  15146     1  0.0000000  0.0000000  3
  15128  15126  15140  15144     1  0.0000000  0.6508444  3
  15128  15126  15140  15145     1  0.0000000  0.6508444  3
  15128  15126  15148  15132     1  0.0000000  1.6038667  3
  15129  15127  15126  15140     1  0.0000000  0.6508444  3
  15129  15127  15126  15148     1  0.0000000  1.0460000  1
  15129  15127  15126  15148     1  0.0000000  0.0000000  3
  15129  15127  15130  15131     1  0.0000000  0.6508444  3
  15129  15127  15130  15138     1  0.0000000  1.0460000  1
  15129  15127  15130  15138     1  0.0000000  0.0000000  3
  15129  15127  15130  15134     1  0.0000000  0.6508444  3
  15129  15127  15139  15142     1  0.0000000  0.6973333  3
  15130  15127  15139  15142     1  0.0000000  1.0460000  1
  15130  15127  15139  15142     1  0.0000000  0.6694400  3
  15130  15131  15132  15135     1  0.0000000  0.6508444  3
  15130  15131  15137  15143     1  0.0000000  1.0460000  1
  15130  15131  15137  15143     1  0.0000000  0.6694400  3
  15131  15130  15138  15141     1  0.0000000  1.0460000  1
  15131  15130  15138  15141     1  0.0000000  0.6694400  3
  15132  15131  15130  15134     1  0.0000000  0.6508444  3
  15132  15131  15137  15143     1  0.0000000  1.0460000  1
  15132  15131  15137  15143     1  0.0000000  0.6694400  3
  15133  15131  15130  15138     1  0.0000000  1.0460000  1
  15133  15131  15130  15138     1  0.0000000  0.0000000  3
  15133  15131  15130  15134     1  0.0000000  0.6508444  3
  15133  15131  15132  15136     1  0.0000000  1.0460000  1
  15133  15131  15132  15136     1  0.0000000  0.0000000  3
  15133  15131  15132  15148     1  0.0000000  1.0460000  1
  15133  15131  15132  15148     1  0.0000000  0.0000000  3
  15133  15131  15132  15135     1  0.0000000  0.6508444  3
  15133  15131  15137  15143     1  0.0000000  0.6973333  3
  15134  15130  15127  15139     1  0.0000000  1.0460000  1
  15134  15130  15127  15139     1  0.0000000  0.0000000  3
  15134  15130  15131  15137     1  0.0000000  1.0460000  1
  15134  15130  15131  15137     1  0.0000000  0.0000000  3
  15134  15130  15138  15141     1  0.0000000  0.6973333  3
  15135  15132  15131  15137     1  0.0000000  0.6508444  3
  15144  15140  15126  15148     1  0.0000000  1.0460000  1
  15144  15140  15126  15148     1  0.0000000  0.0000000  3
  15144  15140  15146  15147     1  0.0000000  0.6973333  3
  15145  15140  15126  15148     1  0.0000000  1.0460000  1
  15145  15140  15126  15148     1  0.0000000  0.0000000  3
  15145  15140  15146  15147     1  0.0000000  0.6973333  3
  15149  15150  15153  15157     1  0.0000000  0.6508444  3
  15149  15150  15162  15165     1  0.0000000  1.0460000  1
  15149  15150  15162  15165     1  0.0000000  0.6694400  3
  15149  15163  15169  15170     1  0.0000000  1.0460000  1
  15149  15163  15169  15170     1  0.0000000  0.6694400  3
  15149  15171  15155  15158     1  0.0000000  1.6038667  3
  15150  15153  15154  15156     1  0.0000000  0.6508444  3
  15150  15153  15161  15164     1  0.0000000  1.0460000  1
  15150  15153  15161  15164     1  0.0000000  0.6694400  3
  15150  15149  15163  15167     1  0.0000000  0.6508444  3
  15150  15149  15163  15168     1  0.0000000  0.6508444  3
  15151  15149  15150  15153     1  0.0000000  0.6508444  3
  15151  15149  15150  15162     1  0.0000000  1.0460000  1
  15151  15149  15150  15162     1  0.0000000  0.0000000  3
  15151  15149  15150  15152     1  0.0000000  0.6508444  3
  15151  15149  15163  15169     1  0.0000000  1.0460000  1
  15151  15149  15163  15169     1  0.0000000  0.0000000  3
  15151  15149  15163  15167     1  0.0000000  0.6508444  3
  15151  15149  15163  15168     1  0.0000000  0.6508444  3
  15151  15149  15171  15155     1  0.0000000  1.6038667  3
  15152  15150  15153  15154     1  0.0000000  0.6508444  3
  15152  15150  15153  15161     1  0.0000000  1.0460000  1
  15152  15150  15153  15161     1  0.0000000  0.0000000  3
  15152  15150  15153  15157     1  0.0000000  0.6508444  3
  15152  15150  15162  15165     1  0.0000000  0.6973333  3
  15152  15150  15149  15163     1  0.0000000  0.6508444  3
  15152  15150  15149  15171     1  0.0000000  1.0460000  1
  15152  15150  15149  15171     1  0.0000000  0.0000000  3
  15153  15154  15155  15158     1  0.0000000  0.6508444  3
  15153  15154  15160  15166     1  0.0000000  1.0460000  1
  15153  15154  15160  15166     1  0.0000000  0.6694400  3
  15153  15150  15162  15165     1  0.0000000  1.0460000  1
  15153  15150  15162  15165     1  0.0000000  0.6694400  3
  15154  15153  15161  15164     1  0.0000000  1.0460000  1
  15154  15153  15161  15164     1  0.0000000  0.6694400  3
  15155  15154  15160  15166     1  0.0000000  1.0460000  1
  15155  15154  15160  15166     1  0.0000000  0.6694400  3
  15155  15154  15153  15157     1  0.0000000  0.6508444  3
  15156  15154  15155  15159     1  0.0000000  1.0460000  1
  15156  15154  15155  15159     1  0.0000000  0.0000000  3
  15156  15154  15155  15171     1  0.0000000  1.0460000  1
  15156  15154  15155  15171     1  0.0000000  0.0000000  3
  15156  15154  15155  15158     1  0.0000000  0.6508444  3
  15156  15154  15160  15166     1  0.0000000  0.6973333  3
  15156  15154  15153  15161     1  0.0000000  1.0460000  1
  15156  15154  15153  15161     1  0.0000000  0.0000000  3
  15156  15154  15153  15157     1  0.0000000  0.6508444  3
  15157  15153  15154  15160     1  0.0000000  1.0460000  1
  15157  15153  15154  15160     1  0.0000000  0.0000000  3
  15157  15153  15161  15164     1  0.0000000  0.6973333  3
  15157  15153  15150  15162     1  0.0000000  1.0460000  1
  15157  15153  15150  15162     1  0.0000000  0.0000000  3
  15158  15155  15154  15160     1  0.0000000  0.6508444  3
  15167  15163  15169  15170     1  0.0000000  0.6973333  3
  15167  15163  15149  15171     1  0.0000000  1.0460000  1
  15167  15163  15149  15171     1  0.0000000  0.0000000  3
  15168  15163  15169  15170     1  0.0000000  0.6973333  3
  15168  15163  15149  15171     1  0.0000000  1.0460000  1
  15168  15163  15149  15171     1  0.0000000  0.0000000  3
  15172  15173  15176  15180     1  0.0000000  0.6508444  3
  15172  15173  15185  15188     1  0.0000000  1.0460000  1
  15172  15173  15185  15188     1  0.0000000  0.6694400  3
  15172  15186  15192  15193     1  0.0000000  1.0460000  1
  15172  15186  15192  15193     1  0.0000000  0.6694400  3
  15172  15194  15178  15181     1  0.0000000  1.6038667  3
  15173  15172  15186  15190     1  0.0000000  0.6508444  3
  15173  15172  15186  15191     1  0.0000000  0.6508444  3
  15173  15176  15177  15179     1  0.0000000  0.6508444  3
  15173  15176  15184  15187     1  0.0000000  1.0460000  1
  15173  15176  15184  15187     1  0.0000000  0.6694400  3
  15174  15172  15173  15176     1  0.0000000  0.6508444  3
  15174  15172  15173  15185     1  0.0000000  1.0460000  1
  15174  15172  15173  15185     1  0.0000000  0.0000000  3
  15174  15172  15173  15175     1  0.0000000  0.6508444  3
  15174  15172  15186  15192     1  0.0000000  1.0460000  1
  15174  15172  15186  15192     1  0.0000000  0.0000000  3
  15174  15172  15186  15190     1  0.0000000  0.6508444  3
  15174  15172  15186  15191     1  0.0000000  0.6508444  3
  15174  15172  15194  15178     1  0.0000000  1.6038667  3
  15175  15173  15172  15186     1  0.0000000  0.6508444  3
  15175  15173  15172  15194     1  0.0000000  1.0460000  1
  15175  15173  15172  15194     1  0.0000000  0.0000000  3
  15175  15173  15176  15177     1  0.0000000  0.6508444  3
  15175  15173  15176  15184     1  0.0000000  1.0460000  1
  15175  15173  15176  15184     1  0.0000000  0.0000000  3
  15175  15173  15176  15180     1  0.0000000  0.6508444  3
  15175  15173  15185  15188     1  0.0000000  0.6973333  3
  15176  15173  15185  15188     1  0.0000000  1.0460000  1
  15176  15173  15185  15188     1  0.0000000  0.6694400  3
  15176  15177  15178  15181     1  0.0000000  0.6508444  3
  15176  15177  15183  15189     1  0.0000000  1.0460000  1
  15176  15177  15183  15189     1  0.0000000  0.6694400  3
  15177  15176  15184  15187     1  0.0000000  1.0460000  1
  15177  15176  15184  15187     1  0.0000000  0.6694400  3
  15178  15177  15176  15180     1  0.0000000  0.6508444  3
  15178  15177  15183  15189     1  0.0000000  1.0460000  1
  15178  15177  15183  15189     1  0.0000000  0.6694400  3
  15179  15177  15176  15184     1  0.0000000  1.0460000  1
  15179  15177  15176  15184     1  0.0000000  0.0000000  3
  15179  15177  15176  15180     1  0.0000000  0.6508444  3
  15179  15177  15178  15182     1  0.0000000  1.0460000  1
  15179  15177  15178  15182     1  0.0000000  0.0000000  3
  15179  15177  15178  15194     1  0.0000000  1.0460000  1
  15179  15177  15178  15194     1  0.0000000  0.0000000  3
  15179  15177  15178  15181     1  0.0000000  0.6508444  3
  15179  15177  15183  15189     1  0.0000000  0.6973333  3
  15180  15176  15173  15185     1  0.0000000  1.0460000  1
  15180  15176  15173  15185     1  0.0000000  0.0000000  3
  15180  15176  15177  15183     1  0.0000000  1.0460000  1
  15180  15176  15177  15183     1  0.0000000  0.0000000  3
  15180  15176  15184  15187     1  0.0000000  0.6973333  3
  15181  15178  15177  15183     1  0.0000000  0.6508444  3
  15190  15186  15172  15194     1  0.0000000  1.0460000  1
  15190  15186  15172  15194     1  0.0000000  0.0000000  3
  15190  15186  15192  15193     1  0.0000000  0.6973333  3
  15191  15186  15172  15194     1  0.0000000  1.0460000  1
  15191  15186  15172  15194     1  0.0000000  0.0000000  3
  15191  15186  15192  15193     1  0.0000000  0.6973333  3
  15195  15196  15199  15203     1  0.0000000  0.6508444  3
  15195  15196  15208  15211     1  0.0000000  1.0460000  1
  15195  15196  15208  15211     1  0.0000000  0.6694400  3
  15195  15209  15215  15216     1  0.0000000  1.0460000  1
  15195  15209  15215  15216     1  0.0000000  0.6694400  3
  15195  15217  15201  15204     1  0.0000000  1.6038667  3
  15196  15199  15200  15202     1  0.0000000  0.6508444  3
  15196  15199  15207  15210     1  0.0000000  1.0460000  1
  15196  15199  15207  15210     1  0.0000000  0.6694400  3
  15196  15195  15209  15213     1  0.0000000  0.6508444  3
  15196  15195  15209  15214     1  0.0000000  0.6508444  3
  15197  15195  15196  15199     1  0.0000000  0.6508444  3
  15197  15195  15196  15208     1  0.0000000  1.0460000  1
  15197  15195  15196  15208     1  0.0000000  0.0000000  3
  15197  15195  15196  15198     1  0.0000000  0.6508444  3
  15197  15195  15209  15215     1  0.0000000  1.0460000  1
  15197  15195  15209  15215     1  0.0000000  0.0000000  3
  15197  15195  15209  15213     1  0.0000000  0.6508444  3
  15197  15195  15209  15214     1  0.0000000  0.6508444  3
  15197  15195  15217  15201     1  0.0000000  1.6038667  3
  15198  15196  15199  15200     1  0.0000000  0.6508444  3
  15198  15196  15199  15207     1  0.0000000  1.0460000  1
  15198  15196  15199  15207     1  0.0000000  0.0000000  3
  15198  15196  15199  15203     1  0.0000000  0.6508444  3
  15198  15196  15208  15211     1  0.0000000  0.6973333  3
  15198  15196  15195  15209     1  0.0000000  0.6508444  3
  15198  15196  15195  15217     1  0.0000000  1.0460000  1
  15198  15196  15195  15217     1  0.0000000  0.0000000  3
  15199  15200  15201  15204     1  0.0000000  0.6508444  3
  15199  15200  15206  15212     1  0.0000000  1.0460000  1
  15199  15200  15206  15212     1  0.0000000  0.6694400  3
  15199  15196  15208  15211     1  0.0000000  1.0460000  1
  15199  15196  15208  15211     1  0.0000000  0.6694400  3
  15200  15199  15207  15210     1  0.0000000  1.0460000  1
  15200  15199  15207  15210     1  0.0000000  0.6694400  3
  15201  15200  15206  15212     1  0.0000000  1.0460000  1
  15201  15200  15206  15212     1  0.0000000  0.6694400  3
  15201  15200  15199  15203     1  0.0000000  0.6508444  3
  15202  15200  15201  15205     1  0.0000000  1.0460000  1
  15202  15200  15201  15205     1  0.0000000  0.0000000  3
  15202  15200  15201  15217     1  0.0000000  1.0460000  1
  15202  15200  15201  15217     1  0.0000000  0.0000000  3
  15202  15200  15201  15204     1  0.0000000  0.6508444  3
  15202  15200  15206  15212     1  0.0000000  0.6973333  3
  15202  15200  15199  15207     1  0.0000000  1.0460000  1
  15202  15200  15199  15207     1  0.0000000  0.0000000  3
  15202  15200  15199  15203     1  0.0000000  0.6508444  3
  15203  15199  15200  15206     1  0.0000000  1.0460000  1
  15203  15199  15200  15206     1  0.0000000  0.0000000  3
  15203  15199  15207  15210     1  0.0000000  0.6973333  3
  15203  15199  15196  15208     1  0.0000000  1.0460000  1
  15203  15199  15196  15208     1  0.0000000  0.0000000  3
  15204  15201  15200  15206     1  0.0000000  0.6508444  3
  15213  15209  15215  15216     1  0.0000000  0.6973333  3
  15213  15209  15195  15217     1  0.0000000  1.0460000  1
  15213  15209  15195  15217     1  0.0000000  0.0000000  3
  15214  15209  15215  15216     1  0.0000000  0.6973333  3
  15214  15209  15195  15217     1  0.0000000  1.0460000  1
  15214  15209  15195  15217     1  0.0000000  0.0000000  3
  15218  15219  15222  15226     1  0.0000000  0.6508444  3
  15218  15219  15231  15234     1  0.0000000  1.0460000  1
  15218  15219  15231  15234     1  0.0000000  0.6694400  3
  15218  15232  15238  15239     1  0.0000000  1.0460000  1
  15218  15232  15238  15239     1  0.0000000  0.6694400  3
  15218  15240  15224  15227     1  0.0000000  1.6038667  3
  15219  15218  15232  15236     1  0.0000000  0.6508444  3
  15219  15218  15232  15237     1  0.0000000  0.6508444  3
  15219  15222  15223  15225     1  0.0000000  0.6508444  3
  15219  15222  15230  15233     1  0.0000000  1.0460000  1
  15219  15222  15230  15233     1  0.0000000  0.6694400  3
  15220  15218  15219  15222     1  0.0000000  0.6508444  3
  15220  15218  15219  15231     1  0.0000000  1.0460000  1
  15220  15218  15219  15231     1  0.0000000  0.0000000  3
  15220  15218  15219  15221     1  0.0000000  0.6508444  3
  15220  15218  15232  15238     1  0.0000000  1.0460000  1
  15220  15218  15232  15238     1  0.0000000  0.0000000  3
  15220  15218  15232  15236     1  0.0000000  0.6508444  3
  15220  15218  15232  15237     1  0.0000000  0.6508444  3
  15220  15218  15240  15224     1  0.0000000  1.6038667  3
  15221  15219  15218  15232     1  0.0000000  0.6508444  3
  15221  15219  15218  15240     1  0.0000000  1.0460000  1
  15221  15219  15218  15240     1  0.0000000  0.0000000  3
  15221  15219  15222  15223     1  0.0000000  0.6508444  3
  15221  15219  15222  15230     1  0.0000000  1.0460000  1
  15221  15219  15222  15230     1  0.0000000  0.0000000  3
  15221  15219  15222  15226     1  0.0000000  0.6508444  3
  15221  15219  15231  15234     1  0.0000000  0.6973333  3
  15222  15219  15231  15234     1  0.0000000  1.0460000  1
  15222  15219  15231  15234     1  0.0000000  0.6694400  3
  15222  15223  15224  15227     1  0.0000000  0.6508444  3
  15222  15223  15229  15235     1  0.0000000  1.0460000  1
  15222  15223  15229  15235     1  0.0000000  0.6694400  3
  15223  15222  15230  15233     1  0.0000000  1.0460000  1
  15223  15222  15230  15233     1  0.0000000  0.6694400  3
  15224  15223  15222  15226     1  0.0000000  0.6508444  3
  15224  15223  15229  15235     1  0.0000000  1.0460000  1
  15224  15223  15229  15235     1  0.0000000  0.6694400  3
  15225  15223  15222  15230     1  0.0000000  1.0460000  1
  15225  15223  15222  15230     1  0.0000000  0.0000000  3
  15225  15223  15222  15226     1  0.0000000  0.6508444  3
  15225  15223  15224  15228     1  0.0000000  1.0460000  1
  15225  15223  15224  15228     1  0.0000000  0.0000000  3
  15225  15223  15224  15240     1  0.0000000  1.0460000  1
  15225  15223  15224  15240     1  0.0000000  0.0000000  3
  15225  15223  15224  15227     1  0.0000000  0.6508444  3
  15225  15223  15229  15235     1  0.0000000  0.6973333  3
  15226  15222  15219  15231     1  0.0000000  1.0460000  1
  15226  15222  15219  15231     1  0.0000000  0.0000000  3
  15226  15222  15223  15229     1  0.0000000  1.0460000  1
  15226  15222  15223  15229     1  0.0000000  0.0000000  3
  15226  15222  15230  15233     1  0.0000000  0.6973333  3
  15227  15224  15223  15229     1  0.0000000  0.6508444  3
  15236  15232  15218  15240     1  0.0000000  1.0460000  1
  15236  15232  15218  15240     1  0.0000000  0.0000000  3
  15236  15232  15238  15239     1  0.0000000  0.6973333  3
  15237  15232  15218  15240     1  0.0000000  1.0460000  1
  15237  15232  15218  15240     1  0.0000000  0.0000000  3
  15237  15232  15238  15239     1  0.0000000  0.6973333  3
  15241  15242  15245  15249     1  0.0000000  0.6508444  3
  15241  15242  15254  15257     1  0.0000000  1.0460000  1
  15241  15242  15254  15257     1  0.0000000  0.6694400  3
  15241  15255  15261  15262     1  0.0000000  1.0460000  1
  15241  15255  15261  15262     1  0.0000000  0.6694400  3
  15241  15263  15247  15250     1  0.0000000  1.6038667  3
  15242  15245  15246  15248     1  0.0000000  0.6508444  3
  15242  15245  15253  15256     1  0.0000000  1.0460000  1
  15242  15245  15253  15256     1  0.0000000  0.6694400  3
  15242  15241  15255  15259     1  0.0000000  0.6508444  3
  15242  15241  15255  15260     1  0.0000000  0.6508444  3
  15243  15241  15242  15245     1  0.0000000  0.6508444  3
  15243  15241  15242  15254     1  0.0000000  1.0460000  1
  15243  15241  15242  15254     1  0.0000000  0.0000000  3
  15243  15241  15242  15244     1  0.0000000  0.6508444  3
  15243  15241  15255  15261     1  0.0000000  1.0460000  1
  15243  15241  15255  15261     1  0.0000000  0.0000000  3
  15243  15241  15255  15259     1  0.0000000  0.6508444  3
  15243  15241  15255  15260     1  0.0000000  0.6508444  3
  15243  15241  15263  15247     1  0.0000000  1.6038667  3
  15244  15242  15245  15246     1  0.0000000  0.6508444  3
  15244  15242  15245  15253     1  0.0000000  1.0460000  1
  15244  15242  15245  15253     1  0.0000000  0.0000000  3
  15244  15242  15245  15249     1  0.0000000  0.6508444  3
  15244  15242  15254  15257     1  0.0000000  0.6973333  3
  15244  15242  15241  15255     1  0.0000000  0.6508444  3
  15244  15242  15241  15263     1  0.0000000  1.0460000  1
  15244  15242  15241  15263     1  0.0000000  0.0000000  3
  15245  15246  15247  15250     1  0.0000000  0.6508444  3
  15245  15246  15252  15258     1  0.0000000  1.0460000  1
  15245  15246  15252  15258     1  0.0000000  0.6694400  3
  15245  15242  15254  15257     1  0.0000000  1.0460000  1
  15245  15242  15254  15257     1  0.0000000  0.6694400  3
  15246  15245  15253  15256     1  0.0000000  1.0460000  1
  15246  15245  15253  15256     1  0.0000000  0.6694400  3
  15247  15246  15252  15258     1  0.0000000  1.0460000  1
  15247  15246  15252  15258     1  0.0000000  0.6694400  3
  15247  15246  15245  15249     1  0.0000000  0.6508444  3
  15248  15246  15247  15251     1  0.0000000  1.0460000  1
  15248  15246  15247  15251     1  0.0000000  0.0000000  3
  15248  15246  15247  15263     1  0.0000000  1.0460000  1
  15248  15246  15247  15263     1  0.0000000  0.0000000  3
  15248  15246  15247  15250     1  0.0000000  0.6508444  3
  15248  15246  15252  15258     1  0.0000000  0.6973333  3
  15248  15246  15245  15253     1  0.0000000  1.0460000  1
  15248  15246  15245  15253     1  0.0000000  0.0000000  3
  15248  15246  15245  15249     1  0.0000000  0.6508444  3
  15249  15245  15246  15252     1  0.0000000  1.0460000  1
  15249  15245  15246  15252     1  0.0000000  0.0000000  3
  15249  15245  15253  15256     1  0.0000000  0.6973333  3
  15249  15245  15242  15254     1  0.0000000  1.0460000  1
  15249  15245  15242  15254     1  0.0000000  0.0000000  3
  15250  15247  15246  15252     1  0.0000000  0.6508444  3
  15259  15255  15261  15262     1  0.0000000  0.6973333  3
  15259  15255  15241  15263     1  0.0000000  1.0460000  1
  15259  15255  15241  15263     1  0.0000000  0.0000000  3
  15260  15255  15261  15262     1  0.0000000  0.6973333  3
  15260  15255  15241  15263     1  0.0000000  1.0460000  1
  15260  15255  15241  15263     1  0.0000000  0.0000000  3
  15264  15265  15268  15272     1  0.0000000  0.6508444  3
  15264  15265  15277  15280     1  0.0000000  1.0460000  1
  15264  15265  15277  15280     1  0.0000000  0.6694400  3
  15264  15278  15284  15285     1  0.0000000  1.0460000  1
  15264  15278  15284  15285     1  0.0000000  0.6694400  3
  15264  15286  15270  15273     1  0.0000000  1.6038667  3
  15265  15264  15278  15282     1  0.0000000  0.6508444  3
  15265  15264  15278  15283     1  0.0000000  0.6508444  3
  15265  15268  15269  15271     1  0.0000000  0.6508444  3
  15265  15268  15276  15279     1  0.0000000  1.0460000  1
  15265  15268  15276  15279     1  0.0000000  0.6694400  3
  15266  15264  15265  15268     1  0.0000000  0.6508444  3
  15266  15264  15265  15277     1  0.0000000  1.0460000  1
  15266  15264  15265  15277     1  0.0000000  0.0000000  3
  15266  15264  15265  15267     1  0.0000000  0.6508444  3
  15266  15264  15278  15284     1  0.0000000  1.0460000  1
  15266  15264  15278  15284     1  0.0000000  0.0000000  3
  15266  15264  15278  15282     1  0.0000000  0.6508444  3
  15266  15264  15278  15283     1  0.0000000  0.6508444  3
  15266  15264  15286  15270     1  0.0000000  1.6038667  3
  15267  15265  15264  15278     1  0.0000000  0.6508444  3
  15267  15265  15264  15286     1  0.0000000  1.0460000  1
  15267  15265  15264  15286     1  0.0000000  0.0000000  3
  15267  15265  15268  15269     1  0.0000000  0.6508444  3
  15267  15265  15268  15276     1  0.0000000  1.0460000  1
  15267  15265  15268  15276     1  0.0000000  0.0000000  3
  15267  15265  15268  15272     1  0.0000000  0.6508444  3
  15267  15265  15277  15280     1  0.0000000  0.6973333  3
  15268  15265  15277  15280     1  0.0000000  1.0460000  1
  15268  15265  15277  15280     1  0.0000000  0.6694400  3
  15268  15269  15270  15273     1  0.0000000  0.6508444  3
  15268  15269  15275  15281     1  0.0000000  1.0460000  1
  15268  15269  15275  15281     1  0.0000000  0.6694400  3
  15269  15268  15276  15279     1  0.0000000  1.0460000  1
  15269  15268  15276  15279     1  0.0000000  0.6694400  3
  15270  15269  15268  15272     1  0.0000000  0.6508444  3
  15270  15269  15275  15281     1  0.0000000  1.0460000  1
  15270  15269  15275  15281     1  0.0000000  0.6694400  3
  15271  15269  15268  15276     1  0.0000000  1.0460000  1
  15271  15269  15268  15276     1  0.0000000  0.0000000  3
  15271  15269  15268  15272     1  0.0000000  0.6508444  3
  15271  15269  15270  15274     1  0.0000000  1.0460000  1
  15271  15269  15270  15274     1  0.0000000  0.0000000  3
  15271  15269  15270  15286     1  0.0000000  1.0460000  1
  15271  15269  15270  15286     1  0.0000000  0.0000000  3
  15271  15269  15270  15273     1  0.0000000  0.6508444  3
  15271  15269  15275  15281     1  0.0000000  0.6973333  3
  15272  15268  15265  15277     1  0.0000000  1.0460000  1
  15272  15268  15265  15277     1  0.0000000  0.0000000  3
  15272  15268  15269  15275     1  0.0000000  1.0460000  1
  15272  15268  15269  15275     1  0.0000000  0.0000000  3
  15272  15268  15276  15279     1  0.0000000  0.6973333  3
  15273  15270  15269  15275     1  0.0000000  0.6508444  3
  15282  15278  15264  15286     1  0.0000000  1.0460000  1
  15282  15278  15264  15286     1  0.0000000  0.0000000  3
  15282  15278  15284  15285     1  0.0000000  0.6973333  3
  15283  15278  15264  15286     1  0.0000000  1.0460000  1
  15283  15278  15264  15286     1  0.0000000  0.0000000  3
  15283  15278  15284  15285     1  0.0000000  0.6973333  3
  15287  15288  15291  15295     1  0.0000000  0.6508444  3
  15287  15288  15300  15303     1  0.0000000  1.0460000  1
  15287  15288  15300  15303     1  0.0000000  0.6694400  3
  15287  15301  15307  15308     1  0.0000000  1.0460000  1
  15287  15301  15307  15308     1  0.0000000  0.6694400  3
  15287  15309  15293  15296     1  0.0000000  1.6038667  3
  15288  15291  15292  15294     1  0.0000000  0.6508444  3
  15288  15291  15299  15302     1  0.0000000  1.0460000  1
  15288  15291  15299  15302     1  0.0000000  0.6694400  3
  15288  15287  15301  15305     1  0.0000000  0.6508444  3
  15288  15287  15301  15306     1  0.0000000  0.6508444  3
  15289  15287  15288  15291     1  0.0000000  0.6508444  3
  15289  15287  15288  15300     1  0.0000000  1.0460000  1
  15289  15287  15288  15300     1  0.0000000  0.0000000  3
  15289  15287  15288  15290     1  0.0000000  0.6508444  3
  15289  15287  15301  15307     1  0.0000000  1.0460000  1
  15289  15287  15301  15307     1  0.0000000  0.0000000  3
  15289  15287  15301  15305     1  0.0000000  0.6508444  3
  15289  15287  15301  15306     1  0.0000000  0.6508444  3
  15289  15287  15309  15293     1  0.0000000  1.6038667  3
  15290  15288  15291  15292     1  0.0000000  0.6508444  3
  15290  15288  15291  15299     1  0.0000000  1.0460000  1
  15290  15288  15291  15299     1  0.0000000  0.0000000  3
  15290  15288  15291  15295     1  0.0000000  0.6508444  3
  15290  15288  15300  15303     1  0.0000000  0.6973333  3
  15290  15288  15287  15301     1  0.0000000  0.6508444  3
  15290  15288  15287  15309     1  0.0000000  1.0460000  1
  15290  15288  15287  15309     1  0.0000000  0.0000000  3
  15291  15292  15293  15296     1  0.0000000  0.6508444  3
  15291  15292  15298  15304     1  0.0000000  1.0460000  1
  15291  15292  15298  15304     1  0.0000000  0.6694400  3
  15291  15288  15300  15303     1  0.0000000  1.0460000  1
  15291  15288  15300  15303     1  0.0000000  0.6694400  3
  15292  15291  15299  15302     1  0.0000000  1.0460000  1
  15292  15291  15299  15302     1  0.0000000  0.6694400  3
  15293  15292  15298  15304     1  0.0000000  1.0460000  1
  15293  15292  15298  15304     1  0.0000000  0.6694400  3
  15293  15292  15291  15295     1  0.0000000  0.6508444  3
  15294  15292  15293  15297     1  0.0000000  1.0460000  1
  15294  15292  15293  15297     1  0.0000000  0.0000000  3
  15294  15292  15293  15309     1  0.0000000  1.0460000  1
  15294  15292  15293  15309     1  0.0000000  0.0000000  3
  15294  15292  15293  15296     1  0.0000000  0.6508444  3
  15294  15292  15298  15304     1  0.0000000  0.6973333  3
  15294  15292  15291  15299     1  0.0000000  1.0460000  1
  15294  15292  15291  15299     1  0.0000000  0.0000000  3
  15294  15292  15291  15295     1  0.0000000  0.6508444  3
  15295  15291  15292  15298     1  0.0000000  1.0460000  1
  15295  15291  15292  15298     1  0.0000000  0.0000000  3
  15295  15291  15299  15302     1  0.0000000  0.6973333  3
  15295  15291  15288  15300     1  0.0000000  1.0460000  1
  15295  15291  15288  15300     1  0.0000000  0.0000000  3
  15296  15293  15292  15298     1  0.0000000  0.6508444  3
  15305  15301  15307  15308     1  0.0000000  0.6973333  3
  15305  15301  15287  15309     1  0.0000000  1.0460000  1
  15305  15301  15287  15309     1  0.0000000  0.0000000  3
  15306  15301  15307  15308     1  0.0000000  0.6973333  3
  15306  15301  15287  15309     1  0.0000000  1.0460000  1
  15306  15301  15287  15309     1  0.0000000  0.0000000  3
  15310  15311  15314  15318     1  0.0000000  0.6508444  3
  15310  15311  15323  15326     1  0.0000000  1.0460000  1
  15310  15311  15323  15326     1  0.0000000  0.6694400  3
  15310  15324  15330  15331     1  0.0000000  1.0460000  1
  15310  15324  15330  15331     1  0.0000000  0.6694400  3
  15310  15332  15316  15319     1  0.0000000  1.6038667  3
  15311  15310  15324  15328     1  0.0000000  0.6508444  3
  15311  15310  15324  15329     1  0.0000000  0.6508444  3
  15311  15314  15315  15317     1  0.0000000  0.6508444  3
  15311  15314  15322  15325     1  0.0000000  1.0460000  1
  15311  15314  15322  15325     1  0.0000000  0.6694400  3
  15312  15310  15311  15314     1  0.0000000  0.6508444  3
  15312  15310  15311  15323     1  0.0000000  1.0460000  1
  15312  15310  15311  15323     1  0.0000000  0.0000000  3
  15312  15310  15311  15313     1  0.0000000  0.6508444  3
  15312  15310  15324  15330     1  0.0000000  1.0460000  1
  15312  15310  15324  15330     1  0.0000000  0.0000000  3
  15312  15310  15324  15328     1  0.0000000  0.6508444  3
  15312  15310  15324  15329     1  0.0000000  0.6508444  3
  15312  15310  15332  15316     1  0.0000000  1.6038667  3
  15313  15311  15310  15324     1  0.0000000  0.6508444  3
  15313  15311  15310  15332     1  0.0000000  1.0460000  1
  15313  15311  15310  15332     1  0.0000000  0.0000000  3
  15313  15311  15314  15315     1  0.0000000  0.6508444  3
  15313  15311  15314  15322     1  0.0000000  1.0460000  1
  15313  15311  15314  15322     1  0.0000000  0.0000000  3
  15313  15311  15314  15318     1  0.0000000  0.6508444  3
  15313  15311  15323  15326     1  0.0000000  0.6973333  3
  15314  15311  15323  15326     1  0.0000000  1.0460000  1
  15314  15311  15323  15326     1  0.0000000  0.6694400  3
  15314  15315  15316  15319     1  0.0000000  0.6508444  3
  15314  15315  15321  15327     1  0.0000000  1.0460000  1
  15314  15315  15321  15327     1  0.0000000  0.6694400  3
  15315  15314  15322  15325     1  0.0000000  1.0460000  1
  15315  15314  15322  15325     1  0.0000000  0.6694400  3
  15316  15315  15314  15318     1  0.0000000  0.6508444  3
  15316  15315  15321  15327     1  0.0000000  1.0460000  1
  15316  15315  15321  15327     1  0.0000000  0.6694400  3
  15317  15315  15314  15322     1  0.0000000  1.0460000  1
  15317  15315  15314  15322     1  0.0000000  0.0000000  3
  15317  15315  15314  15318     1  0.0000000  0.6508444  3
  15317  15315  15316  15320     1  0.0000000  1.0460000  1
  15317  15315  15316  15320     1  0.0000000  0.0000000  3
  15317  15315  15316  15332     1  0.0000000  1.0460000  1
  15317  15315  15316  15332     1  0.0000000  0.0000000  3
  15317  15315  15316  15319     1  0.0000000  0.6508444  3
  15317  15315  15321  15327     1  0.0000000  0.6973333  3
  15318  15314  15311  15323     1  0.0000000  1.0460000  1
  15318  15314  15311  15323     1  0.0000000  0.0000000  3
  15318  15314  15315  15321     1  0.0000000  1.0460000  1
  15318  15314  15315  15321     1  0.0000000  0.0000000  3
  15318  15314  15322  15325     1  0.0000000  0.6973333  3
  15319  15316  15315  15321     1  0.0000000  0.6508444  3
  15328  15324  15310  15332     1  0.0000000  1.0460000  1
  15328  15324  15310  15332     1  0.0000000  0.0000000  3
  15328  15324  15330  15331     1  0.0000000  0.6973333  3
  15329  15324  15310  15332     1  0.0000000  1.0460000  1
  15329  15324  15310  15332     1  0.0000000  0.0000000  3
  15329  15324  15330  15331     1  0.0000000  0.6973333  3
  15333  15334  15337  15341     1  0.0000000  0.6508444  3
  15333  15334  15346  15349     1  0.0000000  1.0460000  1
  15333  15334  15346  15349     1  0.0000000  0.6694400  3
  15333  15347  15353  15354     1  0.0000000  1.0460000  1
  15333  15347  15353  15354     1  0.0000000  0.6694400  3
  15333  15355  15339  15342     1  0.0000000  1.6038667  3
  15334  15337  15338  15340     1  0.0000000  0.6508444  3
  15334  15337  15345  15348     1  0.0000000  1.0460000  1
  15334  15337  15345  15348     1  0.0000000  0.6694400  3
  15334  15333  15347  15351     1  0.0000000  0.6508444  3
  15334  15333  15347  15352     1  0.0000000  0.6508444  3
  15335  15333  15334  15337     1  0.0000000  0.6508444  3
  15335  15333  15334  15346     1  0.0000000  1.0460000  1
  15335  15333  15334  15346     1  0.0000000  0.0000000  3
  15335  15333  15334  15336     1  0.0000000  0.6508444  3
  15335  15333  15347  15353     1  0.0000000  1.0460000  1
  15335  15333  15347  15353     1  0.0000000  0.0000000  3
  15335  15333  15347  15351     1  0.0000000  0.6508444  3
  15335  15333  15347  15352     1  0.0000000  0.6508444  3
  15335  15333  15355  15339     1  0.0000000  1.6038667  3
  15336  15334  15337  15338     1  0.0000000  0.6508444  3
  15336  15334  15337  15345     1  0.0000000  1.0460000  1
  15336  15334  15337  15345     1  0.0000000  0.0000000  3
  15336  15334  15337  15341     1  0.0000000  0.6508444  3
  15336  15334  15346  15349     1  0.0000000  0.6973333  3
  15336  15334  15333  15347     1  0.0000000  0.6508444  3
  15336  15334  15333  15355     1  0.0000000  1.0460000  1
  15336  15334  15333  15355     1  0.0000000  0.0000000  3
  15337  15338  15339  15342     1  0.0000000  0.6508444  3
  15337  15338  15344  15350     1  0.0000000  1.0460000  1
  15337  15338  15344  15350     1  0.0000000  0.6694400  3
  15337  15334  15346  15349     1  0.0000000  1.0460000  1
  15337  15334  15346  15349     1  0.0000000  0.6694400  3
  15338  15337  15345  15348     1  0.0000000  1.0460000  1
  15338  15337  15345  15348     1  0.0000000  0.6694400  3
  15339  15338  15344  15350     1  0.0000000  1.0460000  1
  15339  15338  15344  15350     1  0.0000000  0.6694400  3
  15339  15338  15337  15341     1  0.0000000  0.6508444  3
  15340  15338  15339  15343     1  0.0000000  1.0460000  1
  15340  15338  15339  15343     1  0.0000000  0.0000000  3
  15340  15338  15339  15355     1  0.0000000  1.0460000  1
  15340  15338  15339  15355     1  0.0000000  0.0000000  3
  15340  15338  15339  15342     1  0.0000000  0.6508444  3
  15340  15338  15344  15350     1  0.0000000  0.6973333  3
  15340  15338  15337  15345     1  0.0000000  1.0460000  1
  15340  15338  15337  15345     1  0.0000000  0.0000000  3
  15340  15338  15337  15341     1  0.0000000  0.6508444  3
  15341  15337  15338  15344     1  0.0000000  1.0460000  1
  15341  15337  15338  15344     1  0.0000000  0.0000000  3
  15341  15337  15345  15348     1  0.0000000  0.6973333  3
  15341  15337  15334  15346     1  0.0000000  1.0460000  1
  15341  15337  15334  15346     1  0.0000000  0.0000000  3
  15342  15339  15338  15344     1  0.0000000  0.6508444  3
  15351  15347  15353  15354     1  0.0000000  0.6973333  3
  15351  15347  15333  15355     1  0.0000000  1.0460000  1
  15351  15347  15333  15355     1  0.0000000  0.0000000  3
  15352  15347  15353  15354     1  0.0000000  0.6973333  3
  15352  15347  15333  15355     1  0.0000000  1.0460000  1
  15352  15347  15333  15355     1  0.0000000  0.0000000  3
  15356  15357  15360  15364     1  0.0000000  0.6508444  3
  15356  15357  15369  15372     1  0.0000000  1.0460000  1
  15356  15357  15369  15372     1  0.0000000  0.6694400  3
  15356  15370  15376  15377     1  0.0000000  1.0460000  1
  15356  15370  15376  15377     1  0.0000000  0.6694400  3
  15356  15378  15362  15365     1  0.0000000  1.6038667  3
  15357  15356  15370  15374     1  0.0000000  0.6508444  3
  15357  15356  15370  15375     1  0.0000000  0.6508444  3
  15357  15360  15361  15363     1  0.0000000  0.6508444  3
  15357  15360  15368  15371     1  0.0000000  1.0460000  1
  15357  15360  15368  15371     1  0.0000000  0.6694400  3
  15358  15356  15357  15360     1  0.0000000  0.6508444  3
  15358  15356  15357  15369     1  0.0000000  1.0460000  1
  15358  15356  15357  15369     1  0.0000000  0.0000000  3
  15358  15356  15357  15359     1  0.0000000  0.6508444  3
  15358  15356  15370  15376     1  0.0000000  1.0460000  1
  15358  15356  15370  15376     1  0.0000000  0.0000000  3
  15358  15356  15370  15374     1  0.0000000  0.6508444  3
  15358  15356  15370  15375     1  0.0000000  0.6508444  3
  15358  15356  15378  15362     1  0.0000000  1.6038667  3
  15359  15357  15356  15370     1  0.0000000  0.6508444  3
  15359  15357  15356  15378     1  0.0000000  1.0460000  1
  15359  15357  15356  15378     1  0.0000000  0.0000000  3
  15359  15357  15360  15361     1  0.0000000  0.6508444  3
  15359  15357  15360  15368     1  0.0000000  1.0460000  1
  15359  15357  15360  15368     1  0.0000000  0.0000000  3
  15359  15357  15360  15364     1  0.0000000  0.6508444  3
  15359  15357  15369  15372     1  0.0000000  0.6973333  3
  15360  15357  15369  15372     1  0.0000000  1.0460000  1
  15360  15357  15369  15372     1  0.0000000  0.6694400  3
  15360  15361  15362  15365     1  0.0000000  0.6508444  3
  15360  15361  15367  15373     1  0.0000000  1.0460000  1
  15360  15361  15367  15373     1  0.0000000  0.6694400  3
  15361  15360  15368  15371     1  0.0000000  1.0460000  1
  15361  15360  15368  15371     1  0.0000000  0.6694400  3
  15362  15361  15360  15364     1  0.0000000  0.6508444  3
  15362  15361  15367  15373     1  0.0000000  1.0460000  1
  15362  15361  15367  15373     1  0.0000000  0.6694400  3
  15363  15361  15360  15368     1  0.0000000  1.0460000  1
  15363  15361  15360  15368     1  0.0000000  0.0000000  3
  15363  15361  15360  15364     1  0.0000000  0.6508444  3
  15363  15361  15362  15366     1  0.0000000  1.0460000  1
  15363  15361  15362  15366     1  0.0000000  0.0000000  3
  15363  15361  15362  15378     1  0.0000000  1.0460000  1
  15363  15361  15362  15378     1  0.0000000  0.0000000  3
  15363  15361  15362  15365     1  0.0000000  0.6508444  3
  15363  15361  15367  15373     1  0.0000000  0.6973333  3
  15364  15360  15357  15369     1  0.0000000  1.0460000  1
  15364  15360  15357  15369     1  0.0000000  0.0000000  3
  15364  15360  15361  15367     1  0.0000000  1.0460000  1
  15364  15360  15361  15367     1  0.0000000  0.0000000  3
  15364  15360  15368  15371     1  0.0000000  0.6973333  3
  15365  15362  15361  15367     1  0.0000000  0.6508444  3
  15374  15370  15356  15378     1  0.0000000  1.0460000  1
  15374  15370  15356  15378     1  0.0000000  0.0000000  3
  15374  15370  15376  15377     1  0.0000000  0.6973333  3
  15375  15370  15356  15378     1  0.0000000  1.0460000  1
  15375  15370  15356  15378     1  0.0000000  0.0000000  3
  15375  15370  15376  15377     1  0.0000000  0.6973333  3
  15379  15380  15383  15387     1  0.0000000  0.6508444  3
  15379  15380  15392  15395     1  0.0000000  1.0460000  1
  15379  15380  15392  15395     1  0.0000000  0.6694400  3
  15379  15393  15399  15400     1  0.0000000  1.0460000  1
  15379  15393  15399  15400     1  0.0000000  0.6694400  3
  15379  15401  15385  15388     1  0.0000000  1.6038667  3
  15380  15383  15384  15386     1  0.0000000  0.6508444  3
  15380  15383  15391  15394     1  0.0000000  1.0460000  1
  15380  15383  15391  15394     1  0.0000000  0.6694400  3
  15380  15379  15393  15397     1  0.0000000  0.6508444  3
  15380  15379  15393  15398     1  0.0000000  0.6508444  3
  15381  15379  15380  15383     1  0.0000000  0.6508444  3
  15381  15379  15380  15392     1  0.0000000  1.0460000  1
  15381  15379  15380  15392     1  0.0000000  0.0000000  3
  15381  15379  15380  15382     1  0.0000000  0.6508444  3
  15381  15379  15393  15399     1  0.0000000  1.0460000  1
  15381  15379  15393  15399     1  0.0000000  0.0000000  3
  15381  15379  15393  15397     1  0.0000000  0.6508444  3
  15381  15379  15393  15398     1  0.0000000  0.6508444  3
  15381  15379  15401  15385     1  0.0000000  1.6038667  3
  15382  15380  15383  15384     1  0.0000000  0.6508444  3
  15382  15380  15383  15391     1  0.0000000  1.0460000  1
  15382  15380  15383  15391     1  0.0000000  0.0000000  3
  15382  15380  15383  15387     1  0.0000000  0.6508444  3
  15382  15380  15392  15395     1  0.0000000  0.6973333  3
  15382  15380  15379  15393     1  0.0000000  0.6508444  3
  15382  15380  15379  15401     1  0.0000000  1.0460000  1
  15382  15380  15379  15401     1  0.0000000  0.0000000  3
  15383  15384  15385  15388     1  0.0000000  0.6508444  3
  15383  15384  15390  15396     1  0.0000000  1.0460000  1
  15383  15384  15390  15396     1  0.0000000  0.6694400  3
  15383  15380  15392  15395     1  0.0000000  1.0460000  1
  15383  15380  15392  15395     1  0.0000000  0.6694400  3
  15384  15383  15391  15394     1  0.0000000  1.0460000  1
  15384  15383  15391  15394     1  0.0000000  0.6694400  3
  15385  15384  15390  15396     1  0.0000000  1.0460000  1
  15385  15384  15390  15396     1  0.0000000  0.6694400  3
  15385  15384  15383  15387     1  0.0000000  0.6508444  3
  15386  15384  15385  15389     1  0.0000000  1.0460000  1
  15386  15384  15385  15389     1  0.0000000  0.0000000  3
  15386  15384  15385  15401     1  0.0000000  1.0460000  1
  15386  15384  15385  15401     1  0.0000000  0.0000000  3
  15386  15384  15385  15388     1  0.0000000  0.6508444  3
  15386  15384  15390  15396     1  0.0000000  0.6973333  3
  15386  15384  15383  15391     1  0.0000000  1.0460000  1
  15386  15384  15383  15391     1  0.0000000  0.0000000  3
  15386  15384  15383  15387     1  0.0000000  0.6508444  3
  15387  15383  15384  15390     1  0.0000000  1.0460000  1
  15387  15383  15384  15390     1  0.0000000  0.0000000  3
  15387  15383  15391  15394     1  0.0000000  0.6973333  3
  15387  15383  15380  15392     1  0.0000000  1.0460000  1
  15387  15383  15380  15392     1  0.0000000  0.0000000  3
  15388  15385  15384  15390     1  0.0000000  0.6508444  3
  15397  15393  15399  15400     1  0.0000000  0.6973333  3
  15397  15393  15379  15401     1  0.0000000  1.0460000  1
  15397  15393  15379  15401     1  0.0000000  0.0000000  3
  15398  15393  15399  15400     1  0.0000000  0.6973333  3
  15398  15393  15379  15401     1  0.0000000  1.0460000  1
  15398  15393  15379  15401     1  0.0000000  0.0000000  3
  15402  15403  15406  15410     1  0.0000000  0.6508444  3
  15402  15403  15415  15418     1  0.0000000  1.0460000  1
  15402  15403  15415  15418     1  0.0000000  0.6694400  3
  15402  15416  15422  15423     1  0.0000000  1.0460000  1
  15402  15416  15422  15423     1  0.0000000  0.6694400  3
  15402  15424  15408  15411     1  0.0000000  1.6038667  3
  15403  15402  15416  15420     1  0.0000000  0.6508444  3
  15403  15402  15416  15421     1  0.0000000  0.6508444  3
  15403  15406  15407  15409     1  0.0000000  0.6508444  3
  15403  15406  15414  15417     1  0.0000000  1.0460000  1
  15403  15406  15414  15417     1  0.0000000  0.6694400  3
  15404  15402  15403  15406     1  0.0000000  0.6508444  3
  15404  15402  15403  15415     1  0.0000000  1.0460000  1
  15404  15402  15403  15415     1  0.0000000  0.0000000  3
  15404  15402  15403  15405     1  0.0000000  0.6508444  3
  15404  15402  15416  15422     1  0.0000000  1.0460000  1
  15404  15402  15416  15422     1  0.0000000  0.0000000  3
  15404  15402  15416  15420     1  0.0000000  0.6508444  3
  15404  15402  15416  15421     1  0.0000000  0.6508444  3
  15404  15402  15424  15408     1  0.0000000  1.6038667  3
  15405  15403  15402  15416     1  0.0000000  0.6508444  3
  15405  15403  15402  15424     1  0.0000000  1.0460000  1
  15405  15403  15402  15424     1  0.0000000  0.0000000  3
  15405  15403  15406  15407     1  0.0000000  0.6508444  3
  15405  15403  15406  15414     1  0.0000000  1.0460000  1
  15405  15403  15406  15414     1  0.0000000  0.0000000  3
  15405  15403  15406  15410     1  0.0000000  0.6508444  3
  15405  15403  15415  15418     1  0.0000000  0.6973333  3
  15406  15403  15415  15418     1  0.0000000  1.0460000  1
  15406  15403  15415  15418     1  0.0000000  0.6694400  3
  15406  15407  15408  15411     1  0.0000000  0.6508444  3
  15406  15407  15413  15419     1  0.0000000  1.0460000  1
  15406  15407  15413  15419     1  0.0000000  0.6694400  3
  15407  15406  15414  15417     1  0.0000000  1.0460000  1
  15407  15406  15414  15417     1  0.0000000  0.6694400  3
  15408  15407  15406  15410     1  0.0000000  0.6508444  3
  15408  15407  15413  15419     1  0.0000000  1.0460000  1
  15408  15407  15413  15419     1  0.0000000  0.6694400  3
  15409  15407  15406  15414     1  0.0000000  1.0460000  1
  15409  15407  15406  15414     1  0.0000000  0.0000000  3
  15409  15407  15406  15410     1  0.0000000  0.6508444  3
  15409  15407  15408  15412     1  0.0000000  1.0460000  1
  15409  15407  15408  15412     1  0.0000000  0.0000000  3
  15409  15407  15408  15424     1  0.0000000  1.0460000  1
  15409  15407  15408  15424     1  0.0000000  0.0000000  3
  15409  15407  15408  15411     1  0.0000000  0.6508444  3
  15409  15407  15413  15419     1  0.0000000  0.6973333  3
  15410  15406  15403  15415     1  0.0000000  1.0460000  1
  15410  15406  15403  15415     1  0.0000000  0.0000000  3
  15410  15406  15407  15413     1  0.0000000  1.0460000  1
  15410  15406  15407  15413     1  0.0000000  0.0000000  3
  15410  15406  15414  15417     1  0.0000000  0.6973333  3
  15411  15408  15407  15413     1  0.0000000  0.6508444  3
  15420  15416  15402  15424     1  0.0000000  1.0460000  1
  15420  15416  15402  15424     1  0.0000000  0.0000000  3
  15420  15416  15422  15423     1  0.0000000  0.6973333  3
  15421  15416  15402  15424     1  0.0000000  1.0460000  1
  15421  15416  15402  15424     1  0.0000000  0.0000000  3
  15421  15416  15422  15423     1  0.0000000  0.6973333  3
  15425  15426  15429  15433     1  0.0000000  0.6508444  3
  15425  15426  15438  15441     1  0.0000000  1.0460000  1
  15425  15426  15438  15441     1  0.0000000  0.6694400  3
  15425  15439  15445  15446     1  0.0000000  1.0460000  1
  15425  15439  15445  15446     1  0.0000000  0.6694400  3
  15425  15447  15431  15434     1  0.0000000  1.6038667  3
  15426  15429  15430  15432     1  0.0000000  0.6508444  3
  15426  15429  15437  15440     1  0.0000000  1.0460000  1
  15426  15429  15437  15440     1  0.0000000  0.6694400  3
  15426  15425  15439  15443     1  0.0000000  0.6508444  3
  15426  15425  15439  15444     1  0.0000000  0.6508444  3
  15427  15425  15426  15429     1  0.0000000  0.6508444  3
  15427  15425  15426  15438     1  0.0000000  1.0460000  1
  15427  15425  15426  15438     1  0.0000000  0.0000000  3
  15427  15425  15426  15428     1  0.0000000  0.6508444  3
  15427  15425  15439  15445     1  0.0000000  1.0460000  1
  15427  15425  15439  15445     1  0.0000000  0.0000000  3
  15427  15425  15439  15443     1  0.0000000  0.6508444  3
  15427  15425  15439  15444     1  0.0000000  0.6508444  3
  15427  15425  15447  15431     1  0.0000000  1.6038667  3
  15428  15426  15429  15430     1  0.0000000  0.6508444  3
  15428  15426  15429  15437     1  0.0000000  1.0460000  1
  15428  15426  15429  15437     1  0.0000000  0.0000000  3
  15428  15426  15429  15433     1  0.0000000  0.6508444  3
  15428  15426  15438  15441     1  0.0000000  0.6973333  3
  15428  15426  15425  15439     1  0.0000000  0.6508444  3
  15428  15426  15425  15447     1  0.0000000  1.0460000  1
  15428  15426  15425  15447     1  0.0000000  0.0000000  3
  15429  15430  15431  15434     1  0.0000000  0.6508444  3
  15429  15430  15436  15442     1  0.0000000  1.0460000  1
  15429  15430  15436  15442     1  0.0000000  0.6694400  3
  15429  15426  15438  15441     1  0.0000000  1.0460000  1
  15429  15426  15438  15441     1  0.0000000  0.6694400  3
  15430  15429  15437  15440     1  0.0000000  1.0460000  1
  15430  15429  15437  15440     1  0.0000000  0.6694400  3
  15431  15430  15436  15442     1  0.0000000  1.0460000  1
  15431  15430  15436  15442     1  0.0000000  0.6694400  3
  15431  15430  15429  15433     1  0.0000000  0.6508444  3
  15432  15430  15431  15435     1  0.0000000  1.0460000  1
  15432  15430  15431  15435     1  0.0000000  0.0000000  3
  15432  15430  15431  15447     1  0.0000000  1.0460000  1
  15432  15430  15431  15447     1  0.0000000  0.0000000  3
  15432  15430  15431  15434     1  0.0000000  0.6508444  3
  15432  15430  15436  15442     1  0.0000000  0.6973333  3
  15432  15430  15429  15437     1  0.0000000  1.0460000  1
  15432  15430  15429  15437     1  0.0000000  0.0000000  3
  15432  15430  15429  15433     1  0.0000000  0.6508444  3
  15433  15429  15430  15436     1  0.0000000  1.0460000  1
  15433  15429  15430  15436     1  0.0000000  0.0000000  3
  15433  15429  15437  15440     1  0.0000000  0.6973333  3
  15433  15429  15426  15438     1  0.0000000  1.0460000  1
  15433  15429  15426  15438     1  0.0000000  0.0000000  3
  15434  15431  15430  15436     1  0.0000000  0.6508444  3
  15443  15439  15445  15446     1  0.0000000  0.6973333  3
  15443  15439  15425  15447     1  0.0000000  1.0460000  1
  15443  15439  15425  15447     1  0.0000000  0.0000000  3
  15444  15439  15445  15446     1  0.0000000  0.6973333  3
  15444  15439  15425  15447     1  0.0000000  1.0460000  1
  15444  15439  15425  15447     1  0.0000000  0.0000000  3
  15448  15449  15452  15456     1  0.0000000  0.6508444  3
  15448  15449  15461  15464     1  0.0000000  1.0460000  1
  15448  15449  15461  15464     1  0.0000000  0.6694400  3
  15448  15462  15468  15469     1  0.0000000  1.0460000  1
  15448  15462  15468  15469     1  0.0000000  0.6694400  3
  15448  15470  15454  15457     1  0.0000000  1.6038667  3
  15449  15448  15462  15466     1  0.0000000  0.6508444  3
  15449  15448  15462  15467     1  0.0000000  0.6508444  3
  15449  15452  15453  15455     1  0.0000000  0.6508444  3
  15449  15452  15460  15463     1  0.0000000  1.0460000  1
  15449  15452  15460  15463     1  0.0000000  0.6694400  3
  15450  15448  15449  15452     1  0.0000000  0.6508444  3
  15450  15448  15449  15461     1  0.0000000  1.0460000  1
  15450  15448  15449  15461     1  0.0000000  0.0000000  3
  15450  15448  15449  15451     1  0.0000000  0.6508444  3
  15450  15448  15462  15468     1  0.0000000  1.0460000  1
  15450  15448  15462  15468     1  0.0000000  0.0000000  3
  15450  15448  15462  15466     1  0.0000000  0.6508444  3
  15450  15448  15462  15467     1  0.0000000  0.6508444  3
  15450  15448  15470  15454     1  0.0000000  1.6038667  3
  15451  15449  15448  15462     1  0.0000000  0.6508444  3
  15451  15449  15448  15470     1  0.0000000  1.0460000  1
  15451  15449  15448  15470     1  0.0000000  0.0000000  3
  15451  15449  15452  15453     1  0.0000000  0.6508444  3
  15451  15449  15452  15460     1  0.0000000  1.0460000  1
  15451  15449  15452  15460     1  0.0000000  0.0000000  3
  15451  15449  15452  15456     1  0.0000000  0.6508444  3
  15451  15449  15461  15464     1  0.0000000  0.6973333  3
  15452  15449  15461  15464     1  0.0000000  1.0460000  1
  15452  15449  15461  15464     1  0.0000000  0.6694400  3
  15452  15453  15454  15457     1  0.0000000  0.6508444  3
  15452  15453  15459  15465     1  0.0000000  1.0460000  1
  15452  15453  15459  15465     1  0.0000000  0.6694400  3
  15453  15452  15460  15463     1  0.0000000  1.0460000  1
  15453  15452  15460  15463     1  0.0000000  0.6694400  3
  15454  15453  15452  15456     1  0.0000000  0.6508444  3
  15454  15453  15459  15465     1  0.0000000  1.0460000  1
  15454  15453  15459  15465     1  0.0000000  0.6694400  3
  15455  15453  15452  15460     1  0.0000000  1.0460000  1
  15455  15453  15452  15460     1  0.0000000  0.0000000  3
  15455  15453  15452  15456     1  0.0000000  0.6508444  3
  15455  15453  15454  15458     1  0.0000000  1.0460000  1
  15455  15453  15454  15458     1  0.0000000  0.0000000  3
  15455  15453  15454  15470     1  0.0000000  1.0460000  1
  15455  15453  15454  15470     1  0.0000000  0.0000000  3
  15455  15453  15454  15457     1  0.0000000  0.6508444  3
  15455  15453  15459  15465     1  0.0000000  0.6973333  3
  15456  15452  15449  15461     1  0.0000000  1.0460000  1
  15456  15452  15449  15461     1  0.0000000  0.0000000  3
  15456  15452  15453  15459     1  0.0000000  1.0460000  1
  15456  15452  15453  15459     1  0.0000000  0.0000000  3
  15456  15452  15460  15463     1  0.0000000  0.6973333  3
  15457  15454  15453  15459     1  0.0000000  0.6508444  3
  15466  15462  15448  15470     1  0.0000000  1.0460000  1
  15466  15462  15448  15470     1  0.0000000  0.0000000  3
  15466  15462  15468  15469     1  0.0000000  0.6973333  3
  15467  15462  15448  15470     1  0.0000000  1.0460000  1
  15467  15462  15448  15470     1  0.0000000  0.0000000  3
  15467  15462  15468  15469     1  0.0000000  0.6973333  3
  15471  15472  15475  15479     1  0.0000000  0.6508444  3
  15471  15472  15484  15487     1  0.0000000  1.0460000  1
  15471  15472  15484  15487     1  0.0000000  0.6694400  3
  15471  15485  15491  15492     1  0.0000000  1.0460000  1
  15471  15485  15491  15492     1  0.0000000  0.6694400  3
  15471  15493  15477  15480     1  0.0000000  1.6038667  3
  15472  15475  15476  15478     1  0.0000000  0.6508444  3
  15472  15475  15483  15486     1  0.0000000  1.0460000  1
  15472  15475  15483  15486     1  0.0000000  0.6694400  3
  15472  15471  15485  15489     1  0.0000000  0.6508444  3
  15472  15471  15485  15490     1  0.0000000  0.6508444  3
  15473  15471  15472  15475     1  0.0000000  0.6508444  3
  15473  15471  15472  15484     1  0.0000000  1.0460000  1
  15473  15471  15472  15484     1  0.0000000  0.0000000  3
  15473  15471  15472  15474     1  0.0000000  0.6508444  3
  15473  15471  15485  15491     1  0.0000000  1.0460000  1
  15473  15471  15485  15491     1  0.0000000  0.0000000  3
  15473  15471  15485  15489     1  0.0000000  0.6508444  3
  15473  15471  15485  15490     1  0.0000000  0.6508444  3
  15473  15471  15493  15477     1  0.0000000  1.6038667  3
  15474  15472  15475  15476     1  0.0000000  0.6508444  3
  15474  15472  15475  15483     1  0.0000000  1.0460000  1
  15474  15472  15475  15483     1  0.0000000  0.0000000  3
  15474  15472  15475  15479     1  0.0000000  0.6508444  3
  15474  15472  15484  15487     1  0.0000000  0.6973333  3
  15474  15472  15471  15485     1  0.0000000  0.6508444  3
  15474  15472  15471  15493     1  0.0000000  1.0460000  1
  15474  15472  15471  15493     1  0.0000000  0.0000000  3
  15475  15476  15477  15480     1  0.0000000  0.6508444  3
  15475  15476  15482  15488     1  0.0000000  1.0460000  1
  15475  15476  15482  15488     1  0.0000000  0.6694400  3
  15475  15472  15484  15487     1  0.0000000  1.0460000  1
  15475  15472  15484  15487     1  0.0000000  0.6694400  3
  15476  15475  15483  15486     1  0.0000000  1.0460000  1
  15476  15475  15483  15486     1  0.0000000  0.6694400  3
  15477  15476  15482  15488     1  0.0000000  1.0460000  1
  15477  15476  15482  15488     1  0.0000000  0.6694400  3
  15477  15476  15475  15479     1  0.0000000  0.6508444  3
  15478  15476  15477  15481     1  0.0000000  1.0460000  1
  15478  15476  15477  15481     1  0.0000000  0.0000000  3
  15478  15476  15477  15493     1  0.0000000  1.0460000  1
  15478  15476  15477  15493     1  0.0000000  0.0000000  3
  15478  15476  15477  15480     1  0.0000000  0.6508444  3
  15478  15476  15482  15488     1  0.0000000  0.6973333  3
  15478  15476  15475  15483     1  0.0000000  1.0460000  1
  15478  15476  15475  15483     1  0.0000000  0.0000000  3
  15478  15476  15475  15479     1  0.0000000  0.6508444  3
  15479  15475  15476  15482     1  0.0000000  1.0460000  1
  15479  15475  15476  15482     1  0.0000000  0.0000000  3
  15479  15475  15483  15486     1  0.0000000  0.6973333  3
  15479  15475  15472  15484     1  0.0000000  1.0460000  1
  15479  15475  15472  15484     1  0.0000000  0.0000000  3
  15480  15477  15476  15482     1  0.0000000  0.6508444  3
  15489  15485  15491  15492     1  0.0000000  0.6973333  3
  15489  15485  15471  15493     1  0.0000000  1.0460000  1
  15489  15485  15471  15493     1  0.0000000  0.0000000  3
  15490  15485  15491  15492     1  0.0000000  0.6973333  3
  15490  15485  15471  15493     1  0.0000000  1.0460000  1
  15490  15485  15471  15493     1  0.0000000  0.0000000  3
  15494  15495  15498  15502     1  0.0000000  0.6508444  3
  15494  15495  15507  15510     1  0.0000000  1.0460000  1
  15494  15495  15507  15510     1  0.0000000  0.6694400  3
  15494  15508  15514  15515     1  0.0000000  1.0460000  1
  15494  15508  15514  15515     1  0.0000000  0.6694400  3
  15494  15516  15500  15503     1  0.0000000  1.6038667  3
  15495  15494  15508  15512     1  0.0000000  0.6508444  3
  15495  15494  15508  15513     1  0.0000000  0.6508444  3
  15495  15498  15499  15501     1  0.0000000  0.6508444  3
  15495  15498  15506  15509     1  0.0000000  1.0460000  1
  15495  15498  15506  15509     1  0.0000000  0.6694400  3
  15496  15494  15495  15498     1  0.0000000  0.6508444  3
  15496  15494  15495  15507     1  0.0000000  1.0460000  1
  15496  15494  15495  15507     1  0.0000000  0.0000000  3
  15496  15494  15495  15497     1  0.0000000  0.6508444  3
  15496  15494  15508  15514     1  0.0000000  1.0460000  1
  15496  15494  15508  15514     1  0.0000000  0.0000000  3
  15496  15494  15508  15512     1  0.0000000  0.6508444  3
  15496  15494  15508  15513     1  0.0000000  0.6508444  3
  15496  15494  15516  15500     1  0.0000000  1.6038667  3
  15497  15495  15494  15508     1  0.0000000  0.6508444  3
  15497  15495  15494  15516     1  0.0000000  1.0460000  1
  15497  15495  15494  15516     1  0.0000000  0.0000000  3
  15497  15495  15498  15499     1  0.0000000  0.6508444  3
  15497  15495  15498  15506     1  0.0000000  1.0460000  1
  15497  15495  15498  15506     1  0.0000000  0.0000000  3
  15497  15495  15498  15502     1  0.0000000  0.6508444  3
  15497  15495  15507  15510     1  0.0000000  0.6973333  3
  15498  15495  15507  15510     1  0.0000000  1.0460000  1
  15498  15495  15507  15510     1  0.0000000  0.6694400  3
  15498  15499  15500  15503     1  0.0000000  0.6508444  3
  15498  15499  15505  15511     1  0.0000000  1.0460000  1
  15498  15499  15505  15511     1  0.0000000  0.6694400  3
  15499  15498  15506  15509     1  0.0000000  1.0460000  1
  15499  15498  15506  15509     1  0.0000000  0.6694400  3
  15500  15499  15498  15502     1  0.0000000  0.6508444  3
  15500  15499  15505  15511     1  0.0000000  1.0460000  1
  15500  15499  15505  15511     1  0.0000000  0.6694400  3
  15501  15499  15498  15506     1  0.0000000  1.0460000  1
  15501  15499  15498  15506     1  0.0000000  0.0000000  3
  15501  15499  15498  15502     1  0.0000000  0.6508444  3
  15501  15499  15500  15504     1  0.0000000  1.0460000  1
  15501  15499  15500  15504     1  0.0000000  0.0000000  3
  15501  15499  15500  15516     1  0.0000000  1.0460000  1
  15501  15499  15500  15516     1  0.0000000  0.0000000  3
  15501  15499  15500  15503     1  0.0000000  0.6508444  3
  15501  15499  15505  15511     1  0.0000000  0.6973333  3
  15502  15498  15495  15507     1  0.0000000  1.0460000  1
  15502  15498  15495  15507     1  0.0000000  0.0000000  3
  15502  15498  15499  15505     1  0.0000000  1.0460000  1
  15502  15498  15499  15505     1  0.0000000  0.0000000  3
  15502  15498  15506  15509     1  0.0000000  0.6973333  3
  15503  15500  15499  15505     1  0.0000000  0.6508444  3
  15512  15508  15494  15516     1  0.0000000  1.0460000  1
  15512  15508  15494  15516     1  0.0000000  0.0000000  3
  15512  15508  15514  15515     1  0.0000000  0.6973333  3
  15513  15508  15494  15516     1  0.0000000  1.0460000  1
  15513  15508  15494  15516     1  0.0000000  0.0000000  3
  15513  15508  15514  15515     1  0.0000000  0.6973333  3
  15517  15518  15521  15525     1  0.0000000  0.6508444  3
  15517  15518  15530  15533     1  0.0000000  1.0460000  1
  15517  15518  15530  15533     1  0.0000000  0.6694400  3
  15517  15531  15537  15538     1  0.0000000  1.0460000  1
  15517  15531  15537  15538     1  0.0000000  0.6694400  3
  15517  15539  15523  15526     1  0.0000000  1.6038667  3
  15518  15521  15522  15524     1  0.0000000  0.6508444  3
  15518  15521  15529  15532     1  0.0000000  1.0460000  1
  15518  15521  15529  15532     1  0.0000000  0.6694400  3
  15518  15517  15531  15535     1  0.0000000  0.6508444  3
  15518  15517  15531  15536     1  0.0000000  0.6508444  3
  15519  15517  15518  15521     1  0.0000000  0.6508444  3
  15519  15517  15518  15530     1  0.0000000  1.0460000  1
  15519  15517  15518  15530     1  0.0000000  0.0000000  3
  15519  15517  15518  15520     1  0.0000000  0.6508444  3
  15519  15517  15531  15537     1  0.0000000  1.0460000  1
  15519  15517  15531  15537     1  0.0000000  0.0000000  3
  15519  15517  15531  15535     1  0.0000000  0.6508444  3
  15519  15517  15531  15536     1  0.0000000  0.6508444  3
  15519  15517  15539  15523     1  0.0000000  1.6038667  3
  15520  15518  15521  15522     1  0.0000000  0.6508444  3
  15520  15518  15521  15529     1  0.0000000  1.0460000  1
  15520  15518  15521  15529     1  0.0000000  0.0000000  3
  15520  15518  15521  15525     1  0.0000000  0.6508444  3
  15520  15518  15530  15533     1  0.0000000  0.6973333  3
  15520  15518  15517  15531     1  0.0000000  0.6508444  3
  15520  15518  15517  15539     1  0.0000000  1.0460000  1
  15520  15518  15517  15539     1  0.0000000  0.0000000  3
  15521  15522  15523  15526     1  0.0000000  0.6508444  3
  15521  15522  15528  15534     1  0.0000000  1.0460000  1
  15521  15522  15528  15534     1  0.0000000  0.6694400  3
  15521  15518  15530  15533     1  0.0000000  1.0460000  1
  15521  15518  15530  15533     1  0.0000000  0.6694400  3
  15522  15521  15529  15532     1  0.0000000  1.0460000  1
  15522  15521  15529  15532     1  0.0000000  0.6694400  3
  15523  15522  15528  15534     1  0.0000000  1.0460000  1
  15523  15522  15528  15534     1  0.0000000  0.6694400  3
  15523  15522  15521  15525     1  0.0000000  0.6508444  3
  15524  15522  15523  15527     1  0.0000000  1.0460000  1
  15524  15522  15523  15527     1  0.0000000  0.0000000  3
  15524  15522  15523  15539     1  0.0000000  1.0460000  1
  15524  15522  15523  15539     1  0.0000000  0.0000000  3
  15524  15522  15523  15526     1  0.0000000  0.6508444  3
  15524  15522  15528  15534     1  0.0000000  0.6973333  3
  15524  15522  15521  15529     1  0.0000000  1.0460000  1
  15524  15522  15521  15529     1  0.0000000  0.0000000  3
  15524  15522  15521  15525     1  0.0000000  0.6508444  3
  15525  15521  15522  15528     1  0.0000000  1.0460000  1
  15525  15521  15522  15528     1  0.0000000  0.0000000  3
  15525  15521  15529  15532     1  0.0000000  0.6973333  3
  15525  15521  15518  15530     1  0.0000000  1.0460000  1
  15525  15521  15518  15530     1  0.0000000  0.0000000  3
  15526  15523  15522  15528     1  0.0000000  0.6508444  3
  15535  15531  15537  15538     1  0.0000000  0.6973333  3
  15535  15531  15517  15539     1  0.0000000  1.0460000  1
  15535  15531  15517  15539     1  0.0000000  0.0000000  3
  15536  15531  15537  15538     1  0.0000000  0.6973333  3
  15536  15531  15517  15539     1  0.0000000  1.0460000  1
  15536  15531  15517  15539     1  0.0000000  0.0000000  3
  15540  15541  15544  15548     1  0.0000000  0.6508444  3
  15540  15541  15553  15556     1  0.0000000  1.0460000  1
  15540  15541  15553  15556     1  0.0000000  0.6694400  3
  15540  15554  15560  15561     1  0.0000000  1.0460000  1
  15540  15554  15560  15561     1  0.0000000  0.6694400  3
  15540  15562  15546  15549     1  0.0000000  1.6038667  3
  15541  15540  15554  15558     1  0.0000000  0.6508444  3
  15541  15540  15554  15559     1  0.0000000  0.6508444  3
  15541  15544  15545  15547     1  0.0000000  0.6508444  3
  15541  15544  15552  15555     1  0.0000000  1.0460000  1
  15541  15544  15552  15555     1  0.0000000  0.6694400  3
  15542  15540  15541  15544     1  0.0000000  0.6508444  3
  15542  15540  15541  15553     1  0.0000000  1.0460000  1
  15542  15540  15541  15553     1  0.0000000  0.0000000  3
  15542  15540  15541  15543     1  0.0000000  0.6508444  3
  15542  15540  15554  15560     1  0.0000000  1.0460000  1
  15542  15540  15554  15560     1  0.0000000  0.0000000  3
  15542  15540  15554  15558     1  0.0000000  0.6508444  3
  15542  15540  15554  15559     1  0.0000000  0.6508444  3
  15542  15540  15562  15546     1  0.0000000  1.6038667  3
  15543  15541  15540  15554     1  0.0000000  0.6508444  3
  15543  15541  15540  15562     1  0.0000000  1.0460000  1
  15543  15541  15540  15562     1  0.0000000  0.0000000  3
  15543  15541  15544  15545     1  0.0000000  0.6508444  3
  15543  15541  15544  15552     1  0.0000000  1.0460000  1
  15543  15541  15544  15552     1  0.0000000  0.0000000  3
  15543  15541  15544  15548     1  0.0000000  0.6508444  3
  15543  15541  15553  15556     1  0.0000000  0.6973333  3
  15544  15541  15553  15556     1  0.0000000  1.0460000  1
  15544  15541  15553  15556     1  0.0000000  0.6694400  3
  15544  15545  15546  15549     1  0.0000000  0.6508444  3
  15544  15545  15551  15557     1  0.0000000  1.0460000  1
  15544  15545  15551  15557     1  0.0000000  0.6694400  3
  15545  15544  15552  15555     1  0.0000000  1.0460000  1
  15545  15544  15552  15555     1  0.0000000  0.6694400  3
  15546  15545  15544  15548     1  0.0000000  0.6508444  3
  15546  15545  15551  15557     1  0.0000000  1.0460000  1
  15546  15545  15551  15557     1  0.0000000  0.6694400  3
  15547  15545  15544  15552     1  0.0000000  1.0460000  1
  15547  15545  15544  15552     1  0.0000000  0.0000000  3
  15547  15545  15544  15548     1  0.0000000  0.6508444  3
  15547  15545  15546  15550     1  0.0000000  1.0460000  1
  15547  15545  15546  15550     1  0.0000000  0.0000000  3
  15547  15545  15546  15562     1  0.0000000  1.0460000  1
  15547  15545  15546  15562     1  0.0000000  0.0000000  3
  15547  15545  15546  15549     1  0.0000000  0.6508444  3
  15547  15545  15551  15557     1  0.0000000  0.6973333  3
  15548  15544  15541  15553     1  0.0000000  1.0460000  1
  15548  15544  15541  15553     1  0.0000000  0.0000000  3
  15548  15544  15545  15551     1  0.0000000  1.0460000  1
  15548  15544  15545  15551     1  0.0000000  0.0000000  3
  15548  15544  15552  15555     1  0.0000000  0.6973333  3
  15549  15546  15545  15551     1  0.0000000  0.6508444  3
  15558  15554  15540  15562     1  0.0000000  1.0460000  1
  15558  15554  15540  15562     1  0.0000000  0.0000000  3
  15558  15554  15560  15561     1  0.0000000  0.6973333  3
  15559  15554  15540  15562     1  0.0000000  1.0460000  1
  15559  15554  15540  15562     1  0.0000000  0.0000000  3
  15559  15554  15560  15561     1  0.0000000  0.6973333  3
  15563  15564  15567  15571     1  0.0000000  0.6508444  3
  15563  15564  15576  15579     1  0.0000000  1.0460000  1
  15563  15564  15576  15579     1  0.0000000  0.6694400  3
  15563  15577  15583  15584     1  0.0000000  1.0460000  1
  15563  15577  15583  15584     1  0.0000000  0.6694400  3
  15563  15585  15569  15572     1  0.0000000  1.6038667  3
  15564  15567  15568  15570     1  0.0000000  0.6508444  3
  15564  15567  15575  15578     1  0.0000000  1.0460000  1
  15564  15567  15575  15578     1  0.0000000  0.6694400  3
  15564  15563  15577  15581     1  0.0000000  0.6508444  3
  15564  15563  15577  15582     1  0.0000000  0.6508444  3
  15565  15563  15564  15567     1  0.0000000  0.6508444  3
  15565  15563  15564  15576     1  0.0000000  1.0460000  1
  15565  15563  15564  15576     1  0.0000000  0.0000000  3
  15565  15563  15564  15566     1  0.0000000  0.6508444  3
  15565  15563  15577  15583     1  0.0000000  1.0460000  1
  15565  15563  15577  15583     1  0.0000000  0.0000000  3
  15565  15563  15577  15581     1  0.0000000  0.6508444  3
  15565  15563  15577  15582     1  0.0000000  0.6508444  3
  15565  15563  15585  15569     1  0.0000000  1.6038667  3
  15566  15564  15567  15568     1  0.0000000  0.6508444  3
  15566  15564  15567  15575     1  0.0000000  1.0460000  1
  15566  15564  15567  15575     1  0.0000000  0.0000000  3
  15566  15564  15567  15571     1  0.0000000  0.6508444  3
  15566  15564  15576  15579     1  0.0000000  0.6973333  3
  15566  15564  15563  15577     1  0.0000000  0.6508444  3
  15566  15564  15563  15585     1  0.0000000  1.0460000  1
  15566  15564  15563  15585     1  0.0000000  0.0000000  3
  15567  15568  15569  15572     1  0.0000000  0.6508444  3
  15567  15568  15574  15580     1  0.0000000  1.0460000  1
  15567  15568  15574  15580     1  0.0000000  0.6694400  3
  15567  15564  15576  15579     1  0.0000000  1.0460000  1
  15567  15564  15576  15579     1  0.0000000  0.6694400  3
  15568  15567  15575  15578     1  0.0000000  1.0460000  1
  15568  15567  15575  15578     1  0.0000000  0.6694400  3
  15569  15568  15574  15580     1  0.0000000  1.0460000  1
  15569  15568  15574  15580     1  0.0000000  0.6694400  3
  15569  15568  15567  15571     1  0.0000000  0.6508444  3
  15570  15568  15569  15573     1  0.0000000  1.0460000  1
  15570  15568  15569  15573     1  0.0000000  0.0000000  3
  15570  15568  15569  15585     1  0.0000000  1.0460000  1
  15570  15568  15569  15585     1  0.0000000  0.0000000  3
  15570  15568  15569  15572     1  0.0000000  0.6508444  3
  15570  15568  15574  15580     1  0.0000000  0.6973333  3
  15570  15568  15567  15575     1  0.0000000  1.0460000  1
  15570  15568  15567  15575     1  0.0000000  0.0000000  3
  15570  15568  15567  15571     1  0.0000000  0.6508444  3
  15571  15567  15568  15574     1  0.0000000  1.0460000  1
  15571  15567  15568  15574     1  0.0000000  0.0000000  3
  15571  15567  15575  15578     1  0.0000000  0.6973333  3
  15571  15567  15564  15576     1  0.0000000  1.0460000  1
  15571  15567  15564  15576     1  0.0000000  0.0000000  3
  15572  15569  15568  15574     1  0.0000000  0.6508444  3
  15581  15577  15583  15584     1  0.0000000  0.6973333  3
  15581  15577  15563  15585     1  0.0000000  1.0460000  1
  15581  15577  15563  15585     1  0.0000000  0.0000000  3
  15582  15577  15583  15584     1  0.0000000  0.6973333  3
  15582  15577  15563  15585     1  0.0000000  1.0460000  1
  15582  15577  15563  15585     1  0.0000000  0.0000000  3
  15586  15587  15590  15594     1  0.0000000  0.6508444  3
  15586  15587  15599  15602     1  0.0000000  1.0460000  1
  15586  15587  15599  15602     1  0.0000000  0.6694400  3
  15586  15600  15606  15607     1  0.0000000  1.0460000  1
  15586  15600  15606  15607     1  0.0000000  0.6694400  3
  15586  15608  15592  15595     1  0.0000000  1.6038667  3
  15587  15586  15600  15604     1  0.0000000  0.6508444  3
  15587  15586  15600  15605     1  0.0000000  0.6508444  3
  15587  15590  15591  15593     1  0.0000000  0.6508444  3
  15587  15590  15598  15601     1  0.0000000  1.0460000  1
  15587  15590  15598  15601     1  0.0000000  0.6694400  3
  15588  15586  15587  15590     1  0.0000000  0.6508444  3
  15588  15586  15587  15599     1  0.0000000  1.0460000  1
  15588  15586  15587  15599     1  0.0000000  0.0000000  3
  15588  15586  15587  15589     1  0.0000000  0.6508444  3
  15588  15586  15600  15606     1  0.0000000  1.0460000  1
  15588  15586  15600  15606     1  0.0000000  0.0000000  3
  15588  15586  15600  15604     1  0.0000000  0.6508444  3
  15588  15586  15600  15605     1  0.0000000  0.6508444  3
  15588  15586  15608  15592     1  0.0000000  1.6038667  3
  15589  15587  15586  15600     1  0.0000000  0.6508444  3
  15589  15587  15586  15608     1  0.0000000  1.0460000  1
  15589  15587  15586  15608     1  0.0000000  0.0000000  3
  15589  15587  15590  15591     1  0.0000000  0.6508444  3
  15589  15587  15590  15598     1  0.0000000  1.0460000  1
  15589  15587  15590  15598     1  0.0000000  0.0000000  3
  15589  15587  15590  15594     1  0.0000000  0.6508444  3
  15589  15587  15599  15602     1  0.0000000  0.6973333  3
  15590  15587  15599  15602     1  0.0000000  1.0460000  1
  15590  15587  15599  15602     1  0.0000000  0.6694400  3
  15590  15591  15592  15595     1  0.0000000  0.6508444  3
  15590  15591  15597  15603     1  0.0000000  1.0460000  1
  15590  15591  15597  15603     1  0.0000000  0.6694400  3
  15591  15590  15598  15601     1  0.0000000  1.0460000  1
  15591  15590  15598  15601     1  0.0000000  0.6694400  3
  15592  15591  15590  15594     1  0.0000000  0.6508444  3
  15592  15591  15597  15603     1  0.0000000  1.0460000  1
  15592  15591  15597  15603     1  0.0000000  0.6694400  3
  15593  15591  15590  15598     1  0.0000000  1.0460000  1
  15593  15591  15590  15598     1  0.0000000  0.0000000  3
  15593  15591  15590  15594     1  0.0000000  0.6508444  3
  15593  15591  15592  15596     1  0.0000000  1.0460000  1
  15593  15591  15592  15596     1  0.0000000  0.0000000  3
  15593  15591  15592  15608     1  0.0000000  1.0460000  1
  15593  15591  15592  15608     1  0.0000000  0.0000000  3
  15593  15591  15592  15595     1  0.0000000  0.6508444  3
  15593  15591  15597  15603     1  0.0000000  0.6973333  3
  15594  15590  15587  15599     1  0.0000000  1.0460000  1
  15594  15590  15587  15599     1  0.0000000  0.0000000  3
  15594  15590  15591  15597     1  0.0000000  1.0460000  1
  15594  15590  15591  15597     1  0.0000000  0.0000000  3
  15594  15590  15598  15601     1  0.0000000  0.6973333  3
  15595  15592  15591  15597     1  0.0000000  0.6508444  3
  15604  15600  15586  15608     1  0.0000000  1.0460000  1
  15604  15600  15586  15608     1  0.0000000  0.0000000  3
  15604  15600  15606  15607     1  0.0000000  0.6973333  3
  15605  15600  15586  15608     1  0.0000000  1.0460000  1
  15605  15600  15586  15608     1  0.0000000  0.0000000  3
  15605  15600  15606  15607     1  0.0000000  0.6973333  3
  15609  15610  15613  15617     1  0.0000000  0.6508444  3
  15609  15610  15622  15625     1  0.0000000  1.0460000  1
  15609  15610  15622  15625     1  0.0000000  0.6694400  3
  15609  15623  15629  15630     1  0.0000000  1.0460000  1
  15609  15623  15629  15630     1  0.0000000  0.6694400  3
  15609  15631  15615  15618     1  0.0000000  1.6038667  3
  15610  15613  15614  15616     1  0.0000000  0.6508444  3
  15610  15613  15621  15624     1  0.0000000  1.0460000  1
  15610  15613  15621  15624     1  0.0000000  0.6694400  3
  15610  15609  15623  15627     1  0.0000000  0.6508444  3
  15610  15609  15623  15628     1  0.0000000  0.6508444  3
  15611  15609  15610  15613     1  0.0000000  0.6508444  3
  15611  15609  15610  15622     1  0.0000000  1.0460000  1
  15611  15609  15610  15622     1  0.0000000  0.0000000  3
  15611  15609  15610  15612     1  0.0000000  0.6508444  3
  15611  15609  15623  15629     1  0.0000000  1.0460000  1
  15611  15609  15623  15629     1  0.0000000  0.0000000  3
  15611  15609  15623  15627     1  0.0000000  0.6508444  3
  15611  15609  15623  15628     1  0.0000000  0.6508444  3
  15611  15609  15631  15615     1  0.0000000  1.6038667  3
  15612  15610  15613  15614     1  0.0000000  0.6508444  3
  15612  15610  15613  15621     1  0.0000000  1.0460000  1
  15612  15610  15613  15621     1  0.0000000  0.0000000  3
  15612  15610  15613  15617     1  0.0000000  0.6508444  3
  15612  15610  15622  15625     1  0.0000000  0.6973333  3
  15612  15610  15609  15623     1  0.0000000  0.6508444  3
  15612  15610  15609  15631     1  0.0000000  1.0460000  1
  15612  15610  15609  15631     1  0.0000000  0.0000000  3
  15613  15614  15615  15618     1  0.0000000  0.6508444  3
  15613  15614  15620  15626     1  0.0000000  1.0460000  1
  15613  15614  15620  15626     1  0.0000000  0.6694400  3
  15613  15610  15622  15625     1  0.0000000  1.0460000  1
  15613  15610  15622  15625     1  0.0000000  0.6694400  3
  15614  15613  15621  15624     1  0.0000000  1.0460000  1
  15614  15613  15621  15624     1  0.0000000  0.6694400  3
  15615  15614  15620  15626     1  0.0000000  1.0460000  1
  15615  15614  15620  15626     1  0.0000000  0.6694400  3
  15615  15614  15613  15617     1  0.0000000  0.6508444  3
  15616  15614  15615  15619     1  0.0000000  1.0460000  1
  15616  15614  15615  15619     1  0.0000000  0.0000000  3
  15616  15614  15615  15631     1  0.0000000  1.0460000  1
  15616  15614  15615  15631     1  0.0000000  0.0000000  3
  15616  15614  15615  15618     1  0.0000000  0.6508444  3
  15616  15614  15620  15626     1  0.0000000  0.6973333  3
  15616  15614  15613  15621     1  0.0000000  1.0460000  1
  15616  15614  15613  15621     1  0.0000000  0.0000000  3
  15616  15614  15613  15617     1  0.0000000  0.6508444  3
  15617  15613  15614  15620     1  0.0000000  1.0460000  1
  15617  15613  15614  15620     1  0.0000000  0.0000000  3
  15617  15613  15621  15624     1  0.0000000  0.6973333  3
  15617  15613  15610  15622     1  0.0000000  1.0460000  1
  15617  15613  15610  15622     1  0.0000000  0.0000000  3
  15618  15615  15614  15620     1  0.0000000  0.6508444  3
  15627  15623  15629  15630     1  0.0000000  0.6973333  3
  15627  15623  15609  15631     1  0.0000000  1.0460000  1
  15627  15623  15609  15631     1  0.0000000  0.0000000  3
  15628  15623  15629  15630     1  0.0000000  0.6973333  3
  15628  15623  15609  15631     1  0.0000000  1.0460000  1
  15628  15623  15609  15631     1  0.0000000  0.0000000  3
  15632  15633  15636  15640     1  0.0000000  0.6508444  3
  15632  15633  15645  15648     1  0.0000000  1.0460000  1
  15632  15633  15645  15648     1  0.0000000  0.6694400  3
  15632  15646  15652  15653     1  0.0000000  1.0460000  1
  15632  15646  15652  15653     1  0.0000000  0.6694400  3
  15632  15654  15638  15641     1  0.0000000  1.6038667  3
  15633  15632  15646  15650     1  0.0000000  0.6508444  3
  15633  15632  15646  15651     1  0.0000000  0.6508444  3
  15633  15636  15637  15639     1  0.0000000  0.6508444  3
  15633  15636  15644  15647     1  0.0000000  1.0460000  1
  15633  15636  15644  15647     1  0.0000000  0.6694400  3
  15634  15632  15633  15636     1  0.0000000  0.6508444  3
  15634  15632  15633  15645     1  0.0000000  1.0460000  1
  15634  15632  15633  15645     1  0.0000000  0.0000000  3
  15634  15632  15633  15635     1  0.0000000  0.6508444  3
  15634  15632  15646  15652     1  0.0000000  1.0460000  1
  15634  15632  15646  15652     1  0.0000000  0.0000000  3
  15634  15632  15646  15650     1  0.0000000  0.6508444  3
  15634  15632  15646  15651     1  0.0000000  0.6508444  3
  15634  15632  15654  15638     1  0.0000000  1.6038667  3
  15635  15633  15632  15646     1  0.0000000  0.6508444  3
  15635  15633  15632  15654     1  0.0000000  1.0460000  1
  15635  15633  15632  15654     1  0.0000000  0.0000000  3
  15635  15633  15636  15637     1  0.0000000  0.6508444  3
  15635  15633  15636  15644     1  0.0000000  1.0460000  1
  15635  15633  15636  15644     1  0.0000000  0.0000000  3
  15635  15633  15636  15640     1  0.0000000  0.6508444  3
  15635  15633  15645  15648     1  0.0000000  0.6973333  3
  15636  15633  15645  15648     1  0.0000000  1.0460000  1
  15636  15633  15645  15648     1  0.0000000  0.6694400  3
  15636  15637  15638  15641     1  0.0000000  0.6508444  3
  15636  15637  15643  15649     1  0.0000000  1.0460000  1
  15636  15637  15643  15649     1  0.0000000  0.6694400  3
  15637  15636  15644  15647     1  0.0000000  1.0460000  1
  15637  15636  15644  15647     1  0.0000000  0.6694400  3
  15638  15637  15636  15640     1  0.0000000  0.6508444  3
  15638  15637  15643  15649     1  0.0000000  1.0460000  1
  15638  15637  15643  15649     1  0.0000000  0.6694400  3
  15639  15637  15636  15644     1  0.0000000  1.0460000  1
  15639  15637  15636  15644     1  0.0000000  0.0000000  3
  15639  15637  15636  15640     1  0.0000000  0.6508444  3
  15639  15637  15638  15642     1  0.0000000  1.0460000  1
  15639  15637  15638  15642     1  0.0000000  0.0000000  3
  15639  15637  15638  15654     1  0.0000000  1.0460000  1
  15639  15637  15638  15654     1  0.0000000  0.0000000  3
  15639  15637  15638  15641     1  0.0000000  0.6508444  3
  15639  15637  15643  15649     1  0.0000000  0.6973333  3
  15640  15636  15633  15645     1  0.0000000  1.0460000  1
  15640  15636  15633  15645     1  0.0000000  0.0000000  3
  15640  15636  15637  15643     1  0.0000000  1.0460000  1
  15640  15636  15637  15643     1  0.0000000  0.0000000  3
  15640  15636  15644  15647     1  0.0000000  0.6973333  3
  15641  15638  15637  15643     1  0.0000000  0.6508444  3
  15650  15646  15632  15654     1  0.0000000  1.0460000  1
  15650  15646  15632  15654     1  0.0000000  0.0000000  3
  15650  15646  15652  15653     1  0.0000000  0.6973333  3
  15651  15646  15632  15654     1  0.0000000  1.0460000  1
  15651  15646  15632  15654     1  0.0000000  0.0000000  3
  15651  15646  15652  15653     1  0.0000000  0.6973333  3
  15655  15656  15659  15663     1  0.0000000  0.6508444  3
  15655  15656  15668  15671     1  0.0000000  1.0460000  1
  15655  15656  15668  15671     1  0.0000000  0.6694400  3
  15655  15669  15675  15676     1  0.0000000  1.0460000  1
  15655  15669  15675  15676     1  0.0000000  0.6694400  3
  15655  15677  15661  15664     1  0.0000000  1.6038667  3
  15656  15659  15660  15662     1  0.0000000  0.6508444  3
  15656  15659  15667  15670     1  0.0000000  1.0460000  1
  15656  15659  15667  15670     1  0.0000000  0.6694400  3
  15656  15655  15669  15673     1  0.0000000  0.6508444  3
  15656  15655  15669  15674     1  0.0000000  0.6508444  3
  15657  15655  15656  15659     1  0.0000000  0.6508444  3
  15657  15655  15656  15668     1  0.0000000  1.0460000  1
  15657  15655  15656  15668     1  0.0000000  0.0000000  3
  15657  15655  15656  15658     1  0.0000000  0.6508444  3
  15657  15655  15669  15675     1  0.0000000  1.0460000  1
  15657  15655  15669  15675     1  0.0000000  0.0000000  3
  15657  15655  15669  15673     1  0.0000000  0.6508444  3
  15657  15655  15669  15674     1  0.0000000  0.6508444  3
  15657  15655  15677  15661     1  0.0000000  1.6038667  3
  15658  15656  15659  15660     1  0.0000000  0.6508444  3
  15658  15656  15659  15667     1  0.0000000  1.0460000  1
  15658  15656  15659  15667     1  0.0000000  0.0000000  3
  15658  15656  15659  15663     1  0.0000000  0.6508444  3
  15658  15656  15668  15671     1  0.0000000  0.6973333  3
  15658  15656  15655  15669     1  0.0000000  0.6508444  3
  15658  15656  15655  15677     1  0.0000000  1.0460000  1
  15658  15656  15655  15677     1  0.0000000  0.0000000  3
  15659  15660  15661  15664     1  0.0000000  0.6508444  3
  15659  15660  15666  15672     1  0.0000000  1.0460000  1
  15659  15660  15666  15672     1  0.0000000  0.6694400  3
  15659  15656  15668  15671     1  0.0000000  1.0460000  1
  15659  15656  15668  15671     1  0.0000000  0.6694400  3
  15660  15659  15667  15670     1  0.0000000  1.0460000  1
  15660  15659  15667  15670     1  0.0000000  0.6694400  3
  15661  15660  15666  15672     1  0.0000000  1.0460000  1
  15661  15660  15666  15672     1  0.0000000  0.6694400  3
  15661  15660  15659  15663     1  0.0000000  0.6508444  3
  15662  15660  15661  15665     1  0.0000000  1.0460000  1
  15662  15660  15661  15665     1  0.0000000  0.0000000  3
  15662  15660  15661  15677     1  0.0000000  1.0460000  1
  15662  15660  15661  15677     1  0.0000000  0.0000000  3
  15662  15660  15661  15664     1  0.0000000  0.6508444  3
  15662  15660  15666  15672     1  0.0000000  0.6973333  3
  15662  15660  15659  15667     1  0.0000000  1.0460000  1
  15662  15660  15659  15667     1  0.0000000  0.0000000  3
  15662  15660  15659  15663     1  0.0000000  0.6508444  3
  15663  15659  15660  15666     1  0.0000000  1.0460000  1
  15663  15659  15660  15666     1  0.0000000  0.0000000  3
  15663  15659  15667  15670     1  0.0000000  0.6973333  3
  15663  15659  15656  15668     1  0.0000000  1.0460000  1
  15663  15659  15656  15668     1  0.0000000  0.0000000  3
  15664  15661  15660  15666     1  0.0000000  0.6508444  3
  15673  15669  15675  15676     1  0.0000000  0.6973333  3
  15673  15669  15655  15677     1  0.0000000  1.0460000  1
  15673  15669  15655  15677     1  0.0000000  0.0000000  3
  15674  15669  15675  15676     1  0.0000000  0.6973333  3
  15674  15669  15655  15677     1  0.0000000  1.0460000  1
  15674  15669  15655  15677     1  0.0000000  0.0000000  3
  15678  15679  15682  15686     1  0.0000000  0.6508444  3
  15678  15679  15691  15694     1  0.0000000  1.0460000  1
  15678  15679  15691  15694     1  0.0000000  0.6694400  3
  15678  15692  15698  15699     1  0.0000000  1.0460000  1
  15678  15692  15698  15699     1  0.0000000  0.6694400  3
  15678  15700  15684  15687     1  0.0000000  1.6038667  3
  15679  15678  15692  15696     1  0.0000000  0.6508444  3
  15679  15678  15692  15697     1  0.0000000  0.6508444  3
  15679  15682  15683  15685     1  0.0000000  0.6508444  3
  15679  15682  15690  15693     1  0.0000000  1.0460000  1
  15679  15682  15690  15693     1  0.0000000  0.6694400  3
  15680  15678  15679  15682     1  0.0000000  0.6508444  3
  15680  15678  15679  15691     1  0.0000000  1.0460000  1
  15680  15678  15679  15691     1  0.0000000  0.0000000  3
  15680  15678  15679  15681     1  0.0000000  0.6508444  3
  15680  15678  15692  15698     1  0.0000000  1.0460000  1
  15680  15678  15692  15698     1  0.0000000  0.0000000  3
  15680  15678  15692  15696     1  0.0000000  0.6508444  3
  15680  15678  15692  15697     1  0.0000000  0.6508444  3
  15680  15678  15700  15684     1  0.0000000  1.6038667  3
  15681  15679  15678  15692     1  0.0000000  0.6508444  3
  15681  15679  15678  15700     1  0.0000000  1.0460000  1
  15681  15679  15678  15700     1  0.0000000  0.0000000  3
  15681  15679  15682  15683     1  0.0000000  0.6508444  3
  15681  15679  15682  15690     1  0.0000000  1.0460000  1
  15681  15679  15682  15690     1  0.0000000  0.0000000  3
  15681  15679  15682  15686     1  0.0000000  0.6508444  3
  15681  15679  15691  15694     1  0.0000000  0.6973333  3
  15682  15679  15691  15694     1  0.0000000  1.0460000  1
  15682  15679  15691  15694     1  0.0000000  0.6694400  3
  15682  15683  15684  15687     1  0.0000000  0.6508444  3
  15682  15683  15689  15695     1  0.0000000  1.0460000  1
  15682  15683  15689  15695     1  0.0000000  0.6694400  3
  15683  15682  15690  15693     1  0.0000000  1.0460000  1
  15683  15682  15690  15693     1  0.0000000  0.6694400  3
  15684  15683  15682  15686     1  0.0000000  0.6508444  3
  15684  15683  15689  15695     1  0.0000000  1.0460000  1
  15684  15683  15689  15695     1  0.0000000  0.6694400  3
  15685  15683  15682  15690     1  0.0000000  1.0460000  1
  15685  15683  15682  15690     1  0.0000000  0.0000000  3
  15685  15683  15682  15686     1  0.0000000  0.6508444  3
  15685  15683  15684  15688     1  0.0000000  1.0460000  1
  15685  15683  15684  15688     1  0.0000000  0.0000000  3
  15685  15683  15684  15700     1  0.0000000  1.0460000  1
  15685  15683  15684  15700     1  0.0000000  0.0000000  3
  15685  15683  15684  15687     1  0.0000000  0.6508444  3
  15685  15683  15689  15695     1  0.0000000  0.6973333  3
  15686  15682  15679  15691     1  0.0000000  1.0460000  1
  15686  15682  15679  15691     1  0.0000000  0.0000000  3
  15686  15682  15683  15689     1  0.0000000  1.0460000  1
  15686  15682  15683  15689     1  0.0000000  0.0000000  3
  15686  15682  15690  15693     1  0.0000000  0.6973333  3
  15687  15684  15683  15689     1  0.0000000  0.6508444  3
  15696  15692  15678  15700     1  0.0000000  1.0460000  1
  15696  15692  15678  15700     1  0.0000000  0.0000000  3
  15696  15692  15698  15699     1  0.0000000  0.6973333  3
  15697  15692  15678  15700     1  0.0000000  1.0460000  1
  15697  15692  15678  15700     1  0.0000000  0.0000000  3
  15697  15692  15698  15699     1  0.0000000  0.6973333  3
  15701  15702  15705  15709     1  0.0000000  0.6508444  3
  15701  15702  15714  15717     1  0.0000000  1.0460000  1
  15701  15702  15714  15717     1  0.0000000  0.6694400  3
  15701  15715  15721  15722     1  0.0000000  1.0460000  1
  15701  15715  15721  15722     1  0.0000000  0.6694400  3
  15701  15723  15707  15710     1  0.0000000  1.6038667  3
  15702  15705  15706  15708     1  0.0000000  0.6508444  3
  15702  15705  15713  15716     1  0.0000000  1.0460000  1
  15702  15705  15713  15716     1  0.0000000  0.6694400  3
  15702  15701  15715  15719     1  0.0000000  0.6508444  3
  15702  15701  15715  15720     1  0.0000000  0.6508444  3
  15703  15701  15702  15705     1  0.0000000  0.6508444  3
  15703  15701  15702  15714     1  0.0000000  1.0460000  1
  15703  15701  15702  15714     1  0.0000000  0.0000000  3
  15703  15701  15702  15704     1  0.0000000  0.6508444  3
  15703  15701  15715  15721     1  0.0000000  1.0460000  1
  15703  15701  15715  15721     1  0.0000000  0.0000000  3
  15703  15701  15715  15719     1  0.0000000  0.6508444  3
  15703  15701  15715  15720     1  0.0000000  0.6508444  3
  15703  15701  15723  15707     1  0.0000000  1.6038667  3
  15704  15702  15705  15706     1  0.0000000  0.6508444  3
  15704  15702  15705  15713     1  0.0000000  1.0460000  1
  15704  15702  15705  15713     1  0.0000000  0.0000000  3
  15704  15702  15705  15709     1  0.0000000  0.6508444  3
  15704  15702  15714  15717     1  0.0000000  0.6973333  3
  15704  15702  15701  15715     1  0.0000000  0.6508444  3
  15704  15702  15701  15723     1  0.0000000  1.0460000  1
  15704  15702  15701  15723     1  0.0000000  0.0000000  3
  15705  15706  15707  15710     1  0.0000000  0.6508444  3
  15705  15706  15712  15718     1  0.0000000  1.0460000  1
  15705  15706  15712  15718     1  0.0000000  0.6694400  3
  15705  15702  15714  15717     1  0.0000000  1.0460000  1
  15705  15702  15714  15717     1  0.0000000  0.6694400  3
  15706  15705  15713  15716     1  0.0000000  1.0460000  1
  15706  15705  15713  15716     1  0.0000000  0.6694400  3
  15707  15706  15712  15718     1  0.0000000  1.0460000  1
  15707  15706  15712  15718     1  0.0000000  0.6694400  3
  15707  15706  15705  15709     1  0.0000000  0.6508444  3
  15708  15706  15707  15711     1  0.0000000  1.0460000  1
  15708  15706  15707  15711     1  0.0000000  0.0000000  3
  15708  15706  15707  15723     1  0.0000000  1.0460000  1
  15708  15706  15707  15723     1  0.0000000  0.0000000  3
  15708  15706  15707  15710     1  0.0000000  0.6508444  3
  15708  15706  15712  15718     1  0.0000000  0.6973333  3
  15708  15706  15705  15713     1  0.0000000  1.0460000  1
  15708  15706  15705  15713     1  0.0000000  0.0000000  3
  15708  15706  15705  15709     1  0.0000000  0.6508444  3
  15709  15705  15706  15712     1  0.0000000  1.0460000  1
  15709  15705  15706  15712     1  0.0000000  0.0000000  3
  15709  15705  15713  15716     1  0.0000000  0.6973333  3
  15709  15705  15702  15714     1  0.0000000  1.0460000  1
  15709  15705  15702  15714     1  0.0000000  0.0000000  3
  15710  15707  15706  15712     1  0.0000000  0.6508444  3
  15719  15715  15721  15722     1  0.0000000  0.6973333  3
  15719  15715  15701  15723     1  0.0000000  1.0460000  1
  15719  15715  15701  15723     1  0.0000000  0.0000000  3
  15720  15715  15721  15722     1  0.0000000  0.6973333  3
  15720  15715  15701  15723     1  0.0000000  1.0460000  1
  15720  15715  15701  15723     1  0.0000000  0.0000000  3
  15724  15725  15728  15732     1  0.0000000  0.6508444  3
  15724  15725  15737  15740     1  0.0000000  1.0460000  1
  15724  15725  15737  15740     1  0.0000000  0.6694400  3
  15724  15738  15744  15745     1  0.0000000  1.0460000  1
  15724  15738  15744  15745     1  0.0000000  0.6694400  3
  15724  15746  15730  15733     1  0.0000000  1.6038667  3
  15725  15724  15738  15742     1  0.0000000  0.6508444  3
  15725  15724  15738  15743     1  0.0000000  0.6508444  3
  15725  15728  15729  15731     1  0.0000000  0.6508444  3
  15725  15728  15736  15739     1  0.0000000  1.0460000  1
  15725  15728  15736  15739     1  0.0000000  0.6694400  3
  15726  15724  15725  15728     1  0.0000000  0.6508444  3
  15726  15724  15725  15737     1  0.0000000  1.0460000  1
  15726  15724  15725  15737     1  0.0000000  0.0000000  3
  15726  15724  15725  15727     1  0.0000000  0.6508444  3
  15726  15724  15738  15744     1  0.0000000  1.0460000  1
  15726  15724  15738  15744     1  0.0000000  0.0000000  3
  15726  15724  15738  15742     1  0.0000000  0.6508444  3
  15726  15724  15738  15743     1  0.0000000  0.6508444  3
  15726  15724  15746  15730     1  0.0000000  1.6038667  3
  15727  15725  15724  15738     1  0.0000000  0.6508444  3
  15727  15725  15724  15746     1  0.0000000  1.0460000  1
  15727  15725  15724  15746     1  0.0000000  0.0000000  3
  15727  15725  15728  15729     1  0.0000000  0.6508444  3
  15727  15725  15728  15736     1  0.0000000  1.0460000  1
  15727  15725  15728  15736     1  0.0000000  0.0000000  3
  15727  15725  15728  15732     1  0.0000000  0.6508444  3
  15727  15725  15737  15740     1  0.0000000  0.6973333  3
  15728  15725  15737  15740     1  0.0000000  1.0460000  1
  15728  15725  15737  15740     1  0.0000000  0.6694400  3
  15728  15729  15730  15733     1  0.0000000  0.6508444  3
  15728  15729  15735  15741     1  0.0000000  1.0460000  1
  15728  15729  15735  15741     1  0.0000000  0.6694400  3
  15729  15728  15736  15739     1  0.0000000  1.0460000  1
  15729  15728  15736  15739     1  0.0000000  0.6694400  3
  15730  15729  15728  15732     1  0.0000000  0.6508444  3
  15730  15729  15735  15741     1  0.0000000  1.0460000  1
  15730  15729  15735  15741     1  0.0000000  0.6694400  3
  15731  15729  15728  15736     1  0.0000000  1.0460000  1
  15731  15729  15728  15736     1  0.0000000  0.0000000  3
  15731  15729  15728  15732     1  0.0000000  0.6508444  3
  15731  15729  15730  15734     1  0.0000000  1.0460000  1
  15731  15729  15730  15734     1  0.0000000  0.0000000  3
  15731  15729  15730  15746     1  0.0000000  1.0460000  1
  15731  15729  15730  15746     1  0.0000000  0.0000000  3
  15731  15729  15730  15733     1  0.0000000  0.6508444  3
  15731  15729  15735  15741     1  0.0000000  0.6973333  3
  15732  15728  15725  15737     1  0.0000000  1.0460000  1
  15732  15728  15725  15737     1  0.0000000  0.0000000  3
  15732  15728  15729  15735     1  0.0000000  1.0460000  1
  15732  15728  15729  15735     1  0.0000000  0.0000000  3
  15732  15728  15736  15739     1  0.0000000  0.6973333  3
  15733  15730  15729  15735     1  0.0000000  0.6508444  3
  15742  15738  15724  15746     1  0.0000000  1.0460000  1
  15742  15738  15724  15746     1  0.0000000  0.0000000  3
  15742  15738  15744  15745     1  0.0000000  0.6973333  3
  15743  15738  15724  15746     1  0.0000000  1.0460000  1
  15743  15738  15724  15746     1  0.0000000  0.0000000  3
  15743  15738  15744  15745     1  0.0000000  0.6973333  3
  15747  15748  15751  15755     1  0.0000000  0.6508444  3
  15747  15748  15760  15763     1  0.0000000  1.0460000  1
  15747  15748  15760  15763     1  0.0000000  0.6694400  3
  15747  15761  15767  15768     1  0.0000000  1.0460000  1
  15747  15761  15767  15768     1  0.0000000  0.6694400  3
  15747  15769  15753  15756     1  0.0000000  1.6038667  3
  15748  15751  15752  15754     1  0.0000000  0.6508444  3
  15748  15751  15759  15762     1  0.0000000  1.0460000  1
  15748  15751  15759  15762     1  0.0000000  0.6694400  3
  15748  15747  15761  15765     1  0.0000000  0.6508444  3
  15748  15747  15761  15766     1  0.0000000  0.6508444  3
  15749  15747  15748  15751     1  0.0000000  0.6508444  3
  15749  15747  15748  15760     1  0.0000000  1.0460000  1
  15749  15747  15748  15760     1  0.0000000  0.0000000  3
  15749  15747  15748  15750     1  0.0000000  0.6508444  3
  15749  15747  15761  15767     1  0.0000000  1.0460000  1
  15749  15747  15761  15767     1  0.0000000  0.0000000  3
  15749  15747  15761  15765     1  0.0000000  0.6508444  3
  15749  15747  15761  15766     1  0.0000000  0.6508444  3
  15749  15747  15769  15753     1  0.0000000  1.6038667  3
  15750  15748  15751  15752     1  0.0000000  0.6508444  3
  15750  15748  15751  15759     1  0.0000000  1.0460000  1
  15750  15748  15751  15759     1  0.0000000  0.0000000  3
  15750  15748  15751  15755     1  0.0000000  0.6508444  3
  15750  15748  15760  15763     1  0.0000000  0.6973333  3
  15750  15748  15747  15761     1  0.0000000  0.6508444  3
  15750  15748  15747  15769     1  0.0000000  1.0460000  1
  15750  15748  15747  15769     1  0.0000000  0.0000000  3
  15751  15752  15753  15756     1  0.0000000  0.6508444  3
  15751  15752  15758  15764     1  0.0000000  1.0460000  1
  15751  15752  15758  15764     1  0.0000000  0.6694400  3
  15751  15748  15760  15763     1  0.0000000  1.0460000  1
  15751  15748  15760  15763     1  0.0000000  0.6694400  3
  15752  15751  15759  15762     1  0.0000000  1.0460000  1
  15752  15751  15759  15762     1  0.0000000  0.6694400  3
  15753  15752  15758  15764     1  0.0000000  1.0460000  1
  15753  15752  15758  15764     1  0.0000000  0.6694400  3
  15753  15752  15751  15755     1  0.0000000  0.6508444  3
  15754  15752  15753  15757     1  0.0000000  1.0460000  1
  15754  15752  15753  15757     1  0.0000000  0.0000000  3
  15754  15752  15753  15769     1  0.0000000  1.0460000  1
  15754  15752  15753  15769     1  0.0000000  0.0000000  3
  15754  15752  15753  15756     1  0.0000000  0.6508444  3
  15754  15752  15758  15764     1  0.0000000  0.6973333  3
  15754  15752  15751  15759     1  0.0000000  1.0460000  1
  15754  15752  15751  15759     1  0.0000000  0.0000000  3
  15754  15752  15751  15755     1  0.0000000  0.6508444  3
  15755  15751  15752  15758     1  0.0000000  1.0460000  1
  15755  15751  15752  15758     1  0.0000000  0.0000000  3
  15755  15751  15759  15762     1  0.0000000  0.6973333  3
  15755  15751  15748  15760     1  0.0000000  1.0460000  1
  15755  15751  15748  15760     1  0.0000000  0.0000000  3
  15756  15753  15752  15758     1  0.0000000  0.6508444  3
  15765  15761  15767  15768     1  0.0000000  0.6973333  3
  15765  15761  15747  15769     1  0.0000000  1.0460000  1
  15765  15761  15747  15769     1  0.0000000  0.0000000  3
  15766  15761  15767  15768     1  0.0000000  0.6973333  3
  15766  15761  15747  15769     1  0.0000000  1.0460000  1
  15766  15761  15747  15769     1  0.0000000  0.0000000  3
  15770  15771  15774  15778     1  0.0000000  0.6508444  3
  15770  15771  15783  15786     1  0.0000000  1.0460000  1
  15770  15771  15783  15786     1  0.0000000  0.6694400  3
  15770  15784  15790  15791     1  0.0000000  1.0460000  1
  15770  15784  15790  15791     1  0.0000000  0.6694400  3
  15770  15792  15776  15779     1  0.0000000  1.6038667  3
  15771  15770  15784  15788     1  0.0000000  0.6508444  3
  15771  15770  15784  15789     1  0.0000000  0.6508444  3
  15771  15774  15775  15777     1  0.0000000  0.6508444  3
  15771  15774  15782  15785     1  0.0000000  1.0460000  1
  15771  15774  15782  15785     1  0.0000000  0.6694400  3
  15772  15770  15771  15774     1  0.0000000  0.6508444  3
  15772  15770  15771  15783     1  0.0000000  1.0460000  1
  15772  15770  15771  15783     1  0.0000000  0.0000000  3
  15772  15770  15771  15773     1  0.0000000  0.6508444  3
  15772  15770  15784  15790     1  0.0000000  1.0460000  1
  15772  15770  15784  15790     1  0.0000000  0.0000000  3
  15772  15770  15784  15788     1  0.0000000  0.6508444  3
  15772  15770  15784  15789     1  0.0000000  0.6508444  3
  15772  15770  15792  15776     1  0.0000000  1.6038667  3
  15773  15771  15770  15784     1  0.0000000  0.6508444  3
  15773  15771  15770  15792     1  0.0000000  1.0460000  1
  15773  15771  15770  15792     1  0.0000000  0.0000000  3
  15773  15771  15774  15775     1  0.0000000  0.6508444  3
  15773  15771  15774  15782     1  0.0000000  1.0460000  1
  15773  15771  15774  15782     1  0.0000000  0.0000000  3
  15773  15771  15774  15778     1  0.0000000  0.6508444  3
  15773  15771  15783  15786     1  0.0000000  0.6973333  3
  15774  15771  15783  15786     1  0.0000000  1.0460000  1
  15774  15771  15783  15786     1  0.0000000  0.6694400  3
  15774  15775  15776  15779     1  0.0000000  0.6508444  3
  15774  15775  15781  15787     1  0.0000000  1.0460000  1
  15774  15775  15781  15787     1  0.0000000  0.6694400  3
  15775  15774  15782  15785     1  0.0000000  1.0460000  1
  15775  15774  15782  15785     1  0.0000000  0.6694400  3
  15776  15775  15774  15778     1  0.0000000  0.6508444  3
  15776  15775  15781  15787     1  0.0000000  1.0460000  1
  15776  15775  15781  15787     1  0.0000000  0.6694400  3
  15777  15775  15774  15782     1  0.0000000  1.0460000  1
  15777  15775  15774  15782     1  0.0000000  0.0000000  3
  15777  15775  15774  15778     1  0.0000000  0.6508444  3
  15777  15775  15776  15780     1  0.0000000  1.0460000  1
  15777  15775  15776  15780     1  0.0000000  0.0000000  3
  15777  15775  15776  15792     1  0.0000000  1.0460000  1
  15777  15775  15776  15792     1  0.0000000  0.0000000  3
  15777  15775  15776  15779     1  0.0000000  0.6508444  3
  15777  15775  15781  15787     1  0.0000000  0.6973333  3
  15778  15774  15771  15783     1  0.0000000  1.0460000  1
  15778  15774  15771  15783     1  0.0000000  0.0000000  3
  15778  15774  15775  15781     1  0.0000000  1.0460000  1
  15778  15774  15775  15781     1  0.0000000  0.0000000  3
  15778  15774  15782  15785     1  0.0000000  0.6973333  3
  15779  15776  15775  15781     1  0.0000000  0.6508444  3
  15788  15784  15770  15792     1  0.0000000  1.0460000  1
  15788  15784  15770  15792     1  0.0000000  0.0000000  3
  15788  15784  15790  15791     1  0.0000000  0.6973333  3
  15789  15784  15770  15792     1  0.0000000  1.0460000  1
  15789  15784  15770  15792     1  0.0000000  0.0000000  3
  15789  15784  15790  15791     1  0.0000000  0.6973333  3
  15793  15794  15797  15801     1  0.0000000  0.6508444  3
  15793  15794  15806  15809     1  0.0000000  1.0460000  1
  15793  15794  15806  15809     1  0.0000000  0.6694400  3
  15793  15807  15813  15814     1  0.0000000  1.0460000  1
  15793  15807  15813  15814     1  0.0000000  0.6694400  3
  15793  15815  15799  15802     1  0.0000000  1.6038667  3
  15794  15797  15798  15800     1  0.0000000  0.6508444  3
  15794  15797  15805  15808     1  0.0000000  1.0460000  1
  15794  15797  15805  15808     1  0.0000000  0.6694400  3
  15794  15793  15807  15811     1  0.0000000  0.6508444  3
  15794  15793  15807  15812     1  0.0000000  0.6508444  3
  15795  15793  15794  15797     1  0.0000000  0.6508444  3
  15795  15793  15794  15806     1  0.0000000  1.0460000  1
  15795  15793  15794  15806     1  0.0000000  0.0000000  3
  15795  15793  15794  15796     1  0.0000000  0.6508444  3
  15795  15793  15807  15813     1  0.0000000  1.0460000  1
  15795  15793  15807  15813     1  0.0000000  0.0000000  3
  15795  15793  15807  15811     1  0.0000000  0.6508444  3
  15795  15793  15807  15812     1  0.0000000  0.6508444  3
  15795  15793  15815  15799     1  0.0000000  1.6038667  3
  15796  15794  15797  15798     1  0.0000000  0.6508444  3
  15796  15794  15797  15805     1  0.0000000  1.0460000  1
  15796  15794  15797  15805     1  0.0000000  0.0000000  3
  15796  15794  15797  15801     1  0.0000000  0.6508444  3
  15796  15794  15806  15809     1  0.0000000  0.6973333  3
  15796  15794  15793  15807     1  0.0000000  0.6508444  3
  15796  15794  15793  15815     1  0.0000000  1.0460000  1
  15796  15794  15793  15815     1  0.0000000  0.0000000  3
  15797  15798  15799  15802     1  0.0000000  0.6508444  3
  15797  15798  15804  15810     1  0.0000000  1.0460000  1
  15797  15798  15804  15810     1  0.0000000  0.6694400  3
  15797  15794  15806  15809     1  0.0000000  1.0460000  1
  15797  15794  15806  15809     1  0.0000000  0.6694400  3
  15798  15797  15805  15808     1  0.0000000  1.0460000  1
  15798  15797  15805  15808     1  0.0000000  0.6694400  3
  15799  15798  15804  15810     1  0.0000000  1.0460000  1
  15799  15798  15804  15810     1  0.0000000  0.6694400  3
  15799  15798  15797  15801     1  0.0000000  0.6508444  3
  15800  15798  15799  15803     1  0.0000000  1.0460000  1
  15800  15798  15799  15803     1  0.0000000  0.0000000  3
  15800  15798  15799  15815     1  0.0000000  1.0460000  1
  15800  15798  15799  15815     1  0.0000000  0.0000000  3
  15800  15798  15799  15802     1  0.0000000  0.6508444  3
  15800  15798  15804  15810     1  0.0000000  0.6973333  3
  15800  15798  15797  15805     1  0.0000000  1.0460000  1
  15800  15798  15797  15805     1  0.0000000  0.0000000  3
  15800  15798  15797  15801     1  0.0000000  0.6508444  3
  15801  15797  15798  15804     1  0.0000000  1.0460000  1
  15801  15797  15798  15804     1  0.0000000  0.0000000  3
  15801  15797  15805  15808     1  0.0000000  0.6973333  3
  15801  15797  15794  15806     1  0.0000000  1.0460000  1
  15801  15797  15794  15806     1  0.0000000  0.0000000  3
  15802  15799  15798  15804     1  0.0000000  0.6508444  3
  15811  15807  15813  15814     1  0.0000000  0.6973333  3
  15811  15807  15793  15815     1  0.0000000  1.0460000  1
  15811  15807  15793  15815     1  0.0000000  0.0000000  3
  15812  15807  15813  15814     1  0.0000000  0.6973333  3
  15812  15807  15793  15815     1  0.0000000  1.0460000  1
  15812  15807  15793  15815     1  0.0000000  0.0000000  3
  15816  15817  15820  15824     1  0.0000000  0.6508444  3
  15816  15817  15829  15832     1  0.0000000  1.0460000  1
  15816  15817  15829  15832     1  0.0000000  0.6694400  3
  15816  15830  15836  15837     1  0.0000000  1.0460000  1
  15816  15830  15836  15837     1  0.0000000  0.6694400  3
  15816  15838  15822  15825     1  0.0000000  1.6038667  3
  15817  15816  15830  15834     1  0.0000000  0.6508444  3
  15817  15816  15830  15835     1  0.0000000  0.6508444  3
  15817  15820  15821  15823     1  0.0000000  0.6508444  3
  15817  15820  15828  15831     1  0.0000000  1.0460000  1
  15817  15820  15828  15831     1  0.0000000  0.6694400  3
  15818  15816  15817  15820     1  0.0000000  0.6508444  3
  15818  15816  15817  15829     1  0.0000000  1.0460000  1
  15818  15816  15817  15829     1  0.0000000  0.0000000  3
  15818  15816  15817  15819     1  0.0000000  0.6508444  3
  15818  15816  15830  15836     1  0.0000000  1.0460000  1
  15818  15816  15830  15836     1  0.0000000  0.0000000  3
  15818  15816  15830  15834     1  0.0000000  0.6508444  3
  15818  15816  15830  15835     1  0.0000000  0.6508444  3
  15818  15816  15838  15822     1  0.0000000  1.6038667  3
  15819  15817  15816  15830     1  0.0000000  0.6508444  3
  15819  15817  15816  15838     1  0.0000000  1.0460000  1
  15819  15817  15816  15838     1  0.0000000  0.0000000  3
  15819  15817  15820  15821     1  0.0000000  0.6508444  3
  15819  15817  15820  15828     1  0.0000000  1.0460000  1
  15819  15817  15820  15828     1  0.0000000  0.0000000  3
  15819  15817  15820  15824     1  0.0000000  0.6508444  3
  15819  15817  15829  15832     1  0.0000000  0.6973333  3
  15820  15817  15829  15832     1  0.0000000  1.0460000  1
  15820  15817  15829  15832     1  0.0000000  0.6694400  3
  15820  15821  15822  15825     1  0.0000000  0.6508444  3
  15820  15821  15827  15833     1  0.0000000  1.0460000  1
  15820  15821  15827  15833     1  0.0000000  0.6694400  3
  15821  15820  15828  15831     1  0.0000000  1.0460000  1
  15821  15820  15828  15831     1  0.0000000  0.6694400  3
  15822  15821  15820  15824     1  0.0000000  0.6508444  3
  15822  15821  15827  15833     1  0.0000000  1.0460000  1
  15822  15821  15827  15833     1  0.0000000  0.6694400  3
  15823  15821  15820  15828     1  0.0000000  1.0460000  1
  15823  15821  15820  15828     1  0.0000000  0.0000000  3
  15823  15821  15820  15824     1  0.0000000  0.6508444  3
  15823  15821  15822  15826     1  0.0000000  1.0460000  1
  15823  15821  15822  15826     1  0.0000000  0.0000000  3
  15823  15821  15822  15838     1  0.0000000  1.0460000  1
  15823  15821  15822  15838     1  0.0000000  0.0000000  3
  15823  15821  15822  15825     1  0.0000000  0.6508444  3
  15823  15821  15827  15833     1  0.0000000  0.6973333  3
  15824  15820  15817  15829     1  0.0000000  1.0460000  1
  15824  15820  15817  15829     1  0.0000000  0.0000000  3
  15824  15820  15821  15827     1  0.0000000  1.0460000  1
  15824  15820  15821  15827     1  0.0000000  0.0000000  3
  15824  15820  15828  15831     1  0.0000000  0.6973333  3
  15825  15822  15821  15827     1  0.0000000  0.6508444  3
  15834  15830  15816  15838     1  0.0000000  1.0460000  1
  15834  15830  15816  15838     1  0.0000000  0.0000000  3
  15834  15830  15836  15837     1  0.0000000  0.6973333  3
  15835  15830  15816  15838     1  0.0000000  1.0460000  1
  15835  15830  15816  15838     1  0.0000000  0.0000000  3
  15835  15830  15836  15837     1  0.0000000  0.6973333  3
  15839  15840  15843  15847     1  0.0000000  0.6508444  3
  15839  15840  15852  15855     1  0.0000000  1.0460000  1
  15839  15840  15852  15855     1  0.0000000  0.6694400  3
  15839  15853  15859  15860     1  0.0000000  1.0460000  1
  15839  15853  15859  15860     1  0.0000000  0.6694400  3
  15839  15861  15845  15848     1  0.0000000  1.6038667  3
  15840  15843  15844  15846     1  0.0000000  0.6508444  3
  15840  15843  15851  15854     1  0.0000000  1.0460000  1
  15840  15843  15851  15854     1  0.0000000  0.6694400  3
  15840  15839  15853  15857     1  0.0000000  0.6508444  3
  15840  15839  15853  15858     1  0.0000000  0.6508444  3
  15841  15839  15840  15843     1  0.0000000  0.6508444  3
  15841  15839  15840  15852     1  0.0000000  1.0460000  1
  15841  15839  15840  15852     1  0.0000000  0.0000000  3
  15841  15839  15840  15842     1  0.0000000  0.6508444  3
  15841  15839  15853  15859     1  0.0000000  1.0460000  1
  15841  15839  15853  15859     1  0.0000000  0.0000000  3
  15841  15839  15853  15857     1  0.0000000  0.6508444  3
  15841  15839  15853  15858     1  0.0000000  0.6508444  3
  15841  15839  15861  15845     1  0.0000000  1.6038667  3
  15842  15840  15843  15844     1  0.0000000  0.6508444  3
  15842  15840  15843  15851     1  0.0000000  1.0460000  1
  15842  15840  15843  15851     1  0.0000000  0.0000000  3
  15842  15840  15843  15847     1  0.0000000  0.6508444  3
  15842  15840  15852  15855     1  0.0000000  0.6973333  3
  15842  15840  15839  15853     1  0.0000000  0.6508444  3
  15842  15840  15839  15861     1  0.0000000  1.0460000  1
  15842  15840  15839  15861     1  0.0000000  0.0000000  3
  15843  15844  15845  15848     1  0.0000000  0.6508444  3
  15843  15844  15850  15856     1  0.0000000  1.0460000  1
  15843  15844  15850  15856     1  0.0000000  0.6694400  3
  15843  15840  15852  15855     1  0.0000000  1.0460000  1
  15843  15840  15852  15855     1  0.0000000  0.6694400  3
  15844  15843  15851  15854     1  0.0000000  1.0460000  1
  15844  15843  15851  15854     1  0.0000000  0.6694400  3
  15845  15844  15850  15856     1  0.0000000  1.0460000  1
  15845  15844  15850  15856     1  0.0000000  0.6694400  3
  15845  15844  15843  15847     1  0.0000000  0.6508444  3
  15846  15844  15845  15849     1  0.0000000  1.0460000  1
  15846  15844  15845  15849     1  0.0000000  0.0000000  3
  15846  15844  15845  15861     1  0.0000000  1.0460000  1
  15846  15844  15845  15861     1  0.0000000  0.0000000  3
  15846  15844  15845  15848     1  0.0000000  0.6508444  3
  15846  15844  15850  15856     1  0.0000000  0.6973333  3
  15846  15844  15843  15851     1  0.0000000  1.0460000  1
  15846  15844  15843  15851     1  0.0000000  0.0000000  3
  15846  15844  15843  15847     1  0.0000000  0.6508444  3
  15847  15843  15844  15850     1  0.0000000  1.0460000  1
  15847  15843  15844  15850     1  0.0000000  0.0000000  3
  15847  15843  15851  15854     1  0.0000000  0.6973333  3
  15847  15843  15840  15852     1  0.0000000  1.0460000  1
  15847  15843  15840  15852     1  0.0000000  0.0000000  3
  15848  15845  15844  15850     1  0.0000000  0.6508444  3
  15857  15853  15859  15860     1  0.0000000  0.6973333  3
  15857  15853  15839  15861     1  0.0000000  1.0460000  1
  15857  15853  15839  15861     1  0.0000000  0.0000000  3
  15858  15853  15859  15860     1  0.0000000  0.6973333  3
  15858  15853  15839  15861     1  0.0000000  1.0460000  1
  15858  15853  15839  15861     1  0.0000000  0.0000000  3
  15862  15863  15866  15870     1  0.0000000  0.6508444  3
  15862  15863  15875  15878     1  0.0000000  1.0460000  1
  15862  15863  15875  15878     1  0.0000000  0.6694400  3
  15862  15876  15882  15883     1  0.0000000  1.0460000  1
  15862  15876  15882  15883     1  0.0000000  0.6694400  3
  15862  15884  15868  15871     1  0.0000000  1.6038667  3
  15863  15862  15876  15880     1  0.0000000  0.6508444  3
  15863  15862  15876  15881     1  0.0000000  0.6508444  3
  15863  15866  15867  15869     1  0.0000000  0.6508444  3
  15863  15866  15874  15877     1  0.0000000  1.0460000  1
  15863  15866  15874  15877     1  0.0000000  0.6694400  3
  15864  15862  15863  15866     1  0.0000000  0.6508444  3
  15864  15862  15863  15875     1  0.0000000  1.0460000  1
  15864  15862  15863  15875     1  0.0000000  0.0000000  3
  15864  15862  15863  15865     1  0.0000000  0.6508444  3
  15864  15862  15876  15882     1  0.0000000  1.0460000  1
  15864  15862  15876  15882     1  0.0000000  0.0000000  3
  15864  15862  15876  15880     1  0.0000000  0.6508444  3
  15864  15862  15876  15881     1  0.0000000  0.6508444  3
  15864  15862  15884  15868     1  0.0000000  1.6038667  3
  15865  15863  15862  15876     1  0.0000000  0.6508444  3
  15865  15863  15862  15884     1  0.0000000  1.0460000  1
  15865  15863  15862  15884     1  0.0000000  0.0000000  3
  15865  15863  15866  15867     1  0.0000000  0.6508444  3
  15865  15863  15866  15874     1  0.0000000  1.0460000  1
  15865  15863  15866  15874     1  0.0000000  0.0000000  3
  15865  15863  15866  15870     1  0.0000000  0.6508444  3
  15865  15863  15875  15878     1  0.0000000  0.6973333  3
  15866  15863  15875  15878     1  0.0000000  1.0460000  1
  15866  15863  15875  15878     1  0.0000000  0.6694400  3
  15866  15867  15868  15871     1  0.0000000  0.6508444  3
  15866  15867  15873  15879     1  0.0000000  1.0460000  1
  15866  15867  15873  15879     1  0.0000000  0.6694400  3
  15867  15866  15874  15877     1  0.0000000  1.0460000  1
  15867  15866  15874  15877     1  0.0000000  0.6694400  3
  15868  15867  15866  15870     1  0.0000000  0.6508444  3
  15868  15867  15873  15879     1  0.0000000  1.0460000  1
  15868  15867  15873  15879     1  0.0000000  0.6694400  3
  15869  15867  15866  15874     1  0.0000000  1.0460000  1
  15869  15867  15866  15874     1  0.0000000  0.0000000  3
  15869  15867  15866  15870     1  0.0000000  0.6508444  3
  15869  15867  15868  15872     1  0.0000000  1.0460000  1
  15869  15867  15868  15872     1  0.0000000  0.0000000  3
  15869  15867  15868  15884     1  0.0000000  1.0460000  1
  15869  15867  15868  15884     1  0.0000000  0.0000000  3
  15869  15867  15868  15871     1  0.0000000  0.6508444  3
  15869  15867  15873  15879     1  0.0000000  0.6973333  3
  15870  15866  15863  15875     1  0.0000000  1.0460000  1
  15870  15866  15863  15875     1  0.0000000  0.0000000  3
  15870  15866  15867  15873     1  0.0000000  1.0460000  1
  15870  15866  15867  15873     1  0.0000000  0.0000000  3
  15870  15866  15874  15877     1  0.0000000  0.6973333  3
  15871  15868  15867  15873     1  0.0000000  0.6508444  3
  15880  15876  15862  15884     1  0.0000000  1.0460000  1
  15880  15876  15862  15884     1  0.0000000  0.0000000  3
  15880  15876  15882  15883     1  0.0000000  0.6973333  3
  15881  15876  15862  15884     1  0.0000000  1.0460000  1
  15881  15876  15862  15884     1  0.0000000  0.0000000  3
  15881  15876  15882  15883     1  0.0000000  0.6973333  3
  15885  15886  15889  15893     1  0.0000000  0.6508444  3
  15885  15886  15898  15901     1  0.0000000  1.0460000  1
  15885  15886  15898  15901     1  0.0000000  0.6694400  3
  15885  15899  15905  15906     1  0.0000000  1.0460000  1
  15885  15899  15905  15906     1  0.0000000  0.6694400  3
  15885  15907  15891  15894     1  0.0000000  1.6038667  3
  15886  15889  15890  15892     1  0.0000000  0.6508444  3
  15886  15889  15897  15900     1  0.0000000  1.0460000  1
  15886  15889  15897  15900     1  0.0000000  0.6694400  3
  15886  15885  15899  15903     1  0.0000000  0.6508444  3
  15886  15885  15899  15904     1  0.0000000  0.6508444  3
  15887  15885  15886  15889     1  0.0000000  0.6508444  3
  15887  15885  15886  15898     1  0.0000000  1.0460000  1
  15887  15885  15886  15898     1  0.0000000  0.0000000  3
  15887  15885  15886  15888     1  0.0000000  0.6508444  3
  15887  15885  15899  15905     1  0.0000000  1.0460000  1
  15887  15885  15899  15905     1  0.0000000  0.0000000  3
  15887  15885  15899  15903     1  0.0000000  0.6508444  3
  15887  15885  15899  15904     1  0.0000000  0.6508444  3
  15887  15885  15907  15891     1  0.0000000  1.6038667  3
  15888  15886  15889  15890     1  0.0000000  0.6508444  3
  15888  15886  15889  15897     1  0.0000000  1.0460000  1
  15888  15886  15889  15897     1  0.0000000  0.0000000  3
  15888  15886  15889  15893     1  0.0000000  0.6508444  3
  15888  15886  15898  15901     1  0.0000000  0.6973333  3
  15888  15886  15885  15899     1  0.0000000  0.6508444  3
  15888  15886  15885  15907     1  0.0000000  1.0460000  1
  15888  15886  15885  15907     1  0.0000000  0.0000000  3
  15889  15890  15891  15894     1  0.0000000  0.6508444  3
  15889  15890  15896  15902     1  0.0000000  1.0460000  1
  15889  15890  15896  15902     1  0.0000000  0.6694400  3
  15889  15886  15898  15901     1  0.0000000  1.0460000  1
  15889  15886  15898  15901     1  0.0000000  0.6694400  3
  15890  15889  15897  15900     1  0.0000000  1.0460000  1
  15890  15889  15897  15900     1  0.0000000  0.6694400  3
  15891  15890  15896  15902     1  0.0000000  1.0460000  1
  15891  15890  15896  15902     1  0.0000000  0.6694400  3
  15891  15890  15889  15893     1  0.0000000  0.6508444  3
  15892  15890  15891  15895     1  0.0000000  1.0460000  1
  15892  15890  15891  15895     1  0.0000000  0.0000000  3
  15892  15890  15891  15907     1  0.0000000  1.0460000  1
  15892  15890  15891  15907     1  0.0000000  0.0000000  3
  15892  15890  15891  15894     1  0.0000000  0.6508444  3
  15892  15890  15896  15902     1  0.0000000  0.6973333  3
  15892  15890  15889  15897     1  0.0000000  1.0460000  1
  15892  15890  15889  15897     1  0.0000000  0.0000000  3
  15892  15890  15889  15893     1  0.0000000  0.6508444  3
  15893  15889  15890  15896     1  0.0000000  1.0460000  1
  15893  15889  15890  15896     1  0.0000000  0.0000000  3
  15893  15889  15897  15900     1  0.0000000  0.6973333  3
  15893  15889  15886  15898     1  0.0000000  1.0460000  1
  15893  15889  15886  15898     1  0.0000000  0.0000000  3
  15894  15891  15890  15896     1  0.0000000  0.6508444  3
  15903  15899  15905  15906     1  0.0000000  0.6973333  3
  15903  15899  15885  15907     1  0.0000000  1.0460000  1
  15903  15899  15885  15907     1  0.0000000  0.0000000  3
  15904  15899  15905  15906     1  0.0000000  0.6973333  3
  15904  15899  15885  15907     1  0.0000000  1.0460000  1
  15904  15899  15885  15907     1  0.0000000  0.0000000  3
  15908  15909  15912  15916     1  0.0000000  0.6508444  3
  15908  15909  15921  15924     1  0.0000000  1.0460000  1
  15908  15909  15921  15924     1  0.0000000  0.6694400  3
  15908  15922  15928  15929     1  0.0000000  1.0460000  1
  15908  15922  15928  15929     1  0.0000000  0.6694400  3
  15908  15930  15914  15917     1  0.0000000  1.6038667  3
  15909  15908  15922  15926     1  0.0000000  0.6508444  3
  15909  15908  15922  15927     1  0.0000000  0.6508444  3
  15909  15912  15913  15915     1  0.0000000  0.6508444  3
  15909  15912  15920  15923     1  0.0000000  1.0460000  1
  15909  15912  15920  15923     1  0.0000000  0.6694400  3
  15910  15908  15909  15912     1  0.0000000  0.6508444  3
  15910  15908  15909  15921     1  0.0000000  1.0460000  1
  15910  15908  15909  15921     1  0.0000000  0.0000000  3
  15910  15908  15909  15911     1  0.0000000  0.6508444  3
  15910  15908  15922  15928     1  0.0000000  1.0460000  1
  15910  15908  15922  15928     1  0.0000000  0.0000000  3
  15910  15908  15922  15926     1  0.0000000  0.6508444  3
  15910  15908  15922  15927     1  0.0000000  0.6508444  3
  15910  15908  15930  15914     1  0.0000000  1.6038667  3
  15911  15909  15908  15922     1  0.0000000  0.6508444  3
  15911  15909  15908  15930     1  0.0000000  1.0460000  1
  15911  15909  15908  15930     1  0.0000000  0.0000000  3
  15911  15909  15912  15913     1  0.0000000  0.6508444  3
  15911  15909  15912  15920     1  0.0000000  1.0460000  1
  15911  15909  15912  15920     1  0.0000000  0.0000000  3
  15911  15909  15912  15916     1  0.0000000  0.6508444  3
  15911  15909  15921  15924     1  0.0000000  0.6973333  3
  15912  15909  15921  15924     1  0.0000000  1.0460000  1
  15912  15909  15921  15924     1  0.0000000  0.6694400  3
  15912  15913  15914  15917     1  0.0000000  0.6508444  3
  15912  15913  15919  15925     1  0.0000000  1.0460000  1
  15912  15913  15919  15925     1  0.0000000  0.6694400  3
  15913  15912  15920  15923     1  0.0000000  1.0460000  1
  15913  15912  15920  15923     1  0.0000000  0.6694400  3
  15914  15913  15912  15916     1  0.0000000  0.6508444  3
  15914  15913  15919  15925     1  0.0000000  1.0460000  1
  15914  15913  15919  15925     1  0.0000000  0.6694400  3
  15915  15913  15912  15920     1  0.0000000  1.0460000  1
  15915  15913  15912  15920     1  0.0000000  0.0000000  3
  15915  15913  15912  15916     1  0.0000000  0.6508444  3
  15915  15913  15914  15918     1  0.0000000  1.0460000  1
  15915  15913  15914  15918     1  0.0000000  0.0000000  3
  15915  15913  15914  15930     1  0.0000000  1.0460000  1
  15915  15913  15914  15930     1  0.0000000  0.0000000  3
  15915  15913  15914  15917     1  0.0000000  0.6508444  3
  15915  15913  15919  15925     1  0.0000000  0.6973333  3
  15916  15912  15909  15921     1  0.0000000  1.0460000  1
  15916  15912  15909  15921     1  0.0000000  0.0000000  3
  15916  15912  15913  15919     1  0.0000000  1.0460000  1
  15916  15912  15913  15919     1  0.0000000  0.0000000  3
  15916  15912  15920  15923     1  0.0000000  0.6973333  3
  15917  15914  15913  15919     1  0.0000000  0.6508444  3
  15926  15922  15908  15930     1  0.0000000  1.0460000  1
  15926  15922  15908  15930     1  0.0000000  0.0000000  3
  15926  15922  15928  15929     1  0.0000000  0.6973333  3
  15927  15922  15908  15930     1  0.0000000  1.0460000  1
  15927  15922  15908  15930     1  0.0000000  0.0000000  3
  15927  15922  15928  15929     1  0.0000000  0.6973333  3
  15931  15932  15935  15939     1  0.0000000  0.6508444  3
  15931  15932  15944  15947     1  0.0000000  1.0460000  1
  15931  15932  15944  15947     1  0.0000000  0.6694400  3
  15931  15945  15951  15952     1  0.0000000  1.0460000  1
  15931  15945  15951  15952     1  0.0000000  0.6694400  3
  15931  15953  15937  15940     1  0.0000000  1.6038667  3
  15932  15935  15936  15938     1  0.0000000  0.6508444  3
  15932  15935  15943  15946     1  0.0000000  1.0460000  1
  15932  15935  15943  15946     1  0.0000000  0.6694400  3
  15932  15931  15945  15949     1  0.0000000  0.6508444  3
  15932  15931  15945  15950     1  0.0000000  0.6508444  3
  15933  15931  15932  15935     1  0.0000000  0.6508444  3
  15933  15931  15932  15944     1  0.0000000  1.0460000  1
  15933  15931  15932  15944     1  0.0000000  0.0000000  3
  15933  15931  15932  15934     1  0.0000000  0.6508444  3
  15933  15931  15945  15951     1  0.0000000  1.0460000  1
  15933  15931  15945  15951     1  0.0000000  0.0000000  3
  15933  15931  15945  15949     1  0.0000000  0.6508444  3
  15933  15931  15945  15950     1  0.0000000  0.6508444  3
  15933  15931  15953  15937     1  0.0000000  1.6038667  3
  15934  15932  15935  15936     1  0.0000000  0.6508444  3
  15934  15932  15935  15943     1  0.0000000  1.0460000  1
  15934  15932  15935  15943     1  0.0000000  0.0000000  3
  15934  15932  15935  15939     1  0.0000000  0.6508444  3
  15934  15932  15944  15947     1  0.0000000  0.6973333  3
  15934  15932  15931  15945     1  0.0000000  0.6508444  3
  15934  15932  15931  15953     1  0.0000000  1.0460000  1
  15934  15932  15931  15953     1  0.0000000  0.0000000  3
  15935  15936  15937  15940     1  0.0000000  0.6508444  3
  15935  15936  15942  15948     1  0.0000000  1.0460000  1
  15935  15936  15942  15948     1  0.0000000  0.6694400  3
  15935  15932  15944  15947     1  0.0000000  1.0460000  1
  15935  15932  15944  15947     1  0.0000000  0.6694400  3
  15936  15935  15943  15946     1  0.0000000  1.0460000  1
  15936  15935  15943  15946     1  0.0000000  0.6694400  3
  15937  15936  15942  15948     1  0.0000000  1.0460000  1
  15937  15936  15942  15948     1  0.0000000  0.6694400  3
  15937  15936  15935  15939     1  0.0000000  0.6508444  3
  15938  15936  15937  15941     1  0.0000000  1.0460000  1
  15938  15936  15937  15941     1  0.0000000  0.0000000  3
  15938  15936  15937  15953     1  0.0000000  1.0460000  1
  15938  15936  15937  15953     1  0.0000000  0.0000000  3
  15938  15936  15937  15940     1  0.0000000  0.6508444  3
  15938  15936  15942  15948     1  0.0000000  0.6973333  3
  15938  15936  15935  15943     1  0.0000000  1.0460000  1
  15938  15936  15935  15943     1  0.0000000  0.0000000  3
  15938  15936  15935  15939     1  0.0000000  0.6508444  3
  15939  15935  15936  15942     1  0.0000000  1.0460000  1
  15939  15935  15936  15942     1  0.0000000  0.0000000  3
  15939  15935  15943  15946     1  0.0000000  0.6973333  3
  15939  15935  15932  15944     1  0.0000000  1.0460000  1
  15939  15935  15932  15944     1  0.0000000  0.0000000  3
  15940  15937  15936  15942     1  0.0000000  0.6508444  3
  15949  15945  15951  15952     1  0.0000000  0.6973333  3
  15949  15945  15931  15953     1  0.0000000  1.0460000  1
  15949  15945  15931  15953     1  0.0000000  0.0000000  3
  15950  15945  15951  15952     1  0.0000000  0.6973333  3
  15950  15945  15931  15953     1  0.0000000  1.0460000  1
  15950  15945  15931  15953     1  0.0000000  0.0000000  3
  15954  15955  15958  15962     1  0.0000000  0.6508444  3
  15954  15955  15967  15970     1  0.0000000  1.0460000  1
  15954  15955  15967  15970     1  0.0000000  0.6694400  3
  15954  15968  15974  15975     1  0.0000000  1.0460000  1
  15954  15968  15974  15975     1  0.0000000  0.6694400  3
  15954  15976  15960  15963     1  0.0000000  1.6038667  3
  15955  15954  15968  15972     1  0.0000000  0.6508444  3
  15955  15954  15968  15973     1  0.0000000  0.6508444  3
  15955  15958  15959  15961     1  0.0000000  0.6508444  3
  15955  15958  15966  15969     1  0.0000000  1.0460000  1
  15955  15958  15966  15969     1  0.0000000  0.6694400  3
  15956  15954  15955  15958     1  0.0000000  0.6508444  3
  15956  15954  15955  15967     1  0.0000000  1.0460000  1
  15956  15954  15955  15967     1  0.0000000  0.0000000  3
  15956  15954  15955  15957     1  0.0000000  0.6508444  3
  15956  15954  15968  15974     1  0.0000000  1.0460000  1
  15956  15954  15968  15974     1  0.0000000  0.0000000  3
  15956  15954  15968  15972     1  0.0000000  0.6508444  3
  15956  15954  15968  15973     1  0.0000000  0.6508444  3
  15956  15954  15976  15960     1  0.0000000  1.6038667  3
  15957  15955  15954  15968     1  0.0000000  0.6508444  3
  15957  15955  15954  15976     1  0.0000000  1.0460000  1
  15957  15955  15954  15976     1  0.0000000  0.0000000  3
  15957  15955  15958  15959     1  0.0000000  0.6508444  3
  15957  15955  15958  15966     1  0.0000000  1.0460000  1
  15957  15955  15958  15966     1  0.0000000  0.0000000  3
  15957  15955  15958  15962     1  0.0000000  0.6508444  3
  15957  15955  15967  15970     1  0.0000000  0.6973333  3
  15958  15955  15967  15970     1  0.0000000  1.0460000  1
  15958  15955  15967  15970     1  0.0000000  0.6694400  3
  15958  15959  15960  15963     1  0.0000000  0.6508444  3
  15958  15959  15965  15971     1  0.0000000  1.0460000  1
  15958  15959  15965  15971     1  0.0000000  0.6694400  3
  15959  15958  15966  15969     1  0.0000000  1.0460000  1
  15959  15958  15966  15969     1  0.0000000  0.6694400  3
  15960  15959  15958  15962     1  0.0000000  0.6508444  3
  15960  15959  15965  15971     1  0.0000000  1.0460000  1
  15960  15959  15965  15971     1  0.0000000  0.6694400  3
  15961  15959  15958  15966     1  0.0000000  1.0460000  1
  15961  15959  15958  15966     1  0.0000000  0.0000000  3
  15961  15959  15958  15962     1  0.0000000  0.6508444  3
  15961  15959  15960  15964     1  0.0000000  1.0460000  1
  15961  15959  15960  15964     1  0.0000000  0.0000000  3
  15961  15959  15960  15976     1  0.0000000  1.0460000  1
  15961  15959  15960  15976     1  0.0000000  0.0000000  3
  15961  15959  15960  15963     1  0.0000000  0.6508444  3
  15961  15959  15965  15971     1  0.0000000  0.6973333  3
  15962  15958  15955  15967     1  0.0000000  1.0460000  1
  15962  15958  15955  15967     1  0.0000000  0.0000000  3
  15962  15958  15959  15965     1  0.0000000  1.0460000  1
  15962  15958  15959  15965     1  0.0000000  0.0000000  3
  15962  15958  15966  15969     1  0.0000000  0.6973333  3
  15963  15960  15959  15965     1  0.0000000  0.6508444  3
  15972  15968  15954  15976     1  0.0000000  1.0460000  1
  15972  15968  15954  15976     1  0.0000000  0.0000000  3
  15972  15968  15974  15975     1  0.0000000  0.6973333  3
  15973  15968  15954  15976     1  0.0000000  1.0460000  1
  15973  15968  15954  15976     1  0.0000000  0.0000000  3
  15973  15968  15974  15975     1  0.0000000  0.6973333  3
  15977  15978  15981  15985     1  0.0000000  0.6508444  3
  15977  15978  15990  15993     1  0.0000000  1.0460000  1
  15977  15978  15990  15993     1  0.0000000  0.6694400  3
  15977  15991  15997  15998     1  0.0000000  1.0460000  1
  15977  15991  15997  15998     1  0.0000000  0.6694400  3
  15977  15999  15983  15986     1  0.0000000  1.6038667  3
  15978  15981  15982  15984     1  0.0000000  0.6508444  3
  15978  15981  15989  15992     1  0.0000000  1.0460000  1
  15978  15981  15989  15992     1  0.0000000  0.6694400  3
  15978  15977  15991  15995     1  0.0000000  0.6508444  3
  15978  15977  15991  15996     1  0.0000000  0.6508444  3
  15979  15977  15978  15981     1  0.0000000  0.6508444  3
  15979  15977  15978  15990     1  0.0000000  1.0460000  1
  15979  15977  15978  15990     1  0.0000000  0.0000000  3
  15979  15977  15978  15980     1  0.0000000  0.6508444  3
  15979  15977  15991  15997     1  0.0000000  1.0460000  1
  15979  15977  15991  15997     1  0.0000000  0.0000000  3
  15979  15977  15991  15995     1  0.0000000  0.6508444  3
  15979  15977  15991  15996     1  0.0000000  0.6508444  3
  15979  15977  15999  15983     1  0.0000000  1.6038667  3
  15980  15978  15981  15982     1  0.0000000  0.6508444  3
  15980  15978  15981  15989     1  0.0000000  1.0460000  1
  15980  15978  15981  15989     1  0.0000000  0.0000000  3
  15980  15978  15981  15985     1  0.0000000  0.6508444  3
  15980  15978  15990  15993     1  0.0000000  0.6973333  3
  15980  15978  15977  15991     1  0.0000000  0.6508444  3
  15980  15978  15977  15999     1  0.0000000  1.0460000  1
  15980  15978  15977  15999     1  0.0000000  0.0000000  3
  15981  15982  15983  15986     1  0.0000000  0.6508444  3
  15981  15982  15988  15994     1  0.0000000  1.0460000  1
  15981  15982  15988  15994     1  0.0000000  0.6694400  3
  15981  15978  15990  15993     1  0.0000000  1.0460000  1
  15981  15978  15990  15993     1  0.0000000  0.6694400  3
  15982  15981  15989  15992     1  0.0000000  1.0460000  1
  15982  15981  15989  15992     1  0.0000000  0.6694400  3
  15983  15982  15988  15994     1  0.0000000  1.0460000  1
  15983  15982  15988  15994     1  0.0000000  0.6694400  3
  15983  15982  15981  15985     1  0.0000000  0.6508444  3
  15984  15982  15983  15987     1  0.0000000  1.0460000  1
  15984  15982  15983  15987     1  0.0000000  0.0000000  3
  15984  15982  15983  15999     1  0.0000000  1.0460000  1
  15984  15982  15983  15999     1  0.0000000  0.0000000  3
  15984  15982  15983  15986     1  0.0000000  0.6508444  3
  15984  15982  15988  15994     1  0.0000000  0.6973333  3
  15984  15982  15981  15989     1  0.0000000  1.0460000  1
  15984  15982  15981  15989     1  0.0000000  0.0000000  3
  15984  15982  15981  15985     1  0.0000000  0.6508444  3
  15985  15981  15982  15988     1  0.0000000  1.0460000  1
  15985  15981  15982  15988     1  0.0000000  0.0000000  3
  15985  15981  15989  15992     1  0.0000000  0.6973333  3
  15985  15981  15978  15990     1  0.0000000  1.0460000  1
  15985  15981  15978  15990     1  0.0000000  0.0000000  3
  15986  15983  15982  15988     1  0.0000000  0.6508444  3
  15995  15991  15997  15998     1  0.0000000  0.6973333  3
  15995  15991  15977  15999     1  0.0000000  1.0460000  1
  15995  15991  15977  15999     1  0.0000000  0.0000000  3
  15996  15991  15997  15998     1  0.0000000  0.6973333  3
  15996  15991  15977  15999     1  0.0000000  1.0460000  1
  15996  15991  15977  15999     1  0.0000000  0.0000000  3
  16000  16001  16004  16008     1  0.0000000  0.6508444  3
  16000  16001  16013  16016     1  0.0000000  1.0460000  1
  16000  16001  16013  16016     1  0.0000000  0.6694400  3
  16000  16014  16020  16021     1  0.0000000  1.0460000  1
  16000  16014  16020  16021     1  0.0000000  0.6694400  3
  16000  16022  16006  16009     1  0.0000000  1.6038667  3
  16001  16000  16014  16018     1  0.0000000  0.6508444  3
  16001  16000  16014  16019     1  0.0000000  0.6508444  3
  16001  16004  16005  16007     1  0.0000000  0.6508444  3
  16001  16004  16012  16015     1  0.0000000  1.0460000  1
  16001  16004  16012  16015     1  0.0000000  0.6694400  3
  16002  16000  16001  16004     1  0.0000000  0.6508444  3
  16002  16000  16001  16013     1  0.0000000  1.0460000  1
  16002  16000  16001  16013     1  0.0000000  0.0000000  3
  16002  16000  16001  16003     1  0.0000000  0.6508444  3
  16002  16000  16014  16020     1  0.0000000  1.0460000  1
  16002  16000  16014  16020     1  0.0000000  0.0000000  3
  16002  16000  16014  16018     1  0.0000000  0.6508444  3
  16002  16000  16014  16019     1  0.0000000  0.6508444  3
  16002  16000  16022  16006     1  0.0000000  1.6038667  3
  16003  16001  16000  16014     1  0.0000000  0.6508444  3
  16003  16001  16000  16022     1  0.0000000  1.0460000  1
  16003  16001  16000  16022     1  0.0000000  0.0000000  3
  16003  16001  16004  16005     1  0.0000000  0.6508444  3
  16003  16001  16004  16012     1  0.0000000  1.0460000  1
  16003  16001  16004  16012     1  0.0000000  0.0000000  3
  16003  16001  16004  16008     1  0.0000000  0.6508444  3
  16003  16001  16013  16016     1  0.0000000  0.6973333  3
  16004  16001  16013  16016     1  0.0000000  1.0460000  1
  16004  16001  16013  16016     1  0.0000000  0.6694400  3
  16004  16005  16006  16009     1  0.0000000  0.6508444  3
  16004  16005  16011  16017     1  0.0000000  1.0460000  1
  16004  16005  16011  16017     1  0.0000000  0.6694400  3
  16005  16004  16012  16015     1  0.0000000  1.0460000  1
  16005  16004  16012  16015     1  0.0000000  0.6694400  3
  16006  16005  16004  16008     1  0.0000000  0.6508444  3
  16006  16005  16011  16017     1  0.0000000  1.0460000  1
  16006  16005  16011  16017     1  0.0000000  0.6694400  3
  16007  16005  16004  16012     1  0.0000000  1.0460000  1
  16007  16005  16004  16012     1  0.0000000  0.0000000  3
  16007  16005  16004  16008     1  0.0000000  0.6508444  3
  16007  16005  16006  16010     1  0.0000000  1.0460000  1
  16007  16005  16006  16010     1  0.0000000  0.0000000  3
  16007  16005  16006  16022     1  0.0000000  1.0460000  1
  16007  16005  16006  16022     1  0.0000000  0.0000000  3
  16007  16005  16006  16009     1  0.0000000  0.6508444  3
  16007  16005  16011  16017     1  0.0000000  0.6973333  3
  16008  16004  16001  16013     1  0.0000000  1.0460000  1
  16008  16004  16001  16013     1  0.0000000  0.0000000  3
  16008  16004  16005  16011     1  0.0000000  1.0460000  1
  16008  16004  16005  16011     1  0.0000000  0.0000000  3
  16008  16004  16012  16015     1  0.0000000  0.6973333  3
  16009  16006  16005  16011     1  0.0000000  0.6508444  3
  16018  16014  16000  16022     1  0.0000000  1.0460000  1
  16018  16014  16000  16022     1  0.0000000  0.0000000  3
  16018  16014  16020  16021     1  0.0000000  0.6973333  3
  16019  16014  16000  16022     1  0.0000000  1.0460000  1
  16019  16014  16000  16022     1  0.0000000  0.0000000  3
  16019  16014  16020  16021     1  0.0000000  0.6973333  3
  16023  16024  16027  16031     1  0.0000000  0.6508444  3
  16023  16024  16036  16039     1  0.0000000  1.0460000  1
  16023  16024  16036  16039     1  0.0000000  0.6694400  3
  16023  16037  16043  16044     1  0.0000000  1.0460000  1
  16023  16037  16043  16044     1  0.0000000  0.6694400  3
  16023  16045  16029  16032     1  0.0000000  1.6038667  3
  16024  16027  16028  16030     1  0.0000000  0.6508444  3
  16024  16027  16035  16038     1  0.0000000  1.0460000  1
  16024  16027  16035  16038     1  0.0000000  0.6694400  3
  16024  16023  16037  16041     1  0.0000000  0.6508444  3
  16024  16023  16037  16042     1  0.0000000  0.6508444  3
  16025  16023  16024  16027     1  0.0000000  0.6508444  3
  16025  16023  16024  16036     1  0.0000000  1.0460000  1
  16025  16023  16024  16036     1  0.0000000  0.0000000  3
  16025  16023  16024  16026     1  0.0000000  0.6508444  3
  16025  16023  16037  16043     1  0.0000000  1.0460000  1
  16025  16023  16037  16043     1  0.0000000  0.0000000  3
  16025  16023  16037  16041     1  0.0000000  0.6508444  3
  16025  16023  16037  16042     1  0.0000000  0.6508444  3
  16025  16023  16045  16029     1  0.0000000  1.6038667  3
  16026  16024  16027  16028     1  0.0000000  0.6508444  3
  16026  16024  16027  16035     1  0.0000000  1.0460000  1
  16026  16024  16027  16035     1  0.0000000  0.0000000  3
  16026  16024  16027  16031     1  0.0000000  0.6508444  3
  16026  16024  16036  16039     1  0.0000000  0.6973333  3
  16026  16024  16023  16037     1  0.0000000  0.6508444  3
  16026  16024  16023  16045     1  0.0000000  1.0460000  1
  16026  16024  16023  16045     1  0.0000000  0.0000000  3
  16027  16028  16029  16032     1  0.0000000  0.6508444  3
  16027  16028  16034  16040     1  0.0000000  1.0460000  1
  16027  16028  16034  16040     1  0.0000000  0.6694400  3
  16027  16024  16036  16039     1  0.0000000  1.0460000  1
  16027  16024  16036  16039     1  0.0000000  0.6694400  3
  16028  16027  16035  16038     1  0.0000000  1.0460000  1
  16028  16027  16035  16038     1  0.0000000  0.6694400  3
  16029  16028  16034  16040     1  0.0000000  1.0460000  1
  16029  16028  16034  16040     1  0.0000000  0.6694400  3
  16029  16028  16027  16031     1  0.0000000  0.6508444  3
  16030  16028  16029  16033     1  0.0000000  1.0460000  1
  16030  16028  16029  16033     1  0.0000000  0.0000000  3
  16030  16028  16029  16045     1  0.0000000  1.0460000  1
  16030  16028  16029  16045     1  0.0000000  0.0000000  3
  16030  16028  16029  16032     1  0.0000000  0.6508444  3
  16030  16028  16034  16040     1  0.0000000  0.6973333  3
  16030  16028  16027  16035     1  0.0000000  1.0460000  1
  16030  16028  16027  16035     1  0.0000000  0.0000000  3
  16030  16028  16027  16031     1  0.0000000  0.6508444  3
  16031  16027  16028  16034     1  0.0000000  1.0460000  1
  16031  16027  16028  16034     1  0.0000000  0.0000000  3
  16031  16027  16035  16038     1  0.0000000  0.6973333  3
  16031  16027  16024  16036     1  0.0000000  1.0460000  1
  16031  16027  16024  16036     1  0.0000000  0.0000000  3
  16032  16029  16028  16034     1  0.0000000  0.6508444  3
  16041  16037  16043  16044     1  0.0000000  0.6973333  3
  16041  16037  16023  16045     1  0.0000000  1.0460000  1
  16041  16037  16023  16045     1  0.0000000  0.0000000  3
  16042  16037  16043  16044     1  0.0000000  0.6973333  3
  16042  16037  16023  16045     1  0.0000000  1.0460000  1
  16042  16037  16023  16045     1  0.0000000  0.0000000  3
  16046  16047  16050  16054     1  0.0000000  0.6508444  3
  16046  16047  16059  16062     1  0.0000000  1.0460000  1
  16046  16047  16059  16062     1  0.0000000  0.6694400  3
  16046  16060  16066  16067     1  0.0000000  1.0460000  1
  16046  16060  16066  16067     1  0.0000000  0.6694400  3
  16046  16068  16052  16055     1  0.0000000  1.6038667  3
  16047  16046  16060  16064     1  0.0000000  0.6508444  3
  16047  16046  16060  16065     1  0.0000000  0.6508444  3
  16047  16050  16051  16053     1  0.0000000  0.6508444  3
  16047  16050  16058  16061     1  0.0000000  1.0460000  1
  16047  16050  16058  16061     1  0.0000000  0.6694400  3
  16048  16046  16047  16050     1  0.0000000  0.6508444  3
  16048  16046  16047  16059     1  0.0000000  1.0460000  1
  16048  16046  16047  16059     1  0.0000000  0.0000000  3
  16048  16046  16047  16049     1  0.0000000  0.6508444  3
  16048  16046  16060  16066     1  0.0000000  1.0460000  1
  16048  16046  16060  16066     1  0.0000000  0.0000000  3
  16048  16046  16060  16064     1  0.0000000  0.6508444  3
  16048  16046  16060  16065     1  0.0000000  0.6508444  3
  16048  16046  16068  16052     1  0.0000000  1.6038667  3
  16049  16047  16046  16060     1  0.0000000  0.6508444  3
  16049  16047  16046  16068     1  0.0000000  1.0460000  1
  16049  16047  16046  16068     1  0.0000000  0.0000000  3
  16049  16047  16050  16051     1  0.0000000  0.6508444  3
  16049  16047  16050  16058     1  0.0000000  1.0460000  1
  16049  16047  16050  16058     1  0.0000000  0.0000000  3
  16049  16047  16050  16054     1  0.0000000  0.6508444  3
  16049  16047  16059  16062     1  0.0000000  0.6973333  3
  16050  16047  16059  16062     1  0.0000000  1.0460000  1
  16050  16047  16059  16062     1  0.0000000  0.6694400  3
  16050  16051  16052  16055     1  0.0000000  0.6508444  3
  16050  16051  16057  16063     1  0.0000000  1.0460000  1
  16050  16051  16057  16063     1  0.0000000  0.6694400  3
  16051  16050  16058  16061     1  0.0000000  1.0460000  1
  16051  16050  16058  16061     1  0.0000000  0.6694400  3
  16052  16051  16050  16054     1  0.0000000  0.6508444  3
  16052  16051  16057  16063     1  0.0000000  1.0460000  1
  16052  16051  16057  16063     1  0.0000000  0.6694400  3
  16053  16051  16050  16058     1  0.0000000  1.0460000  1
  16053  16051  16050  16058     1  0.0000000  0.0000000  3
  16053  16051  16050  16054     1  0.0000000  0.6508444  3
  16053  16051  16052  16056     1  0.0000000  1.0460000  1
  16053  16051  16052  16056     1  0.0000000  0.0000000  3
  16053  16051  16052  16068     1  0.0000000  1.0460000  1
  16053  16051  16052  16068     1  0.0000000  0.0000000  3
  16053  16051  16052  16055     1  0.0000000  0.6508444  3
  16053  16051  16057  16063     1  0.0000000  0.6973333  3
  16054  16050  16047  16059     1  0.0000000  1.0460000  1
  16054  16050  16047  16059     1  0.0000000  0.0000000  3
  16054  16050  16051  16057     1  0.0000000  1.0460000  1
  16054  16050  16051  16057     1  0.0000000  0.0000000  3
  16054  16050  16058  16061     1  0.0000000  0.6973333  3
  16055  16052  16051  16057     1  0.0000000  0.6508444  3
  16064  16060  16046  16068     1  0.0000000  1.0460000  1
  16064  16060  16046  16068     1  0.0000000  0.0000000  3
  16064  16060  16066  16067     1  0.0000000  0.6973333  3
  16065  16060  16046  16068     1  0.0000000  1.0460000  1
  16065  16060  16046  16068     1  0.0000000  0.0000000  3
  16065  16060  16066  16067     1  0.0000000  0.6973333  3
  16069  16070  16073  16077     1  0.0000000  0.6508444  3
  16069  16070  16082  16085     1  0.0000000  1.0460000  1
  16069  16070  16082  16085     1  0.0000000  0.6694400  3
  16069  16083  16089  16090     1  0.0000000  1.0460000  1
  16069  16083  16089  16090     1  0.0000000  0.6694400  3
  16069  16091  16075  16078     1  0.0000000  1.6038667  3
  16070  16073  16074  16076     1  0.0000000  0.6508444  3
  16070  16073  16081  16084     1  0.0000000  1.0460000  1
  16070  16073  16081  16084     1  0.0000000  0.6694400  3
  16070  16069  16083  16087     1  0.0000000  0.6508444  3
  16070  16069  16083  16088     1  0.0000000  0.6508444  3
  16071  16069  16070  16073     1  0.0000000  0.6508444  3
  16071  16069  16070  16082     1  0.0000000  1.0460000  1
  16071  16069  16070  16082     1  0.0000000  0.0000000  3
  16071  16069  16070  16072     1  0.0000000  0.6508444  3
  16071  16069  16083  16089     1  0.0000000  1.0460000  1
  16071  16069  16083  16089     1  0.0000000  0.0000000  3
  16071  16069  16083  16087     1  0.0000000  0.6508444  3
  16071  16069  16083  16088     1  0.0000000  0.6508444  3
  16071  16069  16091  16075     1  0.0000000  1.6038667  3
  16072  16070  16073  16074     1  0.0000000  0.6508444  3
  16072  16070  16073  16081     1  0.0000000  1.0460000  1
  16072  16070  16073  16081     1  0.0000000  0.0000000  3
  16072  16070  16073  16077     1  0.0000000  0.6508444  3
  16072  16070  16082  16085     1  0.0000000  0.6973333  3
  16072  16070  16069  16083     1  0.0000000  0.6508444  3
  16072  16070  16069  16091     1  0.0000000  1.0460000  1
  16072  16070  16069  16091     1  0.0000000  0.0000000  3
  16073  16074  16075  16078     1  0.0000000  0.6508444  3
  16073  16074  16080  16086     1  0.0000000  1.0460000  1
  16073  16074  16080  16086     1  0.0000000  0.6694400  3
  16073  16070  16082  16085     1  0.0000000  1.0460000  1
  16073  16070  16082  16085     1  0.0000000  0.6694400  3
  16074  16073  16081  16084     1  0.0000000  1.0460000  1
  16074  16073  16081  16084     1  0.0000000  0.6694400  3
  16075  16074  16080  16086     1  0.0000000  1.0460000  1
  16075  16074  16080  16086     1  0.0000000  0.6694400  3
  16075  16074  16073  16077     1  0.0000000  0.6508444  3
  16076  16074  16075  16079     1  0.0000000  1.0460000  1
  16076  16074  16075  16079     1  0.0000000  0.0000000  3
  16076  16074  16075  16091     1  0.0000000  1.0460000  1
  16076  16074  16075  16091     1  0.0000000  0.0000000  3
  16076  16074  16075  16078     1  0.0000000  0.6508444  3
  16076  16074  16080  16086     1  0.0000000  0.6973333  3
  16076  16074  16073  16081     1  0.0000000  1.0460000  1
  16076  16074  16073  16081     1  0.0000000  0.0000000  3
  16076  16074  16073  16077     1  0.0000000  0.6508444  3
  16077  16073  16074  16080     1  0.0000000  1.0460000  1
  16077  16073  16074  16080     1  0.0000000  0.0000000  3
  16077  16073  16081  16084     1  0.0000000  0.6973333  3
  16077  16073  16070  16082     1  0.0000000  1.0460000  1
  16077  16073  16070  16082     1  0.0000000  0.0000000  3
  16078  16075  16074  16080     1  0.0000000  0.6508444  3
  16087  16083  16089  16090     1  0.0000000  0.6973333  3
  16087  16083  16069  16091     1  0.0000000  1.0460000  1
  16087  16083  16069  16091     1  0.0000000  0.0000000  3
  16088  16083  16089  16090     1  0.0000000  0.6973333  3
  16088  16083  16069  16091     1  0.0000000  1.0460000  1
  16088  16083  16069  16091     1  0.0000000  0.0000000  3
  16092  16093  16096  16100     1  0.0000000  0.6508444  3
  16092  16093  16105  16108     1  0.0000000  1.0460000  1
  16092  16093  16105  16108     1  0.0000000  0.6694400  3
  16092  16106  16112  16113     1  0.0000000  1.0460000  1
  16092  16106  16112  16113     1  0.0000000  0.6694400  3
  16092  16114  16098  16101     1  0.0000000  1.6038667  3
  16093  16092  16106  16110     1  0.0000000  0.6508444  3
  16093  16092  16106  16111     1  0.0000000  0.6508444  3
  16093  16096  16097  16099     1  0.0000000  0.6508444  3
  16093  16096  16104  16107     1  0.0000000  1.0460000  1
  16093  16096  16104  16107     1  0.0000000  0.6694400  3
  16094  16092  16093  16096     1  0.0000000  0.6508444  3
  16094  16092  16093  16105     1  0.0000000  1.0460000  1
  16094  16092  16093  16105     1  0.0000000  0.0000000  3
  16094  16092  16093  16095     1  0.0000000  0.6508444  3
  16094  16092  16106  16112     1  0.0000000  1.0460000  1
  16094  16092  16106  16112     1  0.0000000  0.0000000  3
  16094  16092  16106  16110     1  0.0000000  0.6508444  3
  16094  16092  16106  16111     1  0.0000000  0.6508444  3
  16094  16092  16114  16098     1  0.0000000  1.6038667  3
  16095  16093  16092  16106     1  0.0000000  0.6508444  3
  16095  16093  16092  16114     1  0.0000000  1.0460000  1
  16095  16093  16092  16114     1  0.0000000  0.0000000  3
  16095  16093  16096  16097     1  0.0000000  0.6508444  3
  16095  16093  16096  16104     1  0.0000000  1.0460000  1
  16095  16093  16096  16104     1  0.0000000  0.0000000  3
  16095  16093  16096  16100     1  0.0000000  0.6508444  3
  16095  16093  16105  16108     1  0.0000000  0.6973333  3
  16096  16093  16105  16108     1  0.0000000  1.0460000  1
  16096  16093  16105  16108     1  0.0000000  0.6694400  3
  16096  16097  16098  16101     1  0.0000000  0.6508444  3
  16096  16097  16103  16109     1  0.0000000  1.0460000  1
  16096  16097  16103  16109     1  0.0000000  0.6694400  3
  16097  16096  16104  16107     1  0.0000000  1.0460000  1
  16097  16096  16104  16107     1  0.0000000  0.6694400  3
  16098  16097  16096  16100     1  0.0000000  0.6508444  3
  16098  16097  16103  16109     1  0.0000000  1.0460000  1
  16098  16097  16103  16109     1  0.0000000  0.6694400  3
  16099  16097  16096  16104     1  0.0000000  1.0460000  1
  16099  16097  16096  16104     1  0.0000000  0.0000000  3
  16099  16097  16096  16100     1  0.0000000  0.6508444  3
  16099  16097  16098  16102     1  0.0000000  1.0460000  1
  16099  16097  16098  16102     1  0.0000000  0.0000000  3
  16099  16097  16098  16114     1  0.0000000  1.0460000  1
  16099  16097  16098  16114     1  0.0000000  0.0000000  3
  16099  16097  16098  16101     1  0.0000000  0.6508444  3
  16099  16097  16103  16109     1  0.0000000  0.6973333  3
  16100  16096  16093  16105     1  0.0000000  1.0460000  1
  16100  16096  16093  16105     1  0.0000000  0.0000000  3
  16100  16096  16097  16103     1  0.0000000  1.0460000  1
  16100  16096  16097  16103     1  0.0000000  0.0000000  3
  16100  16096  16104  16107     1  0.0000000  0.6973333  3
  16101  16098  16097  16103     1  0.0000000  0.6508444  3
  16110  16106  16092  16114     1  0.0000000  1.0460000  1
  16110  16106  16092  16114     1  0.0000000  0.0000000  3
  16110  16106  16112  16113     1  0.0000000  0.6973333  3
  16111  16106  16092  16114     1  0.0000000  1.0460000  1
  16111  16106  16092  16114     1  0.0000000  0.0000000  3
  16111  16106  16112  16113     1  0.0000000  0.6973333  3
  16115  16116  16119  16123     1  0.0000000  0.6508444  3
  16115  16116  16128  16131     1  0.0000000  1.0460000  1
  16115  16116  16128  16131     1  0.0000000  0.6694400  3
  16115  16129  16135  16136     1  0.0000000  1.0460000  1
  16115  16129  16135  16136     1  0.0000000  0.6694400  3
  16115  16137  16121  16124     1  0.0000000  1.6038667  3
  16116  16119  16120  16122     1  0.0000000  0.6508444  3
  16116  16119  16127  16130     1  0.0000000  1.0460000  1
  16116  16119  16127  16130     1  0.0000000  0.6694400  3
  16116  16115  16129  16133     1  0.0000000  0.6508444  3
  16116  16115  16129  16134     1  0.0000000  0.6508444  3
  16117  16115  16116  16119     1  0.0000000  0.6508444  3
  16117  16115  16116  16128     1  0.0000000  1.0460000  1
  16117  16115  16116  16128     1  0.0000000  0.0000000  3
  16117  16115  16116  16118     1  0.0000000  0.6508444  3
  16117  16115  16129  16135     1  0.0000000  1.0460000  1
  16117  16115  16129  16135     1  0.0000000  0.0000000  3
  16117  16115  16129  16133     1  0.0000000  0.6508444  3
  16117  16115  16129  16134     1  0.0000000  0.6508444  3
  16117  16115  16137  16121     1  0.0000000  1.6038667  3
  16118  16116  16119  16120     1  0.0000000  0.6508444  3
  16118  16116  16119  16127     1  0.0000000  1.0460000  1
  16118  16116  16119  16127     1  0.0000000  0.0000000  3
  16118  16116  16119  16123     1  0.0000000  0.6508444  3
  16118  16116  16128  16131     1  0.0000000  0.6973333  3
  16118  16116  16115  16129     1  0.0000000  0.6508444  3
  16118  16116  16115  16137     1  0.0000000  1.0460000  1
  16118  16116  16115  16137     1  0.0000000  0.0000000  3
  16119  16120  16121  16124     1  0.0000000  0.6508444  3
  16119  16120  16126  16132     1  0.0000000  1.0460000  1
  16119  16120  16126  16132     1  0.0000000  0.6694400  3
  16119  16116  16128  16131     1  0.0000000  1.0460000  1
  16119  16116  16128  16131     1  0.0000000  0.6694400  3
  16120  16119  16127  16130     1  0.0000000  1.0460000  1
  16120  16119  16127  16130     1  0.0000000  0.6694400  3
  16121  16120  16126  16132     1  0.0000000  1.0460000  1
  16121  16120  16126  16132     1  0.0000000  0.6694400  3
  16121  16120  16119  16123     1  0.0000000  0.6508444  3
  16122  16120  16121  16125     1  0.0000000  1.0460000  1
  16122  16120  16121  16125     1  0.0000000  0.0000000  3
  16122  16120  16121  16137     1  0.0000000  1.0460000  1
  16122  16120  16121  16137     1  0.0000000  0.0000000  3
  16122  16120  16121  16124     1  0.0000000  0.6508444  3
  16122  16120  16126  16132     1  0.0000000  0.6973333  3
  16122  16120  16119  16127     1  0.0000000  1.0460000  1
  16122  16120  16119  16127     1  0.0000000  0.0000000  3
  16122  16120  16119  16123     1  0.0000000  0.6508444  3
  16123  16119  16120  16126     1  0.0000000  1.0460000  1
  16123  16119  16120  16126     1  0.0000000  0.0000000  3
  16123  16119  16127  16130     1  0.0000000  0.6973333  3
  16123  16119  16116  16128     1  0.0000000  1.0460000  1
  16123  16119  16116  16128     1  0.0000000  0.0000000  3
  16124  16121  16120  16126     1  0.0000000  0.6508444  3
  16133  16129  16135  16136     1  0.0000000  0.6973333  3
  16133  16129  16115  16137     1  0.0000000  1.0460000  1
  16133  16129  16115  16137     1  0.0000000  0.0000000  3
  16134  16129  16135  16136     1  0.0000000  0.6973333  3
  16134  16129  16115  16137     1  0.0000000  1.0460000  1
  16134  16129  16115  16137     1  0.0000000  0.0000000  3
  16138  16139  16142  16146     1  0.0000000  0.6508444  3
  16138  16139  16151  16154     1  0.0000000  1.0460000  1
  16138  16139  16151  16154     1  0.0000000  0.6694400  3
  16138  16152  16158  16159     1  0.0000000  1.0460000  1
  16138  16152  16158  16159     1  0.0000000  0.6694400  3
  16138  16160  16144  16147     1  0.0000000  1.6038667  3
  16139  16138  16152  16156     1  0.0000000  0.6508444  3
  16139  16138  16152  16157     1  0.0000000  0.6508444  3
  16139  16142  16143  16145     1  0.0000000  0.6508444  3
  16139  16142  16150  16153     1  0.0000000  1.0460000  1
  16139  16142  16150  16153     1  0.0000000  0.6694400  3
  16140  16138  16139  16142     1  0.0000000  0.6508444  3
  16140  16138  16139  16151     1  0.0000000  1.0460000  1
  16140  16138  16139  16151     1  0.0000000  0.0000000  3
  16140  16138  16139  16141     1  0.0000000  0.6508444  3
  16140  16138  16152  16158     1  0.0000000  1.0460000  1
  16140  16138  16152  16158     1  0.0000000  0.0000000  3
  16140  16138  16152  16156     1  0.0000000  0.6508444  3
  16140  16138  16152  16157     1  0.0000000  0.6508444  3
  16140  16138  16160  16144     1  0.0000000  1.6038667  3
  16141  16139  16138  16152     1  0.0000000  0.6508444  3
  16141  16139  16138  16160     1  0.0000000  1.0460000  1
  16141  16139  16138  16160     1  0.0000000  0.0000000  3
  16141  16139  16142  16143     1  0.0000000  0.6508444  3
  16141  16139  16142  16150     1  0.0000000  1.0460000  1
  16141  16139  16142  16150     1  0.0000000  0.0000000  3
  16141  16139  16142  16146     1  0.0000000  0.6508444  3
  16141  16139  16151  16154     1  0.0000000  0.6973333  3
  16142  16139  16151  16154     1  0.0000000  1.0460000  1
  16142  16139  16151  16154     1  0.0000000  0.6694400  3
  16142  16143  16144  16147     1  0.0000000  0.6508444  3
  16142  16143  16149  16155     1  0.0000000  1.0460000  1
  16142  16143  16149  16155     1  0.0000000  0.6694400  3
  16143  16142  16150  16153     1  0.0000000  1.0460000  1
  16143  16142  16150  16153     1  0.0000000  0.6694400  3
  16144  16143  16142  16146     1  0.0000000  0.6508444  3
  16144  16143  16149  16155     1  0.0000000  1.0460000  1
  16144  16143  16149  16155     1  0.0000000  0.6694400  3
  16145  16143  16142  16150     1  0.0000000  1.0460000  1
  16145  16143  16142  16150     1  0.0000000  0.0000000  3
  16145  16143  16142  16146     1  0.0000000  0.6508444  3
  16145  16143  16144  16148     1  0.0000000  1.0460000  1
  16145  16143  16144  16148     1  0.0000000  0.0000000  3
  16145  16143  16144  16160     1  0.0000000  1.0460000  1
  16145  16143  16144  16160     1  0.0000000  0.0000000  3
  16145  16143  16144  16147     1  0.0000000  0.6508444  3
  16145  16143  16149  16155     1  0.0000000  0.6973333  3
  16146  16142  16139  16151     1  0.0000000  1.0460000  1
  16146  16142  16139  16151     1  0.0000000  0.0000000  3
  16146  16142  16143  16149     1  0.0000000  1.0460000  1
  16146  16142  16143  16149     1  0.0000000  0.0000000  3
  16146  16142  16150  16153     1  0.0000000  0.6973333  3
  16147  16144  16143  16149     1  0.0000000  0.6508444  3
  16156  16152  16138  16160     1  0.0000000  1.0460000  1
  16156  16152  16138  16160     1  0.0000000  0.0000000  3
  16156  16152  16158  16159     1  0.0000000  0.6973333  3
  16157  16152  16138  16160     1  0.0000000  1.0460000  1
  16157  16152  16138  16160     1  0.0000000  0.0000000  3
  16157  16152  16158  16159     1  0.0000000  0.6973333  3
  16161  16162  16165  16169     1  0.0000000  0.6508444  3
  16161  16162  16174  16177     1  0.0000000  1.0460000  1
  16161  16162  16174  16177     1  0.0000000  0.6694400  3
  16161  16175  16181  16182     1  0.0000000  1.0460000  1
  16161  16175  16181  16182     1  0.0000000  0.6694400  3
  16161  16183  16167  16170     1  0.0000000  1.6038667  3
  16162  16165  16166  16168     1  0.0000000  0.6508444  3
  16162  16165  16173  16176     1  0.0000000  1.0460000  1
  16162  16165  16173  16176     1  0.0000000  0.6694400  3
  16162  16161  16175  16179     1  0.0000000  0.6508444  3
  16162  16161  16175  16180     1  0.0000000  0.6508444  3
  16163  16161  16162  16165     1  0.0000000  0.6508444  3
  16163  16161  16162  16174     1  0.0000000  1.0460000  1
  16163  16161  16162  16174     1  0.0000000  0.0000000  3
  16163  16161  16162  16164     1  0.0000000  0.6508444  3
  16163  16161  16175  16181     1  0.0000000  1.0460000  1
  16163  16161  16175  16181     1  0.0000000  0.0000000  3
  16163  16161  16175  16179     1  0.0000000  0.6508444  3
  16163  16161  16175  16180     1  0.0000000  0.6508444  3
  16163  16161  16183  16167     1  0.0000000  1.6038667  3
  16164  16162  16165  16166     1  0.0000000  0.6508444  3
  16164  16162  16165  16173     1  0.0000000  1.0460000  1
  16164  16162  16165  16173     1  0.0000000  0.0000000  3
  16164  16162  16165  16169     1  0.0000000  0.6508444  3
  16164  16162  16174  16177     1  0.0000000  0.6973333  3
  16164  16162  16161  16175     1  0.0000000  0.6508444  3
  16164  16162  16161  16183     1  0.0000000  1.0460000  1
  16164  16162  16161  16183     1  0.0000000  0.0000000  3
  16165  16166  16167  16170     1  0.0000000  0.6508444  3
  16165  16166  16172  16178     1  0.0000000  1.0460000  1
  16165  16166  16172  16178     1  0.0000000  0.6694400  3
  16165  16162  16174  16177     1  0.0000000  1.0460000  1
  16165  16162  16174  16177     1  0.0000000  0.6694400  3
  16166  16165  16173  16176     1  0.0000000  1.0460000  1
  16166  16165  16173  16176     1  0.0000000  0.6694400  3
  16167  16166  16172  16178     1  0.0000000  1.0460000  1
  16167  16166  16172  16178     1  0.0000000  0.6694400  3
  16167  16166  16165  16169     1  0.0000000  0.6508444  3
  16168  16166  16167  16171     1  0.0000000  1.0460000  1
  16168  16166  16167  16171     1  0.0000000  0.0000000  3
  16168  16166  16167  16183     1  0.0000000  1.0460000  1
  16168  16166  16167  16183     1  0.0000000  0.0000000  3
  16168  16166  16167  16170     1  0.0000000  0.6508444  3
  16168  16166  16172  16178     1  0.0000000  0.6973333  3
  16168  16166  16165  16173     1  0.0000000  1.0460000  1
  16168  16166  16165  16173     1  0.0000000  0.0000000  3
  16168  16166  16165  16169     1  0.0000000  0.6508444  3
  16169  16165  16166  16172     1  0.0000000  1.0460000  1
  16169  16165  16166  16172     1  0.0000000  0.0000000  3
  16169  16165  16173  16176     1  0.0000000  0.6973333  3
  16169  16165  16162  16174     1  0.0000000  1.0460000  1
  16169  16165  16162  16174     1  0.0000000  0.0000000  3
  16170  16167  16166  16172     1  0.0000000  0.6508444  3
  16179  16175  16181  16182     1  0.0000000  0.6973333  3
  16179  16175  16161  16183     1  0.0000000  1.0460000  1
  16179  16175  16161  16183     1  0.0000000  0.0000000  3
  16180  16175  16181  16182     1  0.0000000  0.6973333  3
  16180  16175  16161  16183     1  0.0000000  1.0460000  1
  16180  16175  16161  16183     1  0.0000000  0.0000000  3
  16184  16185  16188  16192     1  0.0000000  0.6508444  3
  16184  16185  16197  16200     1  0.0000000  1.0460000  1
  16184  16185  16197  16200     1  0.0000000  0.6694400  3
  16184  16198  16204  16205     1  0.0000000  1.0460000  1
  16184  16198  16204  16205     1  0.0000000  0.6694400  3
  16184  16206  16190  16193     1  0.0000000  1.6038667  3
  16185  16184  16198  16202     1  0.0000000  0.6508444  3
  16185  16184  16198  16203     1  0.0000000  0.6508444  3
  16185  16188  16189  16191     1  0.0000000  0.6508444  3
  16185  16188  16196  16199     1  0.0000000  1.0460000  1
  16185  16188  16196  16199     1  0.0000000  0.6694400  3
  16186  16184  16185  16188     1  0.0000000  0.6508444  3
  16186  16184  16185  16197     1  0.0000000  1.0460000  1
  16186  16184  16185  16197     1  0.0000000  0.0000000  3
  16186  16184  16185  16187     1  0.0000000  0.6508444  3
  16186  16184  16198  16204     1  0.0000000  1.0460000  1
  16186  16184  16198  16204     1  0.0000000  0.0000000  3
  16186  16184  16198  16202     1  0.0000000  0.6508444  3
  16186  16184  16198  16203     1  0.0000000  0.6508444  3
  16186  16184  16206  16190     1  0.0000000  1.6038667  3
  16187  16185  16184  16198     1  0.0000000  0.6508444  3
  16187  16185  16184  16206     1  0.0000000  1.0460000  1
  16187  16185  16184  16206     1  0.0000000  0.0000000  3
  16187  16185  16188  16189     1  0.0000000  0.6508444  3
  16187  16185  16188  16196     1  0.0000000  1.0460000  1
  16187  16185  16188  16196     1  0.0000000  0.0000000  3
  16187  16185  16188  16192     1  0.0000000  0.6508444  3
  16187  16185  16197  16200     1  0.0000000  0.6973333  3
  16188  16185  16197  16200     1  0.0000000  1.0460000  1
  16188  16185  16197  16200     1  0.0000000  0.6694400  3
  16188  16189  16190  16193     1  0.0000000  0.6508444  3
  16188  16189  16195  16201     1  0.0000000  1.0460000  1
  16188  16189  16195  16201     1  0.0000000  0.6694400  3
  16189  16188  16196  16199     1  0.0000000  1.0460000  1
  16189  16188  16196  16199     1  0.0000000  0.6694400  3
  16190  16189  16188  16192     1  0.0000000  0.6508444  3
  16190  16189  16195  16201     1  0.0000000  1.0460000  1
  16190  16189  16195  16201     1  0.0000000  0.6694400  3
  16191  16189  16188  16196     1  0.0000000  1.0460000  1
  16191  16189  16188  16196     1  0.0000000  0.0000000  3
  16191  16189  16188  16192     1  0.0000000  0.6508444  3
  16191  16189  16190  16194     1  0.0000000  1.0460000  1
  16191  16189  16190  16194     1  0.0000000  0.0000000  3
  16191  16189  16190  16206     1  0.0000000  1.0460000  1
  16191  16189  16190  16206     1  0.0000000  0.0000000  3
  16191  16189  16190  16193     1  0.0000000  0.6508444  3
  16191  16189  16195  16201     1  0.0000000  0.6973333  3
  16192  16188  16185  16197     1  0.0000000  1.0460000  1
  16192  16188  16185  16197     1  0.0000000  0.0000000  3
  16192  16188  16189  16195     1  0.0000000  1.0460000  1
  16192  16188  16189  16195     1  0.0000000  0.0000000  3
  16192  16188  16196  16199     1  0.0000000  0.6973333  3
  16193  16190  16189  16195     1  0.0000000  0.6508444  3
  16202  16198  16184  16206     1  0.0000000  1.0460000  1
  16202  16198  16184  16206     1  0.0000000  0.0000000  3
  16202  16198  16204  16205     1  0.0000000  0.6973333  3
  16203  16198  16184  16206     1  0.0000000  1.0460000  1
  16203  16198  16184  16206     1  0.0000000  0.0000000  3
  16203  16198  16204  16205     1  0.0000000  0.6973333  3
  16207  16208  16211  16215     1  0.0000000  0.6508444  3
  16207  16208  16220  16223     1  0.0000000  1.0460000  1
  16207  16208  16220  16223     1  0.0000000  0.6694400  3
  16207  16221  16227  16228     1  0.0000000  1.0460000  1
  16207  16221  16227  16228     1  0.0000000  0.6694400  3
  16207  16229  16213  16216     1  0.0000000  1.6038667  3
  16208  16211  16212  16214     1  0.0000000  0.6508444  3
  16208  16211  16219  16222     1  0.0000000  1.0460000  1
  16208  16211  16219  16222     1  0.0000000  0.6694400  3
  16208  16207  16221  16225     1  0.0000000  0.6508444  3
  16208  16207  16221  16226     1  0.0000000  0.6508444  3
  16209  16207  16208  16211     1  0.0000000  0.6508444  3
  16209  16207  16208  16220     1  0.0000000  1.0460000  1
  16209  16207  16208  16220     1  0.0000000  0.0000000  3
  16209  16207  16208  16210     1  0.0000000  0.6508444  3
  16209  16207  16221  16227     1  0.0000000  1.0460000  1
  16209  16207  16221  16227     1  0.0000000  0.0000000  3
  16209  16207  16221  16225     1  0.0000000  0.6508444  3
  16209  16207  16221  16226     1  0.0000000  0.6508444  3
  16209  16207  16229  16213     1  0.0000000  1.6038667  3
  16210  16208  16211  16212     1  0.0000000  0.6508444  3
  16210  16208  16211  16219     1  0.0000000  1.0460000  1
  16210  16208  16211  16219     1  0.0000000  0.0000000  3
  16210  16208  16211  16215     1  0.0000000  0.6508444  3
  16210  16208  16220  16223     1  0.0000000  0.6973333  3
  16210  16208  16207  16221     1  0.0000000  0.6508444  3
  16210  16208  16207  16229     1  0.0000000  1.0460000  1
  16210  16208  16207  16229     1  0.0000000  0.0000000  3
  16211  16212  16213  16216     1  0.0000000  0.6508444  3
  16211  16212  16218  16224     1  0.0000000  1.0460000  1
  16211  16212  16218  16224     1  0.0000000  0.6694400  3
  16211  16208  16220  16223     1  0.0000000  1.0460000  1
  16211  16208  16220  16223     1  0.0000000  0.6694400  3
  16212  16211  16219  16222     1  0.0000000  1.0460000  1
  16212  16211  16219  16222     1  0.0000000  0.6694400  3
  16213  16212  16218  16224     1  0.0000000  1.0460000  1
  16213  16212  16218  16224     1  0.0000000  0.6694400  3
  16213  16212  16211  16215     1  0.0000000  0.6508444  3
  16214  16212  16213  16217     1  0.0000000  1.0460000  1
  16214  16212  16213  16217     1  0.0000000  0.0000000  3
  16214  16212  16213  16229     1  0.0000000  1.0460000  1
  16214  16212  16213  16229     1  0.0000000  0.0000000  3
  16214  16212  16213  16216     1  0.0000000  0.6508444  3
  16214  16212  16218  16224     1  0.0000000  0.6973333  3
  16214  16212  16211  16219     1  0.0000000  1.0460000  1
  16214  16212  16211  16219     1  0.0000000  0.0000000  3
  16214  16212  16211  16215     1  0.0000000  0.6508444  3
  16215  16211  16212  16218     1  0.0000000  1.0460000  1
  16215  16211  16212  16218     1  0.0000000  0.0000000  3
  16215  16211  16219  16222     1  0.0000000  0.6973333  3
  16215  16211  16208  16220     1  0.0000000  1.0460000  1
  16215  16211  16208  16220     1  0.0000000  0.0000000  3
  16216  16213  16212  16218     1  0.0000000  0.6508444  3
  16225  16221  16227  16228     1  0.0000000  0.6973333  3
  16225  16221  16207  16229     1  0.0000000  1.0460000  1
  16225  16221  16207  16229     1  0.0000000  0.0000000  3
  16226  16221  16227  16228     1  0.0000000  0.6973333  3
  16226  16221  16207  16229     1  0.0000000  1.0460000  1
  16226  16221  16207  16229     1  0.0000000  0.0000000  3
  16230  16231  16234  16238     1  0.0000000  0.6508444  3
  16230  16231  16243  16246     1  0.0000000  1.0460000  1
  16230  16231  16243  16246     1  0.0000000  0.6694400  3
  16230  16244  16250  16251     1  0.0000000  1.0460000  1
  16230  16244  16250  16251     1  0.0000000  0.6694400  3
  16230  16252  16236  16239     1  0.0000000  1.6038667  3
  16231  16230  16244  16248     1  0.0000000  0.6508444  3
  16231  16230  16244  16249     1  0.0000000  0.6508444  3
  16231  16234  16235  16237     1  0.0000000  0.6508444  3
  16231  16234  16242  16245     1  0.0000000  1.0460000  1
  16231  16234  16242  16245     1  0.0000000  0.6694400  3
  16232  16230  16231  16234     1  0.0000000  0.6508444  3
  16232  16230  16231  16243     1  0.0000000  1.0460000  1
  16232  16230  16231  16243     1  0.0000000  0.0000000  3
  16232  16230  16231  16233     1  0.0000000  0.6508444  3
  16232  16230  16244  16250     1  0.0000000  1.0460000  1
  16232  16230  16244  16250     1  0.0000000  0.0000000  3
  16232  16230  16244  16248     1  0.0000000  0.6508444  3
  16232  16230  16244  16249     1  0.0000000  0.6508444  3
  16232  16230  16252  16236     1  0.0000000  1.6038667  3
  16233  16231  16230  16244     1  0.0000000  0.6508444  3
  16233  16231  16230  16252     1  0.0000000  1.0460000  1
  16233  16231  16230  16252     1  0.0000000  0.0000000  3
  16233  16231  16234  16235     1  0.0000000  0.6508444  3
  16233  16231  16234  16242     1  0.0000000  1.0460000  1
  16233  16231  16234  16242     1  0.0000000  0.0000000  3
  16233  16231  16234  16238     1  0.0000000  0.6508444  3
  16233  16231  16243  16246     1  0.0000000  0.6973333  3
  16234  16231  16243  16246     1  0.0000000  1.0460000  1
  16234  16231  16243  16246     1  0.0000000  0.6694400  3
  16234  16235  16236  16239     1  0.0000000  0.6508444  3
  16234  16235  16241  16247     1  0.0000000  1.0460000  1
  16234  16235  16241  16247     1  0.0000000  0.6694400  3
  16235  16234  16242  16245     1  0.0000000  1.0460000  1
  16235  16234  16242  16245     1  0.0000000  0.6694400  3
  16236  16235  16234  16238     1  0.0000000  0.6508444  3
  16236  16235  16241  16247     1  0.0000000  1.0460000  1
  16236  16235  16241  16247     1  0.0000000  0.6694400  3
  16237  16235  16234  16242     1  0.0000000  1.0460000  1
  16237  16235  16234  16242     1  0.0000000  0.0000000  3
  16237  16235  16234  16238     1  0.0000000  0.6508444  3
  16237  16235  16236  16240     1  0.0000000  1.0460000  1
  16237  16235  16236  16240     1  0.0000000  0.0000000  3
  16237  16235  16236  16252     1  0.0000000  1.0460000  1
  16237  16235  16236  16252     1  0.0000000  0.0000000  3
  16237  16235  16236  16239     1  0.0000000  0.6508444  3
  16237  16235  16241  16247     1  0.0000000  0.6973333  3
  16238  16234  16231  16243     1  0.0000000  1.0460000  1
  16238  16234  16231  16243     1  0.0000000  0.0000000  3
  16238  16234  16235  16241     1  0.0000000  1.0460000  1
  16238  16234  16235  16241     1  0.0000000  0.0000000  3
  16238  16234  16242  16245     1  0.0000000  0.6973333  3
  16239  16236  16235  16241     1  0.0000000  0.6508444  3
  16248  16244  16230  16252     1  0.0000000  1.0460000  1
  16248  16244  16230  16252     1  0.0000000  0.0000000  3
  16248  16244  16250  16251     1  0.0000000  0.6973333  3
  16249  16244  16230  16252     1  0.0000000  1.0460000  1
  16249  16244  16230  16252     1  0.0000000  0.0000000  3
  16249  16244  16250  16251     1  0.0000000  0.6973333  3
  16253  16254  16257  16261     1  0.0000000  0.6508444  3
  16253  16254  16266  16269     1  0.0000000  1.0460000  1
  16253  16254  16266  16269     1  0.0000000  0.6694400  3
  16253  16267  16273  16274     1  0.0000000  1.0460000  1
  16253  16267  16273  16274     1  0.0000000  0.6694400  3
  16253  16275  16259  16262     1  0.0000000  1.6038667  3
  16254  16257  16258  16260     1  0.0000000  0.6508444  3
  16254  16257  16265  16268     1  0.0000000  1.0460000  1
  16254  16257  16265  16268     1  0.0000000  0.6694400  3
  16254  16253  16267  16271     1  0.0000000  0.6508444  3
  16254  16253  16267  16272     1  0.0000000  0.6508444  3
  16255  16253  16254  16257     1  0.0000000  0.6508444  3
  16255  16253  16254  16266     1  0.0000000  1.0460000  1
  16255  16253  16254  16266     1  0.0000000  0.0000000  3
  16255  16253  16254  16256     1  0.0000000  0.6508444  3
  16255  16253  16267  16273     1  0.0000000  1.0460000  1
  16255  16253  16267  16273     1  0.0000000  0.0000000  3
  16255  16253  16267  16271     1  0.0000000  0.6508444  3
  16255  16253  16267  16272     1  0.0000000  0.6508444  3
  16255  16253  16275  16259     1  0.0000000  1.6038667  3
  16256  16254  16257  16258     1  0.0000000  0.6508444  3
  16256  16254  16257  16265     1  0.0000000  1.0460000  1
  16256  16254  16257  16265     1  0.0000000  0.0000000  3
  16256  16254  16257  16261     1  0.0000000  0.6508444  3
  16256  16254  16266  16269     1  0.0000000  0.6973333  3
  16256  16254  16253  16267     1  0.0000000  0.6508444  3
  16256  16254  16253  16275     1  0.0000000  1.0460000  1
  16256  16254  16253  16275     1  0.0000000  0.0000000  3
  16257  16258  16259  16262     1  0.0000000  0.6508444  3
  16257  16258  16264  16270     1  0.0000000  1.0460000  1
  16257  16258  16264  16270     1  0.0000000  0.6694400  3
  16257  16254  16266  16269     1  0.0000000  1.0460000  1
  16257  16254  16266  16269     1  0.0000000  0.6694400  3
  16258  16257  16265  16268     1  0.0000000  1.0460000  1
  16258  16257  16265  16268     1  0.0000000  0.6694400  3
  16259  16258  16264  16270     1  0.0000000  1.0460000  1
  16259  16258  16264  16270     1  0.0000000  0.6694400  3
  16259  16258  16257  16261     1  0.0000000  0.6508444  3
  16260  16258  16259  16263     1  0.0000000  1.0460000  1
  16260  16258  16259  16263     1  0.0000000  0.0000000  3
  16260  16258  16259  16275     1  0.0000000  1.0460000  1
  16260  16258  16259  16275     1  0.0000000  0.0000000  3
  16260  16258  16259  16262     1  0.0000000  0.6508444  3
  16260  16258  16264  16270     1  0.0000000  0.6973333  3
  16260  16258  16257  16265     1  0.0000000  1.0460000  1
  16260  16258  16257  16265     1  0.0000000  0.0000000  3
  16260  16258  16257  16261     1  0.0000000  0.6508444  3
  16261  16257  16258  16264     1  0.0000000  1.0460000  1
  16261  16257  16258  16264     1  0.0000000  0.0000000  3
  16261  16257  16265  16268     1  0.0000000  0.6973333  3
  16261  16257  16254  16266     1  0.0000000  1.0460000  1
  16261  16257  16254  16266     1  0.0000000  0.0000000  3
  16262  16259  16258  16264     1  0.0000000  0.6508444  3
  16271  16267  16273  16274     1  0.0000000  0.6973333  3
  16271  16267  16253  16275     1  0.0000000  1.0460000  1
  16271  16267  16253  16275     1  0.0000000  0.0000000  3
  16272  16267  16273  16274     1  0.0000000  0.6973333  3
  16272  16267  16253  16275     1  0.0000000  1.0460000  1
  16272  16267  16253  16275     1  0.0000000  0.0000000  3
  16276  16277  16280  16284     1  0.0000000  0.6508444  3
  16276  16277  16289  16292     1  0.0000000  1.0460000  1
  16276  16277  16289  16292     1  0.0000000  0.6694400  3
  16276  16290  16296  16297     1  0.0000000  1.0460000  1
  16276  16290  16296  16297     1  0.0000000  0.6694400  3
  16276  16298  16282  16285     1  0.0000000  1.6038667  3
  16277  16276  16290  16294     1  0.0000000  0.6508444  3
  16277  16276  16290  16295     1  0.0000000  0.6508444  3
  16277  16280  16281  16283     1  0.0000000  0.6508444  3
  16277  16280  16288  16291     1  0.0000000  1.0460000  1
  16277  16280  16288  16291     1  0.0000000  0.6694400  3
  16278  16276  16277  16280     1  0.0000000  0.6508444  3
  16278  16276  16277  16289     1  0.0000000  1.0460000  1
  16278  16276  16277  16289     1  0.0000000  0.0000000  3
  16278  16276  16277  16279     1  0.0000000  0.6508444  3
  16278  16276  16290  16296     1  0.0000000  1.0460000  1
  16278  16276  16290  16296     1  0.0000000  0.0000000  3
  16278  16276  16290  16294     1  0.0000000  0.6508444  3
  16278  16276  16290  16295     1  0.0000000  0.6508444  3
  16278  16276  16298  16282     1  0.0000000  1.6038667  3
  16279  16277  16276  16290     1  0.0000000  0.6508444  3
  16279  16277  16276  16298     1  0.0000000  1.0460000  1
  16279  16277  16276  16298     1  0.0000000  0.0000000  3
  16279  16277  16280  16281     1  0.0000000  0.6508444  3
  16279  16277  16280  16288     1  0.0000000  1.0460000  1
  16279  16277  16280  16288     1  0.0000000  0.0000000  3
  16279  16277  16280  16284     1  0.0000000  0.6508444  3
  16279  16277  16289  16292     1  0.0000000  0.6973333  3
  16280  16277  16289  16292     1  0.0000000  1.0460000  1
  16280  16277  16289  16292     1  0.0000000  0.6694400  3
  16280  16281  16282  16285     1  0.0000000  0.6508444  3
  16280  16281  16287  16293     1  0.0000000  1.0460000  1
  16280  16281  16287  16293     1  0.0000000  0.6694400  3
  16281  16280  16288  16291     1  0.0000000  1.0460000  1
  16281  16280  16288  16291     1  0.0000000  0.6694400  3
  16282  16281  16280  16284     1  0.0000000  0.6508444  3
  16282  16281  16287  16293     1  0.0000000  1.0460000  1
  16282  16281  16287  16293     1  0.0000000  0.6694400  3
  16283  16281  16280  16288     1  0.0000000  1.0460000  1
  16283  16281  16280  16288     1  0.0000000  0.0000000  3
  16283  16281  16280  16284     1  0.0000000  0.6508444  3
  16283  16281  16282  16286     1  0.0000000  1.0460000  1
  16283  16281  16282  16286     1  0.0000000  0.0000000  3
  16283  16281  16282  16298     1  0.0000000  1.0460000  1
  16283  16281  16282  16298     1  0.0000000  0.0000000  3
  16283  16281  16282  16285     1  0.0000000  0.6508444  3
  16283  16281  16287  16293     1  0.0000000  0.6973333  3
  16284  16280  16277  16289     1  0.0000000  1.0460000  1
  16284  16280  16277  16289     1  0.0000000  0.0000000  3
  16284  16280  16281  16287     1  0.0000000  1.0460000  1
  16284  16280  16281  16287     1  0.0000000  0.0000000  3
  16284  16280  16288  16291     1  0.0000000  0.6973333  3
  16285  16282  16281  16287     1  0.0000000  0.6508444  3
  16294  16290  16276  16298     1  0.0000000  1.0460000  1
  16294  16290  16276  16298     1  0.0000000  0.0000000  3
  16294  16290  16296  16297     1  0.0000000  0.6973333  3
  16295  16290  16276  16298     1  0.0000000  1.0460000  1
  16295  16290  16276  16298     1  0.0000000  0.0000000  3
  16295  16290  16296  16297     1  0.0000000  0.6973333  3
  16299  16300  16303  16307     1  0.0000000  0.6508444  3
  16299  16300  16312  16315     1  0.0000000  1.0460000  1
  16299  16300  16312  16315     1  0.0000000  0.6694400  3
  16299  16313  16319  16320     1  0.0000000  1.0460000  1
  16299  16313  16319  16320     1  0.0000000  0.6694400  3
  16299  16321  16305  16308     1  0.0000000  1.6038667  3
  16300  16303  16304  16306     1  0.0000000  0.6508444  3
  16300  16303  16311  16314     1  0.0000000  1.0460000  1
  16300  16303  16311  16314     1  0.0000000  0.6694400  3
  16300  16299  16313  16317     1  0.0000000  0.6508444  3
  16300  16299  16313  16318     1  0.0000000  0.6508444  3
  16301  16299  16300  16303     1  0.0000000  0.6508444  3
  16301  16299  16300  16312     1  0.0000000  1.0460000  1
  16301  16299  16300  16312     1  0.0000000  0.0000000  3
  16301  16299  16300  16302     1  0.0000000  0.6508444  3
  16301  16299  16313  16319     1  0.0000000  1.0460000  1
  16301  16299  16313  16319     1  0.0000000  0.0000000  3
  16301  16299  16313  16317     1  0.0000000  0.6508444  3
  16301  16299  16313  16318     1  0.0000000  0.6508444  3
  16301  16299  16321  16305     1  0.0000000  1.6038667  3
  16302  16300  16303  16304     1  0.0000000  0.6508444  3
  16302  16300  16303  16311     1  0.0000000  1.0460000  1
  16302  16300  16303  16311     1  0.0000000  0.0000000  3
  16302  16300  16303  16307     1  0.0000000  0.6508444  3
  16302  16300  16312  16315     1  0.0000000  0.6973333  3
  16302  16300  16299  16313     1  0.0000000  0.6508444  3
  16302  16300  16299  16321     1  0.0000000  1.0460000  1
  16302  16300  16299  16321     1  0.0000000  0.0000000  3
  16303  16304  16305  16308     1  0.0000000  0.6508444  3
  16303  16304  16310  16316     1  0.0000000  1.0460000  1
  16303  16304  16310  16316     1  0.0000000  0.6694400  3
  16303  16300  16312  16315     1  0.0000000  1.0460000  1
  16303  16300  16312  16315     1  0.0000000  0.6694400  3
  16304  16303  16311  16314     1  0.0000000  1.0460000  1
  16304  16303  16311  16314     1  0.0000000  0.6694400  3
  16305  16304  16310  16316     1  0.0000000  1.0460000  1
  16305  16304  16310  16316     1  0.0000000  0.6694400  3
  16305  16304  16303  16307     1  0.0000000  0.6508444  3
  16306  16304  16305  16309     1  0.0000000  1.0460000  1
  16306  16304  16305  16309     1  0.0000000  0.0000000  3
  16306  16304  16305  16321     1  0.0000000  1.0460000  1
  16306  16304  16305  16321     1  0.0000000  0.0000000  3
  16306  16304  16305  16308     1  0.0000000  0.6508444  3
  16306  16304  16310  16316     1  0.0000000  0.6973333  3
  16306  16304  16303  16311     1  0.0000000  1.0460000  1
  16306  16304  16303  16311     1  0.0000000  0.0000000  3
  16306  16304  16303  16307     1  0.0000000  0.6508444  3
  16307  16303  16304  16310     1  0.0000000  1.0460000  1
  16307  16303  16304  16310     1  0.0000000  0.0000000  3
  16307  16303  16311  16314     1  0.0000000  0.6973333  3
  16307  16303  16300  16312     1  0.0000000  1.0460000  1
  16307  16303  16300  16312     1  0.0000000  0.0000000  3
  16308  16305  16304  16310     1  0.0000000  0.6508444  3
  16317  16313  16319  16320     1  0.0000000  0.6973333  3
  16317  16313  16299  16321     1  0.0000000  1.0460000  1
  16317  16313  16299  16321     1  0.0000000  0.0000000  3
  16318  16313  16319  16320     1  0.0000000  0.6973333  3
  16318  16313  16299  16321     1  0.0000000  1.0460000  1
  16318  16313  16299  16321     1  0.0000000  0.0000000  3
  16322  16323  16326  16330     1  0.0000000  0.6508444  3
  16322  16323  16335  16338     1  0.0000000  1.0460000  1
  16322  16323  16335  16338     1  0.0000000  0.6694400  3
  16322  16336  16342  16343     1  0.0000000  1.0460000  1
  16322  16336  16342  16343     1  0.0000000  0.6694400  3
  16322  16344  16328  16331     1  0.0000000  1.6038667  3
  16323  16322  16336  16340     1  0.0000000  0.6508444  3
  16323  16322  16336  16341     1  0.0000000  0.6508444  3
  16323  16326  16327  16329     1  0.0000000  0.6508444  3
  16323  16326  16334  16337     1  0.0000000  1.0460000  1
  16323  16326  16334  16337     1  0.0000000  0.6694400  3
  16324  16322  16323  16326     1  0.0000000  0.6508444  3
  16324  16322  16323  16335     1  0.0000000  1.0460000  1
  16324  16322  16323  16335     1  0.0000000  0.0000000  3
  16324  16322  16323  16325     1  0.0000000  0.6508444  3
  16324  16322  16336  16342     1  0.0000000  1.0460000  1
  16324  16322  16336  16342     1  0.0000000  0.0000000  3
  16324  16322  16336  16340     1  0.0000000  0.6508444  3
  16324  16322  16336  16341     1  0.0000000  0.6508444  3
  16324  16322  16344  16328     1  0.0000000  1.6038667  3
  16325  16323  16322  16336     1  0.0000000  0.6508444  3
  16325  16323  16322  16344     1  0.0000000  1.0460000  1
  16325  16323  16322  16344     1  0.0000000  0.0000000  3
  16325  16323  16326  16327     1  0.0000000  0.6508444  3
  16325  16323  16326  16334     1  0.0000000  1.0460000  1
  16325  16323  16326  16334     1  0.0000000  0.0000000  3
  16325  16323  16326  16330     1  0.0000000  0.6508444  3
  16325  16323  16335  16338     1  0.0000000  0.6973333  3
  16326  16323  16335  16338     1  0.0000000  1.0460000  1
  16326  16323  16335  16338     1  0.0000000  0.6694400  3
  16326  16327  16328  16331     1  0.0000000  0.6508444  3
  16326  16327  16333  16339     1  0.0000000  1.0460000  1
  16326  16327  16333  16339     1  0.0000000  0.6694400  3
  16327  16326  16334  16337     1  0.0000000  1.0460000  1
  16327  16326  16334  16337     1  0.0000000  0.6694400  3
  16328  16327  16326  16330     1  0.0000000  0.6508444  3
  16328  16327  16333  16339     1  0.0000000  1.0460000  1
  16328  16327  16333  16339     1  0.0000000  0.6694400  3
  16329  16327  16326  16334     1  0.0000000  1.0460000  1
  16329  16327  16326  16334     1  0.0000000  0.0000000  3
  16329  16327  16326  16330     1  0.0000000  0.6508444  3
  16329  16327  16328  16332     1  0.0000000  1.0460000  1
  16329  16327  16328  16332     1  0.0000000  0.0000000  3
  16329  16327  16328  16344     1  0.0000000  1.0460000  1
  16329  16327  16328  16344     1  0.0000000  0.0000000  3
  16329  16327  16328  16331     1  0.0000000  0.6508444  3
  16329  16327  16333  16339     1  0.0000000  0.6973333  3
  16330  16326  16323  16335     1  0.0000000  1.0460000  1
  16330  16326  16323  16335     1  0.0000000  0.0000000  3
  16330  16326  16327  16333     1  0.0000000  1.0460000  1
  16330  16326  16327  16333     1  0.0000000  0.0000000  3
  16330  16326  16334  16337     1  0.0000000  0.6973333  3
  16331  16328  16327  16333     1  0.0000000  0.6508444  3
  16340  16336  16322  16344     1  0.0000000  1.0460000  1
  16340  16336  16322  16344     1  0.0000000  0.0000000  3
  16340  16336  16342  16343     1  0.0000000  0.6973333  3
  16341  16336  16322  16344     1  0.0000000  1.0460000  1
  16341  16336  16322  16344     1  0.0000000  0.0000000  3
  16341  16336  16342  16343     1  0.0000000  0.6973333  3
  16345  16346  16349  16353     1  0.0000000  0.6508444  3
  16345  16346  16358  16361     1  0.0000000  1.0460000  1
  16345  16346  16358  16361     1  0.0000000  0.6694400  3
  16345  16359  16365  16366     1  0.0000000  1.0460000  1
  16345  16359  16365  16366     1  0.0000000  0.6694400  3
  16345  16367  16351  16354     1  0.0000000  1.6038667  3
  16346  16349  16350  16352     1  0.0000000  0.6508444  3
  16346  16349  16357  16360     1  0.0000000  1.0460000  1
  16346  16349  16357  16360     1  0.0000000  0.6694400  3
  16346  16345  16359  16363     1  0.0000000  0.6508444  3
  16346  16345  16359  16364     1  0.0000000  0.6508444  3
  16347  16345  16346  16349     1  0.0000000  0.6508444  3
  16347  16345  16346  16358     1  0.0000000  1.0460000  1
  16347  16345  16346  16358     1  0.0000000  0.0000000  3
  16347  16345  16346  16348     1  0.0000000  0.6508444  3
  16347  16345  16359  16365     1  0.0000000  1.0460000  1
  16347  16345  16359  16365     1  0.0000000  0.0000000  3
  16347  16345  16359  16363     1  0.0000000  0.6508444  3
  16347  16345  16359  16364     1  0.0000000  0.6508444  3
  16347  16345  16367  16351     1  0.0000000  1.6038667  3
  16348  16346  16349  16350     1  0.0000000  0.6508444  3
  16348  16346  16349  16357     1  0.0000000  1.0460000  1
  16348  16346  16349  16357     1  0.0000000  0.0000000  3
  16348  16346  16349  16353     1  0.0000000  0.6508444  3
  16348  16346  16358  16361     1  0.0000000  0.6973333  3
  16348  16346  16345  16359     1  0.0000000  0.6508444  3
  16348  16346  16345  16367     1  0.0000000  1.0460000  1
  16348  16346  16345  16367     1  0.0000000  0.0000000  3
  16349  16350  16351  16354     1  0.0000000  0.6508444  3
  16349  16350  16356  16362     1  0.0000000  1.0460000  1
  16349  16350  16356  16362     1  0.0000000  0.6694400  3
  16349  16346  16358  16361     1  0.0000000  1.0460000  1
  16349  16346  16358  16361     1  0.0000000  0.6694400  3
  16350  16349  16357  16360     1  0.0000000  1.0460000  1
  16350  16349  16357  16360     1  0.0000000  0.6694400  3
  16351  16350  16356  16362     1  0.0000000  1.0460000  1
  16351  16350  16356  16362     1  0.0000000  0.6694400  3
  16351  16350  16349  16353     1  0.0000000  0.6508444  3
  16352  16350  16351  16355     1  0.0000000  1.0460000  1
  16352  16350  16351  16355     1  0.0000000  0.0000000  3
  16352  16350  16351  16367     1  0.0000000  1.0460000  1
  16352  16350  16351  16367     1  0.0000000  0.0000000  3
  16352  16350  16351  16354     1  0.0000000  0.6508444  3
  16352  16350  16356  16362     1  0.0000000  0.6973333  3
  16352  16350  16349  16357     1  0.0000000  1.0460000  1
  16352  16350  16349  16357     1  0.0000000  0.0000000  3
  16352  16350  16349  16353     1  0.0000000  0.6508444  3
  16353  16349  16350  16356     1  0.0000000  1.0460000  1
  16353  16349  16350  16356     1  0.0000000  0.0000000  3
  16353  16349  16357  16360     1  0.0000000  0.6973333  3
  16353  16349  16346  16358     1  0.0000000  1.0460000  1
  16353  16349  16346  16358     1  0.0000000  0.0000000  3
  16354  16351  16350  16356     1  0.0000000  0.6508444  3
  16363  16359  16365  16366     1  0.0000000  0.6973333  3
  16363  16359  16345  16367     1  0.0000000  1.0460000  1
  16363  16359  16345  16367     1  0.0000000  0.0000000  3
  16364  16359  16365  16366     1  0.0000000  0.6973333  3
  16364  16359  16345  16367     1  0.0000000  1.0460000  1
  16364  16359  16345  16367     1  0.0000000  0.0000000  3
  16368  16369  16372  16376     1  0.0000000  0.6508444  3
  16368  16369  16381  16384     1  0.0000000  1.0460000  1
  16368  16369  16381  16384     1  0.0000000  0.6694400  3
  16368  16382  16388  16389     1  0.0000000  1.0460000  1
  16368  16382  16388  16389     1  0.0000000  0.6694400  3
  16368  16390  16374  16377     1  0.0000000  1.6038667  3
  16369  16368  16382  16386     1  0.0000000  0.6508444  3
  16369  16368  16382  16387     1  0.0000000  0.6508444  3
  16369  16372  16373  16375     1  0.0000000  0.6508444  3
  16369  16372  16380  16383     1  0.0000000  1.0460000  1
  16369  16372  16380  16383     1  0.0000000  0.6694400  3
  16370  16368  16369  16372     1  0.0000000  0.6508444  3
  16370  16368  16369  16381     1  0.0000000  1.0460000  1
  16370  16368  16369  16381     1  0.0000000  0.0000000  3
  16370  16368  16369  16371     1  0.0000000  0.6508444  3
  16370  16368  16382  16388     1  0.0000000  1.0460000  1
  16370  16368  16382  16388     1  0.0000000  0.0000000  3
  16370  16368  16382  16386     1  0.0000000  0.6508444  3
  16370  16368  16382  16387     1  0.0000000  0.6508444  3
  16370  16368  16390  16374     1  0.0000000  1.6038667  3
  16371  16369  16368  16382     1  0.0000000  0.6508444  3
  16371  16369  16368  16390     1  0.0000000  1.0460000  1
  16371  16369  16368  16390     1  0.0000000  0.0000000  3
  16371  16369  16372  16373     1  0.0000000  0.6508444  3
  16371  16369  16372  16380     1  0.0000000  1.0460000  1
  16371  16369  16372  16380     1  0.0000000  0.0000000  3
  16371  16369  16372  16376     1  0.0000000  0.6508444  3
  16371  16369  16381  16384     1  0.0000000  0.6973333  3
  16372  16369  16381  16384     1  0.0000000  1.0460000  1
  16372  16369  16381  16384     1  0.0000000  0.6694400  3
  16372  16373  16374  16377     1  0.0000000  0.6508444  3
  16372  16373  16379  16385     1  0.0000000  1.0460000  1
  16372  16373  16379  16385     1  0.0000000  0.6694400  3
  16373  16372  16380  16383     1  0.0000000  1.0460000  1
  16373  16372  16380  16383     1  0.0000000  0.6694400  3
  16374  16373  16372  16376     1  0.0000000  0.6508444  3
  16374  16373  16379  16385     1  0.0000000  1.0460000  1
  16374  16373  16379  16385     1  0.0000000  0.6694400  3
  16375  16373  16372  16380     1  0.0000000  1.0460000  1
  16375  16373  16372  16380     1  0.0000000  0.0000000  3
  16375  16373  16372  16376     1  0.0000000  0.6508444  3
  16375  16373  16374  16378     1  0.0000000  1.0460000  1
  16375  16373  16374  16378     1  0.0000000  0.0000000  3
  16375  16373  16374  16390     1  0.0000000  1.0460000  1
  16375  16373  16374  16390     1  0.0000000  0.0000000  3
  16375  16373  16374  16377     1  0.0000000  0.6508444  3
  16375  16373  16379  16385     1  0.0000000  0.6973333  3
  16376  16372  16369  16381     1  0.0000000  1.0460000  1
  16376  16372  16369  16381     1  0.0000000  0.0000000  3
  16376  16372  16373  16379     1  0.0000000  1.0460000  1
  16376  16372  16373  16379     1  0.0000000  0.0000000  3
  16376  16372  16380  16383     1  0.0000000  0.6973333  3
  16377  16374  16373  16379     1  0.0000000  0.6508444  3
  16386  16382  16368  16390     1  0.0000000  1.0460000  1
  16386  16382  16368  16390     1  0.0000000  0.0000000  3
  16386  16382  16388  16389     1  0.0000000  0.6973333  3
  16387  16382  16368  16390     1  0.0000000  1.0460000  1
  16387  16382  16368  16390     1  0.0000000  0.0000000  3
  16387  16382  16388  16389     1  0.0000000  0.6973333  3
  16391  16392  16395  16399     1  0.0000000  0.6508444  3
  16391  16392  16404  16407     1  0.0000000  1.0460000  1
  16391  16392  16404  16407     1  0.0000000  0.6694400  3
  16391  16405  16411  16412     1  0.0000000  1.0460000  1
  16391  16405  16411  16412     1  0.0000000  0.6694400  3
  16391  16413  16397  16400     1  0.0000000  1.6038667  3
  16392  16395  16396  16398     1  0.0000000  0.6508444  3
  16392  16395  16403  16406     1  0.0000000  1.0460000  1
  16392  16395  16403  16406     1  0.0000000  0.6694400  3
  16392  16391  16405  16409     1  0.0000000  0.6508444  3
  16392  16391  16405  16410     1  0.0000000  0.6508444  3
  16393  16391  16392  16395     1  0.0000000  0.6508444  3
  16393  16391  16392  16404     1  0.0000000  1.0460000  1
  16393  16391  16392  16404     1  0.0000000  0.0000000  3
  16393  16391  16392  16394     1  0.0000000  0.6508444  3
  16393  16391  16405  16411     1  0.0000000  1.0460000  1
  16393  16391  16405  16411     1  0.0000000  0.0000000  3
  16393  16391  16405  16409     1  0.0000000  0.6508444  3
  16393  16391  16405  16410     1  0.0000000  0.6508444  3
  16393  16391  16413  16397     1  0.0000000  1.6038667  3
  16394  16392  16395  16396     1  0.0000000  0.6508444  3
  16394  16392  16395  16403     1  0.0000000  1.0460000  1
  16394  16392  16395  16403     1  0.0000000  0.0000000  3
  16394  16392  16395  16399     1  0.0000000  0.6508444  3
  16394  16392  16404  16407     1  0.0000000  0.6973333  3
  16394  16392  16391  16405     1  0.0000000  0.6508444  3
  16394  16392  16391  16413     1  0.0000000  1.0460000  1
  16394  16392  16391  16413     1  0.0000000  0.0000000  3
  16395  16396  16397  16400     1  0.0000000  0.6508444  3
  16395  16396  16402  16408     1  0.0000000  1.0460000  1
  16395  16396  16402  16408     1  0.0000000  0.6694400  3
  16395  16392  16404  16407     1  0.0000000  1.0460000  1
  16395  16392  16404  16407     1  0.0000000  0.6694400  3
  16396  16395  16403  16406     1  0.0000000  1.0460000  1
  16396  16395  16403  16406     1  0.0000000  0.6694400  3
  16397  16396  16402  16408     1  0.0000000  1.0460000  1
  16397  16396  16402  16408     1  0.0000000  0.6694400  3
  16397  16396  16395  16399     1  0.0000000  0.6508444  3
  16398  16396  16397  16401     1  0.0000000  1.0460000  1
  16398  16396  16397  16401     1  0.0000000  0.0000000  3
  16398  16396  16397  16413     1  0.0000000  1.0460000  1
  16398  16396  16397  16413     1  0.0000000  0.0000000  3
  16398  16396  16397  16400     1  0.0000000  0.6508444  3
  16398  16396  16402  16408     1  0.0000000  0.6973333  3
  16398  16396  16395  16403     1  0.0000000  1.0460000  1
  16398  16396  16395  16403     1  0.0000000  0.0000000  3
  16398  16396  16395  16399     1  0.0000000  0.6508444  3
  16399  16395  16396  16402     1  0.0000000  1.0460000  1
  16399  16395  16396  16402     1  0.0000000  0.0000000  3
  16399  16395  16403  16406     1  0.0000000  0.6973333  3
  16399  16395  16392  16404     1  0.0000000  1.0460000  1
  16399  16395  16392  16404     1  0.0000000  0.0000000  3
  16400  16397  16396  16402     1  0.0000000  0.6508444  3
  16409  16405  16411  16412     1  0.0000000  0.6973333  3
  16409  16405  16391  16413     1  0.0000000  1.0460000  1
  16409  16405  16391  16413     1  0.0000000  0.0000000  3
  16410  16405  16411  16412     1  0.0000000  0.6973333  3
  16410  16405  16391  16413     1  0.0000000  1.0460000  1
  16410  16405  16391  16413     1  0.0000000  0.0000000  3
  16414  16415  16418  16422     1  0.0000000  0.6508444  3
  16414  16415  16427  16430     1  0.0000000  1.0460000  1
  16414  16415  16427  16430     1  0.0000000  0.6694400  3
  16414  16428  16434  16435     1  0.0000000  1.0460000  1
  16414  16428  16434  16435     1  0.0000000  0.6694400  3
  16414  16436  16420  16423     1  0.0000000  1.6038667  3
  16415  16414  16428  16432     1  0.0000000  0.6508444  3
  16415  16414  16428  16433     1  0.0000000  0.6508444  3
  16415  16418  16419  16421     1  0.0000000  0.6508444  3
  16415  16418  16426  16429     1  0.0000000  1.0460000  1
  16415  16418  16426  16429     1  0.0000000  0.6694400  3
  16416  16414  16415  16418     1  0.0000000  0.6508444  3
  16416  16414  16415  16427     1  0.0000000  1.0460000  1
  16416  16414  16415  16427     1  0.0000000  0.0000000  3
  16416  16414  16415  16417     1  0.0000000  0.6508444  3
  16416  16414  16428  16434     1  0.0000000  1.0460000  1
  16416  16414  16428  16434     1  0.0000000  0.0000000  3
  16416  16414  16428  16432     1  0.0000000  0.6508444  3
  16416  16414  16428  16433     1  0.0000000  0.6508444  3
  16416  16414  16436  16420     1  0.0000000  1.6038667  3
  16417  16415  16414  16428     1  0.0000000  0.6508444  3
  16417  16415  16414  16436     1  0.0000000  1.0460000  1
  16417  16415  16414  16436     1  0.0000000  0.0000000  3
  16417  16415  16418  16419     1  0.0000000  0.6508444  3
  16417  16415  16418  16426     1  0.0000000  1.0460000  1
  16417  16415  16418  16426     1  0.0000000  0.0000000  3
  16417  16415  16418  16422     1  0.0000000  0.6508444  3
  16417  16415  16427  16430     1  0.0000000  0.6973333  3
  16418  16415  16427  16430     1  0.0000000  1.0460000  1
  16418  16415  16427  16430     1  0.0000000  0.6694400  3
  16418  16419  16420  16423     1  0.0000000  0.6508444  3
  16418  16419  16425  16431     1  0.0000000  1.0460000  1
  16418  16419  16425  16431     1  0.0000000  0.6694400  3
  16419  16418  16426  16429     1  0.0000000  1.0460000  1
  16419  16418  16426  16429     1  0.0000000  0.6694400  3
  16420  16419  16418  16422     1  0.0000000  0.6508444  3
  16420  16419  16425  16431     1  0.0000000  1.0460000  1
  16420  16419  16425  16431     1  0.0000000  0.6694400  3
  16421  16419  16418  16426     1  0.0000000  1.0460000  1
  16421  16419  16418  16426     1  0.0000000  0.0000000  3
  16421  16419  16418  16422     1  0.0000000  0.6508444  3
  16421  16419  16420  16424     1  0.0000000  1.0460000  1
  16421  16419  16420  16424     1  0.0000000  0.0000000  3
  16421  16419  16420  16436     1  0.0000000  1.0460000  1
  16421  16419  16420  16436     1  0.0000000  0.0000000  3
  16421  16419  16420  16423     1  0.0000000  0.6508444  3
  16421  16419  16425  16431     1  0.0000000  0.6973333  3
  16422  16418  16415  16427     1  0.0000000  1.0460000  1
  16422  16418  16415  16427     1  0.0000000  0.0000000  3
  16422  16418  16419  16425     1  0.0000000  1.0460000  1
  16422  16418  16419  16425     1  0.0000000  0.0000000  3
  16422  16418  16426  16429     1  0.0000000  0.6973333  3
  16423  16420  16419  16425     1  0.0000000  0.6508444  3
  16432  16428  16414  16436     1  0.0000000  1.0460000  1
  16432  16428  16414  16436     1  0.0000000  0.0000000  3
  16432  16428  16434  16435     1  0.0000000  0.6973333  3
  16433  16428  16414  16436     1  0.0000000  1.0460000  1
  16433  16428  16414  16436     1  0.0000000  0.0000000  3
  16433  16428  16434  16435     1  0.0000000  0.6973333  3
  16437  16438  16441  16445     1  0.0000000  0.6508444  3
  16437  16438  16450  16453     1  0.0000000  1.0460000  1
  16437  16438  16450  16453     1  0.0000000  0.6694400  3
  16437  16451  16457  16458     1  0.0000000  1.0460000  1
  16437  16451  16457  16458     1  0.0000000  0.6694400  3
  16437  16459  16443  16446     1  0.0000000  1.6038667  3
  16438  16441  16442  16444     1  0.0000000  0.6508444  3
  16438  16441  16449  16452     1  0.0000000  1.0460000  1
  16438  16441  16449  16452     1  0.0000000  0.6694400  3
  16438  16437  16451  16455     1  0.0000000  0.6508444  3
  16438  16437  16451  16456     1  0.0000000  0.6508444  3
  16439  16437  16438  16441     1  0.0000000  0.6508444  3
  16439  16437  16438  16450     1  0.0000000  1.0460000  1
  16439  16437  16438  16450     1  0.0000000  0.0000000  3
  16439  16437  16438  16440     1  0.0000000  0.6508444  3
  16439  16437  16451  16457     1  0.0000000  1.0460000  1
  16439  16437  16451  16457     1  0.0000000  0.0000000  3
  16439  16437  16451  16455     1  0.0000000  0.6508444  3
  16439  16437  16451  16456     1  0.0000000  0.6508444  3
  16439  16437  16459  16443     1  0.0000000  1.6038667  3
  16440  16438  16441  16442     1  0.0000000  0.6508444  3
  16440  16438  16441  16449     1  0.0000000  1.0460000  1
  16440  16438  16441  16449     1  0.0000000  0.0000000  3
  16440  16438  16441  16445     1  0.0000000  0.6508444  3
  16440  16438  16450  16453     1  0.0000000  0.6973333  3
  16440  16438  16437  16451     1  0.0000000  0.6508444  3
  16440  16438  16437  16459     1  0.0000000  1.0460000  1
  16440  16438  16437  16459     1  0.0000000  0.0000000  3
  16441  16442  16443  16446     1  0.0000000  0.6508444  3
  16441  16442  16448  16454     1  0.0000000  1.0460000  1
  16441  16442  16448  16454     1  0.0000000  0.6694400  3
  16441  16438  16450  16453     1  0.0000000  1.0460000  1
  16441  16438  16450  16453     1  0.0000000  0.6694400  3
  16442  16441  16449  16452     1  0.0000000  1.0460000  1
  16442  16441  16449  16452     1  0.0000000  0.6694400  3
  16443  16442  16448  16454     1  0.0000000  1.0460000  1
  16443  16442  16448  16454     1  0.0000000  0.6694400  3
  16443  16442  16441  16445     1  0.0000000  0.6508444  3
  16444  16442  16443  16447     1  0.0000000  1.0460000  1
  16444  16442  16443  16447     1  0.0000000  0.0000000  3
  16444  16442  16443  16459     1  0.0000000  1.0460000  1
  16444  16442  16443  16459     1  0.0000000  0.0000000  3
  16444  16442  16443  16446     1  0.0000000  0.6508444  3
  16444  16442  16448  16454     1  0.0000000  0.6973333  3
  16444  16442  16441  16449     1  0.0000000  1.0460000  1
  16444  16442  16441  16449     1  0.0000000  0.0000000  3
  16444  16442  16441  16445     1  0.0000000  0.6508444  3
  16445  16441  16442  16448     1  0.0000000  1.0460000  1
  16445  16441  16442  16448     1  0.0000000  0.0000000  3
  16445  16441  16449  16452     1  0.0000000  0.6973333  3
  16445  16441  16438  16450     1  0.0000000  1.0460000  1
  16445  16441  16438  16450     1  0.0000000  0.0000000  3
  16446  16443  16442  16448     1  0.0000000  0.6508444  3
  16455  16451  16457  16458     1  0.0000000  0.6973333  3
  16455  16451  16437  16459     1  0.0000000  1.0460000  1
  16455  16451  16437  16459     1  0.0000000  0.0000000  3
  16456  16451  16457  16458     1  0.0000000  0.6973333  3
  16456  16451  16437  16459     1  0.0000000  1.0460000  1
  16456  16451  16437  16459     1  0.0000000  0.0000000  3
  16460  16461  16464  16468     1  0.0000000  0.6508444  3
  16460  16461  16473  16476     1  0.0000000  1.0460000  1
  16460  16461  16473  16476     1  0.0000000  0.6694400  3
  16460  16474  16480  16481     1  0.0000000  1.0460000  1
  16460  16474  16480  16481     1  0.0000000  0.6694400  3
  16460  16482  16466  16469     1  0.0000000  1.6038667  3
  16461  16460  16474  16478     1  0.0000000  0.6508444  3
  16461  16460  16474  16479     1  0.0000000  0.6508444  3
  16461  16464  16465  16467     1  0.0000000  0.6508444  3
  16461  16464  16472  16475     1  0.0000000  1.0460000  1
  16461  16464  16472  16475     1  0.0000000  0.6694400  3
  16462  16460  16461  16464     1  0.0000000  0.6508444  3
  16462  16460  16461  16473     1  0.0000000  1.0460000  1
  16462  16460  16461  16473     1  0.0000000  0.0000000  3
  16462  16460  16461  16463     1  0.0000000  0.6508444  3
  16462  16460  16474  16480     1  0.0000000  1.0460000  1
  16462  16460  16474  16480     1  0.0000000  0.0000000  3
  16462  16460  16474  16478     1  0.0000000  0.6508444  3
  16462  16460  16474  16479     1  0.0000000  0.6508444  3
  16462  16460  16482  16466     1  0.0000000  1.6038667  3
  16463  16461  16460  16474     1  0.0000000  0.6508444  3
  16463  16461  16460  16482     1  0.0000000  1.0460000  1
  16463  16461  16460  16482     1  0.0000000  0.0000000  3
  16463  16461  16464  16465     1  0.0000000  0.6508444  3
  16463  16461  16464  16472     1  0.0000000  1.0460000  1
  16463  16461  16464  16472     1  0.0000000  0.0000000  3
  16463  16461  16464  16468     1  0.0000000  0.6508444  3
  16463  16461  16473  16476     1  0.0000000  0.6973333  3
  16464  16461  16473  16476     1  0.0000000  1.0460000  1
  16464  16461  16473  16476     1  0.0000000  0.6694400  3
  16464  16465  16466  16469     1  0.0000000  0.6508444  3
  16464  16465  16471  16477     1  0.0000000  1.0460000  1
  16464  16465  16471  16477     1  0.0000000  0.6694400  3
  16465  16464  16472  16475     1  0.0000000  1.0460000  1
  16465  16464  16472  16475     1  0.0000000  0.6694400  3
  16466  16465  16464  16468     1  0.0000000  0.6508444  3
  16466  16465  16471  16477     1  0.0000000  1.0460000  1
  16466  16465  16471  16477     1  0.0000000  0.6694400  3
  16467  16465  16464  16472     1  0.0000000  1.0460000  1
  16467  16465  16464  16472     1  0.0000000  0.0000000  3
  16467  16465  16464  16468     1  0.0000000  0.6508444  3
  16467  16465  16466  16470     1  0.0000000  1.0460000  1
  16467  16465  16466  16470     1  0.0000000  0.0000000  3
  16467  16465  16466  16482     1  0.0000000  1.0460000  1
  16467  16465  16466  16482     1  0.0000000  0.0000000  3
  16467  16465  16466  16469     1  0.0000000  0.6508444  3
  16467  16465  16471  16477     1  0.0000000  0.6973333  3
  16468  16464  16461  16473     1  0.0000000  1.0460000  1
  16468  16464  16461  16473     1  0.0000000  0.0000000  3
  16468  16464  16465  16471     1  0.0000000  1.0460000  1
  16468  16464  16465  16471     1  0.0000000  0.0000000  3
  16468  16464  16472  16475     1  0.0000000  0.6973333  3
  16469  16466  16465  16471     1  0.0000000  0.6508444  3
  16478  16474  16460  16482     1  0.0000000  1.0460000  1
  16478  16474  16460  16482     1  0.0000000  0.0000000  3
  16478  16474  16480  16481     1  0.0000000  0.6973333  3
  16479  16474  16460  16482     1  0.0000000  1.0460000  1
  16479  16474  16460  16482     1  0.0000000  0.0000000  3
  16479  16474  16480  16481     1  0.0000000  0.6973333  3
  16483  16484  16487  16491     1  0.0000000  0.6508444  3
  16483  16484  16496  16499     1  0.0000000  1.0460000  1
  16483  16484  16496  16499     1  0.0000000  0.6694400  3
  16483  16497  16503  16504     1  0.0000000  1.0460000  1
  16483  16497  16503  16504     1  0.0000000  0.6694400  3
  16483  16505  16489  16492     1  0.0000000  1.6038667  3
  16484  16487  16488  16490     1  0.0000000  0.6508444  3
  16484  16487  16495  16498     1  0.0000000  1.0460000  1
  16484  16487  16495  16498     1  0.0000000  0.6694400  3
  16484  16483  16497  16501     1  0.0000000  0.6508444  3
  16484  16483  16497  16502     1  0.0000000  0.6508444  3
  16485  16483  16484  16487     1  0.0000000  0.6508444  3
  16485  16483  16484  16496     1  0.0000000  1.0460000  1
  16485  16483  16484  16496     1  0.0000000  0.0000000  3
  16485  16483  16484  16486     1  0.0000000  0.6508444  3
  16485  16483  16497  16503     1  0.0000000  1.0460000  1
  16485  16483  16497  16503     1  0.0000000  0.0000000  3
  16485  16483  16497  16501     1  0.0000000  0.6508444  3
  16485  16483  16497  16502     1  0.0000000  0.6508444  3
  16485  16483  16505  16489     1  0.0000000  1.6038667  3
  16486  16484  16487  16488     1  0.0000000  0.6508444  3
  16486  16484  16487  16495     1  0.0000000  1.0460000  1
  16486  16484  16487  16495     1  0.0000000  0.0000000  3
  16486  16484  16487  16491     1  0.0000000  0.6508444  3
  16486  16484  16496  16499     1  0.0000000  0.6973333  3
  16486  16484  16483  16497     1  0.0000000  0.6508444  3
  16486  16484  16483  16505     1  0.0000000  1.0460000  1
  16486  16484  16483  16505     1  0.0000000  0.0000000  3
  16487  16488  16489  16492     1  0.0000000  0.6508444  3
  16487  16488  16494  16500     1  0.0000000  1.0460000  1
  16487  16488  16494  16500     1  0.0000000  0.6694400  3
  16487  16484  16496  16499     1  0.0000000  1.0460000  1
  16487  16484  16496  16499     1  0.0000000  0.6694400  3
  16488  16487  16495  16498     1  0.0000000  1.0460000  1
  16488  16487  16495  16498     1  0.0000000  0.6694400  3
  16489  16488  16494  16500     1  0.0000000  1.0460000  1
  16489  16488  16494  16500     1  0.0000000  0.6694400  3
  16489  16488  16487  16491     1  0.0000000  0.6508444  3
  16490  16488  16489  16493     1  0.0000000  1.0460000  1
  16490  16488  16489  16493     1  0.0000000  0.0000000  3
  16490  16488  16489  16505     1  0.0000000  1.0460000  1
  16490  16488  16489  16505     1  0.0000000  0.0000000  3
  16490  16488  16489  16492     1  0.0000000  0.6508444  3
  16490  16488  16494  16500     1  0.0000000  0.6973333  3
  16490  16488  16487  16495     1  0.0000000  1.0460000  1
  16490  16488  16487  16495     1  0.0000000  0.0000000  3
  16490  16488  16487  16491     1  0.0000000  0.6508444  3
  16491  16487  16488  16494     1  0.0000000  1.0460000  1
  16491  16487  16488  16494     1  0.0000000  0.0000000  3
  16491  16487  16495  16498     1  0.0000000  0.6973333  3
  16491  16487  16484  16496     1  0.0000000  1.0460000  1
  16491  16487  16484  16496     1  0.0000000  0.0000000  3
  16492  16489  16488  16494     1  0.0000000  0.6508444  3
  16501  16497  16503  16504     1  0.0000000  0.6973333  3
  16501  16497  16483  16505     1  0.0000000  1.0460000  1
  16501  16497  16483  16505     1  0.0000000  0.0000000  3
  16502  16497  16503  16504     1  0.0000000  0.6973333  3
  16502  16497  16483  16505     1  0.0000000  1.0460000  1
  16502  16497  16483  16505     1  0.0000000  0.0000000  3
  16506  16507  16510  16514     1  0.0000000  0.6508444  3
  16506  16507  16519  16522     1  0.0000000  1.0460000  1
  16506  16507  16519  16522     1  0.0000000  0.6694400  3
  16506  16520  16526  16527     1  0.0000000  1.0460000  1
  16506  16520  16526  16527     1  0.0000000  0.6694400  3
  16506  16528  16512  16515     1  0.0000000  1.6038667  3
  16507  16506  16520  16524     1  0.0000000  0.6508444  3
  16507  16506  16520  16525     1  0.0000000  0.6508444  3
  16507  16510  16511  16513     1  0.0000000  0.6508444  3
  16507  16510  16518  16521     1  0.0000000  1.0460000  1
  16507  16510  16518  16521     1  0.0000000  0.6694400  3
  16508  16506  16507  16510     1  0.0000000  0.6508444  3
  16508  16506  16507  16519     1  0.0000000  1.0460000  1
  16508  16506  16507  16519     1  0.0000000  0.0000000  3
  16508  16506  16507  16509     1  0.0000000  0.6508444  3
  16508  16506  16520  16526     1  0.0000000  1.0460000  1
  16508  16506  16520  16526     1  0.0000000  0.0000000  3
  16508  16506  16520  16524     1  0.0000000  0.6508444  3
  16508  16506  16520  16525     1  0.0000000  0.6508444  3
  16508  16506  16528  16512     1  0.0000000  1.6038667  3
  16509  16507  16506  16520     1  0.0000000  0.6508444  3
  16509  16507  16506  16528     1  0.0000000  1.0460000  1
  16509  16507  16506  16528     1  0.0000000  0.0000000  3
  16509  16507  16510  16511     1  0.0000000  0.6508444  3
  16509  16507  16510  16518     1  0.0000000  1.0460000  1
  16509  16507  16510  16518     1  0.0000000  0.0000000  3
  16509  16507  16510  16514     1  0.0000000  0.6508444  3
  16509  16507  16519  16522     1  0.0000000  0.6973333  3
  16510  16507  16519  16522     1  0.0000000  1.0460000  1
  16510  16507  16519  16522     1  0.0000000  0.6694400  3
  16510  16511  16512  16515     1  0.0000000  0.6508444  3
  16510  16511  16517  16523     1  0.0000000  1.0460000  1
  16510  16511  16517  16523     1  0.0000000  0.6694400  3
  16511  16510  16518  16521     1  0.0000000  1.0460000  1
  16511  16510  16518  16521     1  0.0000000  0.6694400  3
  16512  16511  16510  16514     1  0.0000000  0.6508444  3
  16512  16511  16517  16523     1  0.0000000  1.0460000  1
  16512  16511  16517  16523     1  0.0000000  0.6694400  3
  16513  16511  16510  16518     1  0.0000000  1.0460000  1
  16513  16511  16510  16518     1  0.0000000  0.0000000  3
  16513  16511  16510  16514     1  0.0000000  0.6508444  3
  16513  16511  16512  16516     1  0.0000000  1.0460000  1
  16513  16511  16512  16516     1  0.0000000  0.0000000  3
  16513  16511  16512  16528     1  0.0000000  1.0460000  1
  16513  16511  16512  16528     1  0.0000000  0.0000000  3
  16513  16511  16512  16515     1  0.0000000  0.6508444  3
  16513  16511  16517  16523     1  0.0000000  0.6973333  3
  16514  16510  16507  16519     1  0.0000000  1.0460000  1
  16514  16510  16507  16519     1  0.0000000  0.0000000  3
  16514  16510  16511  16517     1  0.0000000  1.0460000  1
  16514  16510  16511  16517     1  0.0000000  0.0000000  3
  16514  16510  16518  16521     1  0.0000000  0.6973333  3
  16515  16512  16511  16517     1  0.0000000  0.6508444  3
  16524  16520  16506  16528     1  0.0000000  1.0460000  1
  16524  16520  16506  16528     1  0.0000000  0.0000000  3
  16524  16520  16526  16527     1  0.0000000  0.6973333  3
  16525  16520  16506  16528     1  0.0000000  1.0460000  1
  16525  16520  16506  16528     1  0.0000000  0.0000000  3
  16525  16520  16526  16527     1  0.0000000  0.6973333  3
  16529  16530  16533  16537     1  0.0000000  0.6508444  3
  16529  16530  16542  16545     1  0.0000000  1.0460000  1
  16529  16530  16542  16545     1  0.0000000  0.6694400  3
  16529  16543  16549  16550     1  0.0000000  1.0460000  1
  16529  16543  16549  16550     1  0.0000000  0.6694400  3
  16529  16551  16535  16538     1  0.0000000  1.6038667  3
  16530  16533  16534  16536     1  0.0000000  0.6508444  3
  16530  16533  16541  16544     1  0.0000000  1.0460000  1
  16530  16533  16541  16544     1  0.0000000  0.6694400  3
  16530  16529  16543  16547     1  0.0000000  0.6508444  3
  16530  16529  16543  16548     1  0.0000000  0.6508444  3
  16531  16529  16530  16533     1  0.0000000  0.6508444  3
  16531  16529  16530  16542     1  0.0000000  1.0460000  1
  16531  16529  16530  16542     1  0.0000000  0.0000000  3
  16531  16529  16530  16532     1  0.0000000  0.6508444  3
  16531  16529  16543  16549     1  0.0000000  1.0460000  1
  16531  16529  16543  16549     1  0.0000000  0.0000000  3
  16531  16529  16543  16547     1  0.0000000  0.6508444  3
  16531  16529  16543  16548     1  0.0000000  0.6508444  3
  16531  16529  16551  16535     1  0.0000000  1.6038667  3
  16532  16530  16533  16534     1  0.0000000  0.6508444  3
  16532  16530  16533  16541     1  0.0000000  1.0460000  1
  16532  16530  16533  16541     1  0.0000000  0.0000000  3
  16532  16530  16533  16537     1  0.0000000  0.6508444  3
  16532  16530  16542  16545     1  0.0000000  0.6973333  3
  16532  16530  16529  16543     1  0.0000000  0.6508444  3
  16532  16530  16529  16551     1  0.0000000  1.0460000  1
  16532  16530  16529  16551     1  0.0000000  0.0000000  3
  16533  16534  16535  16538     1  0.0000000  0.6508444  3
  16533  16534  16540  16546     1  0.0000000  1.0460000  1
  16533  16534  16540  16546     1  0.0000000  0.6694400  3
  16533  16530  16542  16545     1  0.0000000  1.0460000  1
  16533  16530  16542  16545     1  0.0000000  0.6694400  3
  16534  16533  16541  16544     1  0.0000000  1.0460000  1
  16534  16533  16541  16544     1  0.0000000  0.6694400  3
  16535  16534  16540  16546     1  0.0000000  1.0460000  1
  16535  16534  16540  16546     1  0.0000000  0.6694400  3
  16535  16534  16533  16537     1  0.0000000  0.6508444  3
  16536  16534  16535  16539     1  0.0000000  1.0460000  1
  16536  16534  16535  16539     1  0.0000000  0.0000000  3
  16536  16534  16535  16551     1  0.0000000  1.0460000  1
  16536  16534  16535  16551     1  0.0000000  0.0000000  3
  16536  16534  16535  16538     1  0.0000000  0.6508444  3
  16536  16534  16540  16546     1  0.0000000  0.6973333  3
  16536  16534  16533  16541     1  0.0000000  1.0460000  1
  16536  16534  16533  16541     1  0.0000000  0.0000000  3
  16536  16534  16533  16537     1  0.0000000  0.6508444  3
  16537  16533  16534  16540     1  0.0000000  1.0460000  1
  16537  16533  16534  16540     1  0.0000000  0.0000000  3
  16537  16533  16541  16544     1  0.0000000  0.6973333  3
  16537  16533  16530  16542     1  0.0000000  1.0460000  1
  16537  16533  16530  16542     1  0.0000000  0.0000000  3
  16538  16535  16534  16540     1  0.0000000  0.6508444  3
  16547  16543  16549  16550     1  0.0000000  0.6973333  3
  16547  16543  16529  16551     1  0.0000000  1.0460000  1
  16547  16543  16529  16551     1  0.0000000  0.0000000  3
  16548  16543  16549  16550     1  0.0000000  0.6973333  3
  16548  16543  16529  16551     1  0.0000000  1.0460000  1
  16548  16543  16529  16551     1  0.0000000  0.0000000  3
  16552  16553  16556  16560     1  0.0000000  0.6508444  3
  16552  16553  16565  16568     1  0.0000000  1.0460000  1
  16552  16553  16565  16568     1  0.0000000  0.6694400  3
  16552  16566  16572  16573     1  0.0000000  1.0460000  1
  16552  16566  16572  16573     1  0.0000000  0.6694400  3
  16552  16574  16558  16561     1  0.0000000  1.6038667  3
  16553  16552  16566  16570     1  0.0000000  0.6508444  3
  16553  16552  16566  16571     1  0.0000000  0.6508444  3
  16553  16556  16557  16559     1  0.0000000  0.6508444  3
  16553  16556  16564  16567     1  0.0000000  1.0460000  1
  16553  16556  16564  16567     1  0.0000000  0.6694400  3
  16554  16552  16553  16556     1  0.0000000  0.6508444  3
  16554  16552  16553  16565     1  0.0000000  1.0460000  1
  16554  16552  16553  16565     1  0.0000000  0.0000000  3
  16554  16552  16553  16555     1  0.0000000  0.6508444  3
  16554  16552  16566  16572     1  0.0000000  1.0460000  1
  16554  16552  16566  16572     1  0.0000000  0.0000000  3
  16554  16552  16566  16570     1  0.0000000  0.6508444  3
  16554  16552  16566  16571     1  0.0000000  0.6508444  3
  16554  16552  16574  16558     1  0.0000000  1.6038667  3
  16555  16553  16552  16566     1  0.0000000  0.6508444  3
  16555  16553  16552  16574     1  0.0000000  1.0460000  1
  16555  16553  16552  16574     1  0.0000000  0.0000000  3
  16555  16553  16556  16557     1  0.0000000  0.6508444  3
  16555  16553  16556  16564     1  0.0000000  1.0460000  1
  16555  16553  16556  16564     1  0.0000000  0.0000000  3
  16555  16553  16556  16560     1  0.0000000  0.6508444  3
  16555  16553  16565  16568     1  0.0000000  0.6973333  3
  16556  16553  16565  16568     1  0.0000000  1.0460000  1
  16556  16553  16565  16568     1  0.0000000  0.6694400  3
  16556  16557  16558  16561     1  0.0000000  0.6508444  3
  16556  16557  16563  16569     1  0.0000000  1.0460000  1
  16556  16557  16563  16569     1  0.0000000  0.6694400  3
  16557  16556  16564  16567     1  0.0000000  1.0460000  1
  16557  16556  16564  16567     1  0.0000000  0.6694400  3
  16558  16557  16556  16560     1  0.0000000  0.6508444  3
  16558  16557  16563  16569     1  0.0000000  1.0460000  1
  16558  16557  16563  16569     1  0.0000000  0.6694400  3
  16559  16557  16556  16564     1  0.0000000  1.0460000  1
  16559  16557  16556  16564     1  0.0000000  0.0000000  3
  16559  16557  16556  16560     1  0.0000000  0.6508444  3
  16559  16557  16558  16562     1  0.0000000  1.0460000  1
  16559  16557  16558  16562     1  0.0000000  0.0000000  3
  16559  16557  16558  16574     1  0.0000000  1.0460000  1
  16559  16557  16558  16574     1  0.0000000  0.0000000  3
  16559  16557  16558  16561     1  0.0000000  0.6508444  3
  16559  16557  16563  16569     1  0.0000000  0.6973333  3
  16560  16556  16553  16565     1  0.0000000  1.0460000  1
  16560  16556  16553  16565     1  0.0000000  0.0000000  3
  16560  16556  16557  16563     1  0.0000000  1.0460000  1
  16560  16556  16557  16563     1  0.0000000  0.0000000  3
  16560  16556  16564  16567     1  0.0000000  0.6973333  3
  16561  16558  16557  16563     1  0.0000000  0.6508444  3
  16570  16566  16552  16574     1  0.0000000  1.0460000  1
  16570  16566  16552  16574     1  0.0000000  0.0000000  3
  16570  16566  16572  16573     1  0.0000000  0.6973333  3
  16571  16566  16552  16574     1  0.0000000  1.0460000  1
  16571  16566  16552  16574     1  0.0000000  0.0000000  3
  16571  16566  16572  16573     1  0.0000000  0.6973333  3
  16575  16576  16579  16583     1  0.0000000  0.6508444  3
  16575  16576  16588  16591     1  0.0000000  1.0460000  1
  16575  16576  16588  16591     1  0.0000000  0.6694400  3
  16575  16589  16595  16596     1  0.0000000  1.0460000  1
  16575  16589  16595  16596     1  0.0000000  0.6694400  3
  16575  16597  16581  16584     1  0.0000000  1.6038667  3
  16576  16579  16580  16582     1  0.0000000  0.6508444  3
  16576  16579  16587  16590     1  0.0000000  1.0460000  1
  16576  16579  16587  16590     1  0.0000000  0.6694400  3
  16576  16575  16589  16593     1  0.0000000  0.6508444  3
  16576  16575  16589  16594     1  0.0000000  0.6508444  3
  16577  16575  16576  16579     1  0.0000000  0.6508444  3
  16577  16575  16576  16588     1  0.0000000  1.0460000  1
  16577  16575  16576  16588     1  0.0000000  0.0000000  3
  16577  16575  16576  16578     1  0.0000000  0.6508444  3
  16577  16575  16589  16595     1  0.0000000  1.0460000  1
  16577  16575  16589  16595     1  0.0000000  0.0000000  3
  16577  16575  16589  16593     1  0.0000000  0.6508444  3
  16577  16575  16589  16594     1  0.0000000  0.6508444  3
  16577  16575  16597  16581     1  0.0000000  1.6038667  3
  16578  16576  16579  16580     1  0.0000000  0.6508444  3
  16578  16576  16579  16587     1  0.0000000  1.0460000  1
  16578  16576  16579  16587     1  0.0000000  0.0000000  3
  16578  16576  16579  16583     1  0.0000000  0.6508444  3
  16578  16576  16588  16591     1  0.0000000  0.6973333  3
  16578  16576  16575  16589     1  0.0000000  0.6508444  3
  16578  16576  16575  16597     1  0.0000000  1.0460000  1
  16578  16576  16575  16597     1  0.0000000  0.0000000  3
  16579  16580  16581  16584     1  0.0000000  0.6508444  3
  16579  16580  16586  16592     1  0.0000000  1.0460000  1
  16579  16580  16586  16592     1  0.0000000  0.6694400  3
  16579  16576  16588  16591     1  0.0000000  1.0460000  1
  16579  16576  16588  16591     1  0.0000000  0.6694400  3
  16580  16579  16587  16590     1  0.0000000  1.0460000  1
  16580  16579  16587  16590     1  0.0000000  0.6694400  3
  16581  16580  16586  16592     1  0.0000000  1.0460000  1
  16581  16580  16586  16592     1  0.0000000  0.6694400  3
  16581  16580  16579  16583     1  0.0000000  0.6508444  3
  16582  16580  16581  16585     1  0.0000000  1.0460000  1
  16582  16580  16581  16585     1  0.0000000  0.0000000  3
  16582  16580  16581  16597     1  0.0000000  1.0460000  1
  16582  16580  16581  16597     1  0.0000000  0.0000000  3
  16582  16580  16581  16584     1  0.0000000  0.6508444  3
  16582  16580  16586  16592     1  0.0000000  0.6973333  3
  16582  16580  16579  16587     1  0.0000000  1.0460000  1
  16582  16580  16579  16587     1  0.0000000  0.0000000  3
  16582  16580  16579  16583     1  0.0000000  0.6508444  3
  16583  16579  16580  16586     1  0.0000000  1.0460000  1
  16583  16579  16580  16586     1  0.0000000  0.0000000  3
  16583  16579  16587  16590     1  0.0000000  0.6973333  3
  16583  16579  16576  16588     1  0.0000000  1.0460000  1
  16583  16579  16576  16588     1  0.0000000  0.0000000  3
  16584  16581  16580  16586     1  0.0000000  0.6508444  3
  16593  16589  16595  16596     1  0.0000000  0.6973333  3
  16593  16589  16575  16597     1  0.0000000  1.0460000  1
  16593  16589  16575  16597     1  0.0000000  0.0000000  3
  16594  16589  16595  16596     1  0.0000000  0.6973333  3
  16594  16589  16575  16597     1  0.0000000  1.0460000  1
  16594  16589  16575  16597     1  0.0000000  0.0000000  3
  16598  16599  16602  16606     1  0.0000000  0.6508444  3
  16598  16599  16611  16614     1  0.0000000  1.0460000  1
  16598  16599  16611  16614     1  0.0000000  0.6694400  3
  16598  16612  16618  16619     1  0.0000000  1.0460000  1
  16598  16612  16618  16619     1  0.0000000  0.6694400  3
  16598  16620  16604  16607     1  0.0000000  1.6038667  3
  16599  16598  16612  16616     1  0.0000000  0.6508444  3
  16599  16598  16612  16617     1  0.0000000  0.6508444  3
  16599  16602  16603  16605     1  0.0000000  0.6508444  3
  16599  16602  16610  16613     1  0.0000000  1.0460000  1
  16599  16602  16610  16613     1  0.0000000  0.6694400  3
  16600  16598  16599  16602     1  0.0000000  0.6508444  3
  16600  16598  16599  16611     1  0.0000000  1.0460000  1
  16600  16598  16599  16611     1  0.0000000  0.0000000  3
  16600  16598  16599  16601     1  0.0000000  0.6508444  3
  16600  16598  16612  16618     1  0.0000000  1.0460000  1
  16600  16598  16612  16618     1  0.0000000  0.0000000  3
  16600  16598  16612  16616     1  0.0000000  0.6508444  3
  16600  16598  16612  16617     1  0.0000000  0.6508444  3
  16600  16598  16620  16604     1  0.0000000  1.6038667  3
  16601  16599  16598  16612     1  0.0000000  0.6508444  3
  16601  16599  16598  16620     1  0.0000000  1.0460000  1
  16601  16599  16598  16620     1  0.0000000  0.0000000  3
  16601  16599  16602  16603     1  0.0000000  0.6508444  3
  16601  16599  16602  16610     1  0.0000000  1.0460000  1
  16601  16599  16602  16610     1  0.0000000  0.0000000  3
  16601  16599  16602  16606     1  0.0000000  0.6508444  3
  16601  16599  16611  16614     1  0.0000000  0.6973333  3
  16602  16599  16611  16614     1  0.0000000  1.0460000  1
  16602  16599  16611  16614     1  0.0000000  0.6694400  3
  16602  16603  16604  16607     1  0.0000000  0.6508444  3
  16602  16603  16609  16615     1  0.0000000  1.0460000  1
  16602  16603  16609  16615     1  0.0000000  0.6694400  3
  16603  16602  16610  16613     1  0.0000000  1.0460000  1
  16603  16602  16610  16613     1  0.0000000  0.6694400  3
  16604  16603  16602  16606     1  0.0000000  0.6508444  3
  16604  16603  16609  16615     1  0.0000000  1.0460000  1
  16604  16603  16609  16615     1  0.0000000  0.6694400  3
  16605  16603  16602  16610     1  0.0000000  1.0460000  1
  16605  16603  16602  16610     1  0.0000000  0.0000000  3
  16605  16603  16602  16606     1  0.0000000  0.6508444  3
  16605  16603  16604  16608     1  0.0000000  1.0460000  1
  16605  16603  16604  16608     1  0.0000000  0.0000000  3
  16605  16603  16604  16620     1  0.0000000  1.0460000  1
  16605  16603  16604  16620     1  0.0000000  0.0000000  3
  16605  16603  16604  16607     1  0.0000000  0.6508444  3
  16605  16603  16609  16615     1  0.0000000  0.6973333  3
  16606  16602  16599  16611     1  0.0000000  1.0460000  1
  16606  16602  16599  16611     1  0.0000000  0.0000000  3
  16606  16602  16603  16609     1  0.0000000  1.0460000  1
  16606  16602  16603  16609     1  0.0000000  0.0000000  3
  16606  16602  16610  16613     1  0.0000000  0.6973333  3
  16607  16604  16603  16609     1  0.0000000  0.6508444  3
  16616  16612  16598  16620     1  0.0000000  1.0460000  1
  16616  16612  16598  16620     1  0.0000000  0.0000000  3
  16616  16612  16618  16619     1  0.0000000  0.6973333  3
  16617  16612  16598  16620     1  0.0000000  1.0460000  1
  16617  16612  16598  16620     1  0.0000000  0.0000000  3
  16617  16612  16618  16619     1  0.0000000  0.6973333  3
  16621  16622  16625  16629     1  0.0000000  0.6508444  3
  16621  16622  16634  16637     1  0.0000000  1.0460000  1
  16621  16622  16634  16637     1  0.0000000  0.6694400  3
  16621  16635  16641  16642     1  0.0000000  1.0460000  1
  16621  16635  16641  16642     1  0.0000000  0.6694400  3
  16621  16643  16627  16630     1  0.0000000  1.6038667  3
  16622  16625  16626  16628     1  0.0000000  0.6508444  3
  16622  16625  16633  16636     1  0.0000000  1.0460000  1
  16622  16625  16633  16636     1  0.0000000  0.6694400  3
  16622  16621  16635  16639     1  0.0000000  0.6508444  3
  16622  16621  16635  16640     1  0.0000000  0.6508444  3
  16623  16621  16622  16625     1  0.0000000  0.6508444  3
  16623  16621  16622  16634     1  0.0000000  1.0460000  1
  16623  16621  16622  16634     1  0.0000000  0.0000000  3
  16623  16621  16622  16624     1  0.0000000  0.6508444  3
  16623  16621  16635  16641     1  0.0000000  1.0460000  1
  16623  16621  16635  16641     1  0.0000000  0.0000000  3
  16623  16621  16635  16639     1  0.0000000  0.6508444  3
  16623  16621  16635  16640     1  0.0000000  0.6508444  3
  16623  16621  16643  16627     1  0.0000000  1.6038667  3
  16624  16622  16625  16626     1  0.0000000  0.6508444  3
  16624  16622  16625  16633     1  0.0000000  1.0460000  1
  16624  16622  16625  16633     1  0.0000000  0.0000000  3
  16624  16622  16625  16629     1  0.0000000  0.6508444  3
  16624  16622  16634  16637     1  0.0000000  0.6973333  3
  16624  16622  16621  16635     1  0.0000000  0.6508444  3
  16624  16622  16621  16643     1  0.0000000  1.0460000  1
  16624  16622  16621  16643     1  0.0000000  0.0000000  3
  16625  16626  16627  16630     1  0.0000000  0.6508444  3
  16625  16626  16632  16638     1  0.0000000  1.0460000  1
  16625  16626  16632  16638     1  0.0000000  0.6694400  3
  16625  16622  16634  16637     1  0.0000000  1.0460000  1
  16625  16622  16634  16637     1  0.0000000  0.6694400  3
  16626  16625  16633  16636     1  0.0000000  1.0460000  1
  16626  16625  16633  16636     1  0.0000000  0.6694400  3
  16627  16626  16632  16638     1  0.0000000  1.0460000  1
  16627  16626  16632  16638     1  0.0000000  0.6694400  3
  16627  16626  16625  16629     1  0.0000000  0.6508444  3
  16628  16626  16627  16631     1  0.0000000  1.0460000  1
  16628  16626  16627  16631     1  0.0000000  0.0000000  3
  16628  16626  16627  16643     1  0.0000000  1.0460000  1
  16628  16626  16627  16643     1  0.0000000  0.0000000  3
  16628  16626  16627  16630     1  0.0000000  0.6508444  3
  16628  16626  16632  16638     1  0.0000000  0.6973333  3
  16628  16626  16625  16633     1  0.0000000  1.0460000  1
  16628  16626  16625  16633     1  0.0000000  0.0000000  3
  16628  16626  16625  16629     1  0.0000000  0.6508444  3
  16629  16625  16626  16632     1  0.0000000  1.0460000  1
  16629  16625  16626  16632     1  0.0000000  0.0000000  3
  16629  16625  16633  16636     1  0.0000000  0.6973333  3
  16629  16625  16622  16634     1  0.0000000  1.0460000  1
  16629  16625  16622  16634     1  0.0000000  0.0000000  3
  16630  16627  16626  16632     1  0.0000000  0.6508444  3
  16639  16635  16641  16642     1  0.0000000  0.6973333  3
  16639  16635  16621  16643     1  0.0000000  1.0460000  1
  16639  16635  16621  16643     1  0.0000000  0.0000000  3
  16640  16635  16641  16642     1  0.0000000  0.6973333  3
  16640  16635  16621  16643     1  0.0000000  1.0460000  1
  16640  16635  16621  16643     1  0.0000000  0.0000000  3
  16644  16645  16648  16652     1  0.0000000  0.6508444  3
  16644  16645  16657  16660     1  0.0000000  1.0460000  1
  16644  16645  16657  16660     1  0.0000000  0.6694400  3
  16644  16658  16664  16665     1  0.0000000  1.0460000  1
  16644  16658  16664  16665     1  0.0000000  0.6694400  3
  16644  16666  16650  16653     1  0.0000000  1.6038667  3
  16645  16644  16658  16662     1  0.0000000  0.6508444  3
  16645  16644  16658  16663     1  0.0000000  0.6508444  3
  16645  16648  16649  16651     1  0.0000000  0.6508444  3
  16645  16648  16656  16659     1  0.0000000  1.0460000  1
  16645  16648  16656  16659     1  0.0000000  0.6694400  3
  16646  16644  16645  16648     1  0.0000000  0.6508444  3
  16646  16644  16645  16657     1  0.0000000  1.0460000  1
  16646  16644  16645  16657     1  0.0000000  0.0000000  3
  16646  16644  16645  16647     1  0.0000000  0.6508444  3
  16646  16644  16658  16664     1  0.0000000  1.0460000  1
  16646  16644  16658  16664     1  0.0000000  0.0000000  3
  16646  16644  16658  16662     1  0.0000000  0.6508444  3
  16646  16644  16658  16663     1  0.0000000  0.6508444  3
  16646  16644  16666  16650     1  0.0000000  1.6038667  3
  16647  16645  16644  16658     1  0.0000000  0.6508444  3
  16647  16645  16644  16666     1  0.0000000  1.0460000  1
  16647  16645  16644  16666     1  0.0000000  0.0000000  3
  16647  16645  16648  16649     1  0.0000000  0.6508444  3
  16647  16645  16648  16656     1  0.0000000  1.0460000  1
  16647  16645  16648  16656     1  0.0000000  0.0000000  3
  16647  16645  16648  16652     1  0.0000000  0.6508444  3
  16647  16645  16657  16660     1  0.0000000  0.6973333  3
  16648  16645  16657  16660     1  0.0000000  1.0460000  1
  16648  16645  16657  16660     1  0.0000000  0.6694400  3
  16648  16649  16650  16653     1  0.0000000  0.6508444  3
  16648  16649  16655  16661     1  0.0000000  1.0460000  1
  16648  16649  16655  16661     1  0.0000000  0.6694400  3
  16649  16648  16656  16659     1  0.0000000  1.0460000  1
  16649  16648  16656  16659     1  0.0000000  0.6694400  3
  16650  16649  16648  16652     1  0.0000000  0.6508444  3
  16650  16649  16655  16661     1  0.0000000  1.0460000  1
  16650  16649  16655  16661     1  0.0000000  0.6694400  3
  16651  16649  16648  16656     1  0.0000000  1.0460000  1
  16651  16649  16648  16656     1  0.0000000  0.0000000  3
  16651  16649  16648  16652     1  0.0000000  0.6508444  3
  16651  16649  16650  16654     1  0.0000000  1.0460000  1
  16651  16649  16650  16654     1  0.0000000  0.0000000  3
  16651  16649  16650  16666     1  0.0000000  1.0460000  1
  16651  16649  16650  16666     1  0.0000000  0.0000000  3
  16651  16649  16650  16653     1  0.0000000  0.6508444  3
  16651  16649  16655  16661     1  0.0000000  0.6973333  3
  16652  16648  16645  16657     1  0.0000000  1.0460000  1
  16652  16648  16645  16657     1  0.0000000  0.0000000  3
  16652  16648  16649  16655     1  0.0000000  1.0460000  1
  16652  16648  16649  16655     1  0.0000000  0.0000000  3
  16652  16648  16656  16659     1  0.0000000  0.6973333  3
  16653  16650  16649  16655     1  0.0000000  0.6508444  3
  16662  16658  16644  16666     1  0.0000000  1.0460000  1
  16662  16658  16644  16666     1  0.0000000  0.0000000  3
  16662  16658  16664  16665     1  0.0000000  0.6973333  3
  16663  16658  16644  16666     1  0.0000000  1.0460000  1
  16663  16658  16644  16666     1  0.0000000  0.0000000  3
  16663  16658  16664  16665     1  0.0000000  0.6973333  3
  16667  16668  16671  16675     1  0.0000000  0.6508444  3
  16667  16668  16680  16683     1  0.0000000  1.0460000  1
  16667  16668  16680  16683     1  0.0000000  0.6694400  3
  16667  16681  16687  16688     1  0.0000000  1.0460000  1
  16667  16681  16687  16688     1  0.0000000  0.6694400  3
  16667  16689  16673  16676     1  0.0000000  1.6038667  3
  16668  16671  16672  16674     1  0.0000000  0.6508444  3
  16668  16671  16679  16682     1  0.0000000  1.0460000  1
  16668  16671  16679  16682     1  0.0000000  0.6694400  3
  16668  16667  16681  16685     1  0.0000000  0.6508444  3
  16668  16667  16681  16686     1  0.0000000  0.6508444  3
  16669  16667  16668  16671     1  0.0000000  0.6508444  3
  16669  16667  16668  16680     1  0.0000000  1.0460000  1
  16669  16667  16668  16680     1  0.0000000  0.0000000  3
  16669  16667  16668  16670     1  0.0000000  0.6508444  3
  16669  16667  16681  16687     1  0.0000000  1.0460000  1
  16669  16667  16681  16687     1  0.0000000  0.0000000  3
  16669  16667  16681  16685     1  0.0000000  0.6508444  3
  16669  16667  16681  16686     1  0.0000000  0.6508444  3
  16669  16667  16689  16673     1  0.0000000  1.6038667  3
  16670  16668  16671  16672     1  0.0000000  0.6508444  3
  16670  16668  16671  16679     1  0.0000000  1.0460000  1
  16670  16668  16671  16679     1  0.0000000  0.0000000  3
  16670  16668  16671  16675     1  0.0000000  0.6508444  3
  16670  16668  16680  16683     1  0.0000000  0.6973333  3
  16670  16668  16667  16681     1  0.0000000  0.6508444  3
  16670  16668  16667  16689     1  0.0000000  1.0460000  1
  16670  16668  16667  16689     1  0.0000000  0.0000000  3
  16671  16672  16673  16676     1  0.0000000  0.6508444  3
  16671  16672  16678  16684     1  0.0000000  1.0460000  1
  16671  16672  16678  16684     1  0.0000000  0.6694400  3
  16671  16668  16680  16683     1  0.0000000  1.0460000  1
  16671  16668  16680  16683     1  0.0000000  0.6694400  3
  16672  16671  16679  16682     1  0.0000000  1.0460000  1
  16672  16671  16679  16682     1  0.0000000  0.6694400  3
  16673  16672  16678  16684     1  0.0000000  1.0460000  1
  16673  16672  16678  16684     1  0.0000000  0.6694400  3
  16673  16672  16671  16675     1  0.0000000  0.6508444  3
  16674  16672  16673  16677     1  0.0000000  1.0460000  1
  16674  16672  16673  16677     1  0.0000000  0.0000000  3
  16674  16672  16673  16689     1  0.0000000  1.0460000  1
  16674  16672  16673  16689     1  0.0000000  0.0000000  3
  16674  16672  16673  16676     1  0.0000000  0.6508444  3
  16674  16672  16678  16684     1  0.0000000  0.6973333  3
  16674  16672  16671  16679     1  0.0000000  1.0460000  1
  16674  16672  16671  16679     1  0.0000000  0.0000000  3
  16674  16672  16671  16675     1  0.0000000  0.6508444  3
  16675  16671  16672  16678     1  0.0000000  1.0460000  1
  16675  16671  16672  16678     1  0.0000000  0.0000000  3
  16675  16671  16679  16682     1  0.0000000  0.6973333  3
  16675  16671  16668  16680     1  0.0000000  1.0460000  1
  16675  16671  16668  16680     1  0.0000000  0.0000000  3
  16676  16673  16672  16678     1  0.0000000  0.6508444  3
  16685  16681  16687  16688     1  0.0000000  0.6973333  3
  16685  16681  16667  16689     1  0.0000000  1.0460000  1
  16685  16681  16667  16689     1  0.0000000  0.0000000  3
  16686  16681  16687  16688     1  0.0000000  0.6973333  3
  16686  16681  16667  16689     1  0.0000000  1.0460000  1
  16686  16681  16667  16689     1  0.0000000  0.0000000  3
  16690  16691  16694  16698     1  0.0000000  0.6508444  3
  16690  16691  16703  16706     1  0.0000000  1.0460000  1
  16690  16691  16703  16706     1  0.0000000  0.6694400  3
  16690  16704  16710  16711     1  0.0000000  1.0460000  1
  16690  16704  16710  16711     1  0.0000000  0.6694400  3
  16690  16712  16696  16699     1  0.0000000  1.6038667  3
  16691  16690  16704  16708     1  0.0000000  0.6508444  3
  16691  16690  16704  16709     1  0.0000000  0.6508444  3
  16691  16694  16695  16697     1  0.0000000  0.6508444  3
  16691  16694  16702  16705     1  0.0000000  1.0460000  1
  16691  16694  16702  16705     1  0.0000000  0.6694400  3
  16692  16690  16691  16694     1  0.0000000  0.6508444  3
  16692  16690  16691  16703     1  0.0000000  1.0460000  1
  16692  16690  16691  16703     1  0.0000000  0.0000000  3
  16692  16690  16691  16693     1  0.0000000  0.6508444  3
  16692  16690  16704  16710     1  0.0000000  1.0460000  1
  16692  16690  16704  16710     1  0.0000000  0.0000000  3
  16692  16690  16704  16708     1  0.0000000  0.6508444  3
  16692  16690  16704  16709     1  0.0000000  0.6508444  3
  16692  16690  16712  16696     1  0.0000000  1.6038667  3
  16693  16691  16690  16704     1  0.0000000  0.6508444  3
  16693  16691  16690  16712     1  0.0000000  1.0460000  1
  16693  16691  16690  16712     1  0.0000000  0.0000000  3
  16693  16691  16694  16695     1  0.0000000  0.6508444  3
  16693  16691  16694  16702     1  0.0000000  1.0460000  1
  16693  16691  16694  16702     1  0.0000000  0.0000000  3
  16693  16691  16694  16698     1  0.0000000  0.6508444  3
  16693  16691  16703  16706     1  0.0000000  0.6973333  3
  16694  16691  16703  16706     1  0.0000000  1.0460000  1
  16694  16691  16703  16706     1  0.0000000  0.6694400  3
  16694  16695  16696  16699     1  0.0000000  0.6508444  3
  16694  16695  16701  16707     1  0.0000000  1.0460000  1
  16694  16695  16701  16707     1  0.0000000  0.6694400  3
  16695  16694  16702  16705     1  0.0000000  1.0460000  1
  16695  16694  16702  16705     1  0.0000000  0.6694400  3
  16696  16695  16694  16698     1  0.0000000  0.6508444  3
  16696  16695  16701  16707     1  0.0000000  1.0460000  1
  16696  16695  16701  16707     1  0.0000000  0.6694400  3
  16697  16695  16694  16702     1  0.0000000  1.0460000  1
  16697  16695  16694  16702     1  0.0000000  0.0000000  3
  16697  16695  16694  16698     1  0.0000000  0.6508444  3
  16697  16695  16696  16700     1  0.0000000  1.0460000  1
  16697  16695  16696  16700     1  0.0000000  0.0000000  3
  16697  16695  16696  16712     1  0.0000000  1.0460000  1
  16697  16695  16696  16712     1  0.0000000  0.0000000  3
  16697  16695  16696  16699     1  0.0000000  0.6508444  3
  16697  16695  16701  16707     1  0.0000000  0.6973333  3
  16698  16694  16691  16703     1  0.0000000  1.0460000  1
  16698  16694  16691  16703     1  0.0000000  0.0000000  3
  16698  16694  16695  16701     1  0.0000000  1.0460000  1
  16698  16694  16695  16701     1  0.0000000  0.0000000  3
  16698  16694  16702  16705     1  0.0000000  0.6973333  3
  16699  16696  16695  16701     1  0.0000000  0.6508444  3
  16708  16704  16690  16712     1  0.0000000  1.0460000  1
  16708  16704  16690  16712     1  0.0000000  0.0000000  3
  16708  16704  16710  16711     1  0.0000000  0.6973333  3
  16709  16704  16690  16712     1  0.0000000  1.0460000  1
  16709  16704  16690  16712     1  0.0000000  0.0000000  3
  16709  16704  16710  16711     1  0.0000000  0.6973333  3
  16713  16714  16717  16721     1  0.0000000  0.6508444  3
  16713  16714  16726  16729     1  0.0000000  1.0460000  1
  16713  16714  16726  16729     1  0.0000000  0.6694400  3
  16713  16727  16733  16734     1  0.0000000  1.0460000  1
  16713  16727  16733  16734     1  0.0000000  0.6694400  3
  16713  16735  16719  16722     1  0.0000000  1.6038667  3
  16714  16717  16718  16720     1  0.0000000  0.6508444  3
  16714  16717  16725  16728     1  0.0000000  1.0460000  1
  16714  16717  16725  16728     1  0.0000000  0.6694400  3
  16714  16713  16727  16731     1  0.0000000  0.6508444  3
  16714  16713  16727  16732     1  0.0000000  0.6508444  3
  16715  16713  16714  16717     1  0.0000000  0.6508444  3
  16715  16713  16714  16726     1  0.0000000  1.0460000  1
  16715  16713  16714  16726     1  0.0000000  0.0000000  3
  16715  16713  16714  16716     1  0.0000000  0.6508444  3
  16715  16713  16727  16733     1  0.0000000  1.0460000  1
  16715  16713  16727  16733     1  0.0000000  0.0000000  3
  16715  16713  16727  16731     1  0.0000000  0.6508444  3
  16715  16713  16727  16732     1  0.0000000  0.6508444  3
  16715  16713  16735  16719     1  0.0000000  1.6038667  3
  16716  16714  16717  16718     1  0.0000000  0.6508444  3
  16716  16714  16717  16725     1  0.0000000  1.0460000  1
  16716  16714  16717  16725     1  0.0000000  0.0000000  3
  16716  16714  16717  16721     1  0.0000000  0.6508444  3
  16716  16714  16726  16729     1  0.0000000  0.6973333  3
  16716  16714  16713  16727     1  0.0000000  0.6508444  3
  16716  16714  16713  16735     1  0.0000000  1.0460000  1
  16716  16714  16713  16735     1  0.0000000  0.0000000  3
  16717  16718  16719  16722     1  0.0000000  0.6508444  3
  16717  16718  16724  16730     1  0.0000000  1.0460000  1
  16717  16718  16724  16730     1  0.0000000  0.6694400  3
  16717  16714  16726  16729     1  0.0000000  1.0460000  1
  16717  16714  16726  16729     1  0.0000000  0.6694400  3
  16718  16717  16725  16728     1  0.0000000  1.0460000  1
  16718  16717  16725  16728     1  0.0000000  0.6694400  3
  16719  16718  16724  16730     1  0.0000000  1.0460000  1
  16719  16718  16724  16730     1  0.0000000  0.6694400  3
  16719  16718  16717  16721     1  0.0000000  0.6508444  3
  16720  16718  16719  16723     1  0.0000000  1.0460000  1
  16720  16718  16719  16723     1  0.0000000  0.0000000  3
  16720  16718  16719  16735     1  0.0000000  1.0460000  1
  16720  16718  16719  16735     1  0.0000000  0.0000000  3
  16720  16718  16719  16722     1  0.0000000  0.6508444  3
  16720  16718  16724  16730     1  0.0000000  0.6973333  3
  16720  16718  16717  16725     1  0.0000000  1.0460000  1
  16720  16718  16717  16725     1  0.0000000  0.0000000  3
  16720  16718  16717  16721     1  0.0000000  0.6508444  3
  16721  16717  16718  16724     1  0.0000000  1.0460000  1
  16721  16717  16718  16724     1  0.0000000  0.0000000  3
  16721  16717  16725  16728     1  0.0000000  0.6973333  3
  16721  16717  16714  16726     1  0.0000000  1.0460000  1
  16721  16717  16714  16726     1  0.0000000  0.0000000  3
  16722  16719  16718  16724     1  0.0000000  0.6508444  3
  16731  16727  16733  16734     1  0.0000000  0.6973333  3
  16731  16727  16713  16735     1  0.0000000  1.0460000  1
  16731  16727  16713  16735     1  0.0000000  0.0000000  3
  16732  16727  16733  16734     1  0.0000000  0.6973333  3
  16732  16727  16713  16735     1  0.0000000  1.0460000  1
  16732  16727  16713  16735     1  0.0000000  0.0000000  3
  16736  16737  16740  16744     1  0.0000000  0.6508444  3
  16736  16737  16749  16752     1  0.0000000  1.0460000  1
  16736  16737  16749  16752     1  0.0000000  0.6694400  3
  16736  16750  16756  16757     1  0.0000000  1.0460000  1
  16736  16750  16756  16757     1  0.0000000  0.6694400  3
  16736  16758  16742  16745     1  0.0000000  1.6038667  3
  16737  16736  16750  16754     1  0.0000000  0.6508444  3
  16737  16736  16750  16755     1  0.0000000  0.6508444  3
  16737  16740  16741  16743     1  0.0000000  0.6508444  3
  16737  16740  16748  16751     1  0.0000000  1.0460000  1
  16737  16740  16748  16751     1  0.0000000  0.6694400  3
  16738  16736  16737  16740     1  0.0000000  0.6508444  3
  16738  16736  16737  16749     1  0.0000000  1.0460000  1
  16738  16736  16737  16749     1  0.0000000  0.0000000  3
  16738  16736  16737  16739     1  0.0000000  0.6508444  3
  16738  16736  16750  16756     1  0.0000000  1.0460000  1
  16738  16736  16750  16756     1  0.0000000  0.0000000  3
  16738  16736  16750  16754     1  0.0000000  0.6508444  3
  16738  16736  16750  16755     1  0.0000000  0.6508444  3
  16738  16736  16758  16742     1  0.0000000  1.6038667  3
  16739  16737  16736  16750     1  0.0000000  0.6508444  3
  16739  16737  16736  16758     1  0.0000000  1.0460000  1
  16739  16737  16736  16758     1  0.0000000  0.0000000  3
  16739  16737  16740  16741     1  0.0000000  0.6508444  3
  16739  16737  16740  16748     1  0.0000000  1.0460000  1
  16739  16737  16740  16748     1  0.0000000  0.0000000  3
  16739  16737  16740  16744     1  0.0000000  0.6508444  3
  16739  16737  16749  16752     1  0.0000000  0.6973333  3
  16740  16737  16749  16752     1  0.0000000  1.0460000  1
  16740  16737  16749  16752     1  0.0000000  0.6694400  3
  16740  16741  16742  16745     1  0.0000000  0.6508444  3
  16740  16741  16747  16753     1  0.0000000  1.0460000  1
  16740  16741  16747  16753     1  0.0000000  0.6694400  3
  16741  16740  16748  16751     1  0.0000000  1.0460000  1
  16741  16740  16748  16751     1  0.0000000  0.6694400  3
  16742  16741  16740  16744     1  0.0000000  0.6508444  3
  16742  16741  16747  16753     1  0.0000000  1.0460000  1
  16742  16741  16747  16753     1  0.0000000  0.6694400  3
  16743  16741  16740  16748     1  0.0000000  1.0460000  1
  16743  16741  16740  16748     1  0.0000000  0.0000000  3
  16743  16741  16740  16744     1  0.0000000  0.6508444  3
  16743  16741  16742  16746     1  0.0000000  1.0460000  1
  16743  16741  16742  16746     1  0.0000000  0.0000000  3
  16743  16741  16742  16758     1  0.0000000  1.0460000  1
  16743  16741  16742  16758     1  0.0000000  0.0000000  3
  16743  16741  16742  16745     1  0.0000000  0.6508444  3
  16743  16741  16747  16753     1  0.0000000  0.6973333  3
  16744  16740  16737  16749     1  0.0000000  1.0460000  1
  16744  16740  16737  16749     1  0.0000000  0.0000000  3
  16744  16740  16741  16747     1  0.0000000  1.0460000  1
  16744  16740  16741  16747     1  0.0000000  0.0000000  3
  16744  16740  16748  16751     1  0.0000000  0.6973333  3
  16745  16742  16741  16747     1  0.0000000  0.6508444  3
  16754  16750  16736  16758     1  0.0000000  1.0460000  1
  16754  16750  16736  16758     1  0.0000000  0.0000000  3
  16754  16750  16756  16757     1  0.0000000  0.6973333  3
  16755  16750  16736  16758     1  0.0000000  1.0460000  1
  16755  16750  16736  16758     1  0.0000000  0.0000000  3
  16755  16750  16756  16757     1  0.0000000  0.6973333  3
  16759  16760  16763  16767     1  0.0000000  0.6508444  3
  16759  16760  16772  16775     1  0.0000000  1.0460000  1
  16759  16760  16772  16775     1  0.0000000  0.6694400  3
  16759  16773  16779  16780     1  0.0000000  1.0460000  1
  16759  16773  16779  16780     1  0.0000000  0.6694400  3
  16759  16781  16765  16768     1  0.0000000  1.6038667  3
  16760  16763  16764  16766     1  0.0000000  0.6508444  3
  16760  16763  16771  16774     1  0.0000000  1.0460000  1
  16760  16763  16771  16774     1  0.0000000  0.6694400  3
  16760  16759  16773  16777     1  0.0000000  0.6508444  3
  16760  16759  16773  16778     1  0.0000000  0.6508444  3
  16761  16759  16760  16763     1  0.0000000  0.6508444  3
  16761  16759  16760  16772     1  0.0000000  1.0460000  1
  16761  16759  16760  16772     1  0.0000000  0.0000000  3
  16761  16759  16760  16762     1  0.0000000  0.6508444  3
  16761  16759  16773  16779     1  0.0000000  1.0460000  1
  16761  16759  16773  16779     1  0.0000000  0.0000000  3
  16761  16759  16773  16777     1  0.0000000  0.6508444  3
  16761  16759  16773  16778     1  0.0000000  0.6508444  3
  16761  16759  16781  16765     1  0.0000000  1.6038667  3
  16762  16760  16763  16764     1  0.0000000  0.6508444  3
  16762  16760  16763  16771     1  0.0000000  1.0460000  1
  16762  16760  16763  16771     1  0.0000000  0.0000000  3
  16762  16760  16763  16767     1  0.0000000  0.6508444  3
  16762  16760  16772  16775     1  0.0000000  0.6973333  3
  16762  16760  16759  16773     1  0.0000000  0.6508444  3
  16762  16760  16759  16781     1  0.0000000  1.0460000  1
  16762  16760  16759  16781     1  0.0000000  0.0000000  3
  16763  16764  16765  16768     1  0.0000000  0.6508444  3
  16763  16764  16770  16776     1  0.0000000  1.0460000  1
  16763  16764  16770  16776     1  0.0000000  0.6694400  3
  16763  16760  16772  16775     1  0.0000000  1.0460000  1
  16763  16760  16772  16775     1  0.0000000  0.6694400  3
  16764  16763  16771  16774     1  0.0000000  1.0460000  1
  16764  16763  16771  16774     1  0.0000000  0.6694400  3
  16765  16764  16770  16776     1  0.0000000  1.0460000  1
  16765  16764  16770  16776     1  0.0000000  0.6694400  3
  16765  16764  16763  16767     1  0.0000000  0.6508444  3
  16766  16764  16765  16769     1  0.0000000  1.0460000  1
  16766  16764  16765  16769     1  0.0000000  0.0000000  3
  16766  16764  16765  16781     1  0.0000000  1.0460000  1
  16766  16764  16765  16781     1  0.0000000  0.0000000  3
  16766  16764  16765  16768     1  0.0000000  0.6508444  3
  16766  16764  16770  16776     1  0.0000000  0.6973333  3
  16766  16764  16763  16771     1  0.0000000  1.0460000  1
  16766  16764  16763  16771     1  0.0000000  0.0000000  3
  16766  16764  16763  16767     1  0.0000000  0.6508444  3
  16767  16763  16764  16770     1  0.0000000  1.0460000  1
  16767  16763  16764  16770     1  0.0000000  0.0000000  3
  16767  16763  16771  16774     1  0.0000000  0.6973333  3
  16767  16763  16760  16772     1  0.0000000  1.0460000  1
  16767  16763  16760  16772     1  0.0000000  0.0000000  3
  16768  16765  16764  16770     1  0.0000000  0.6508444  3
  16777  16773  16779  16780     1  0.0000000  0.6973333  3
  16777  16773  16759  16781     1  0.0000000  1.0460000  1
  16777  16773  16759  16781     1  0.0000000  0.0000000  3
  16778  16773  16779  16780     1  0.0000000  0.6973333  3
  16778  16773  16759  16781     1  0.0000000  1.0460000  1
  16778  16773  16759  16781     1  0.0000000  0.0000000  3
  16782  16783  16786  16790     1  0.0000000  0.6508444  3
  16782  16783  16795  16798     1  0.0000000  1.0460000  1
  16782  16783  16795  16798     1  0.0000000  0.6694400  3
  16782  16796  16802  16803     1  0.0000000  1.0460000  1
  16782  16796  16802  16803     1  0.0000000  0.6694400  3
  16782  16804  16788  16791     1  0.0000000  1.6038667  3
  16783  16782  16796  16800     1  0.0000000  0.6508444  3
  16783  16782  16796  16801     1  0.0000000  0.6508444  3
  16783  16786  16787  16789     1  0.0000000  0.6508444  3
  16783  16786  16794  16797     1  0.0000000  1.0460000  1
  16783  16786  16794  16797     1  0.0000000  0.6694400  3
  16784  16782  16783  16786     1  0.0000000  0.6508444  3
  16784  16782  16783  16795     1  0.0000000  1.0460000  1
  16784  16782  16783  16795     1  0.0000000  0.0000000  3
  16784  16782  16783  16785     1  0.0000000  0.6508444  3
  16784  16782  16796  16802     1  0.0000000  1.0460000  1
  16784  16782  16796  16802     1  0.0000000  0.0000000  3
  16784  16782  16796  16800     1  0.0000000  0.6508444  3
  16784  16782  16796  16801     1  0.0000000  0.6508444  3
  16784  16782  16804  16788     1  0.0000000  1.6038667  3
  16785  16783  16782  16796     1  0.0000000  0.6508444  3
  16785  16783  16782  16804     1  0.0000000  1.0460000  1
  16785  16783  16782  16804     1  0.0000000  0.0000000  3
  16785  16783  16786  16787     1  0.0000000  0.6508444  3
  16785  16783  16786  16794     1  0.0000000  1.0460000  1
  16785  16783  16786  16794     1  0.0000000  0.0000000  3
  16785  16783  16786  16790     1  0.0000000  0.6508444  3
  16785  16783  16795  16798     1  0.0000000  0.6973333  3
  16786  16783  16795  16798     1  0.0000000  1.0460000  1
  16786  16783  16795  16798     1  0.0000000  0.6694400  3
  16786  16787  16788  16791     1  0.0000000  0.6508444  3
  16786  16787  16793  16799     1  0.0000000  1.0460000  1
  16786  16787  16793  16799     1  0.0000000  0.6694400  3
  16787  16786  16794  16797     1  0.0000000  1.0460000  1
  16787  16786  16794  16797     1  0.0000000  0.6694400  3
  16788  16787  16786  16790     1  0.0000000  0.6508444  3
  16788  16787  16793  16799     1  0.0000000  1.0460000  1
  16788  16787  16793  16799     1  0.0000000  0.6694400  3
  16789  16787  16786  16794     1  0.0000000  1.0460000  1
  16789  16787  16786  16794     1  0.0000000  0.0000000  3
  16789  16787  16786  16790     1  0.0000000  0.6508444  3
  16789  16787  16788  16792     1  0.0000000  1.0460000  1
  16789  16787  16788  16792     1  0.0000000  0.0000000  3
  16789  16787  16788  16804     1  0.0000000  1.0460000  1
  16789  16787  16788  16804     1  0.0000000  0.0000000  3
  16789  16787  16788  16791     1  0.0000000  0.6508444  3
  16789  16787  16793  16799     1  0.0000000  0.6973333  3
  16790  16786  16783  16795     1  0.0000000  1.0460000  1
  16790  16786  16783  16795     1  0.0000000  0.0000000  3
  16790  16786  16787  16793     1  0.0000000  1.0460000  1
  16790  16786  16787  16793     1  0.0000000  0.0000000  3
  16790  16786  16794  16797     1  0.0000000  0.6973333  3
  16791  16788  16787  16793     1  0.0000000  0.6508444  3
  16800  16796  16782  16804     1  0.0000000  1.0460000  1
  16800  16796  16782  16804     1  0.0000000  0.0000000  3
  16800  16796  16802  16803     1  0.0000000  0.6973333  3
  16801  16796  16782  16804     1  0.0000000  1.0460000  1
  16801  16796  16782  16804     1  0.0000000  0.0000000  3
  16801  16796  16802  16803     1  0.0000000  0.6973333  3
  16805  16806  16809  16813     1  0.0000000  0.6508444  3
  16805  16806  16818  16821     1  0.0000000  1.0460000  1
  16805  16806  16818  16821     1  0.0000000  0.6694400  3
  16805  16819  16825  16826     1  0.0000000  1.0460000  1
  16805  16819  16825  16826     1  0.0000000  0.6694400  3
  16805  16827  16811  16814     1  0.0000000  1.6038667  3
  16806  16809  16810  16812     1  0.0000000  0.6508444  3
  16806  16809  16817  16820     1  0.0000000  1.0460000  1
  16806  16809  16817  16820     1  0.0000000  0.6694400  3
  16806  16805  16819  16823     1  0.0000000  0.6508444  3
  16806  16805  16819  16824     1  0.0000000  0.6508444  3
  16807  16805  16806  16809     1  0.0000000  0.6508444  3
  16807  16805  16806  16818     1  0.0000000  1.0460000  1
  16807  16805  16806  16818     1  0.0000000  0.0000000  3
  16807  16805  16806  16808     1  0.0000000  0.6508444  3
  16807  16805  16819  16825     1  0.0000000  1.0460000  1
  16807  16805  16819  16825     1  0.0000000  0.0000000  3
  16807  16805  16819  16823     1  0.0000000  0.6508444  3
  16807  16805  16819  16824     1  0.0000000  0.6508444  3
  16807  16805  16827  16811     1  0.0000000  1.6038667  3
  16808  16806  16809  16810     1  0.0000000  0.6508444  3
  16808  16806  16809  16817     1  0.0000000  1.0460000  1
  16808  16806  16809  16817     1  0.0000000  0.0000000  3
  16808  16806  16809  16813     1  0.0000000  0.6508444  3
  16808  16806  16818  16821     1  0.0000000  0.6973333  3
  16808  16806  16805  16819     1  0.0000000  0.6508444  3
  16808  16806  16805  16827     1  0.0000000  1.0460000  1
  16808  16806  16805  16827     1  0.0000000  0.0000000  3
  16809  16810  16811  16814     1  0.0000000  0.6508444  3
  16809  16810  16816  16822     1  0.0000000  1.0460000  1
  16809  16810  16816  16822     1  0.0000000  0.6694400  3
  16809  16806  16818  16821     1  0.0000000  1.0460000  1
  16809  16806  16818  16821     1  0.0000000  0.6694400  3
  16810  16809  16817  16820     1  0.0000000  1.0460000  1
  16810  16809  16817  16820     1  0.0000000  0.6694400  3
  16811  16810  16816  16822     1  0.0000000  1.0460000  1
  16811  16810  16816  16822     1  0.0000000  0.6694400  3
  16811  16810  16809  16813     1  0.0000000  0.6508444  3
  16812  16810  16811  16815     1  0.0000000  1.0460000  1
  16812  16810  16811  16815     1  0.0000000  0.0000000  3
  16812  16810  16811  16827     1  0.0000000  1.0460000  1
  16812  16810  16811  16827     1  0.0000000  0.0000000  3
  16812  16810  16811  16814     1  0.0000000  0.6508444  3
  16812  16810  16816  16822     1  0.0000000  0.6973333  3
  16812  16810  16809  16817     1  0.0000000  1.0460000  1
  16812  16810  16809  16817     1  0.0000000  0.0000000  3
  16812  16810  16809  16813     1  0.0000000  0.6508444  3
  16813  16809  16810  16816     1  0.0000000  1.0460000  1
  16813  16809  16810  16816     1  0.0000000  0.0000000  3
  16813  16809  16817  16820     1  0.0000000  0.6973333  3
  16813  16809  16806  16818     1  0.0000000  1.0460000  1
  16813  16809  16806  16818     1  0.0000000  0.0000000  3
  16814  16811  16810  16816     1  0.0000000  0.6508444  3
  16823  16819  16825  16826     1  0.0000000  0.6973333  3
  16823  16819  16805  16827     1  0.0000000  1.0460000  1
  16823  16819  16805  16827     1  0.0000000  0.0000000  3
  16824  16819  16825  16826     1  0.0000000  0.6973333  3
  16824  16819  16805  16827     1  0.0000000  1.0460000  1
  16824  16819  16805  16827     1  0.0000000  0.0000000  3
  16828  16829  16832  16836     1  0.0000000  0.6508444  3
  16828  16829  16841  16844     1  0.0000000  1.0460000  1
  16828  16829  16841  16844     1  0.0000000  0.6694400  3
  16828  16842  16848  16849     1  0.0000000  1.0460000  1
  16828  16842  16848  16849     1  0.0000000  0.6694400  3
  16828  16850  16834  16837     1  0.0000000  1.6038667  3
  16829  16828  16842  16846     1  0.0000000  0.6508444  3
  16829  16828  16842  16847     1  0.0000000  0.6508444  3
  16829  16832  16833  16835     1  0.0000000  0.6508444  3
  16829  16832  16840  16843     1  0.0000000  1.0460000  1
  16829  16832  16840  16843     1  0.0000000  0.6694400  3
  16830  16828  16829  16832     1  0.0000000  0.6508444  3
  16830  16828  16829  16841     1  0.0000000  1.0460000  1
  16830  16828  16829  16841     1  0.0000000  0.0000000  3
  16830  16828  16829  16831     1  0.0000000  0.6508444  3
  16830  16828  16842  16848     1  0.0000000  1.0460000  1
  16830  16828  16842  16848     1  0.0000000  0.0000000  3
  16830  16828  16842  16846     1  0.0000000  0.6508444  3
  16830  16828  16842  16847     1  0.0000000  0.6508444  3
  16830  16828  16850  16834     1  0.0000000  1.6038667  3
  16831  16829  16828  16842     1  0.0000000  0.6508444  3
  16831  16829  16828  16850     1  0.0000000  1.0460000  1
  16831  16829  16828  16850     1  0.0000000  0.0000000  3
  16831  16829  16832  16833     1  0.0000000  0.6508444  3
  16831  16829  16832  16840     1  0.0000000  1.0460000  1
  16831  16829  16832  16840     1  0.0000000  0.0000000  3
  16831  16829  16832  16836     1  0.0000000  0.6508444  3
  16831  16829  16841  16844     1  0.0000000  0.6973333  3
  16832  16829  16841  16844     1  0.0000000  1.0460000  1
  16832  16829  16841  16844     1  0.0000000  0.6694400  3
  16832  16833  16834  16837     1  0.0000000  0.6508444  3
  16832  16833  16839  16845     1  0.0000000  1.0460000  1
  16832  16833  16839  16845     1  0.0000000  0.6694400  3
  16833  16832  16840  16843     1  0.0000000  1.0460000  1
  16833  16832  16840  16843     1  0.0000000  0.6694400  3
  16834  16833  16832  16836     1  0.0000000  0.6508444  3
  16834  16833  16839  16845     1  0.0000000  1.0460000  1
  16834  16833  16839  16845     1  0.0000000  0.6694400  3
  16835  16833  16832  16840     1  0.0000000  1.0460000  1
  16835  16833  16832  16840     1  0.0000000  0.0000000  3
  16835  16833  16832  16836     1  0.0000000  0.6508444  3
  16835  16833  16834  16838     1  0.0000000  1.0460000  1
  16835  16833  16834  16838     1  0.0000000  0.0000000  3
  16835  16833  16834  16850     1  0.0000000  1.0460000  1
  16835  16833  16834  16850     1  0.0000000  0.0000000  3
  16835  16833  16834  16837     1  0.0000000  0.6508444  3
  16835  16833  16839  16845     1  0.0000000  0.6973333  3
  16836  16832  16829  16841     1  0.0000000  1.0460000  1
  16836  16832  16829  16841     1  0.0000000  0.0000000  3
  16836  16832  16833  16839     1  0.0000000  1.0460000  1
  16836  16832  16833  16839     1  0.0000000  0.0000000  3
  16836  16832  16840  16843     1  0.0000000  0.6973333  3
  16837  16834  16833  16839     1  0.0000000  0.6508444  3
  16846  16842  16828  16850     1  0.0000000  1.0460000  1
  16846  16842  16828  16850     1  0.0000000  0.0000000  3
  16846  16842  16848  16849     1  0.0000000  0.6973333  3
  16847  16842  16828  16850     1  0.0000000  1.0460000  1
  16847  16842  16828  16850     1  0.0000000  0.0000000  3
  16847  16842  16848  16849     1  0.0000000  0.6973333  3
  16851  16852  16855  16859     1  0.0000000  0.6508444  3
  16851  16852  16864  16867     1  0.0000000  1.0460000  1
  16851  16852  16864  16867     1  0.0000000  0.6694400  3
  16851  16865  16871  16872     1  0.0000000  1.0460000  1
  16851  16865  16871  16872     1  0.0000000  0.6694400  3
  16851  16873  16857  16860     1  0.0000000  1.6038667  3
  16852  16855  16856  16858     1  0.0000000  0.6508444  3
  16852  16855  16863  16866     1  0.0000000  1.0460000  1
  16852  16855  16863  16866     1  0.0000000  0.6694400  3
  16852  16851  16865  16869     1  0.0000000  0.6508444  3
  16852  16851  16865  16870     1  0.0000000  0.6508444  3
  16853  16851  16852  16855     1  0.0000000  0.6508444  3
  16853  16851  16852  16864     1  0.0000000  1.0460000  1
  16853  16851  16852  16864     1  0.0000000  0.0000000  3
  16853  16851  16852  16854     1  0.0000000  0.6508444  3
  16853  16851  16865  16871     1  0.0000000  1.0460000  1
  16853  16851  16865  16871     1  0.0000000  0.0000000  3
  16853  16851  16865  16869     1  0.0000000  0.6508444  3
  16853  16851  16865  16870     1  0.0000000  0.6508444  3
  16853  16851  16873  16857     1  0.0000000  1.6038667  3
  16854  16852  16855  16856     1  0.0000000  0.6508444  3
  16854  16852  16855  16863     1  0.0000000  1.0460000  1
  16854  16852  16855  16863     1  0.0000000  0.0000000  3
  16854  16852  16855  16859     1  0.0000000  0.6508444  3
  16854  16852  16864  16867     1  0.0000000  0.6973333  3
  16854  16852  16851  16865     1  0.0000000  0.6508444  3
  16854  16852  16851  16873     1  0.0000000  1.0460000  1
  16854  16852  16851  16873     1  0.0000000  0.0000000  3
  16855  16856  16857  16860     1  0.0000000  0.6508444  3
  16855  16856  16862  16868     1  0.0000000  1.0460000  1
  16855  16856  16862  16868     1  0.0000000  0.6694400  3
  16855  16852  16864  16867     1  0.0000000  1.0460000  1
  16855  16852  16864  16867     1  0.0000000  0.6694400  3
  16856  16855  16863  16866     1  0.0000000  1.0460000  1
  16856  16855  16863  16866     1  0.0000000  0.6694400  3
  16857  16856  16862  16868     1  0.0000000  1.0460000  1
  16857  16856  16862  16868     1  0.0000000  0.6694400  3
  16857  16856  16855  16859     1  0.0000000  0.6508444  3
  16858  16856  16857  16861     1  0.0000000  1.0460000  1
  16858  16856  16857  16861     1  0.0000000  0.0000000  3
  16858  16856  16857  16873     1  0.0000000  1.0460000  1
  16858  16856  16857  16873     1  0.0000000  0.0000000  3
  16858  16856  16857  16860     1  0.0000000  0.6508444  3
  16858  16856  16862  16868     1  0.0000000  0.6973333  3
  16858  16856  16855  16863     1  0.0000000  1.0460000  1
  16858  16856  16855  16863     1  0.0000000  0.0000000  3
  16858  16856  16855  16859     1  0.0000000  0.6508444  3
  16859  16855  16856  16862     1  0.0000000  1.0460000  1
  16859  16855  16856  16862     1  0.0000000  0.0000000  3
  16859  16855  16863  16866     1  0.0000000  0.6973333  3
  16859  16855  16852  16864     1  0.0000000  1.0460000  1
  16859  16855  16852  16864     1  0.0000000  0.0000000  3
  16860  16857  16856  16862     1  0.0000000  0.6508444  3
  16869  16865  16871  16872     1  0.0000000  0.6973333  3
  16869  16865  16851  16873     1  0.0000000  1.0460000  1
  16869  16865  16851  16873     1  0.0000000  0.0000000  3
  16870  16865  16871  16872     1  0.0000000  0.6973333  3
  16870  16865  16851  16873     1  0.0000000  1.0460000  1
  16870  16865  16851  16873     1  0.0000000  0.0000000  3
  16874  16875  16878  16882     1  0.0000000  0.6508444  3
  16874  16875  16887  16890     1  0.0000000  1.0460000  1
  16874  16875  16887  16890     1  0.0000000  0.6694400  3
  16874  16888  16894  16895     1  0.0000000  1.0460000  1
  16874  16888  16894  16895     1  0.0000000  0.6694400  3
  16874  16896  16880  16883     1  0.0000000  1.6038667  3
  16875  16874  16888  16892     1  0.0000000  0.6508444  3
  16875  16874  16888  16893     1  0.0000000  0.6508444  3
  16875  16878  16879  16881     1  0.0000000  0.6508444  3
  16875  16878  16886  16889     1  0.0000000  1.0460000  1
  16875  16878  16886  16889     1  0.0000000  0.6694400  3
  16876  16874  16875  16878     1  0.0000000  0.6508444  3
  16876  16874  16875  16887     1  0.0000000  1.0460000  1
  16876  16874  16875  16887     1  0.0000000  0.0000000  3
  16876  16874  16875  16877     1  0.0000000  0.6508444  3
  16876  16874  16888  16894     1  0.0000000  1.0460000  1
  16876  16874  16888  16894     1  0.0000000  0.0000000  3
  16876  16874  16888  16892     1  0.0000000  0.6508444  3
  16876  16874  16888  16893     1  0.0000000  0.6508444  3
  16876  16874  16896  16880     1  0.0000000  1.6038667  3
  16877  16875  16874  16888     1  0.0000000  0.6508444  3
  16877  16875  16874  16896     1  0.0000000  1.0460000  1
  16877  16875  16874  16896     1  0.0000000  0.0000000  3
  16877  16875  16878  16879     1  0.0000000  0.6508444  3
  16877  16875  16878  16886     1  0.0000000  1.0460000  1
  16877  16875  16878  16886     1  0.0000000  0.0000000  3
  16877  16875  16878  16882     1  0.0000000  0.6508444  3
  16877  16875  16887  16890     1  0.0000000  0.6973333  3
  16878  16875  16887  16890     1  0.0000000  1.0460000  1
  16878  16875  16887  16890     1  0.0000000  0.6694400  3
  16878  16879  16880  16883     1  0.0000000  0.6508444  3
  16878  16879  16885  16891     1  0.0000000  1.0460000  1
  16878  16879  16885  16891     1  0.0000000  0.6694400  3
  16879  16878  16886  16889     1  0.0000000  1.0460000  1
  16879  16878  16886  16889     1  0.0000000  0.6694400  3
  16880  16879  16878  16882     1  0.0000000  0.6508444  3
  16880  16879  16885  16891     1  0.0000000  1.0460000  1
  16880  16879  16885  16891     1  0.0000000  0.6694400  3
  16881  16879  16878  16886     1  0.0000000  1.0460000  1
  16881  16879  16878  16886     1  0.0000000  0.0000000  3
  16881  16879  16878  16882     1  0.0000000  0.6508444  3
  16881  16879  16880  16884     1  0.0000000  1.0460000  1
  16881  16879  16880  16884     1  0.0000000  0.0000000  3
  16881  16879  16880  16896     1  0.0000000  1.0460000  1
  16881  16879  16880  16896     1  0.0000000  0.0000000  3
  16881  16879  16880  16883     1  0.0000000  0.6508444  3
  16881  16879  16885  16891     1  0.0000000  0.6973333  3
  16882  16878  16875  16887     1  0.0000000  1.0460000  1
  16882  16878  16875  16887     1  0.0000000  0.0000000  3
  16882  16878  16879  16885     1  0.0000000  1.0460000  1
  16882  16878  16879  16885     1  0.0000000  0.0000000  3
  16882  16878  16886  16889     1  0.0000000  0.6973333  3
  16883  16880  16879  16885     1  0.0000000  0.6508444  3
  16892  16888  16874  16896     1  0.0000000  1.0460000  1
  16892  16888  16874  16896     1  0.0000000  0.0000000  3
  16892  16888  16894  16895     1  0.0000000  0.6973333  3
  16893  16888  16874  16896     1  0.0000000  1.0460000  1
  16893  16888  16874  16896     1  0.0000000  0.0000000  3
  16893  16888  16894  16895     1  0.0000000  0.6973333  3
  16897  16898  16901  16905     1  0.0000000  0.6508444  3
  16897  16898  16910  16913     1  0.0000000  1.0460000  1
  16897  16898  16910  16913     1  0.0000000  0.6694400  3
  16897  16911  16917  16918     1  0.0000000  1.0460000  1
  16897  16911  16917  16918     1  0.0000000  0.6694400  3
  16897  16919  16903  16906     1  0.0000000  1.6038667  3
  16898  16901  16902  16904     1  0.0000000  0.6508444  3
  16898  16901  16909  16912     1  0.0000000  1.0460000  1
  16898  16901  16909  16912     1  0.0000000  0.6694400  3
  16898  16897  16911  16915     1  0.0000000  0.6508444  3
  16898  16897  16911  16916     1  0.0000000  0.6508444  3
  16899  16897  16898  16901     1  0.0000000  0.6508444  3
  16899  16897  16898  16910     1  0.0000000  1.0460000  1
  16899  16897  16898  16910     1  0.0000000  0.0000000  3
  16899  16897  16898  16900     1  0.0000000  0.6508444  3
  16899  16897  16911  16917     1  0.0000000  1.0460000  1
  16899  16897  16911  16917     1  0.0000000  0.0000000  3
  16899  16897  16911  16915     1  0.0000000  0.6508444  3
  16899  16897  16911  16916     1  0.0000000  0.6508444  3
  16899  16897  16919  16903     1  0.0000000  1.6038667  3
  16900  16898  16901  16902     1  0.0000000  0.6508444  3
  16900  16898  16901  16909     1  0.0000000  1.0460000  1
  16900  16898  16901  16909     1  0.0000000  0.0000000  3
  16900  16898  16901  16905     1  0.0000000  0.6508444  3
  16900  16898  16910  16913     1  0.0000000  0.6973333  3
  16900  16898  16897  16911     1  0.0000000  0.6508444  3
  16900  16898  16897  16919     1  0.0000000  1.0460000  1
  16900  16898  16897  16919     1  0.0000000  0.0000000  3
  16901  16902  16903  16906     1  0.0000000  0.6508444  3
  16901  16902  16908  16914     1  0.0000000  1.0460000  1
  16901  16902  16908  16914     1  0.0000000  0.6694400  3
  16901  16898  16910  16913     1  0.0000000  1.0460000  1
  16901  16898  16910  16913     1  0.0000000  0.6694400  3
  16902  16901  16909  16912     1  0.0000000  1.0460000  1
  16902  16901  16909  16912     1  0.0000000  0.6694400  3
  16903  16902  16908  16914     1  0.0000000  1.0460000  1
  16903  16902  16908  16914     1  0.0000000  0.6694400  3
  16903  16902  16901  16905     1  0.0000000  0.6508444  3
  16904  16902  16903  16907     1  0.0000000  1.0460000  1
  16904  16902  16903  16907     1  0.0000000  0.0000000  3
  16904  16902  16903  16919     1  0.0000000  1.0460000  1
  16904  16902  16903  16919     1  0.0000000  0.0000000  3
  16904  16902  16903  16906     1  0.0000000  0.6508444  3
  16904  16902  16908  16914     1  0.0000000  0.6973333  3
  16904  16902  16901  16909     1  0.0000000  1.0460000  1
  16904  16902  16901  16909     1  0.0000000  0.0000000  3
  16904  16902  16901  16905     1  0.0000000  0.6508444  3
  16905  16901  16902  16908     1  0.0000000  1.0460000  1
  16905  16901  16902  16908     1  0.0000000  0.0000000  3
  16905  16901  16909  16912     1  0.0000000  0.6973333  3
  16905  16901  16898  16910     1  0.0000000  1.0460000  1
  16905  16901  16898  16910     1  0.0000000  0.0000000  3
  16906  16903  16902  16908     1  0.0000000  0.6508444  3
  16915  16911  16917  16918     1  0.0000000  0.6973333  3
  16915  16911  16897  16919     1  0.0000000  1.0460000  1
  16915  16911  16897  16919     1  0.0000000  0.0000000  3
  16916  16911  16917  16918     1  0.0000000  0.6973333  3
  16916  16911  16897  16919     1  0.0000000  1.0460000  1
  16916  16911  16897  16919     1  0.0000000  0.0000000  3
  16920  16921  16924  16928     1  0.0000000  0.6508444  3
  16920  16921  16933  16936     1  0.0000000  1.0460000  1
  16920  16921  16933  16936     1  0.0000000  0.6694400  3
  16920  16934  16940  16941     1  0.0000000  1.0460000  1
  16920  16934  16940  16941     1  0.0000000  0.6694400  3
  16920  16942  16926  16929     1  0.0000000  1.6038667  3
  16921  16920  16934  16938     1  0.0000000  0.6508444  3
  16921  16920  16934  16939     1  0.0000000  0.6508444  3
  16921  16924  16925  16927     1  0.0000000  0.6508444  3
  16921  16924  16932  16935     1  0.0000000  1.0460000  1
  16921  16924  16932  16935     1  0.0000000  0.6694400  3
  16922  16920  16921  16924     1  0.0000000  0.6508444  3
  16922  16920  16921  16933     1  0.0000000  1.0460000  1
  16922  16920  16921  16933     1  0.0000000  0.0000000  3
  16922  16920  16921  16923     1  0.0000000  0.6508444  3
  16922  16920  16934  16940     1  0.0000000  1.0460000  1
  16922  16920  16934  16940     1  0.0000000  0.0000000  3
  16922  16920  16934  16938     1  0.0000000  0.6508444  3
  16922  16920  16934  16939     1  0.0000000  0.6508444  3
  16922  16920  16942  16926     1  0.0000000  1.6038667  3
  16923  16921  16920  16934     1  0.0000000  0.6508444  3
  16923  16921  16920  16942     1  0.0000000  1.0460000  1
  16923  16921  16920  16942     1  0.0000000  0.0000000  3
  16923  16921  16924  16925     1  0.0000000  0.6508444  3
  16923  16921  16924  16932     1  0.0000000  1.0460000  1
  16923  16921  16924  16932     1  0.0000000  0.0000000  3
  16923  16921  16924  16928     1  0.0000000  0.6508444  3
  16923  16921  16933  16936     1  0.0000000  0.6973333  3
  16924  16921  16933  16936     1  0.0000000  1.0460000  1
  16924  16921  16933  16936     1  0.0000000  0.6694400  3
  16924  16925  16926  16929     1  0.0000000  0.6508444  3
  16924  16925  16931  16937     1  0.0000000  1.0460000  1
  16924  16925  16931  16937     1  0.0000000  0.6694400  3
  16925  16924  16932  16935     1  0.0000000  1.0460000  1
  16925  16924  16932  16935     1  0.0000000  0.6694400  3
  16926  16925  16924  16928     1  0.0000000  0.6508444  3
  16926  16925  16931  16937     1  0.0000000  1.0460000  1
  16926  16925  16931  16937     1  0.0000000  0.6694400  3
  16927  16925  16924  16932     1  0.0000000  1.0460000  1
  16927  16925  16924  16932     1  0.0000000  0.0000000  3
  16927  16925  16924  16928     1  0.0000000  0.6508444  3
  16927  16925  16926  16930     1  0.0000000  1.0460000  1
  16927  16925  16926  16930     1  0.0000000  0.0000000  3
  16927  16925  16926  16942     1  0.0000000  1.0460000  1
  16927  16925  16926  16942     1  0.0000000  0.0000000  3
  16927  16925  16926  16929     1  0.0000000  0.6508444  3
  16927  16925  16931  16937     1  0.0000000  0.6973333  3
  16928  16924  16921  16933     1  0.0000000  1.0460000  1
  16928  16924  16921  16933     1  0.0000000  0.0000000  3
  16928  16924  16925  16931     1  0.0000000  1.0460000  1
  16928  16924  16925  16931     1  0.0000000  0.0000000  3
  16928  16924  16932  16935     1  0.0000000  0.6973333  3
  16929  16926  16925  16931     1  0.0000000  0.6508444  3
  16938  16934  16920  16942     1  0.0000000  1.0460000  1
  16938  16934  16920  16942     1  0.0000000  0.0000000  3
  16938  16934  16940  16941     1  0.0000000  0.6973333  3
  16939  16934  16920  16942     1  0.0000000  1.0460000  1
  16939  16934  16920  16942     1  0.0000000  0.0000000  3
  16939  16934  16940  16941     1  0.0000000  0.6973333  3
  16943  16944  16947  16951     1  0.0000000  0.6508444  3
  16943  16944  16956  16959     1  0.0000000  1.0460000  1
  16943  16944  16956  16959     1  0.0000000  0.6694400  3
  16943  16957  16963  16964     1  0.0000000  1.0460000  1
  16943  16957  16963  16964     1  0.0000000  0.6694400  3
  16943  16965  16949  16952     1  0.0000000  1.6038667  3
  16944  16947  16948  16950     1  0.0000000  0.6508444  3
  16944  16947  16955  16958     1  0.0000000  1.0460000  1
  16944  16947  16955  16958     1  0.0000000  0.6694400  3
  16944  16943  16957  16961     1  0.0000000  0.6508444  3
  16944  16943  16957  16962     1  0.0000000  0.6508444  3
  16945  16943  16944  16947     1  0.0000000  0.6508444  3
  16945  16943  16944  16956     1  0.0000000  1.0460000  1
  16945  16943  16944  16956     1  0.0000000  0.0000000  3
  16945  16943  16944  16946     1  0.0000000  0.6508444  3
  16945  16943  16957  16963     1  0.0000000  1.0460000  1
  16945  16943  16957  16963     1  0.0000000  0.0000000  3
  16945  16943  16957  16961     1  0.0000000  0.6508444  3
  16945  16943  16957  16962     1  0.0000000  0.6508444  3
  16945  16943  16965  16949     1  0.0000000  1.6038667  3
  16946  16944  16947  16948     1  0.0000000  0.6508444  3
  16946  16944  16947  16955     1  0.0000000  1.0460000  1
  16946  16944  16947  16955     1  0.0000000  0.0000000  3
  16946  16944  16947  16951     1  0.0000000  0.6508444  3
  16946  16944  16956  16959     1  0.0000000  0.6973333  3
  16946  16944  16943  16957     1  0.0000000  0.6508444  3
  16946  16944  16943  16965     1  0.0000000  1.0460000  1
  16946  16944  16943  16965     1  0.0000000  0.0000000  3
  16947  16948  16949  16952     1  0.0000000  0.6508444  3
  16947  16948  16954  16960     1  0.0000000  1.0460000  1
  16947  16948  16954  16960     1  0.0000000  0.6694400  3
  16947  16944  16956  16959     1  0.0000000  1.0460000  1
  16947  16944  16956  16959     1  0.0000000  0.6694400  3
  16948  16947  16955  16958     1  0.0000000  1.0460000  1
  16948  16947  16955  16958     1  0.0000000  0.6694400  3
  16949  16948  16954  16960     1  0.0000000  1.0460000  1
  16949  16948  16954  16960     1  0.0000000  0.6694400  3
  16949  16948  16947  16951     1  0.0000000  0.6508444  3
  16950  16948  16949  16953     1  0.0000000  1.0460000  1
  16950  16948  16949  16953     1  0.0000000  0.0000000  3
  16950  16948  16949  16965     1  0.0000000  1.0460000  1
  16950  16948  16949  16965     1  0.0000000  0.0000000  3
  16950  16948  16949  16952     1  0.0000000  0.6508444  3
  16950  16948  16954  16960     1  0.0000000  0.6973333  3
  16950  16948  16947  16955     1  0.0000000  1.0460000  1
  16950  16948  16947  16955     1  0.0000000  0.0000000  3
  16950  16948  16947  16951     1  0.0000000  0.6508444  3
  16951  16947  16948  16954     1  0.0000000  1.0460000  1
  16951  16947  16948  16954     1  0.0000000  0.0000000  3
  16951  16947  16955  16958     1  0.0000000  0.6973333  3
  16951  16947  16944  16956     1  0.0000000  1.0460000  1
  16951  16947  16944  16956     1  0.0000000  0.0000000  3
  16952  16949  16948  16954     1  0.0000000  0.6508444  3
  16961  16957  16963  16964     1  0.0000000  0.6973333  3
  16961  16957  16943  16965     1  0.0000000  1.0460000  1
  16961  16957  16943  16965     1  0.0000000  0.0000000  3
  16962  16957  16963  16964     1  0.0000000  0.6973333  3
  16962  16957  16943  16965     1  0.0000000  1.0460000  1
  16962  16957  16943  16965     1  0.0000000  0.0000000  3
  16966  16967  16970  16974     1  0.0000000  0.6508444  3
  16966  16967  16979  16982     1  0.0000000  1.0460000  1
  16966  16967  16979  16982     1  0.0000000  0.6694400  3
  16966  16980  16986  16987     1  0.0000000  1.0460000  1
  16966  16980  16986  16987     1  0.0000000  0.6694400  3
  16966  16988  16972  16975     1  0.0000000  1.6038667  3
  16967  16966  16980  16984     1  0.0000000  0.6508444  3
  16967  16966  16980  16985     1  0.0000000  0.6508444  3
  16967  16970  16971  16973     1  0.0000000  0.6508444  3
  16967  16970  16978  16981     1  0.0000000  1.0460000  1
  16967  16970  16978  16981     1  0.0000000  0.6694400  3
  16968  16966  16967  16970     1  0.0000000  0.6508444  3
  16968  16966  16967  16979     1  0.0000000  1.0460000  1
  16968  16966  16967  16979     1  0.0000000  0.0000000  3
  16968  16966  16967  16969     1  0.0000000  0.6508444  3
  16968  16966  16980  16986     1  0.0000000  1.0460000  1
  16968  16966  16980  16986     1  0.0000000  0.0000000  3
  16968  16966  16980  16984     1  0.0000000  0.6508444  3
  16968  16966  16980  16985     1  0.0000000  0.6508444  3
  16968  16966  16988  16972     1  0.0000000  1.6038667  3
  16969  16967  16966  16980     1  0.0000000  0.6508444  3
  16969  16967  16966  16988     1  0.0000000  1.0460000  1
  16969  16967  16966  16988     1  0.0000000  0.0000000  3
  16969  16967  16970  16971     1  0.0000000  0.6508444  3
  16969  16967  16970  16978     1  0.0000000  1.0460000  1
  16969  16967  16970  16978     1  0.0000000  0.0000000  3
  16969  16967  16970  16974     1  0.0000000  0.6508444  3
  16969  16967  16979  16982     1  0.0000000  0.6973333  3
  16970  16967  16979  16982     1  0.0000000  1.0460000  1
  16970  16967  16979  16982     1  0.0000000  0.6694400  3
  16970  16971  16972  16975     1  0.0000000  0.6508444  3
  16970  16971  16977  16983     1  0.0000000  1.0460000  1
  16970  16971  16977  16983     1  0.0000000  0.6694400  3
  16971  16970  16978  16981     1  0.0000000  1.0460000  1
  16971  16970  16978  16981     1  0.0000000  0.6694400  3
  16972  16971  16970  16974     1  0.0000000  0.6508444  3
  16972  16971  16977  16983     1  0.0000000  1.0460000  1
  16972  16971  16977  16983     1  0.0000000  0.6694400  3
  16973  16971  16970  16978     1  0.0000000  1.0460000  1
  16973  16971  16970  16978     1  0.0000000  0.0000000  3
  16973  16971  16970  16974     1  0.0000000  0.6508444  3
  16973  16971  16972  16976     1  0.0000000  1.0460000  1
  16973  16971  16972  16976     1  0.0000000  0.0000000  3
  16973  16971  16972  16988     1  0.0000000  1.0460000  1
  16973  16971  16972  16988     1  0.0000000  0.0000000  3
  16973  16971  16972  16975     1  0.0000000  0.6508444  3
  16973  16971  16977  16983     1  0.0000000  0.6973333  3
  16974  16970  16967  16979     1  0.0000000  1.0460000  1
  16974  16970  16967  16979     1  0.0000000  0.0000000  3
  16974  16970  16971  16977     1  0.0000000  1.0460000  1
  16974  16970  16971  16977     1  0.0000000  0.0000000  3
  16974  16970  16978  16981     1  0.0000000  0.6973333  3
  16975  16972  16971  16977     1  0.0000000  0.6508444  3
  16984  16980  16966  16988     1  0.0000000  1.0460000  1
  16984  16980  16966  16988     1  0.0000000  0.0000000  3
  16984  16980  16986  16987     1  0.0000000  0.6973333  3
  16985  16980  16966  16988     1  0.0000000  1.0460000  1
  16985  16980  16966  16988     1  0.0000000  0.0000000  3
  16985  16980  16986  16987     1  0.0000000  0.6973333  3
  16989  16990  16993  16997     1  0.0000000  0.6508444  3
  16989  16990  17002  17005     1  0.0000000  1.0460000  1
  16989  16990  17002  17005     1  0.0000000  0.6694400  3
  16989  17003  17009  17010     1  0.0000000  1.0460000  1
  16989  17003  17009  17010     1  0.0000000  0.6694400  3
  16989  17011  16995  16998     1  0.0000000  1.6038667  3
  16990  16993  16994  16996     1  0.0000000  0.6508444  3
  16990  16993  17001  17004     1  0.0000000  1.0460000  1
  16990  16993  17001  17004     1  0.0000000  0.6694400  3
  16990  16989  17003  17007     1  0.0000000  0.6508444  3
  16990  16989  17003  17008     1  0.0000000  0.6508444  3
  16991  16989  16990  16993     1  0.0000000  0.6508444  3
  16991  16989  16990  17002     1  0.0000000  1.0460000  1
  16991  16989  16990  17002     1  0.0000000  0.0000000  3
  16991  16989  16990  16992     1  0.0000000  0.6508444  3
  16991  16989  17003  17009     1  0.0000000  1.0460000  1
  16991  16989  17003  17009     1  0.0000000  0.0000000  3
  16991  16989  17003  17007     1  0.0000000  0.6508444  3
  16991  16989  17003  17008     1  0.0000000  0.6508444  3
  16991  16989  17011  16995     1  0.0000000  1.6038667  3
  16992  16990  16993  16994     1  0.0000000  0.6508444  3
  16992  16990  16993  17001     1  0.0000000  1.0460000  1
  16992  16990  16993  17001     1  0.0000000  0.0000000  3
  16992  16990  16993  16997     1  0.0000000  0.6508444  3
  16992  16990  17002  17005     1  0.0000000  0.6973333  3
  16992  16990  16989  17003     1  0.0000000  0.6508444  3
  16992  16990  16989  17011     1  0.0000000  1.0460000  1
  16992  16990  16989  17011     1  0.0000000  0.0000000  3
  16993  16994  16995  16998     1  0.0000000  0.6508444  3
  16993  16994  17000  17006     1  0.0000000  1.0460000  1
  16993  16994  17000  17006     1  0.0000000  0.6694400  3
  16993  16990  17002  17005     1  0.0000000  1.0460000  1
  16993  16990  17002  17005     1  0.0000000  0.6694400  3
  16994  16993  17001  17004     1  0.0000000  1.0460000  1
  16994  16993  17001  17004     1  0.0000000  0.6694400  3
  16995  16994  17000  17006     1  0.0000000  1.0460000  1
  16995  16994  17000  17006     1  0.0000000  0.6694400  3
  16995  16994  16993  16997     1  0.0000000  0.6508444  3
  16996  16994  16995  16999     1  0.0000000  1.0460000  1
  16996  16994  16995  16999     1  0.0000000  0.0000000  3
  16996  16994  16995  17011     1  0.0000000  1.0460000  1
  16996  16994  16995  17011     1  0.0000000  0.0000000  3
  16996  16994  16995  16998     1  0.0000000  0.6508444  3
  16996  16994  17000  17006     1  0.0000000  0.6973333  3
  16996  16994  16993  17001     1  0.0000000  1.0460000  1
  16996  16994  16993  17001     1  0.0000000  0.0000000  3
  16996  16994  16993  16997     1  0.0000000  0.6508444  3
  16997  16993  16994  17000     1  0.0000000  1.0460000  1
  16997  16993  16994  17000     1  0.0000000  0.0000000  3
  16997  16993  17001  17004     1  0.0000000  0.6973333  3
  16997  16993  16990  17002     1  0.0000000  1.0460000  1
  16997  16993  16990  17002     1  0.0000000  0.0000000  3
  16998  16995  16994  17000     1  0.0000000  0.6508444  3
  17007  17003  17009  17010     1  0.0000000  0.6973333  3
  17007  17003  16989  17011     1  0.0000000  1.0460000  1
  17007  17003  16989  17011     1  0.0000000  0.0000000  3
  17008  17003  17009  17010     1  0.0000000  0.6973333  3
  17008  17003  16989  17011     1  0.0000000  1.0460000  1
  17008  17003  16989  17011     1  0.0000000  0.0000000  3
  17012  17013  17016  17020     1  0.0000000  0.6508444  3
  17012  17013  17025  17028     1  0.0000000  1.0460000  1
  17012  17013  17025  17028     1  0.0000000  0.6694400  3
  17012  17026  17032  17033     1  0.0000000  1.0460000  1
  17012  17026  17032  17033     1  0.0000000  0.6694400  3
  17012  17034  17018  17021     1  0.0000000  1.6038667  3
  17013  17012  17026  17030     1  0.0000000  0.6508444  3
  17013  17012  17026  17031     1  0.0000000  0.6508444  3
  17013  17016  17017  17019     1  0.0000000  0.6508444  3
  17013  17016  17024  17027     1  0.0000000  1.0460000  1
  17013  17016  17024  17027     1  0.0000000  0.6694400  3
  17014  17012  17013  17016     1  0.0000000  0.6508444  3
  17014  17012  17013  17025     1  0.0000000  1.0460000  1
  17014  17012  17013  17025     1  0.0000000  0.0000000  3
  17014  17012  17013  17015     1  0.0000000  0.6508444  3
  17014  17012  17026  17032     1  0.0000000  1.0460000  1
  17014  17012  17026  17032     1  0.0000000  0.0000000  3
  17014  17012  17026  17030     1  0.0000000  0.6508444  3
  17014  17012  17026  17031     1  0.0000000  0.6508444  3
  17014  17012  17034  17018     1  0.0000000  1.6038667  3
  17015  17013  17012  17026     1  0.0000000  0.6508444  3
  17015  17013  17012  17034     1  0.0000000  1.0460000  1
  17015  17013  17012  17034     1  0.0000000  0.0000000  3
  17015  17013  17016  17017     1  0.0000000  0.6508444  3
  17015  17013  17016  17024     1  0.0000000  1.0460000  1
  17015  17013  17016  17024     1  0.0000000  0.0000000  3
  17015  17013  17016  17020     1  0.0000000  0.6508444  3
  17015  17013  17025  17028     1  0.0000000  0.6973333  3
  17016  17013  17025  17028     1  0.0000000  1.0460000  1
  17016  17013  17025  17028     1  0.0000000  0.6694400  3
  17016  17017  17018  17021     1  0.0000000  0.6508444  3
  17016  17017  17023  17029     1  0.0000000  1.0460000  1
  17016  17017  17023  17029     1  0.0000000  0.6694400  3
  17017  17016  17024  17027     1  0.0000000  1.0460000  1
  17017  17016  17024  17027     1  0.0000000  0.6694400  3
  17018  17017  17016  17020     1  0.0000000  0.6508444  3
  17018  17017  17023  17029     1  0.0000000  1.0460000  1
  17018  17017  17023  17029     1  0.0000000  0.6694400  3
  17019  17017  17016  17024     1  0.0000000  1.0460000  1
  17019  17017  17016  17024     1  0.0000000  0.0000000  3
  17019  17017  17016  17020     1  0.0000000  0.6508444  3
  17019  17017  17018  17022     1  0.0000000  1.0460000  1
  17019  17017  17018  17022     1  0.0000000  0.0000000  3
  17019  17017  17018  17034     1  0.0000000  1.0460000  1
  17019  17017  17018  17034     1  0.0000000  0.0000000  3
  17019  17017  17018  17021     1  0.0000000  0.6508444  3
  17019  17017  17023  17029     1  0.0000000  0.6973333  3
  17020  17016  17013  17025     1  0.0000000  1.0460000  1
  17020  17016  17013  17025     1  0.0000000  0.0000000  3
  17020  17016  17017  17023     1  0.0000000  1.0460000  1
  17020  17016  17017  17023     1  0.0000000  0.0000000  3
  17020  17016  17024  17027     1  0.0000000  0.6973333  3
  17021  17018  17017  17023     1  0.0000000  0.6508444  3
  17030  17026  17012  17034     1  0.0000000  1.0460000  1
  17030  17026  17012  17034     1  0.0000000  0.0000000  3
  17030  17026  17032  17033     1  0.0000000  0.6973333  3
  17031  17026  17012  17034     1  0.0000000  1.0460000  1
  17031  17026  17012  17034     1  0.0000000  0.0000000  3
  17031  17026  17032  17033     1  0.0000000  0.6973333  3
  17035  17036  17039  17043     1  0.0000000  0.6508444  3
  17035  17036  17048  17051     1  0.0000000  1.0460000  1
  17035  17036  17048  17051     1  0.0000000  0.6694400  3
  17035  17049  17055  17056     1  0.0000000  1.0460000  1
  17035  17049  17055  17056     1  0.0000000  0.6694400  3
  17035  17057  17041  17044     1  0.0000000  1.6038667  3
  17036  17039  17040  17042     1  0.0000000  0.6508444  3
  17036  17039  17047  17050     1  0.0000000  1.0460000  1
  17036  17039  17047  17050     1  0.0000000  0.6694400  3
  17036  17035  17049  17053     1  0.0000000  0.6508444  3
  17036  17035  17049  17054     1  0.0000000  0.6508444  3
  17037  17035  17036  17039     1  0.0000000  0.6508444  3
  17037  17035  17036  17048     1  0.0000000  1.0460000  1
  17037  17035  17036  17048     1  0.0000000  0.0000000  3
  17037  17035  17036  17038     1  0.0000000  0.6508444  3
  17037  17035  17049  17055     1  0.0000000  1.0460000  1
  17037  17035  17049  17055     1  0.0000000  0.0000000  3
  17037  17035  17049  17053     1  0.0000000  0.6508444  3
  17037  17035  17049  17054     1  0.0000000  0.6508444  3
  17037  17035  17057  17041     1  0.0000000  1.6038667  3
  17038  17036  17039  17040     1  0.0000000  0.6508444  3
  17038  17036  17039  17047     1  0.0000000  1.0460000  1
  17038  17036  17039  17047     1  0.0000000  0.0000000  3
  17038  17036  17039  17043     1  0.0000000  0.6508444  3
  17038  17036  17048  17051     1  0.0000000  0.6973333  3
  17038  17036  17035  17049     1  0.0000000  0.6508444  3
  17038  17036  17035  17057     1  0.0000000  1.0460000  1
  17038  17036  17035  17057     1  0.0000000  0.0000000  3
  17039  17040  17041  17044     1  0.0000000  0.6508444  3
  17039  17040  17046  17052     1  0.0000000  1.0460000  1
  17039  17040  17046  17052     1  0.0000000  0.6694400  3
  17039  17036  17048  17051     1  0.0000000  1.0460000  1
  17039  17036  17048  17051     1  0.0000000  0.6694400  3
  17040  17039  17047  17050     1  0.0000000  1.0460000  1
  17040  17039  17047  17050     1  0.0000000  0.6694400  3
  17041  17040  17046  17052     1  0.0000000  1.0460000  1
  17041  17040  17046  17052     1  0.0000000  0.6694400  3
  17041  17040  17039  17043     1  0.0000000  0.6508444  3
  17042  17040  17041  17045     1  0.0000000  1.0460000  1
  17042  17040  17041  17045     1  0.0000000  0.0000000  3
  17042  17040  17041  17057     1  0.0000000  1.0460000  1
  17042  17040  17041  17057     1  0.0000000  0.0000000  3
  17042  17040  17041  17044     1  0.0000000  0.6508444  3
  17042  17040  17046  17052     1  0.0000000  0.6973333  3
  17042  17040  17039  17047     1  0.0000000  1.0460000  1
  17042  17040  17039  17047     1  0.0000000  0.0000000  3
  17042  17040  17039  17043     1  0.0000000  0.6508444  3
  17043  17039  17040  17046     1  0.0000000  1.0460000  1
  17043  17039  17040  17046     1  0.0000000  0.0000000  3
  17043  17039  17047  17050     1  0.0000000  0.6973333  3
  17043  17039  17036  17048     1  0.0000000  1.0460000  1
  17043  17039  17036  17048     1  0.0000000  0.0000000  3
  17044  17041  17040  17046     1  0.0000000  0.6508444  3
  17053  17049  17055  17056     1  0.0000000  0.6973333  3
  17053  17049  17035  17057     1  0.0000000  1.0460000  1
  17053  17049  17035  17057     1  0.0000000  0.0000000  3
  17054  17049  17055  17056     1  0.0000000  0.6973333  3
  17054  17049  17035  17057     1  0.0000000  1.0460000  1
  17054  17049  17035  17057     1  0.0000000  0.0000000  3
  17058  17059  17062  17066     1  0.0000000  0.6508444  3
  17058  17059  17071  17074     1  0.0000000  1.0460000  1
  17058  17059  17071  17074     1  0.0000000  0.6694400  3
  17058  17072  17078  17079     1  0.0000000  1.0460000  1
  17058  17072  17078  17079     1  0.0000000  0.6694400  3
  17058  17080  17064  17067     1  0.0000000  1.6038667  3
  17059  17058  17072  17076     1  0.0000000  0.6508444  3
  17059  17058  17072  17077     1  0.0000000  0.6508444  3
  17059  17062  17063  17065     1  0.0000000  0.6508444  3
  17059  17062  17070  17073     1  0.0000000  1.0460000  1
  17059  17062  17070  17073     1  0.0000000  0.6694400  3
  17060  17058  17059  17062     1  0.0000000  0.6508444  3
  17060  17058  17059  17071     1  0.0000000  1.0460000  1
  17060  17058  17059  17071     1  0.0000000  0.0000000  3
  17060  17058  17059  17061     1  0.0000000  0.6508444  3
  17060  17058  17072  17078     1  0.0000000  1.0460000  1
  17060  17058  17072  17078     1  0.0000000  0.0000000  3
  17060  17058  17072  17076     1  0.0000000  0.6508444  3
  17060  17058  17072  17077     1  0.0000000  0.6508444  3
  17060  17058  17080  17064     1  0.0000000  1.6038667  3
  17061  17059  17058  17072     1  0.0000000  0.6508444  3
  17061  17059  17058  17080     1  0.0000000  1.0460000  1
  17061  17059  17058  17080     1  0.0000000  0.0000000  3
  17061  17059  17062  17063     1  0.0000000  0.6508444  3
  17061  17059  17062  17070     1  0.0000000  1.0460000  1
  17061  17059  17062  17070     1  0.0000000  0.0000000  3
  17061  17059  17062  17066     1  0.0000000  0.6508444  3
  17061  17059  17071  17074     1  0.0000000  0.6973333  3
  17062  17059  17071  17074     1  0.0000000  1.0460000  1
  17062  17059  17071  17074     1  0.0000000  0.6694400  3
  17062  17063  17064  17067     1  0.0000000  0.6508444  3
  17062  17063  17069  17075     1  0.0000000  1.0460000  1
  17062  17063  17069  17075     1  0.0000000  0.6694400  3
  17063  17062  17070  17073     1  0.0000000  1.0460000  1
  17063  17062  17070  17073     1  0.0000000  0.6694400  3
  17064  17063  17062  17066     1  0.0000000  0.6508444  3
  17064  17063  17069  17075     1  0.0000000  1.0460000  1
  17064  17063  17069  17075     1  0.0000000  0.6694400  3
  17065  17063  17062  17070     1  0.0000000  1.0460000  1
  17065  17063  17062  17070     1  0.0000000  0.0000000  3
  17065  17063  17062  17066     1  0.0000000  0.6508444  3
  17065  17063  17064  17068     1  0.0000000  1.0460000  1
  17065  17063  17064  17068     1  0.0000000  0.0000000  3
  17065  17063  17064  17080     1  0.0000000  1.0460000  1
  17065  17063  17064  17080     1  0.0000000  0.0000000  3
  17065  17063  17064  17067     1  0.0000000  0.6508444  3
  17065  17063  17069  17075     1  0.0000000  0.6973333  3
  17066  17062  17059  17071     1  0.0000000  1.0460000  1
  17066  17062  17059  17071     1  0.0000000  0.0000000  3
  17066  17062  17063  17069     1  0.0000000  1.0460000  1
  17066  17062  17063  17069     1  0.0000000  0.0000000  3
  17066  17062  17070  17073     1  0.0000000  0.6973333  3
  17067  17064  17063  17069     1  0.0000000  0.6508444  3
  17076  17072  17058  17080     1  0.0000000  1.0460000  1
  17076  17072  17058  17080     1  0.0000000  0.0000000  3
  17076  17072  17078  17079     1  0.0000000  0.6973333  3
  17077  17072  17058  17080     1  0.0000000  1.0460000  1
  17077  17072  17058  17080     1  0.0000000  0.0000000  3
  17077  17072  17078  17079     1  0.0000000  0.6973333  3
  17081  17082  17085  17089     1  0.0000000  0.6508444  3
  17081  17082  17094  17097     1  0.0000000  1.0460000  1
  17081  17082  17094  17097     1  0.0000000  0.6694400  3
  17081  17095  17101  17102     1  0.0000000  1.0460000  1
  17081  17095  17101  17102     1  0.0000000  0.6694400  3
  17081  17103  17087  17090     1  0.0000000  1.6038667  3
  17082  17085  17086  17088     1  0.0000000  0.6508444  3
  17082  17085  17093  17096     1  0.0000000  1.0460000  1
  17082  17085  17093  17096     1  0.0000000  0.6694400  3
  17082  17081  17095  17099     1  0.0000000  0.6508444  3
  17082  17081  17095  17100     1  0.0000000  0.6508444  3
  17083  17081  17082  17085     1  0.0000000  0.6508444  3
  17083  17081  17082  17094     1  0.0000000  1.0460000  1
  17083  17081  17082  17094     1  0.0000000  0.0000000  3
  17083  17081  17082  17084     1  0.0000000  0.6508444  3
  17083  17081  17095  17101     1  0.0000000  1.0460000  1
  17083  17081  17095  17101     1  0.0000000  0.0000000  3
  17083  17081  17095  17099     1  0.0000000  0.6508444  3
  17083  17081  17095  17100     1  0.0000000  0.6508444  3
  17083  17081  17103  17087     1  0.0000000  1.6038667  3
  17084  17082  17085  17086     1  0.0000000  0.6508444  3
  17084  17082  17085  17093     1  0.0000000  1.0460000  1
  17084  17082  17085  17093     1  0.0000000  0.0000000  3
  17084  17082  17085  17089     1  0.0000000  0.6508444  3
  17084  17082  17094  17097     1  0.0000000  0.6973333  3
  17084  17082  17081  17095     1  0.0000000  0.6508444  3
  17084  17082  17081  17103     1  0.0000000  1.0460000  1
  17084  17082  17081  17103     1  0.0000000  0.0000000  3
  17085  17086  17087  17090     1  0.0000000  0.6508444  3
  17085  17086  17092  17098     1  0.0000000  1.0460000  1
  17085  17086  17092  17098     1  0.0000000  0.6694400  3
  17085  17082  17094  17097     1  0.0000000  1.0460000  1
  17085  17082  17094  17097     1  0.0000000  0.6694400  3
  17086  17085  17093  17096     1  0.0000000  1.0460000  1
  17086  17085  17093  17096     1  0.0000000  0.6694400  3
  17087  17086  17092  17098     1  0.0000000  1.0460000  1
  17087  17086  17092  17098     1  0.0000000  0.6694400  3
  17087  17086  17085  17089     1  0.0000000  0.6508444  3
  17088  17086  17087  17091     1  0.0000000  1.0460000  1
  17088  17086  17087  17091     1  0.0000000  0.0000000  3
  17088  17086  17087  17103     1  0.0000000  1.0460000  1
  17088  17086  17087  17103     1  0.0000000  0.0000000  3
  17088  17086  17087  17090     1  0.0000000  0.6508444  3
  17088  17086  17092  17098     1  0.0000000  0.6973333  3
  17088  17086  17085  17093     1  0.0000000  1.0460000  1
  17088  17086  17085  17093     1  0.0000000  0.0000000  3
  17088  17086  17085  17089     1  0.0000000  0.6508444  3
  17089  17085  17086  17092     1  0.0000000  1.0460000  1
  17089  17085  17086  17092     1  0.0000000  0.0000000  3
  17089  17085  17093  17096     1  0.0000000  0.6973333  3
  17089  17085  17082  17094     1  0.0000000  1.0460000  1
  17089  17085  17082  17094     1  0.0000000  0.0000000  3
  17090  17087  17086  17092     1  0.0000000  0.6508444  3
  17099  17095  17101  17102     1  0.0000000  0.6973333  3
  17099  17095  17081  17103     1  0.0000000  1.0460000  1
  17099  17095  17081  17103     1  0.0000000  0.0000000  3
  17100  17095  17101  17102     1  0.0000000  0.6973333  3
  17100  17095  17081  17103     1  0.0000000  1.0460000  1
  17100  17095  17081  17103     1  0.0000000  0.0000000  3
  17104  17105  17108  17112     1  0.0000000  0.6508444  3
  17104  17105  17117  17120     1  0.0000000  1.0460000  1
  17104  17105  17117  17120     1  0.0000000  0.6694400  3
  17104  17118  17124  17125     1  0.0000000  1.0460000  1
  17104  17118  17124  17125     1  0.0000000  0.6694400  3
  17104  17126  17110  17113     1  0.0000000  1.6038667  3
  17105  17104  17118  17122     1  0.0000000  0.6508444  3
  17105  17104  17118  17123     1  0.0000000  0.6508444  3
  17105  17108  17109  17111     1  0.0000000  0.6508444  3
  17105  17108  17116  17119     1  0.0000000  1.0460000  1
  17105  17108  17116  17119     1  0.0000000  0.6694400  3
  17106  17104  17105  17108     1  0.0000000  0.6508444  3
  17106  17104  17105  17117     1  0.0000000  1.0460000  1
  17106  17104  17105  17117     1  0.0000000  0.0000000  3
  17106  17104  17105  17107     1  0.0000000  0.6508444  3
  17106  17104  17118  17124     1  0.0000000  1.0460000  1
  17106  17104  17118  17124     1  0.0000000  0.0000000  3
  17106  17104  17118  17122     1  0.0000000  0.6508444  3
  17106  17104  17118  17123     1  0.0000000  0.6508444  3
  17106  17104  17126  17110     1  0.0000000  1.6038667  3
  17107  17105  17104  17118     1  0.0000000  0.6508444  3
  17107  17105  17104  17126     1  0.0000000  1.0460000  1
  17107  17105  17104  17126     1  0.0000000  0.0000000  3
  17107  17105  17108  17109     1  0.0000000  0.6508444  3
  17107  17105  17108  17116     1  0.0000000  1.0460000  1
  17107  17105  17108  17116     1  0.0000000  0.0000000  3
  17107  17105  17108  17112     1  0.0000000  0.6508444  3
  17107  17105  17117  17120     1  0.0000000  0.6973333  3
  17108  17105  17117  17120     1  0.0000000  1.0460000  1
  17108  17105  17117  17120     1  0.0000000  0.6694400  3
  17108  17109  17110  17113     1  0.0000000  0.6508444  3
  17108  17109  17115  17121     1  0.0000000  1.0460000  1
  17108  17109  17115  17121     1  0.0000000  0.6694400  3
  17109  17108  17116  17119     1  0.0000000  1.0460000  1
  17109  17108  17116  17119     1  0.0000000  0.6694400  3
  17110  17109  17108  17112     1  0.0000000  0.6508444  3
  17110  17109  17115  17121     1  0.0000000  1.0460000  1
  17110  17109  17115  17121     1  0.0000000  0.6694400  3
  17111  17109  17108  17116     1  0.0000000  1.0460000  1
  17111  17109  17108  17116     1  0.0000000  0.0000000  3
  17111  17109  17108  17112     1  0.0000000  0.6508444  3
  17111  17109  17110  17114     1  0.0000000  1.0460000  1
  17111  17109  17110  17114     1  0.0000000  0.0000000  3
  17111  17109  17110  17126     1  0.0000000  1.0460000  1
  17111  17109  17110  17126     1  0.0000000  0.0000000  3
  17111  17109  17110  17113     1  0.0000000  0.6508444  3
  17111  17109  17115  17121     1  0.0000000  0.6973333  3
  17112  17108  17105  17117     1  0.0000000  1.0460000  1
  17112  17108  17105  17117     1  0.0000000  0.0000000  3
  17112  17108  17109  17115     1  0.0000000  1.0460000  1
  17112  17108  17109  17115     1  0.0000000  0.0000000  3
  17112  17108  17116  17119     1  0.0000000  0.6973333  3
  17113  17110  17109  17115     1  0.0000000  0.6508444  3
  17122  17118  17104  17126     1  0.0000000  1.0460000  1
  17122  17118  17104  17126     1  0.0000000  0.0000000  3
  17122  17118  17124  17125     1  0.0000000  0.6973333  3
  17123  17118  17104  17126     1  0.0000000  1.0460000  1
  17123  17118  17104  17126     1  0.0000000  0.0000000  3
  17123  17118  17124  17125     1  0.0000000  0.6973333  3
  17127  17128  17131  17135     1  0.0000000  0.6508444  3
  17127  17128  17140  17143     1  0.0000000  1.0460000  1
  17127  17128  17140  17143     1  0.0000000  0.6694400  3
  17127  17141  17147  17148     1  0.0000000  1.0460000  1
  17127  17141  17147  17148     1  0.0000000  0.6694400  3
  17127  17149  17133  17136     1  0.0000000  1.6038667  3
  17128  17131  17132  17134     1  0.0000000  0.6508444  3
  17128  17131  17139  17142     1  0.0000000  1.0460000  1
  17128  17131  17139  17142     1  0.0000000  0.6694400  3
  17128  17127  17141  17145     1  0.0000000  0.6508444  3
  17128  17127  17141  17146     1  0.0000000  0.6508444  3
  17129  17127  17128  17131     1  0.0000000  0.6508444  3
  17129  17127  17128  17140     1  0.0000000  1.0460000  1
  17129  17127  17128  17140     1  0.0000000  0.0000000  3
  17129  17127  17128  17130     1  0.0000000  0.6508444  3
  17129  17127  17141  17147     1  0.0000000  1.0460000  1
  17129  17127  17141  17147     1  0.0000000  0.0000000  3
  17129  17127  17141  17145     1  0.0000000  0.6508444  3
  17129  17127  17141  17146     1  0.0000000  0.6508444  3
  17129  17127  17149  17133     1  0.0000000  1.6038667  3
  17130  17128  17131  17132     1  0.0000000  0.6508444  3
  17130  17128  17131  17139     1  0.0000000  1.0460000  1
  17130  17128  17131  17139     1  0.0000000  0.0000000  3
  17130  17128  17131  17135     1  0.0000000  0.6508444  3
  17130  17128  17140  17143     1  0.0000000  0.6973333  3
  17130  17128  17127  17141     1  0.0000000  0.6508444  3
  17130  17128  17127  17149     1  0.0000000  1.0460000  1
  17130  17128  17127  17149     1  0.0000000  0.0000000  3
  17131  17132  17133  17136     1  0.0000000  0.6508444  3
  17131  17132  17138  17144     1  0.0000000  1.0460000  1
  17131  17132  17138  17144     1  0.0000000  0.6694400  3
  17131  17128  17140  17143     1  0.0000000  1.0460000  1
  17131  17128  17140  17143     1  0.0000000  0.6694400  3
  17132  17131  17139  17142     1  0.0000000  1.0460000  1
  17132  17131  17139  17142     1  0.0000000  0.6694400  3
  17133  17132  17138  17144     1  0.0000000  1.0460000  1
  17133  17132  17138  17144     1  0.0000000  0.6694400  3
  17133  17132  17131  17135     1  0.0000000  0.6508444  3
  17134  17132  17133  17137     1  0.0000000  1.0460000  1
  17134  17132  17133  17137     1  0.0000000  0.0000000  3
  17134  17132  17133  17149     1  0.0000000  1.0460000  1
  17134  17132  17133  17149     1  0.0000000  0.0000000  3
  17134  17132  17133  17136     1  0.0000000  0.6508444  3
  17134  17132  17138  17144     1  0.0000000  0.6973333  3
  17134  17132  17131  17139     1  0.0000000  1.0460000  1
  17134  17132  17131  17139     1  0.0000000  0.0000000  3
  17134  17132  17131  17135     1  0.0000000  0.6508444  3
  17135  17131  17132  17138     1  0.0000000  1.0460000  1
  17135  17131  17132  17138     1  0.0000000  0.0000000  3
  17135  17131  17139  17142     1  0.0000000  0.6973333  3
  17135  17131  17128  17140     1  0.0000000  1.0460000  1
  17135  17131  17128  17140     1  0.0000000  0.0000000  3
  17136  17133  17132  17138     1  0.0000000  0.6508444  3
  17145  17141  17147  17148     1  0.0000000  0.6973333  3
  17145  17141  17127  17149     1  0.0000000  1.0460000  1
  17145  17141  17127  17149     1  0.0000000  0.0000000  3
  17146  17141  17147  17148     1  0.0000000  0.6973333  3
  17146  17141  17127  17149     1  0.0000000  1.0460000  1
  17146  17141  17127  17149     1  0.0000000  0.0000000  3
  17150  17151  17154  17158     1  0.0000000  0.6508444  3
  17150  17151  17163  17166     1  0.0000000  1.0460000  1
  17150  17151  17163  17166     1  0.0000000  0.6694400  3
  17150  17164  17170  17171     1  0.0000000  1.0460000  1
  17150  17164  17170  17171     1  0.0000000  0.6694400  3
  17150  17172  17156  17159     1  0.0000000  1.6038667  3
  17151  17150  17164  17168     1  0.0000000  0.6508444  3
  17151  17150  17164  17169     1  0.0000000  0.6508444  3
  17151  17154  17155  17157     1  0.0000000  0.6508444  3
  17151  17154  17162  17165     1  0.0000000  1.0460000  1
  17151  17154  17162  17165     1  0.0000000  0.6694400  3
  17152  17150  17151  17154     1  0.0000000  0.6508444  3
  17152  17150  17151  17163     1  0.0000000  1.0460000  1
  17152  17150  17151  17163     1  0.0000000  0.0000000  3
  17152  17150  17151  17153     1  0.0000000  0.6508444  3
  17152  17150  17164  17170     1  0.0000000  1.0460000  1
  17152  17150  17164  17170     1  0.0000000  0.0000000  3
  17152  17150  17164  17168     1  0.0000000  0.6508444  3
  17152  17150  17164  17169     1  0.0000000  0.6508444  3
  17152  17150  17172  17156     1  0.0000000  1.6038667  3
  17153  17151  17150  17164     1  0.0000000  0.6508444  3
  17153  17151  17150  17172     1  0.0000000  1.0460000  1
  17153  17151  17150  17172     1  0.0000000  0.0000000  3
  17153  17151  17154  17155     1  0.0000000  0.6508444  3
  17153  17151  17154  17162     1  0.0000000  1.0460000  1
  17153  17151  17154  17162     1  0.0000000  0.0000000  3
  17153  17151  17154  17158     1  0.0000000  0.6508444  3
  17153  17151  17163  17166     1  0.0000000  0.6973333  3
  17154  17151  17163  17166     1  0.0000000  1.0460000  1
  17154  17151  17163  17166     1  0.0000000  0.6694400  3
  17154  17155  17156  17159     1  0.0000000  0.6508444  3
  17154  17155  17161  17167     1  0.0000000  1.0460000  1
  17154  17155  17161  17167     1  0.0000000  0.6694400  3
  17155  17154  17162  17165     1  0.0000000  1.0460000  1
  17155  17154  17162  17165     1  0.0000000  0.6694400  3
  17156  17155  17154  17158     1  0.0000000  0.6508444  3
  17156  17155  17161  17167     1  0.0000000  1.0460000  1
  17156  17155  17161  17167     1  0.0000000  0.6694400  3
  17157  17155  17154  17162     1  0.0000000  1.0460000  1
  17157  17155  17154  17162     1  0.0000000  0.0000000  3
  17157  17155  17154  17158     1  0.0000000  0.6508444  3
  17157  17155  17156  17160     1  0.0000000  1.0460000  1
  17157  17155  17156  17160     1  0.0000000  0.0000000  3
  17157  17155  17156  17172     1  0.0000000  1.0460000  1
  17157  17155  17156  17172     1  0.0000000  0.0000000  3
  17157  17155  17156  17159     1  0.0000000  0.6508444  3
  17157  17155  17161  17167     1  0.0000000  0.6973333  3
  17158  17154  17151  17163     1  0.0000000  1.0460000  1
  17158  17154  17151  17163     1  0.0000000  0.0000000  3
  17158  17154  17155  17161     1  0.0000000  1.0460000  1
  17158  17154  17155  17161     1  0.0000000  0.0000000  3
  17158  17154  17162  17165     1  0.0000000  0.6973333  3
  17159  17156  17155  17161     1  0.0000000  0.6508444  3
  17168  17164  17150  17172     1  0.0000000  1.0460000  1
  17168  17164  17150  17172     1  0.0000000  0.0000000  3
  17168  17164  17170  17171     1  0.0000000  0.6973333  3
  17169  17164  17150  17172     1  0.0000000  1.0460000  1
  17169  17164  17150  17172     1  0.0000000  0.0000000  3
  17169  17164  17170  17171     1  0.0000000  0.6973333  3
  17173  17174  17177  17181     1  0.0000000  0.6508444  3
  17173  17174  17186  17189     1  0.0000000  1.0460000  1
  17173  17174  17186  17189     1  0.0000000  0.6694400  3
  17173  17187  17193  17194     1  0.0000000  1.0460000  1
  17173  17187  17193  17194     1  0.0000000  0.6694400  3
  17173  17195  17179  17182     1  0.0000000  1.6038667  3
  17174  17177  17178  17180     1  0.0000000  0.6508444  3
  17174  17177  17185  17188     1  0.0000000  1.0460000  1
  17174  17177  17185  17188     1  0.0000000  0.6694400  3
  17174  17173  17187  17191     1  0.0000000  0.6508444  3
  17174  17173  17187  17192     1  0.0000000  0.6508444  3
  17175  17173  17174  17177     1  0.0000000  0.6508444  3
  17175  17173  17174  17186     1  0.0000000  1.0460000  1
  17175  17173  17174  17186     1  0.0000000  0.0000000  3
  17175  17173  17174  17176     1  0.0000000  0.6508444  3
  17175  17173  17187  17193     1  0.0000000  1.0460000  1
  17175  17173  17187  17193     1  0.0000000  0.0000000  3
  17175  17173  17187  17191     1  0.0000000  0.6508444  3
  17175  17173  17187  17192     1  0.0000000  0.6508444  3
  17175  17173  17195  17179     1  0.0000000  1.6038667  3
  17176  17174  17177  17178     1  0.0000000  0.6508444  3
  17176  17174  17177  17185     1  0.0000000  1.0460000  1
  17176  17174  17177  17185     1  0.0000000  0.0000000  3
  17176  17174  17177  17181     1  0.0000000  0.6508444  3
  17176  17174  17186  17189     1  0.0000000  0.6973333  3
  17176  17174  17173  17187     1  0.0000000  0.6508444  3
  17176  17174  17173  17195     1  0.0000000  1.0460000  1
  17176  17174  17173  17195     1  0.0000000  0.0000000  3
  17177  17178  17179  17182     1  0.0000000  0.6508444  3
  17177  17178  17184  17190     1  0.0000000  1.0460000  1
  17177  17178  17184  17190     1  0.0000000  0.6694400  3
  17177  17174  17186  17189     1  0.0000000  1.0460000  1
  17177  17174  17186  17189     1  0.0000000  0.6694400  3
  17178  17177  17185  17188     1  0.0000000  1.0460000  1
  17178  17177  17185  17188     1  0.0000000  0.6694400  3
  17179  17178  17184  17190     1  0.0000000  1.0460000  1
  17179  17178  17184  17190     1  0.0000000  0.6694400  3
  17179  17178  17177  17181     1  0.0000000  0.6508444  3
  17180  17178  17179  17183     1  0.0000000  1.0460000  1
  17180  17178  17179  17183     1  0.0000000  0.0000000  3
  17180  17178  17179  17195     1  0.0000000  1.0460000  1
  17180  17178  17179  17195     1  0.0000000  0.0000000  3
  17180  17178  17179  17182     1  0.0000000  0.6508444  3
  17180  17178  17184  17190     1  0.0000000  0.6973333  3
  17180  17178  17177  17185     1  0.0000000  1.0460000  1
  17180  17178  17177  17185     1  0.0000000  0.0000000  3
  17180  17178  17177  17181     1  0.0000000  0.6508444  3
  17181  17177  17178  17184     1  0.0000000  1.0460000  1
  17181  17177  17178  17184     1  0.0000000  0.0000000  3
  17181  17177  17185  17188     1  0.0000000  0.6973333  3
  17181  17177  17174  17186     1  0.0000000  1.0460000  1
  17181  17177  17174  17186     1  0.0000000  0.0000000  3
  17182  17179  17178  17184     1  0.0000000  0.6508444  3
  17191  17187  17193  17194     1  0.0000000  0.6973333  3
  17191  17187  17173  17195     1  0.0000000  1.0460000  1
  17191  17187  17173  17195     1  0.0000000  0.0000000  3
  17192  17187  17193  17194     1  0.0000000  0.6973333  3
  17192  17187  17173  17195     1  0.0000000  1.0460000  1
  17192  17187  17173  17195     1  0.0000000  0.0000000  3
  17196  17197  17200  17204     1  0.0000000  0.6508444  3
  17196  17197  17209  17212     1  0.0000000  1.0460000  1
  17196  17197  17209  17212     1  0.0000000  0.6694400  3
  17196  17210  17216  17217     1  0.0000000  1.0460000  1
  17196  17210  17216  17217     1  0.0000000  0.6694400  3
  17196  17218  17202  17205     1  0.0000000  1.6038667  3
  17197  17196  17210  17214     1  0.0000000  0.6508444  3
  17197  17196  17210  17215     1  0.0000000  0.6508444  3
  17197  17200  17201  17203     1  0.0000000  0.6508444  3
  17197  17200  17208  17211     1  0.0000000  1.0460000  1
  17197  17200  17208  17211     1  0.0000000  0.6694400  3
  17198  17196  17197  17200     1  0.0000000  0.6508444  3
  17198  17196  17197  17209     1  0.0000000  1.0460000  1
  17198  17196  17197  17209     1  0.0000000  0.0000000  3
  17198  17196  17197  17199     1  0.0000000  0.6508444  3
  17198  17196  17210  17216     1  0.0000000  1.0460000  1
  17198  17196  17210  17216     1  0.0000000  0.0000000  3
  17198  17196  17210  17214     1  0.0000000  0.6508444  3
  17198  17196  17210  17215     1  0.0000000  0.6508444  3
  17198  17196  17218  17202     1  0.0000000  1.6038667  3
  17199  17197  17196  17210     1  0.0000000  0.6508444  3
  17199  17197  17196  17218     1  0.0000000  1.0460000  1
  17199  17197  17196  17218     1  0.0000000  0.0000000  3
  17199  17197  17200  17201     1  0.0000000  0.6508444  3
  17199  17197  17200  17208     1  0.0000000  1.0460000  1
  17199  17197  17200  17208     1  0.0000000  0.0000000  3
  17199  17197  17200  17204     1  0.0000000  0.6508444  3
  17199  17197  17209  17212     1  0.0000000  0.6973333  3
  17200  17197  17209  17212     1  0.0000000  1.0460000  1
  17200  17197  17209  17212     1  0.0000000  0.6694400  3
  17200  17201  17202  17205     1  0.0000000  0.6508444  3
  17200  17201  17207  17213     1  0.0000000  1.0460000  1
  17200  17201  17207  17213     1  0.0000000  0.6694400  3
  17201  17200  17208  17211     1  0.0000000  1.0460000  1
  17201  17200  17208  17211     1  0.0000000  0.6694400  3
  17202  17201  17200  17204     1  0.0000000  0.6508444  3
  17202  17201  17207  17213     1  0.0000000  1.0460000  1
  17202  17201  17207  17213     1  0.0000000  0.6694400  3
  17203  17201  17200  17208     1  0.0000000  1.0460000  1
  17203  17201  17200  17208     1  0.0000000  0.0000000  3
  17203  17201  17200  17204     1  0.0000000  0.6508444  3
  17203  17201  17202  17206     1  0.0000000  1.0460000  1
  17203  17201  17202  17206     1  0.0000000  0.0000000  3
  17203  17201  17202  17218     1  0.0000000  1.0460000  1
  17203  17201  17202  17218     1  0.0000000  0.0000000  3
  17203  17201  17202  17205     1  0.0000000  0.6508444  3
  17203  17201  17207  17213     1  0.0000000  0.6973333  3
  17204  17200  17197  17209     1  0.0000000  1.0460000  1
  17204  17200  17197  17209     1  0.0000000  0.0000000  3
  17204  17200  17201  17207     1  0.0000000  1.0460000  1
  17204  17200  17201  17207     1  0.0000000  0.0000000  3
  17204  17200  17208  17211     1  0.0000000  0.6973333  3
  17205  17202  17201  17207     1  0.0000000  0.6508444  3
  17214  17210  17196  17218     1  0.0000000  1.0460000  1
  17214  17210  17196  17218     1  0.0000000  0.0000000  3
  17214  17210  17216  17217     1  0.0000000  0.6973333  3
  17215  17210  17196  17218     1  0.0000000  1.0460000  1
  17215  17210  17196  17218     1  0.0000000  0.0000000  3
  17215  17210  17216  17217     1  0.0000000  0.6973333  3
  17219  17220  17223  17227     1  0.0000000  0.6508444  3
  17219  17220  17232  17235     1  0.0000000  1.0460000  1
  17219  17220  17232  17235     1  0.0000000  0.6694400  3
  17219  17233  17239  17240     1  0.0000000  1.0460000  1
  17219  17233  17239  17240     1  0.0000000  0.6694400  3
  17219  17241  17225  17228     1  0.0000000  1.6038667  3
  17220  17223  17224  17226     1  0.0000000  0.6508444  3
  17220  17223  17231  17234     1  0.0000000  1.0460000  1
  17220  17223  17231  17234     1  0.0000000  0.6694400  3
  17220  17219  17233  17237     1  0.0000000  0.6508444  3
  17220  17219  17233  17238     1  0.0000000  0.6508444  3
  17221  17219  17220  17223     1  0.0000000  0.6508444  3
  17221  17219  17220  17232     1  0.0000000  1.0460000  1
  17221  17219  17220  17232     1  0.0000000  0.0000000  3
  17221  17219  17220  17222     1  0.0000000  0.6508444  3
  17221  17219  17233  17239     1  0.0000000  1.0460000  1
  17221  17219  17233  17239     1  0.0000000  0.0000000  3
  17221  17219  17233  17237     1  0.0000000  0.6508444  3
  17221  17219  17233  17238     1  0.0000000  0.6508444  3
  17221  17219  17241  17225     1  0.0000000  1.6038667  3
  17222  17220  17223  17224     1  0.0000000  0.6508444  3
  17222  17220  17223  17231     1  0.0000000  1.0460000  1
  17222  17220  17223  17231     1  0.0000000  0.0000000  3
  17222  17220  17223  17227     1  0.0000000  0.6508444  3
  17222  17220  17232  17235     1  0.0000000  0.6973333  3
  17222  17220  17219  17233     1  0.0000000  0.6508444  3
  17222  17220  17219  17241     1  0.0000000  1.0460000  1
  17222  17220  17219  17241     1  0.0000000  0.0000000  3
  17223  17224  17225  17228     1  0.0000000  0.6508444  3
  17223  17224  17230  17236     1  0.0000000  1.0460000  1
  17223  17224  17230  17236     1  0.0000000  0.6694400  3
  17223  17220  17232  17235     1  0.0000000  1.0460000  1
  17223  17220  17232  17235     1  0.0000000  0.6694400  3
  17224  17223  17231  17234     1  0.0000000  1.0460000  1
  17224  17223  17231  17234     1  0.0000000  0.6694400  3
  17225  17224  17230  17236     1  0.0000000  1.0460000  1
  17225  17224  17230  17236     1  0.0000000  0.6694400  3
  17225  17224  17223  17227     1  0.0000000  0.6508444  3
  17226  17224  17225  17229     1  0.0000000  1.0460000  1
  17226  17224  17225  17229     1  0.0000000  0.0000000  3
  17226  17224  17225  17241     1  0.0000000  1.0460000  1
  17226  17224  17225  17241     1  0.0000000  0.0000000  3
  17226  17224  17225  17228     1  0.0000000  0.6508444  3
  17226  17224  17230  17236     1  0.0000000  0.6973333  3
  17226  17224  17223  17231     1  0.0000000  1.0460000  1
  17226  17224  17223  17231     1  0.0000000  0.0000000  3
  17226  17224  17223  17227     1  0.0000000  0.6508444  3
  17227  17223  17224  17230     1  0.0000000  1.0460000  1
  17227  17223  17224  17230     1  0.0000000  0.0000000  3
  17227  17223  17231  17234     1  0.0000000  0.6973333  3
  17227  17223  17220  17232     1  0.0000000  1.0460000  1
  17227  17223  17220  17232     1  0.0000000  0.0000000  3
  17228  17225  17224  17230     1  0.0000000  0.6508444  3
  17237  17233  17239  17240     1  0.0000000  0.6973333  3
  17237  17233  17219  17241     1  0.0000000  1.0460000  1
  17237  17233  17219  17241     1  0.0000000  0.0000000  3
  17238  17233  17239  17240     1  0.0000000  0.6973333  3
  17238  17233  17219  17241     1  0.0000000  1.0460000  1
  17238  17233  17219  17241     1  0.0000000  0.0000000  3
  17242  17243  17246  17250     1  0.0000000  0.6508444  3
  17242  17243  17255  17258     1  0.0000000  1.0460000  1
  17242  17243  17255  17258     1  0.0000000  0.6694400  3
  17242  17256  17262  17263     1  0.0000000  1.0460000  1
  17242  17256  17262  17263     1  0.0000000  0.6694400  3
  17242  17264  17248  17251     1  0.0000000  1.6038667  3
  17243  17242  17256  17260     1  0.0000000  0.6508444  3
  17243  17242  17256  17261     1  0.0000000  0.6508444  3
  17243  17246  17247  17249     1  0.0000000  0.6508444  3
  17243  17246  17254  17257     1  0.0000000  1.0460000  1
  17243  17246  17254  17257     1  0.0000000  0.6694400  3
  17244  17242  17243  17246     1  0.0000000  0.6508444  3
  17244  17242  17243  17255     1  0.0000000  1.0460000  1
  17244  17242  17243  17255     1  0.0000000  0.0000000  3
  17244  17242  17243  17245     1  0.0000000  0.6508444  3
  17244  17242  17256  17262     1  0.0000000  1.0460000  1
  17244  17242  17256  17262     1  0.0000000  0.0000000  3
  17244  17242  17256  17260     1  0.0000000  0.6508444  3
  17244  17242  17256  17261     1  0.0000000  0.6508444  3
  17244  17242  17264  17248     1  0.0000000  1.6038667  3
  17245  17243  17242  17256     1  0.0000000  0.6508444  3
  17245  17243  17242  17264     1  0.0000000  1.0460000  1
  17245  17243  17242  17264     1  0.0000000  0.0000000  3
  17245  17243  17246  17247     1  0.0000000  0.6508444  3
  17245  17243  17246  17254     1  0.0000000  1.0460000  1
  17245  17243  17246  17254     1  0.0000000  0.0000000  3
  17245  17243  17246  17250     1  0.0000000  0.6508444  3
  17245  17243  17255  17258     1  0.0000000  0.6973333  3
  17246  17243  17255  17258     1  0.0000000  1.0460000  1
  17246  17243  17255  17258     1  0.0000000  0.6694400  3
  17246  17247  17248  17251     1  0.0000000  0.6508444  3
  17246  17247  17253  17259     1  0.0000000  1.0460000  1
  17246  17247  17253  17259     1  0.0000000  0.6694400  3
  17247  17246  17254  17257     1  0.0000000  1.0460000  1
  17247  17246  17254  17257     1  0.0000000  0.6694400  3
  17248  17247  17246  17250     1  0.0000000  0.6508444  3
  17248  17247  17253  17259     1  0.0000000  1.0460000  1
  17248  17247  17253  17259     1  0.0000000  0.6694400  3
  17249  17247  17246  17254     1  0.0000000  1.0460000  1
  17249  17247  17246  17254     1  0.0000000  0.0000000  3
  17249  17247  17246  17250     1  0.0000000  0.6508444  3
  17249  17247  17248  17252     1  0.0000000  1.0460000  1
  17249  17247  17248  17252     1  0.0000000  0.0000000  3
  17249  17247  17248  17264     1  0.0000000  1.0460000  1
  17249  17247  17248  17264     1  0.0000000  0.0000000  3
  17249  17247  17248  17251     1  0.0000000  0.6508444  3
  17249  17247  17253  17259     1  0.0000000  0.6973333  3
  17250  17246  17243  17255     1  0.0000000  1.0460000  1
  17250  17246  17243  17255     1  0.0000000  0.0000000  3
  17250  17246  17247  17253     1  0.0000000  1.0460000  1
  17250  17246  17247  17253     1  0.0000000  0.0000000  3
  17250  17246  17254  17257     1  0.0000000  0.6973333  3
  17251  17248  17247  17253     1  0.0000000  0.6508444  3
  17260  17256  17242  17264     1  0.0000000  1.0460000  1
  17260  17256  17242  17264     1  0.0000000  0.0000000  3
  17260  17256  17262  17263     1  0.0000000  0.6973333  3
  17261  17256  17242  17264     1  0.0000000  1.0460000  1
  17261  17256  17242  17264     1  0.0000000  0.0000000  3
  17261  17256  17262  17263     1  0.0000000  0.6973333  3
  17265  17266  17269  17273     1  0.0000000  0.6508444  3
  17265  17266  17278  17281     1  0.0000000  1.0460000  1
  17265  17266  17278  17281     1  0.0000000  0.6694400  3
  17265  17279  17285  17286     1  0.0000000  1.0460000  1
  17265  17279  17285  17286     1  0.0000000  0.6694400  3
  17265  17287  17271  17274     1  0.0000000  1.6038667  3
  17266  17269  17270  17272     1  0.0000000  0.6508444  3
  17266  17269  17277  17280     1  0.0000000  1.0460000  1
  17266  17269  17277  17280     1  0.0000000  0.6694400  3
  17266  17265  17279  17283     1  0.0000000  0.6508444  3
  17266  17265  17279  17284     1  0.0000000  0.6508444  3
  17267  17265  17266  17269     1  0.0000000  0.6508444  3
  17267  17265  17266  17278     1  0.0000000  1.0460000  1
  17267  17265  17266  17278     1  0.0000000  0.0000000  3
  17267  17265  17266  17268     1  0.0000000  0.6508444  3
  17267  17265  17279  17285     1  0.0000000  1.0460000  1
  17267  17265  17279  17285     1  0.0000000  0.0000000  3
  17267  17265  17279  17283     1  0.0000000  0.6508444  3
  17267  17265  17279  17284     1  0.0000000  0.6508444  3
  17267  17265  17287  17271     1  0.0000000  1.6038667  3
  17268  17266  17269  17270     1  0.0000000  0.6508444  3
  17268  17266  17269  17277     1  0.0000000  1.0460000  1
  17268  17266  17269  17277     1  0.0000000  0.0000000  3
  17268  17266  17269  17273     1  0.0000000  0.6508444  3
  17268  17266  17278  17281     1  0.0000000  0.6973333  3
  17268  17266  17265  17279     1  0.0000000  0.6508444  3
  17268  17266  17265  17287     1  0.0000000  1.0460000  1
  17268  17266  17265  17287     1  0.0000000  0.0000000  3
  17269  17270  17271  17274     1  0.0000000  0.6508444  3
  17269  17270  17276  17282     1  0.0000000  1.0460000  1
  17269  17270  17276  17282     1  0.0000000  0.6694400  3
  17269  17266  17278  17281     1  0.0000000  1.0460000  1
  17269  17266  17278  17281     1  0.0000000  0.6694400  3
  17270  17269  17277  17280     1  0.0000000  1.0460000  1
  17270  17269  17277  17280     1  0.0000000  0.6694400  3
  17271  17270  17276  17282     1  0.0000000  1.0460000  1
  17271  17270  17276  17282     1  0.0000000  0.6694400  3
  17271  17270  17269  17273     1  0.0000000  0.6508444  3
  17272  17270  17271  17275     1  0.0000000  1.0460000  1
  17272  17270  17271  17275     1  0.0000000  0.0000000  3
  17272  17270  17271  17287     1  0.0000000  1.0460000  1
  17272  17270  17271  17287     1  0.0000000  0.0000000  3
  17272  17270  17271  17274     1  0.0000000  0.6508444  3
  17272  17270  17276  17282     1  0.0000000  0.6973333  3
  17272  17270  17269  17277     1  0.0000000  1.0460000  1
  17272  17270  17269  17277     1  0.0000000  0.0000000  3
  17272  17270  17269  17273     1  0.0000000  0.6508444  3
  17273  17269  17270  17276     1  0.0000000  1.0460000  1
  17273  17269  17270  17276     1  0.0000000  0.0000000  3
  17273  17269  17277  17280     1  0.0000000  0.6973333  3
  17273  17269  17266  17278     1  0.0000000  1.0460000  1
  17273  17269  17266  17278     1  0.0000000  0.0000000  3
  17274  17271  17270  17276     1  0.0000000  0.6508444  3
  17283  17279  17285  17286     1  0.0000000  0.6973333  3
  17283  17279  17265  17287     1  0.0000000  1.0460000  1
  17283  17279  17265  17287     1  0.0000000  0.0000000  3
  17284  17279  17285  17286     1  0.0000000  0.6973333  3
  17284  17279  17265  17287     1  0.0000000  1.0460000  1
  17284  17279  17265  17287     1  0.0000000  0.0000000  3
  17288  17289  17292  17296     1  0.0000000  0.6508444  3
  17288  17289  17301  17304     1  0.0000000  1.0460000  1
  17288  17289  17301  17304     1  0.0000000  0.6694400  3
  17288  17302  17308  17309     1  0.0000000  1.0460000  1
  17288  17302  17308  17309     1  0.0000000  0.6694400  3
  17288  17310  17294  17297     1  0.0000000  1.6038667  3
  17289  17288  17302  17306     1  0.0000000  0.6508444  3
  17289  17288  17302  17307     1  0.0000000  0.6508444  3
  17289  17292  17293  17295     1  0.0000000  0.6508444  3
  17289  17292  17300  17303     1  0.0000000  1.0460000  1
  17289  17292  17300  17303     1  0.0000000  0.6694400  3
  17290  17288  17289  17292     1  0.0000000  0.6508444  3
  17290  17288  17289  17301     1  0.0000000  1.0460000  1
  17290  17288  17289  17301     1  0.0000000  0.0000000  3
  17290  17288  17289  17291     1  0.0000000  0.6508444  3
  17290  17288  17302  17308     1  0.0000000  1.0460000  1
  17290  17288  17302  17308     1  0.0000000  0.0000000  3
  17290  17288  17302  17306     1  0.0000000  0.6508444  3
  17290  17288  17302  17307     1  0.0000000  0.6508444  3
  17290  17288  17310  17294     1  0.0000000  1.6038667  3
  17291  17289  17288  17302     1  0.0000000  0.6508444  3
  17291  17289  17288  17310     1  0.0000000  1.0460000  1
  17291  17289  17288  17310     1  0.0000000  0.0000000  3
  17291  17289  17292  17293     1  0.0000000  0.6508444  3
  17291  17289  17292  17300     1  0.0000000  1.0460000  1
  17291  17289  17292  17300     1  0.0000000  0.0000000  3
  17291  17289  17292  17296     1  0.0000000  0.6508444  3
  17291  17289  17301  17304     1  0.0000000  0.6973333  3
  17292  17289  17301  17304     1  0.0000000  1.0460000  1
  17292  17289  17301  17304     1  0.0000000  0.6694400  3
  17292  17293  17294  17297     1  0.0000000  0.6508444  3
  17292  17293  17299  17305     1  0.0000000  1.0460000  1
  17292  17293  17299  17305     1  0.0000000  0.6694400  3
  17293  17292  17300  17303     1  0.0000000  1.0460000  1
  17293  17292  17300  17303     1  0.0000000  0.6694400  3
  17294  17293  17292  17296     1  0.0000000  0.6508444  3
  17294  17293  17299  17305     1  0.0000000  1.0460000  1
  17294  17293  17299  17305     1  0.0000000  0.6694400  3
  17295  17293  17292  17300     1  0.0000000  1.0460000  1
  17295  17293  17292  17300     1  0.0000000  0.0000000  3
  17295  17293  17292  17296     1  0.0000000  0.6508444  3
  17295  17293  17294  17298     1  0.0000000  1.0460000  1
  17295  17293  17294  17298     1  0.0000000  0.0000000  3
  17295  17293  17294  17310     1  0.0000000  1.0460000  1
  17295  17293  17294  17310     1  0.0000000  0.0000000  3
  17295  17293  17294  17297     1  0.0000000  0.6508444  3
  17295  17293  17299  17305     1  0.0000000  0.6973333  3
  17296  17292  17289  17301     1  0.0000000  1.0460000  1
  17296  17292  17289  17301     1  0.0000000  0.0000000  3
  17296  17292  17293  17299     1  0.0000000  1.0460000  1
  17296  17292  17293  17299     1  0.0000000  0.0000000  3
  17296  17292  17300  17303     1  0.0000000  0.6973333  3
  17297  17294  17293  17299     1  0.0000000  0.6508444  3
  17306  17302  17288  17310     1  0.0000000  1.0460000  1
  17306  17302  17288  17310     1  0.0000000  0.0000000  3
  17306  17302  17308  17309     1  0.0000000  0.6973333  3
  17307  17302  17288  17310     1  0.0000000  1.0460000  1
  17307  17302  17288  17310     1  0.0000000  0.0000000  3
  17307  17302  17308  17309     1  0.0000000  0.6973333  3
  17311  17312  17315  17319     1  0.0000000  0.6508444  3
  17311  17312  17324  17327     1  0.0000000  1.0460000  1
  17311  17312  17324  17327     1  0.0000000  0.6694400  3
  17311  17325  17331  17332     1  0.0000000  1.0460000  1
  17311  17325  17331  17332     1  0.0000000  0.6694400  3
  17311  17333  17317  17320     1  0.0000000  1.6038667  3
  17312  17315  17316  17318     1  0.0000000  0.6508444  3
  17312  17315  17323  17326     1  0.0000000  1.0460000  1
  17312  17315  17323  17326     1  0.0000000  0.6694400  3
  17312  17311  17325  17329     1  0.0000000  0.6508444  3
  17312  17311  17325  17330     1  0.0000000  0.6508444  3
  17313  17311  17312  17315     1  0.0000000  0.6508444  3
  17313  17311  17312  17324     1  0.0000000  1.0460000  1
  17313  17311  17312  17324     1  0.0000000  0.0000000  3
  17313  17311  17312  17314     1  0.0000000  0.6508444  3
  17313  17311  17325  17331     1  0.0000000  1.0460000  1
  17313  17311  17325  17331     1  0.0000000  0.0000000  3
  17313  17311  17325  17329     1  0.0000000  0.6508444  3
  17313  17311  17325  17330     1  0.0000000  0.6508444  3
  17313  17311  17333  17317     1  0.0000000  1.6038667  3
  17314  17312  17315  17316     1  0.0000000  0.6508444  3
  17314  17312  17315  17323     1  0.0000000  1.0460000  1
  17314  17312  17315  17323     1  0.0000000  0.0000000  3
  17314  17312  17315  17319     1  0.0000000  0.6508444  3
  17314  17312  17324  17327     1  0.0000000  0.6973333  3
  17314  17312  17311  17325     1  0.0000000  0.6508444  3
  17314  17312  17311  17333     1  0.0000000  1.0460000  1
  17314  17312  17311  17333     1  0.0000000  0.0000000  3
  17315  17316  17317  17320     1  0.0000000  0.6508444  3
  17315  17316  17322  17328     1  0.0000000  1.0460000  1
  17315  17316  17322  17328     1  0.0000000  0.6694400  3
  17315  17312  17324  17327     1  0.0000000  1.0460000  1
  17315  17312  17324  17327     1  0.0000000  0.6694400  3
  17316  17315  17323  17326     1  0.0000000  1.0460000  1
  17316  17315  17323  17326     1  0.0000000  0.6694400  3
  17317  17316  17322  17328     1  0.0000000  1.0460000  1
  17317  17316  17322  17328     1  0.0000000  0.6694400  3
  17317  17316  17315  17319     1  0.0000000  0.6508444  3
  17318  17316  17317  17321     1  0.0000000  1.0460000  1
  17318  17316  17317  17321     1  0.0000000  0.0000000  3
  17318  17316  17317  17333     1  0.0000000  1.0460000  1
  17318  17316  17317  17333     1  0.0000000  0.0000000  3
  17318  17316  17317  17320     1  0.0000000  0.6508444  3
  17318  17316  17322  17328     1  0.0000000  0.6973333  3
  17318  17316  17315  17323     1  0.0000000  1.0460000  1
  17318  17316  17315  17323     1  0.0000000  0.0000000  3
  17318  17316  17315  17319     1  0.0000000  0.6508444  3
  17319  17315  17316  17322     1  0.0000000  1.0460000  1
  17319  17315  17316  17322     1  0.0000000  0.0000000  3
  17319  17315  17323  17326     1  0.0000000  0.6973333  3
  17319  17315  17312  17324     1  0.0000000  1.0460000  1
  17319  17315  17312  17324     1  0.0000000  0.0000000  3
  17320  17317  17316  17322     1  0.0000000  0.6508444  3
  17329  17325  17331  17332     1  0.0000000  0.6973333  3
  17329  17325  17311  17333     1  0.0000000  1.0460000  1
  17329  17325  17311  17333     1  0.0000000  0.0000000  3
  17330  17325  17331  17332     1  0.0000000  0.6973333  3
  17330  17325  17311  17333     1  0.0000000  1.0460000  1
  17330  17325  17311  17333     1  0.0000000  0.0000000  3
  17334  17335  17338  17342     1  0.0000000  0.6508444  3
  17334  17335  17347  17350     1  0.0000000  1.0460000  1
  17334  17335  17347  17350     1  0.0000000  0.6694400  3
  17334  17348  17354  17355     1  0.0000000  1.0460000  1
  17334  17348  17354  17355     1  0.0000000  0.6694400  3
  17334  17356  17340  17343     1  0.0000000  1.6038667  3
  17335  17334  17348  17352     1  0.0000000  0.6508444  3
  17335  17334  17348  17353     1  0.0000000  0.6508444  3
  17335  17338  17339  17341     1  0.0000000  0.6508444  3
  17335  17338  17346  17349     1  0.0000000  1.0460000  1
  17335  17338  17346  17349     1  0.0000000  0.6694400  3
  17336  17334  17335  17338     1  0.0000000  0.6508444  3
  17336  17334  17335  17347     1  0.0000000  1.0460000  1
  17336  17334  17335  17347     1  0.0000000  0.0000000  3
  17336  17334  17335  17337     1  0.0000000  0.6508444  3
  17336  17334  17348  17354     1  0.0000000  1.0460000  1
  17336  17334  17348  17354     1  0.0000000  0.0000000  3
  17336  17334  17348  17352     1  0.0000000  0.6508444  3
  17336  17334  17348  17353     1  0.0000000  0.6508444  3
  17336  17334  17356  17340     1  0.0000000  1.6038667  3
  17337  17335  17334  17348     1  0.0000000  0.6508444  3
  17337  17335  17334  17356     1  0.0000000  1.0460000  1
  17337  17335  17334  17356     1  0.0000000  0.0000000  3
  17337  17335  17338  17339     1  0.0000000  0.6508444  3
  17337  17335  17338  17346     1  0.0000000  1.0460000  1
  17337  17335  17338  17346     1  0.0000000  0.0000000  3
  17337  17335  17338  17342     1  0.0000000  0.6508444  3
  17337  17335  17347  17350     1  0.0000000  0.6973333  3
  17338  17335  17347  17350     1  0.0000000  1.0460000  1
  17338  17335  17347  17350     1  0.0000000  0.6694400  3
  17338  17339  17340  17343     1  0.0000000  0.6508444  3
  17338  17339  17345  17351     1  0.0000000  1.0460000  1
  17338  17339  17345  17351     1  0.0000000  0.6694400  3
  17339  17338  17346  17349     1  0.0000000  1.0460000  1
  17339  17338  17346  17349     1  0.0000000  0.6694400  3
  17340  17339  17338  17342     1  0.0000000  0.6508444  3
  17340  17339  17345  17351     1  0.0000000  1.0460000  1
  17340  17339  17345  17351     1  0.0000000  0.6694400  3
  17341  17339  17338  17346     1  0.0000000  1.0460000  1
  17341  17339  17338  17346     1  0.0000000  0.0000000  3
  17341  17339  17338  17342     1  0.0000000  0.6508444  3
  17341  17339  17340  17344     1  0.0000000  1.0460000  1
  17341  17339  17340  17344     1  0.0000000  0.0000000  3
  17341  17339  17340  17356     1  0.0000000  1.0460000  1
  17341  17339  17340  17356     1  0.0000000  0.0000000  3
  17341  17339  17340  17343     1  0.0000000  0.6508444  3
  17341  17339  17345  17351     1  0.0000000  0.6973333  3
  17342  17338  17335  17347     1  0.0000000  1.0460000  1
  17342  17338  17335  17347     1  0.0000000  0.0000000  3
  17342  17338  17339  17345     1  0.0000000  1.0460000  1
  17342  17338  17339  17345     1  0.0000000  0.0000000  3
  17342  17338  17346  17349     1  0.0000000  0.6973333  3
  17343  17340  17339  17345     1  0.0000000  0.6508444  3
  17352  17348  17334  17356     1  0.0000000  1.0460000  1
  17352  17348  17334  17356     1  0.0000000  0.0000000  3
  17352  17348  17354  17355     1  0.0000000  0.6973333  3
  17353  17348  17334  17356     1  0.0000000  1.0460000  1
  17353  17348  17334  17356     1  0.0000000  0.0000000  3
  17353  17348  17354  17355     1  0.0000000  0.6973333  3
  17357  17358  17361  17365     1  0.0000000  0.6508444  3
  17357  17358  17370  17373     1  0.0000000  1.0460000  1
  17357  17358  17370  17373     1  0.0000000  0.6694400  3
  17357  17371  17377  17378     1  0.0000000  1.0460000  1
  17357  17371  17377  17378     1  0.0000000  0.6694400  3
  17357  17379  17363  17366     1  0.0000000  1.6038667  3
  17358  17361  17362  17364     1  0.0000000  0.6508444  3
  17358  17361  17369  17372     1  0.0000000  1.0460000  1
  17358  17361  17369  17372     1  0.0000000  0.6694400  3
  17358  17357  17371  17375     1  0.0000000  0.6508444  3
  17358  17357  17371  17376     1  0.0000000  0.6508444  3
  17359  17357  17358  17361     1  0.0000000  0.6508444  3
  17359  17357  17358  17370     1  0.0000000  1.0460000  1
  17359  17357  17358  17370     1  0.0000000  0.0000000  3
  17359  17357  17358  17360     1  0.0000000  0.6508444  3
  17359  17357  17371  17377     1  0.0000000  1.0460000  1
  17359  17357  17371  17377     1  0.0000000  0.0000000  3
  17359  17357  17371  17375     1  0.0000000  0.6508444  3
  17359  17357  17371  17376     1  0.0000000  0.6508444  3
  17359  17357  17379  17363     1  0.0000000  1.6038667  3
  17360  17358  17361  17362     1  0.0000000  0.6508444  3
  17360  17358  17361  17369     1  0.0000000  1.0460000  1
  17360  17358  17361  17369     1  0.0000000  0.0000000  3
  17360  17358  17361  17365     1  0.0000000  0.6508444  3
  17360  17358  17370  17373     1  0.0000000  0.6973333  3
  17360  17358  17357  17371     1  0.0000000  0.6508444  3
  17360  17358  17357  17379     1  0.0000000  1.0460000  1
  17360  17358  17357  17379     1  0.0000000  0.0000000  3
  17361  17362  17363  17366     1  0.0000000  0.6508444  3
  17361  17362  17368  17374     1  0.0000000  1.0460000  1
  17361  17362  17368  17374     1  0.0000000  0.6694400  3
  17361  17358  17370  17373     1  0.0000000  1.0460000  1
  17361  17358  17370  17373     1  0.0000000  0.6694400  3
  17362  17361  17369  17372     1  0.0000000  1.0460000  1
  17362  17361  17369  17372     1  0.0000000  0.6694400  3
  17363  17362  17368  17374     1  0.0000000  1.0460000  1
  17363  17362  17368  17374     1  0.0000000  0.6694400  3
  17363  17362  17361  17365     1  0.0000000  0.6508444  3
  17364  17362  17363  17367     1  0.0000000  1.0460000  1
  17364  17362  17363  17367     1  0.0000000  0.0000000  3
  17364  17362  17363  17379     1  0.0000000  1.0460000  1
  17364  17362  17363  17379     1  0.0000000  0.0000000  3
  17364  17362  17363  17366     1  0.0000000  0.6508444  3
  17364  17362  17368  17374     1  0.0000000  0.6973333  3
  17364  17362  17361  17369     1  0.0000000  1.0460000  1
  17364  17362  17361  17369     1  0.0000000  0.0000000  3
  17364  17362  17361  17365     1  0.0000000  0.6508444  3
  17365  17361  17362  17368     1  0.0000000  1.0460000  1
  17365  17361  17362  17368     1  0.0000000  0.0000000  3
  17365  17361  17369  17372     1  0.0000000  0.6973333  3
  17365  17361  17358  17370     1  0.0000000  1.0460000  1
  17365  17361  17358  17370     1  0.0000000  0.0000000  3
  17366  17363  17362  17368     1  0.0000000  0.6508444  3
  17375  17371  17377  17378     1  0.0000000  0.6973333  3
  17375  17371  17357  17379     1  0.0000000  1.0460000  1
  17375  17371  17357  17379     1  0.0000000  0.0000000  3
  17376  17371  17377  17378     1  0.0000000  0.6973333  3
  17376  17371  17357  17379     1  0.0000000  1.0460000  1
  17376  17371  17357  17379     1  0.0000000  0.0000000  3
  17380  17381  17384  17388     1  0.0000000  0.6508444  3
  17380  17381  17393  17396     1  0.0000000  1.0460000  1
  17380  17381  17393  17396     1  0.0000000  0.6694400  3
  17380  17394  17400  17401     1  0.0000000  1.0460000  1
  17380  17394  17400  17401     1  0.0000000  0.6694400  3
  17380  17402  17386  17389     1  0.0000000  1.6038667  3
  17381  17380  17394  17398     1  0.0000000  0.6508444  3
  17381  17380  17394  17399     1  0.0000000  0.6508444  3
  17381  17384  17385  17387     1  0.0000000  0.6508444  3
  17381  17384  17392  17395     1  0.0000000  1.0460000  1
  17381  17384  17392  17395     1  0.0000000  0.6694400  3
  17382  17380  17381  17384     1  0.0000000  0.6508444  3
  17382  17380  17381  17393     1  0.0000000  1.0460000  1
  17382  17380  17381  17393     1  0.0000000  0.0000000  3
  17382  17380  17381  17383     1  0.0000000  0.6508444  3
  17382  17380  17394  17400     1  0.0000000  1.0460000  1
  17382  17380  17394  17400     1  0.0000000  0.0000000  3
  17382  17380  17394  17398     1  0.0000000  0.6508444  3
  17382  17380  17394  17399     1  0.0000000  0.6508444  3
  17382  17380  17402  17386     1  0.0000000  1.6038667  3
  17383  17381  17380  17394     1  0.0000000  0.6508444  3
  17383  17381  17380  17402     1  0.0000000  1.0460000  1
  17383  17381  17380  17402     1  0.0000000  0.0000000  3
  17383  17381  17384  17385     1  0.0000000  0.6508444  3
  17383  17381  17384  17392     1  0.0000000  1.0460000  1
  17383  17381  17384  17392     1  0.0000000  0.0000000  3
  17383  17381  17384  17388     1  0.0000000  0.6508444  3
  17383  17381  17393  17396     1  0.0000000  0.6973333  3
  17384  17381  17393  17396     1  0.0000000  1.0460000  1
  17384  17381  17393  17396     1  0.0000000  0.6694400  3
  17384  17385  17386  17389     1  0.0000000  0.6508444  3
  17384  17385  17391  17397     1  0.0000000  1.0460000  1
  17384  17385  17391  17397     1  0.0000000  0.6694400  3
  17385  17384  17392  17395     1  0.0000000  1.0460000  1
  17385  17384  17392  17395     1  0.0000000  0.6694400  3
  17386  17385  17384  17388     1  0.0000000  0.6508444  3
  17386  17385  17391  17397     1  0.0000000  1.0460000  1
  17386  17385  17391  17397     1  0.0000000  0.6694400  3
  17387  17385  17384  17392     1  0.0000000  1.0460000  1
  17387  17385  17384  17392     1  0.0000000  0.0000000  3
  17387  17385  17384  17388     1  0.0000000  0.6508444  3
  17387  17385  17386  17390     1  0.0000000  1.0460000  1
  17387  17385  17386  17390     1  0.0000000  0.0000000  3
  17387  17385  17386  17402     1  0.0000000  1.0460000  1
  17387  17385  17386  17402     1  0.0000000  0.0000000  3
  17387  17385  17386  17389     1  0.0000000  0.6508444  3
  17387  17385  17391  17397     1  0.0000000  0.6973333  3
  17388  17384  17381  17393     1  0.0000000  1.0460000  1
  17388  17384  17381  17393     1  0.0000000  0.0000000  3
  17388  17384  17385  17391     1  0.0000000  1.0460000  1
  17388  17384  17385  17391     1  0.0000000  0.0000000  3
  17388  17384  17392  17395     1  0.0000000  0.6973333  3
  17389  17386  17385  17391     1  0.0000000  0.6508444  3
  17398  17394  17380  17402     1  0.0000000  1.0460000  1
  17398  17394  17380  17402     1  0.0000000  0.0000000  3
  17398  17394  17400  17401     1  0.0000000  0.6973333  3
  17399  17394  17380  17402     1  0.0000000  1.0460000  1
  17399  17394  17380  17402     1  0.0000000  0.0000000  3
  17399  17394  17400  17401     1  0.0000000  0.6973333  3
  17403  17404  17407  17411     1  0.0000000  0.6508444  3
  17403  17404  17416  17419     1  0.0000000  1.0460000  1
  17403  17404  17416  17419     1  0.0000000  0.6694400  3
  17403  17417  17423  17424     1  0.0000000  1.0460000  1
  17403  17417  17423  17424     1  0.0000000  0.6694400  3
  17403  17425  17409  17412     1  0.0000000  1.6038667  3
  17404  17407  17408  17410     1  0.0000000  0.6508444  3
  17404  17407  17415  17418     1  0.0000000  1.0460000  1
  17404  17407  17415  17418     1  0.0000000  0.6694400  3
  17404  17403  17417  17421     1  0.0000000  0.6508444  3
  17404  17403  17417  17422     1  0.0000000  0.6508444  3
  17405  17403  17404  17407     1  0.0000000  0.6508444  3
  17405  17403  17404  17416     1  0.0000000  1.0460000  1
  17405  17403  17404  17416     1  0.0000000  0.0000000  3
  17405  17403  17404  17406     1  0.0000000  0.6508444  3
  17405  17403  17417  17423     1  0.0000000  1.0460000  1
  17405  17403  17417  17423     1  0.0000000  0.0000000  3
  17405  17403  17417  17421     1  0.0000000  0.6508444  3
  17405  17403  17417  17422     1  0.0000000  0.6508444  3
  17405  17403  17425  17409     1  0.0000000  1.6038667  3
  17406  17404  17407  17408     1  0.0000000  0.6508444  3
  17406  17404  17407  17415     1  0.0000000  1.0460000  1
  17406  17404  17407  17415     1  0.0000000  0.0000000  3
  17406  17404  17407  17411     1  0.0000000  0.6508444  3
  17406  17404  17416  17419     1  0.0000000  0.6973333  3
  17406  17404  17403  17417     1  0.0000000  0.6508444  3
  17406  17404  17403  17425     1  0.0000000  1.0460000  1
  17406  17404  17403  17425     1  0.0000000  0.0000000  3
  17407  17408  17409  17412     1  0.0000000  0.6508444  3
  17407  17408  17414  17420     1  0.0000000  1.0460000  1
  17407  17408  17414  17420     1  0.0000000  0.6694400  3
  17407  17404  17416  17419     1  0.0000000  1.0460000  1
  17407  17404  17416  17419     1  0.0000000  0.6694400  3
  17408  17407  17415  17418     1  0.0000000  1.0460000  1
  17408  17407  17415  17418     1  0.0000000  0.6694400  3
  17409  17408  17414  17420     1  0.0000000  1.0460000  1
  17409  17408  17414  17420     1  0.0000000  0.6694400  3
  17409  17408  17407  17411     1  0.0000000  0.6508444  3
  17410  17408  17409  17413     1  0.0000000  1.0460000  1
  17410  17408  17409  17413     1  0.0000000  0.0000000  3
  17410  17408  17409  17425     1  0.0000000  1.0460000  1
  17410  17408  17409  17425     1  0.0000000  0.0000000  3
  17410  17408  17409  17412     1  0.0000000  0.6508444  3
  17410  17408  17414  17420     1  0.0000000  0.6973333  3
  17410  17408  17407  17415     1  0.0000000  1.0460000  1
  17410  17408  17407  17415     1  0.0000000  0.0000000  3
  17410  17408  17407  17411     1  0.0000000  0.6508444  3
  17411  17407  17408  17414     1  0.0000000  1.0460000  1
  17411  17407  17408  17414     1  0.0000000  0.0000000  3
  17411  17407  17415  17418     1  0.0000000  0.6973333  3
  17411  17407  17404  17416     1  0.0000000  1.0460000  1
  17411  17407  17404  17416     1  0.0000000  0.0000000  3
  17412  17409  17408  17414     1  0.0000000  0.6508444  3
  17421  17417  17423  17424     1  0.0000000  0.6973333  3
  17421  17417  17403  17425     1  0.0000000  1.0460000  1
  17421  17417  17403  17425     1  0.0000000  0.0000000  3
  17422  17417  17423  17424     1  0.0000000  0.6973333  3
  17422  17417  17403  17425     1  0.0000000  1.0460000  1
  17422  17417  17403  17425     1  0.0000000  0.0000000  3
  17426  17427  17430  17434     1  0.0000000  0.6508444  3
  17426  17427  17439  17442     1  0.0000000  1.0460000  1
  17426  17427  17439  17442     1  0.0000000  0.6694400  3
  17426  17440  17446  17447     1  0.0000000  1.0460000  1
  17426  17440  17446  17447     1  0.0000000  0.6694400  3
  17426  17448  17432  17435     1  0.0000000  1.6038667  3
  17427  17426  17440  17444     1  0.0000000  0.6508444  3
  17427  17426  17440  17445     1  0.0000000  0.6508444  3
  17427  17430  17431  17433     1  0.0000000  0.6508444  3
  17427  17430  17438  17441     1  0.0000000  1.0460000  1
  17427  17430  17438  17441     1  0.0000000  0.6694400  3
  17428  17426  17427  17430     1  0.0000000  0.6508444  3
  17428  17426  17427  17439     1  0.0000000  1.0460000  1
  17428  17426  17427  17439     1  0.0000000  0.0000000  3
  17428  17426  17427  17429     1  0.0000000  0.6508444  3
  17428  17426  17440  17446     1  0.0000000  1.0460000  1
  17428  17426  17440  17446     1  0.0000000  0.0000000  3
  17428  17426  17440  17444     1  0.0000000  0.6508444  3
  17428  17426  17440  17445     1  0.0000000  0.6508444  3
  17428  17426  17448  17432     1  0.0000000  1.6038667  3
  17429  17427  17426  17440     1  0.0000000  0.6508444  3
  17429  17427  17426  17448     1  0.0000000  1.0460000  1
  17429  17427  17426  17448     1  0.0000000  0.0000000  3
  17429  17427  17430  17431     1  0.0000000  0.6508444  3
  17429  17427  17430  17438     1  0.0000000  1.0460000  1
  17429  17427  17430  17438     1  0.0000000  0.0000000  3
  17429  17427  17430  17434     1  0.0000000  0.6508444  3
  17429  17427  17439  17442     1  0.0000000  0.6973333  3
  17430  17427  17439  17442     1  0.0000000  1.0460000  1
  17430  17427  17439  17442     1  0.0000000  0.6694400  3
  17430  17431  17432  17435     1  0.0000000  0.6508444  3
  17430  17431  17437  17443     1  0.0000000  1.0460000  1
  17430  17431  17437  17443     1  0.0000000  0.6694400  3
  17431  17430  17438  17441     1  0.0000000  1.0460000  1
  17431  17430  17438  17441     1  0.0000000  0.6694400  3
  17432  17431  17430  17434     1  0.0000000  0.6508444  3
  17432  17431  17437  17443     1  0.0000000  1.0460000  1
  17432  17431  17437  17443     1  0.0000000  0.6694400  3
  17433  17431  17430  17438     1  0.0000000  1.0460000  1
  17433  17431  17430  17438     1  0.0000000  0.0000000  3
  17433  17431  17430  17434     1  0.0000000  0.6508444  3
  17433  17431  17432  17436     1  0.0000000  1.0460000  1
  17433  17431  17432  17436     1  0.0000000  0.0000000  3
  17433  17431  17432  17448     1  0.0000000  1.0460000  1
  17433  17431  17432  17448     1  0.0000000  0.0000000  3
  17433  17431  17432  17435     1  0.0000000  0.6508444  3
  17433  17431  17437  17443     1  0.0000000  0.6973333  3
  17434  17430  17427  17439     1  0.0000000  1.0460000  1
  17434  17430  17427  17439     1  0.0000000  0.0000000  3
  17434  17430  17431  17437     1  0.0000000  1.0460000  1
  17434  17430  17431  17437     1  0.0000000  0.0000000  3
  17434  17430  17438  17441     1  0.0000000  0.6973333  3
  17435  17432  17431  17437     1  0.0000000  0.6508444  3
  17444  17440  17426  17448     1  0.0000000  1.0460000  1
  17444  17440  17426  17448     1  0.0000000  0.0000000  3
  17444  17440  17446  17447     1  0.0000000  0.6973333  3
  17445  17440  17426  17448     1  0.0000000  1.0460000  1
  17445  17440  17426  17448     1  0.0000000  0.0000000  3
  17445  17440  17446  17447     1  0.0000000  0.6973333  3
  17449  17450  17453  17457     1  0.0000000  0.6508444  3
  17449  17450  17462  17465     1  0.0000000  1.0460000  1
  17449  17450  17462  17465     1  0.0000000  0.6694400  3
  17449  17463  17469  17470     1  0.0000000  1.0460000  1
  17449  17463  17469  17470     1  0.0000000  0.6694400  3
  17449  17471  17455  17458     1  0.0000000  1.6038667  3
  17450  17453  17454  17456     1  0.0000000  0.6508444  3
  17450  17453  17461  17464     1  0.0000000  1.0460000  1
  17450  17453  17461  17464     1  0.0000000  0.6694400  3
  17450  17449  17463  17467     1  0.0000000  0.6508444  3
  17450  17449  17463  17468     1  0.0000000  0.6508444  3
  17451  17449  17450  17453     1  0.0000000  0.6508444  3
  17451  17449  17450  17462     1  0.0000000  1.0460000  1
  17451  17449  17450  17462     1  0.0000000  0.0000000  3
  17451  17449  17450  17452     1  0.0000000  0.6508444  3
  17451  17449  17463  17469     1  0.0000000  1.0460000  1
  17451  17449  17463  17469     1  0.0000000  0.0000000  3
  17451  17449  17463  17467     1  0.0000000  0.6508444  3
  17451  17449  17463  17468     1  0.0000000  0.6508444  3
  17451  17449  17471  17455     1  0.0000000  1.6038667  3
  17452  17450  17453  17454     1  0.0000000  0.6508444  3
  17452  17450  17453  17461     1  0.0000000  1.0460000  1
  17452  17450  17453  17461     1  0.0000000  0.0000000  3
  17452  17450  17453  17457     1  0.0000000  0.6508444  3
  17452  17450  17462  17465     1  0.0000000  0.6973333  3
  17452  17450  17449  17463     1  0.0000000  0.6508444  3
  17452  17450  17449  17471     1  0.0000000  1.0460000  1
  17452  17450  17449  17471     1  0.0000000  0.0000000  3
  17453  17454  17455  17458     1  0.0000000  0.6508444  3
  17453  17454  17460  17466     1  0.0000000  1.0460000  1
  17453  17454  17460  17466     1  0.0000000  0.6694400  3
  17453  17450  17462  17465     1  0.0000000  1.0460000  1
  17453  17450  17462  17465     1  0.0000000  0.6694400  3
  17454  17453  17461  17464     1  0.0000000  1.0460000  1
  17454  17453  17461  17464     1  0.0000000  0.6694400  3
  17455  17454  17460  17466     1  0.0000000  1.0460000  1
  17455  17454  17460  17466     1  0.0000000  0.6694400  3
  17455  17454  17453  17457     1  0.0000000  0.6508444  3
  17456  17454  17455  17459     1  0.0000000  1.0460000  1
  17456  17454  17455  17459     1  0.0000000  0.0000000  3
  17456  17454  17455  17471     1  0.0000000  1.0460000  1
  17456  17454  17455  17471     1  0.0000000  0.0000000  3
  17456  17454  17455  17458     1  0.0000000  0.6508444  3
  17456  17454  17460  17466     1  0.0000000  0.6973333  3
  17456  17454  17453  17461     1  0.0000000  1.0460000  1
  17456  17454  17453  17461     1  0.0000000  0.0000000  3
  17456  17454  17453  17457     1  0.0000000  0.6508444  3
  17457  17453  17454  17460     1  0.0000000  1.0460000  1
  17457  17453  17454  17460     1  0.0000000  0.0000000  3
  17457  17453  17461  17464     1  0.0000000  0.6973333  3
  17457  17453  17450  17462     1  0.0000000  1.0460000  1
  17457  17453  17450  17462     1  0.0000000  0.0000000  3
  17458  17455  17454  17460     1  0.0000000  0.6508444  3
  17467  17463  17469  17470     1  0.0000000  0.6973333  3
  17467  17463  17449  17471     1  0.0000000  1.0460000  1
  17467  17463  17449  17471     1  0.0000000  0.0000000  3
  17468  17463  17469  17470     1  0.0000000  0.6973333  3
  17468  17463  17449  17471     1  0.0000000  1.0460000  1
  17468  17463  17449  17471     1  0.0000000  0.0000000  3
  17472  17473  17476  17480     1  0.0000000  0.6508444  3
  17472  17473  17485  17488     1  0.0000000  1.0460000  1
  17472  17473  17485  17488     1  0.0000000  0.6694400  3
  17472  17486  17492  17493     1  0.0000000  1.0460000  1
  17472  17486  17492  17493     1  0.0000000  0.6694400  3
  17472  17494  17478  17481     1  0.0000000  1.6038667  3
  17473  17472  17486  17490     1  0.0000000  0.6508444  3
  17473  17472  17486  17491     1  0.0000000  0.6508444  3
  17473  17476  17477  17479     1  0.0000000  0.6508444  3
  17473  17476  17484  17487     1  0.0000000  1.0460000  1
  17473  17476  17484  17487     1  0.0000000  0.6694400  3
  17474  17472  17473  17476     1  0.0000000  0.6508444  3
  17474  17472  17473  17485     1  0.0000000  1.0460000  1
  17474  17472  17473  17485     1  0.0000000  0.0000000  3
  17474  17472  17473  17475     1  0.0000000  0.6508444  3
  17474  17472  17486  17492     1  0.0000000  1.0460000  1
  17474  17472  17486  17492     1  0.0000000  0.0000000  3
  17474  17472  17486  17490     1  0.0000000  0.6508444  3
  17474  17472  17486  17491     1  0.0000000  0.6508444  3
  17474  17472  17494  17478     1  0.0000000  1.6038667  3
  17475  17473  17472  17486     1  0.0000000  0.6508444  3
  17475  17473  17472  17494     1  0.0000000  1.0460000  1
  17475  17473  17472  17494     1  0.0000000  0.0000000  3
  17475  17473  17476  17477     1  0.0000000  0.6508444  3
  17475  17473  17476  17484     1  0.0000000  1.0460000  1
  17475  17473  17476  17484     1  0.0000000  0.0000000  3
  17475  17473  17476  17480     1  0.0000000  0.6508444  3
  17475  17473  17485  17488     1  0.0000000  0.6973333  3
  17476  17473  17485  17488     1  0.0000000  1.0460000  1
  17476  17473  17485  17488     1  0.0000000  0.6694400  3
  17476  17477  17478  17481     1  0.0000000  0.6508444  3
  17476  17477  17483  17489     1  0.0000000  1.0460000  1
  17476  17477  17483  17489     1  0.0000000  0.6694400  3
  17477  17476  17484  17487     1  0.0000000  1.0460000  1
  17477  17476  17484  17487     1  0.0000000  0.6694400  3
  17478  17477  17476  17480     1  0.0000000  0.6508444  3
  17478  17477  17483  17489     1  0.0000000  1.0460000  1
  17478  17477  17483  17489     1  0.0000000  0.6694400  3
  17479  17477  17476  17484     1  0.0000000  1.0460000  1
  17479  17477  17476  17484     1  0.0000000  0.0000000  3
  17479  17477  17476  17480     1  0.0000000  0.6508444  3
  17479  17477  17478  17482     1  0.0000000  1.0460000  1
  17479  17477  17478  17482     1  0.0000000  0.0000000  3
  17479  17477  17478  17494     1  0.0000000  1.0460000  1
  17479  17477  17478  17494     1  0.0000000  0.0000000  3
  17479  17477  17478  17481     1  0.0000000  0.6508444  3
  17479  17477  17483  17489     1  0.0000000  0.6973333  3
  17480  17476  17473  17485     1  0.0000000  1.0460000  1
  17480  17476  17473  17485     1  0.0000000  0.0000000  3
  17480  17476  17477  17483     1  0.0000000  1.0460000  1
  17480  17476  17477  17483     1  0.0000000  0.0000000  3
  17480  17476  17484  17487     1  0.0000000  0.6973333  3
  17481  17478  17477  17483     1  0.0000000  0.6508444  3
  17490  17486  17472  17494     1  0.0000000  1.0460000  1
  17490  17486  17472  17494     1  0.0000000  0.0000000  3
  17490  17486  17492  17493     1  0.0000000  0.6973333  3
  17491  17486  17472  17494     1  0.0000000  1.0460000  1
  17491  17486  17472  17494     1  0.0000000  0.0000000  3
  17491  17486  17492  17493     1  0.0000000  0.6973333  3
  17495  17496  17499  17503     1  0.0000000  0.6508444  3
  17495  17496  17508  17511     1  0.0000000  1.0460000  1
  17495  17496  17508  17511     1  0.0000000  0.6694400  3
  17495  17509  17515  17516     1  0.0000000  1.0460000  1
  17495  17509  17515  17516     1  0.0000000  0.6694400  3
  17495  17517  17501  17504     1  0.0000000  1.6038667  3
  17496  17499  17500  17502     1  0.0000000  0.6508444  3
  17496  17499  17507  17510     1  0.0000000  1.0460000  1
  17496  17499  17507  17510     1  0.0000000  0.6694400  3
  17496  17495  17509  17513     1  0.0000000  0.6508444  3
  17496  17495  17509  17514     1  0.0000000  0.6508444  3
  17497  17495  17496  17499     1  0.0000000  0.6508444  3
  17497  17495  17496  17508     1  0.0000000  1.0460000  1
  17497  17495  17496  17508     1  0.0000000  0.0000000  3
  17497  17495  17496  17498     1  0.0000000  0.6508444  3
  17497  17495  17509  17515     1  0.0000000  1.0460000  1
  17497  17495  17509  17515     1  0.0000000  0.0000000  3
  17497  17495  17509  17513     1  0.0000000  0.6508444  3
  17497  17495  17509  17514     1  0.0000000  0.6508444  3
  17497  17495  17517  17501     1  0.0000000  1.6038667  3
  17498  17496  17499  17500     1  0.0000000  0.6508444  3
  17498  17496  17499  17507     1  0.0000000  1.0460000  1
  17498  17496  17499  17507     1  0.0000000  0.0000000  3
  17498  17496  17499  17503     1  0.0000000  0.6508444  3
  17498  17496  17508  17511     1  0.0000000  0.6973333  3
  17498  17496  17495  17509     1  0.0000000  0.6508444  3
  17498  17496  17495  17517     1  0.0000000  1.0460000  1
  17498  17496  17495  17517     1  0.0000000  0.0000000  3
  17499  17500  17501  17504     1  0.0000000  0.6508444  3
  17499  17500  17506  17512     1  0.0000000  1.0460000  1
  17499  17500  17506  17512     1  0.0000000  0.6694400  3
  17499  17496  17508  17511     1  0.0000000  1.0460000  1
  17499  17496  17508  17511     1  0.0000000  0.6694400  3
  17500  17499  17507  17510     1  0.0000000  1.0460000  1
  17500  17499  17507  17510     1  0.0000000  0.6694400  3
  17501  17500  17506  17512     1  0.0000000  1.0460000  1
  17501  17500  17506  17512     1  0.0000000  0.6694400  3
  17501  17500  17499  17503     1  0.0000000  0.6508444  3
  17502  17500  17501  17505     1  0.0000000  1.0460000  1
  17502  17500  17501  17505     1  0.0000000  0.0000000  3
  17502  17500  17501  17517     1  0.0000000  1.0460000  1
  17502  17500  17501  17517     1  0.0000000  0.0000000  3
  17502  17500  17501  17504     1  0.0000000  0.6508444  3
  17502  17500  17506  17512     1  0.0000000  0.6973333  3
  17502  17500  17499  17507     1  0.0000000  1.0460000  1
  17502  17500  17499  17507     1  0.0000000  0.0000000  3
  17502  17500  17499  17503     1  0.0000000  0.6508444  3
  17503  17499  17500  17506     1  0.0000000  1.0460000  1
  17503  17499  17500  17506     1  0.0000000  0.0000000  3
  17503  17499  17507  17510     1  0.0000000  0.6973333  3
  17503  17499  17496  17508     1  0.0000000  1.0460000  1
  17503  17499  17496  17508     1  0.0000000  0.0000000  3
  17504  17501  17500  17506     1  0.0000000  0.6508444  3
  17513  17509  17515  17516     1  0.0000000  0.6973333  3
  17513  17509  17495  17517     1  0.0000000  1.0460000  1
  17513  17509  17495  17517     1  0.0000000  0.0000000  3
  17514  17509  17515  17516     1  0.0000000  0.6973333  3
  17514  17509  17495  17517     1  0.0000000  1.0460000  1
  17514  17509  17495  17517     1  0.0000000  0.0000000  3
  17518  17519  17522  17526     1  0.0000000  0.6508444  3
  17518  17519  17531  17534     1  0.0000000  1.0460000  1
  17518  17519  17531  17534     1  0.0000000  0.6694400  3
  17518  17532  17538  17539     1  0.0000000  1.0460000  1
  17518  17532  17538  17539     1  0.0000000  0.6694400  3
  17518  17540  17524  17527     1  0.0000000  1.6038667  3
  17519  17518  17532  17536     1  0.0000000  0.6508444  3
  17519  17518  17532  17537     1  0.0000000  0.6508444  3
  17519  17522  17523  17525     1  0.0000000  0.6508444  3
  17519  17522  17530  17533     1  0.0000000  1.0460000  1
  17519  17522  17530  17533     1  0.0000000  0.6694400  3
  17520  17518  17519  17522     1  0.0000000  0.6508444  3
  17520  17518  17519  17531     1  0.0000000  1.0460000  1
  17520  17518  17519  17531     1  0.0000000  0.0000000  3
  17520  17518  17519  17521     1  0.0000000  0.6508444  3
  17520  17518  17532  17538     1  0.0000000  1.0460000  1
  17520  17518  17532  17538     1  0.0000000  0.0000000  3
  17520  17518  17532  17536     1  0.0000000  0.6508444  3
  17520  17518  17532  17537     1  0.0000000  0.6508444  3
  17520  17518  17540  17524     1  0.0000000  1.6038667  3
  17521  17519  17518  17532     1  0.0000000  0.6508444  3
  17521  17519  17518  17540     1  0.0000000  1.0460000  1
  17521  17519  17518  17540     1  0.0000000  0.0000000  3
  17521  17519  17522  17523     1  0.0000000  0.6508444  3
  17521  17519  17522  17530     1  0.0000000  1.0460000  1
  17521  17519  17522  17530     1  0.0000000  0.0000000  3
  17521  17519  17522  17526     1  0.0000000  0.6508444  3
  17521  17519  17531  17534     1  0.0000000  0.6973333  3
  17522  17519  17531  17534     1  0.0000000  1.0460000  1
  17522  17519  17531  17534     1  0.0000000  0.6694400  3
  17522  17523  17524  17527     1  0.0000000  0.6508444  3
  17522  17523  17529  17535     1  0.0000000  1.0460000  1
  17522  17523  17529  17535     1  0.0000000  0.6694400  3
  17523  17522  17530  17533     1  0.0000000  1.0460000  1
  17523  17522  17530  17533     1  0.0000000  0.6694400  3
  17524  17523  17522  17526     1  0.0000000  0.6508444  3
  17524  17523  17529  17535     1  0.0000000  1.0460000  1
  17524  17523  17529  17535     1  0.0000000  0.6694400  3
  17525  17523  17522  17530     1  0.0000000  1.0460000  1
  17525  17523  17522  17530     1  0.0000000  0.0000000  3
  17525  17523  17522  17526     1  0.0000000  0.6508444  3
  17525  17523  17524  17528     1  0.0000000  1.0460000  1
  17525  17523  17524  17528     1  0.0000000  0.0000000  3
  17525  17523  17524  17540     1  0.0000000  1.0460000  1
  17525  17523  17524  17540     1  0.0000000  0.0000000  3
  17525  17523  17524  17527     1  0.0000000  0.6508444  3
  17525  17523  17529  17535     1  0.0000000  0.6973333  3
  17526  17522  17519  17531     1  0.0000000  1.0460000  1
  17526  17522  17519  17531     1  0.0000000  0.0000000  3
  17526  17522  17523  17529     1  0.0000000  1.0460000  1
  17526  17522  17523  17529     1  0.0000000  0.0000000  3
  17526  17522  17530  17533     1  0.0000000  0.6973333  3
  17527  17524  17523  17529     1  0.0000000  0.6508444  3
  17536  17532  17518  17540     1  0.0000000  1.0460000  1
  17536  17532  17518  17540     1  0.0000000  0.0000000  3
  17536  17532  17538  17539     1  0.0000000  0.6973333  3
  17537  17532  17518  17540     1  0.0000000  1.0460000  1
  17537  17532  17518  17540     1  0.0000000  0.0000000  3
  17537  17532  17538  17539     1  0.0000000  0.6973333  3
  17541  17542  17545  17549     1  0.0000000  0.6508444  3
  17541  17542  17554  17557     1  0.0000000  1.0460000  1
  17541  17542  17554  17557     1  0.0000000  0.6694400  3
  17541  17555  17561  17562     1  0.0000000  1.0460000  1
  17541  17555  17561  17562     1  0.0000000  0.6694400  3
  17541  17563  17547  17550     1  0.0000000  1.6038667  3
  17542  17545  17546  17548     1  0.0000000  0.6508444  3
  17542  17545  17553  17556     1  0.0000000  1.0460000  1
  17542  17545  17553  17556     1  0.0000000  0.6694400  3
  17542  17541  17555  17559     1  0.0000000  0.6508444  3
  17542  17541  17555  17560     1  0.0000000  0.6508444  3
  17543  17541  17542  17545     1  0.0000000  0.6508444  3
  17543  17541  17542  17554     1  0.0000000  1.0460000  1
  17543  17541  17542  17554     1  0.0000000  0.0000000  3
  17543  17541  17542  17544     1  0.0000000  0.6508444  3
  17543  17541  17555  17561     1  0.0000000  1.0460000  1
  17543  17541  17555  17561     1  0.0000000  0.0000000  3
  17543  17541  17555  17559     1  0.0000000  0.6508444  3
  17543  17541  17555  17560     1  0.0000000  0.6508444  3
  17543  17541  17563  17547     1  0.0000000  1.6038667  3
  17544  17542  17545  17546     1  0.0000000  0.6508444  3
  17544  17542  17545  17553     1  0.0000000  1.0460000  1
  17544  17542  17545  17553     1  0.0000000  0.0000000  3
  17544  17542  17545  17549     1  0.0000000  0.6508444  3
  17544  17542  17554  17557     1  0.0000000  0.6973333  3
  17544  17542  17541  17555     1  0.0000000  0.6508444  3
  17544  17542  17541  17563     1  0.0000000  1.0460000  1
  17544  17542  17541  17563     1  0.0000000  0.0000000  3
  17545  17546  17547  17550     1  0.0000000  0.6508444  3
  17545  17546  17552  17558     1  0.0000000  1.0460000  1
  17545  17546  17552  17558     1  0.0000000  0.6694400  3
  17545  17542  17554  17557     1  0.0000000  1.0460000  1
  17545  17542  17554  17557     1  0.0000000  0.6694400  3
  17546  17545  17553  17556     1  0.0000000  1.0460000  1
  17546  17545  17553  17556     1  0.0000000  0.6694400  3
  17547  17546  17552  17558     1  0.0000000  1.0460000  1
  17547  17546  17552  17558     1  0.0000000  0.6694400  3
  17547  17546  17545  17549     1  0.0000000  0.6508444  3
  17548  17546  17547  17551     1  0.0000000  1.0460000  1
  17548  17546  17547  17551     1  0.0000000  0.0000000  3
  17548  17546  17547  17563     1  0.0000000  1.0460000  1
  17548  17546  17547  17563     1  0.0000000  0.0000000  3
  17548  17546  17547  17550     1  0.0000000  0.6508444  3
  17548  17546  17552  17558     1  0.0000000  0.6973333  3
  17548  17546  17545  17553     1  0.0000000  1.0460000  1
  17548  17546  17545  17553     1  0.0000000  0.0000000  3
  17548  17546  17545  17549     1  0.0000000  0.6508444  3
  17549  17545  17546  17552     1  0.0000000  1.0460000  1
  17549  17545  17546  17552     1  0.0000000  0.0000000  3
  17549  17545  17553  17556     1  0.0000000  0.6973333  3
  17549  17545  17542  17554     1  0.0000000  1.0460000  1
  17549  17545  17542  17554     1  0.0000000  0.0000000  3
  17550  17547  17546  17552     1  0.0000000  0.6508444  3
  17559  17555  17561  17562     1  0.0000000  0.6973333  3
  17559  17555  17541  17563     1  0.0000000  1.0460000  1
  17559  17555  17541  17563     1  0.0000000  0.0000000  3
  17560  17555  17561  17562     1  0.0000000  0.6973333  3
  17560  17555  17541  17563     1  0.0000000  1.0460000  1
  17560  17555  17541  17563     1  0.0000000  0.0000000  3
  17564  17565  17568  17572     1  0.0000000  0.6508444  3
  17564  17565  17577  17580     1  0.0000000  1.0460000  1
  17564  17565  17577  17580     1  0.0000000  0.6694400  3
  17564  17578  17584  17585     1  0.0000000  1.0460000  1
  17564  17578  17584  17585     1  0.0000000  0.6694400  3
  17564  17586  17570  17573     1  0.0000000  1.6038667  3
  17565  17564  17578  17582     1  0.0000000  0.6508444  3
  17565  17564  17578  17583     1  0.0000000  0.6508444  3
  17565  17568  17569  17571     1  0.0000000  0.6508444  3
  17565  17568  17576  17579     1  0.0000000  1.0460000  1
  17565  17568  17576  17579     1  0.0000000  0.6694400  3
  17566  17564  17565  17568     1  0.0000000  0.6508444  3
  17566  17564  17565  17577     1  0.0000000  1.0460000  1
  17566  17564  17565  17577     1  0.0000000  0.0000000  3
  17566  17564  17565  17567     1  0.0000000  0.6508444  3
  17566  17564  17578  17584     1  0.0000000  1.0460000  1
  17566  17564  17578  17584     1  0.0000000  0.0000000  3
  17566  17564  17578  17582     1  0.0000000  0.6508444  3
  17566  17564  17578  17583     1  0.0000000  0.6508444  3
  17566  17564  17586  17570     1  0.0000000  1.6038667  3
  17567  17565  17564  17578     1  0.0000000  0.6508444  3
  17567  17565  17564  17586     1  0.0000000  1.0460000  1
  17567  17565  17564  17586     1  0.0000000  0.0000000  3
  17567  17565  17568  17569     1  0.0000000  0.6508444  3
  17567  17565  17568  17576     1  0.0000000  1.0460000  1
  17567  17565  17568  17576     1  0.0000000  0.0000000  3
  17567  17565  17568  17572     1  0.0000000  0.6508444  3
  17567  17565  17577  17580     1  0.0000000  0.6973333  3
  17568  17565  17577  17580     1  0.0000000  1.0460000  1
  17568  17565  17577  17580     1  0.0000000  0.6694400  3
  17568  17569  17570  17573     1  0.0000000  0.6508444  3
  17568  17569  17575  17581     1  0.0000000  1.0460000  1
  17568  17569  17575  17581     1  0.0000000  0.6694400  3
  17569  17568  17576  17579     1  0.0000000  1.0460000  1
  17569  17568  17576  17579     1  0.0000000  0.6694400  3
  17570  17569  17568  17572     1  0.0000000  0.6508444  3
  17570  17569  17575  17581     1  0.0000000  1.0460000  1
  17570  17569  17575  17581     1  0.0000000  0.6694400  3
  17571  17569  17568  17576     1  0.0000000  1.0460000  1
  17571  17569  17568  17576     1  0.0000000  0.0000000  3
  17571  17569  17568  17572     1  0.0000000  0.6508444  3
  17571  17569  17570  17574     1  0.0000000  1.0460000  1
  17571  17569  17570  17574     1  0.0000000  0.0000000  3
  17571  17569  17570  17586     1  0.0000000  1.0460000  1
  17571  17569  17570  17586     1  0.0000000  0.0000000  3
  17571  17569  17570  17573     1  0.0000000  0.6508444  3
  17571  17569  17575  17581     1  0.0000000  0.6973333  3
  17572  17568  17565  17577     1  0.0000000  1.0460000  1
  17572  17568  17565  17577     1  0.0000000  0.0000000  3
  17572  17568  17569  17575     1  0.0000000  1.0460000  1
  17572  17568  17569  17575     1  0.0000000  0.0000000  3
  17572  17568  17576  17579     1  0.0000000  0.6973333  3
  17573  17570  17569  17575     1  0.0000000  0.6508444  3
  17582  17578  17564  17586     1  0.0000000  1.0460000  1
  17582  17578  17564  17586     1  0.0000000  0.0000000  3
  17582  17578  17584  17585     1  0.0000000  0.6973333  3
  17583  17578  17564  17586     1  0.0000000  1.0460000  1
  17583  17578  17564  17586     1  0.0000000  0.0000000  3
  17583  17578  17584  17585     1  0.0000000  0.6973333  3
  17587  17588  17591  17595     1  0.0000000  0.6508444  3
  17587  17588  17600  17603     1  0.0000000  1.0460000  1
  17587  17588  17600  17603     1  0.0000000  0.6694400  3
  17587  17601  17607  17608     1  0.0000000  1.0460000  1
  17587  17601  17607  17608     1  0.0000000  0.6694400  3
  17587  17609  17593  17596     1  0.0000000  1.6038667  3
  17588  17591  17592  17594     1  0.0000000  0.6508444  3
  17588  17591  17599  17602     1  0.0000000  1.0460000  1
  17588  17591  17599  17602     1  0.0000000  0.6694400  3
  17588  17587  17601  17605     1  0.0000000  0.6508444  3
  17588  17587  17601  17606     1  0.0000000  0.6508444  3
  17589  17587  17588  17591     1  0.0000000  0.6508444  3
  17589  17587  17588  17600     1  0.0000000  1.0460000  1
  17589  17587  17588  17600     1  0.0000000  0.0000000  3
  17589  17587  17588  17590     1  0.0000000  0.6508444  3
  17589  17587  17601  17607     1  0.0000000  1.0460000  1
  17589  17587  17601  17607     1  0.0000000  0.0000000  3
  17589  17587  17601  17605     1  0.0000000  0.6508444  3
  17589  17587  17601  17606     1  0.0000000  0.6508444  3
  17589  17587  17609  17593     1  0.0000000  1.6038667  3
  17590  17588  17591  17592     1  0.0000000  0.6508444  3
  17590  17588  17591  17599     1  0.0000000  1.0460000  1
  17590  17588  17591  17599     1  0.0000000  0.0000000  3
  17590  17588  17591  17595     1  0.0000000  0.6508444  3
  17590  17588  17600  17603     1  0.0000000  0.6973333  3
  17590  17588  17587  17601     1  0.0000000  0.6508444  3
  17590  17588  17587  17609     1  0.0000000  1.0460000  1
  17590  17588  17587  17609     1  0.0000000  0.0000000  3
  17591  17592  17593  17596     1  0.0000000  0.6508444  3
  17591  17592  17598  17604     1  0.0000000  1.0460000  1
  17591  17592  17598  17604     1  0.0000000  0.6694400  3
  17591  17588  17600  17603     1  0.0000000  1.0460000  1
  17591  17588  17600  17603     1  0.0000000  0.6694400  3
  17592  17591  17599  17602     1  0.0000000  1.0460000  1
  17592  17591  17599  17602     1  0.0000000  0.6694400  3
  17593  17592  17598  17604     1  0.0000000  1.0460000  1
  17593  17592  17598  17604     1  0.0000000  0.6694400  3
  17593  17592  17591  17595     1  0.0000000  0.6508444  3
  17594  17592  17593  17597     1  0.0000000  1.0460000  1
  17594  17592  17593  17597     1  0.0000000  0.0000000  3
  17594  17592  17593  17609     1  0.0000000  1.0460000  1
  17594  17592  17593  17609     1  0.0000000  0.0000000  3
  17594  17592  17593  17596     1  0.0000000  0.6508444  3
  17594  17592  17598  17604     1  0.0000000  0.6973333  3
  17594  17592  17591  17599     1  0.0000000  1.0460000  1
  17594  17592  17591  17599     1  0.0000000  0.0000000  3
  17594  17592  17591  17595     1  0.0000000  0.6508444  3
  17595  17591  17592  17598     1  0.0000000  1.0460000  1
  17595  17591  17592  17598     1  0.0000000  0.0000000  3
  17595  17591  17599  17602     1  0.0000000  0.6973333  3
  17595  17591  17588  17600     1  0.0000000  1.0460000  1
  17595  17591  17588  17600     1  0.0000000  0.0000000  3
  17596  17593  17592  17598     1  0.0000000  0.6508444  3
  17605  17601  17607  17608     1  0.0000000  0.6973333  3
  17605  17601  17587  17609     1  0.0000000  1.0460000  1
  17605  17601  17587  17609     1  0.0000000  0.0000000  3
  17606  17601  17607  17608     1  0.0000000  0.6973333  3
  17606  17601  17587  17609     1  0.0000000  1.0460000  1
  17606  17601  17587  17609     1  0.0000000  0.0000000  3
  17610  17611  17614  17618     1  0.0000000  0.6508444  3
  17610  17611  17623  17626     1  0.0000000  1.0460000  1
  17610  17611  17623  17626     1  0.0000000  0.6694400  3
  17610  17624  17630  17631     1  0.0000000  1.0460000  1
  17610  17624  17630  17631     1  0.0000000  0.6694400  3
  17610  17632  17616  17619     1  0.0000000  1.6038667  3
  17611  17610  17624  17628     1  0.0000000  0.6508444  3
  17611  17610  17624  17629     1  0.0000000  0.6508444  3
  17611  17614  17615  17617     1  0.0000000  0.6508444  3
  17611  17614  17622  17625     1  0.0000000  1.0460000  1
  17611  17614  17622  17625     1  0.0000000  0.6694400  3
  17612  17610  17611  17614     1  0.0000000  0.6508444  3
  17612  17610  17611  17623     1  0.0000000  1.0460000  1
  17612  17610  17611  17623     1  0.0000000  0.0000000  3
  17612  17610  17611  17613     1  0.0000000  0.6508444  3
  17612  17610  17624  17630     1  0.0000000  1.0460000  1
  17612  17610  17624  17630     1  0.0000000  0.0000000  3
  17612  17610  17624  17628     1  0.0000000  0.6508444  3
  17612  17610  17624  17629     1  0.0000000  0.6508444  3
  17612  17610  17632  17616     1  0.0000000  1.6038667  3
  17613  17611  17610  17624     1  0.0000000  0.6508444  3
  17613  17611  17610  17632     1  0.0000000  1.0460000  1
  17613  17611  17610  17632     1  0.0000000  0.0000000  3
  17613  17611  17614  17615     1  0.0000000  0.6508444  3
  17613  17611  17614  17622     1  0.0000000  1.0460000  1
  17613  17611  17614  17622     1  0.0000000  0.0000000  3
  17613  17611  17614  17618     1  0.0000000  0.6508444  3
  17613  17611  17623  17626     1  0.0000000  0.6973333  3
  17614  17611  17623  17626     1  0.0000000  1.0460000  1
  17614  17611  17623  17626     1  0.0000000  0.6694400  3
  17614  17615  17616  17619     1  0.0000000  0.6508444  3
  17614  17615  17621  17627     1  0.0000000  1.0460000  1
  17614  17615  17621  17627     1  0.0000000  0.6694400  3
  17615  17614  17622  17625     1  0.0000000  1.0460000  1
  17615  17614  17622  17625     1  0.0000000  0.6694400  3
  17616  17615  17614  17618     1  0.0000000  0.6508444  3
  17616  17615  17621  17627     1  0.0000000  1.0460000  1
  17616  17615  17621  17627     1  0.0000000  0.6694400  3
  17617  17615  17614  17622     1  0.0000000  1.0460000  1
  17617  17615  17614  17622     1  0.0000000  0.0000000  3
  17617  17615  17614  17618     1  0.0000000  0.6508444  3
  17617  17615  17616  17620     1  0.0000000  1.0460000  1
  17617  17615  17616  17620     1  0.0000000  0.0000000  3
  17617  17615  17616  17632     1  0.0000000  1.0460000  1
  17617  17615  17616  17632     1  0.0000000  0.0000000  3
  17617  17615  17616  17619     1  0.0000000  0.6508444  3
  17617  17615  17621  17627     1  0.0000000  0.6973333  3
  17618  17614  17611  17623     1  0.0000000  1.0460000  1
  17618  17614  17611  17623     1  0.0000000  0.0000000  3
  17618  17614  17615  17621     1  0.0000000  1.0460000  1
  17618  17614  17615  17621     1  0.0000000  0.0000000  3
  17618  17614  17622  17625     1  0.0000000  0.6973333  3
  17619  17616  17615  17621     1  0.0000000  0.6508444  3
  17628  17624  17610  17632     1  0.0000000  1.0460000  1
  17628  17624  17610  17632     1  0.0000000  0.0000000  3
  17628  17624  17630  17631     1  0.0000000  0.6973333  3
  17629  17624  17610  17632     1  0.0000000  1.0460000  1
  17629  17624  17610  17632     1  0.0000000  0.0000000  3
  17629  17624  17630  17631     1  0.0000000  0.6973333  3
  17633  17634  17637  17641     1  0.0000000  0.6508444  3
  17633  17634  17646  17649     1  0.0000000  1.0460000  1
  17633  17634  17646  17649     1  0.0000000  0.6694400  3
  17633  17647  17653  17654     1  0.0000000  1.0460000  1
  17633  17647  17653  17654     1  0.0000000  0.6694400  3
  17633  17655  17639  17642     1  0.0000000  1.6038667  3
  17634  17637  17638  17640     1  0.0000000  0.6508444  3
  17634  17637  17645  17648     1  0.0000000  1.0460000  1
  17634  17637  17645  17648     1  0.0000000  0.6694400  3
  17634  17633  17647  17651     1  0.0000000  0.6508444  3
  17634  17633  17647  17652     1  0.0000000  0.6508444  3
  17635  17633  17634  17637     1  0.0000000  0.6508444  3
  17635  17633  17634  17646     1  0.0000000  1.0460000  1
  17635  17633  17634  17646     1  0.0000000  0.0000000  3
  17635  17633  17634  17636     1  0.0000000  0.6508444  3
  17635  17633  17647  17653     1  0.0000000  1.0460000  1
  17635  17633  17647  17653     1  0.0000000  0.0000000  3
  17635  17633  17647  17651     1  0.0000000  0.6508444  3
  17635  17633  17647  17652     1  0.0000000  0.6508444  3
  17635  17633  17655  17639     1  0.0000000  1.6038667  3
  17636  17634  17637  17638     1  0.0000000  0.6508444  3
  17636  17634  17637  17645     1  0.0000000  1.0460000  1
  17636  17634  17637  17645     1  0.0000000  0.0000000  3
  17636  17634  17637  17641     1  0.0000000  0.6508444  3
  17636  17634  17646  17649     1  0.0000000  0.6973333  3
  17636  17634  17633  17647     1  0.0000000  0.6508444  3
  17636  17634  17633  17655     1  0.0000000  1.0460000  1
  17636  17634  17633  17655     1  0.0000000  0.0000000  3
  17637  17638  17639  17642     1  0.0000000  0.6508444  3
  17637  17638  17644  17650     1  0.0000000  1.0460000  1
  17637  17638  17644  17650     1  0.0000000  0.6694400  3
  17637  17634  17646  17649     1  0.0000000  1.0460000  1
  17637  17634  17646  17649     1  0.0000000  0.6694400  3
  17638  17637  17645  17648     1  0.0000000  1.0460000  1
  17638  17637  17645  17648     1  0.0000000  0.6694400  3
  17639  17638  17644  17650     1  0.0000000  1.0460000  1
  17639  17638  17644  17650     1  0.0000000  0.6694400  3
  17639  17638  17637  17641     1  0.0000000  0.6508444  3
  17640  17638  17639  17643     1  0.0000000  1.0460000  1
  17640  17638  17639  17643     1  0.0000000  0.0000000  3
  17640  17638  17639  17655     1  0.0000000  1.0460000  1
  17640  17638  17639  17655     1  0.0000000  0.0000000  3
  17640  17638  17639  17642     1  0.0000000  0.6508444  3
  17640  17638  17644  17650     1  0.0000000  0.6973333  3
  17640  17638  17637  17645     1  0.0000000  1.0460000  1
  17640  17638  17637  17645     1  0.0000000  0.0000000  3
  17640  17638  17637  17641     1  0.0000000  0.6508444  3
  17641  17637  17638  17644     1  0.0000000  1.0460000  1
  17641  17637  17638  17644     1  0.0000000  0.0000000  3
  17641  17637  17645  17648     1  0.0000000  0.6973333  3
  17641  17637  17634  17646     1  0.0000000  1.0460000  1
  17641  17637  17634  17646     1  0.0000000  0.0000000  3
  17642  17639  17638  17644     1  0.0000000  0.6508444  3
  17651  17647  17653  17654     1  0.0000000  0.6973333  3
  17651  17647  17633  17655     1  0.0000000  1.0460000  1
  17651  17647  17633  17655     1  0.0000000  0.0000000  3
  17652  17647  17653  17654     1  0.0000000  0.6973333  3
  17652  17647  17633  17655     1  0.0000000  1.0460000  1
  17652  17647  17633  17655     1  0.0000000  0.0000000  3
  17656  17657  17660  17664     1  0.0000000  0.6508444  3
  17656  17657  17669  17672     1  0.0000000  1.0460000  1
  17656  17657  17669  17672     1  0.0000000  0.6694400  3
  17656  17670  17676  17677     1  0.0000000  1.0460000  1
  17656  17670  17676  17677     1  0.0000000  0.6694400  3
  17656  17678  17662  17665     1  0.0000000  1.6038667  3
  17657  17656  17670  17674     1  0.0000000  0.6508444  3
  17657  17656  17670  17675     1  0.0000000  0.6508444  3
  17657  17660  17661  17663     1  0.0000000  0.6508444  3
  17657  17660  17668  17671     1  0.0000000  1.0460000  1
  17657  17660  17668  17671     1  0.0000000  0.6694400  3
  17658  17656  17657  17660     1  0.0000000  0.6508444  3
  17658  17656  17657  17669     1  0.0000000  1.0460000  1
  17658  17656  17657  17669     1  0.0000000  0.0000000  3
  17658  17656  17657  17659     1  0.0000000  0.6508444  3
  17658  17656  17670  17676     1  0.0000000  1.0460000  1
  17658  17656  17670  17676     1  0.0000000  0.0000000  3
  17658  17656  17670  17674     1  0.0000000  0.6508444  3
  17658  17656  17670  17675     1  0.0000000  0.6508444  3
  17658  17656  17678  17662     1  0.0000000  1.6038667  3
  17659  17657  17656  17670     1  0.0000000  0.6508444  3
  17659  17657  17656  17678     1  0.0000000  1.0460000  1
  17659  17657  17656  17678     1  0.0000000  0.0000000  3
  17659  17657  17660  17661     1  0.0000000  0.6508444  3
  17659  17657  17660  17668     1  0.0000000  1.0460000  1
  17659  17657  17660  17668     1  0.0000000  0.0000000  3
  17659  17657  17660  17664     1  0.0000000  0.6508444  3
  17659  17657  17669  17672     1  0.0000000  0.6973333  3
  17660  17657  17669  17672     1  0.0000000  1.0460000  1
  17660  17657  17669  17672     1  0.0000000  0.6694400  3
  17660  17661  17662  17665     1  0.0000000  0.6508444  3
  17660  17661  17667  17673     1  0.0000000  1.0460000  1
  17660  17661  17667  17673     1  0.0000000  0.6694400  3
  17661  17660  17668  17671     1  0.0000000  1.0460000  1
  17661  17660  17668  17671     1  0.0000000  0.6694400  3
  17662  17661  17660  17664     1  0.0000000  0.6508444  3
  17662  17661  17667  17673     1  0.0000000  1.0460000  1
  17662  17661  17667  17673     1  0.0000000  0.6694400  3
  17663  17661  17660  17668     1  0.0000000  1.0460000  1
  17663  17661  17660  17668     1  0.0000000  0.0000000  3
  17663  17661  17660  17664     1  0.0000000  0.6508444  3
  17663  17661  17662  17666     1  0.0000000  1.0460000  1
  17663  17661  17662  17666     1  0.0000000  0.0000000  3
  17663  17661  17662  17678     1  0.0000000  1.0460000  1
  17663  17661  17662  17678     1  0.0000000  0.0000000  3
  17663  17661  17662  17665     1  0.0000000  0.6508444  3
  17663  17661  17667  17673     1  0.0000000  0.6973333  3
  17664  17660  17657  17669     1  0.0000000  1.0460000  1
  17664  17660  17657  17669     1  0.0000000  0.0000000  3
  17664  17660  17661  17667     1  0.0000000  1.0460000  1
  17664  17660  17661  17667     1  0.0000000  0.0000000  3
  17664  17660  17668  17671     1  0.0000000  0.6973333  3
  17665  17662  17661  17667     1  0.0000000  0.6508444  3
  17674  17670  17656  17678     1  0.0000000  1.0460000  1
  17674  17670  17656  17678     1  0.0000000  0.0000000  3
  17674  17670  17676  17677     1  0.0000000  0.6973333  3
  17675  17670  17656  17678     1  0.0000000  1.0460000  1
  17675  17670  17656  17678     1  0.0000000  0.0000000  3
  17675  17670  17676  17677     1  0.0000000  0.6973333  3
  17679  17680  17683  17687     1  0.0000000  0.6508444  3
  17679  17680  17692  17695     1  0.0000000  1.0460000  1
  17679  17680  17692  17695     1  0.0000000  0.6694400  3
  17679  17693  17699  17700     1  0.0000000  1.0460000  1
  17679  17693  17699  17700     1  0.0000000  0.6694400  3
  17679  17701  17685  17688     1  0.0000000  1.6038667  3
  17680  17683  17684  17686     1  0.0000000  0.6508444  3
  17680  17683  17691  17694     1  0.0000000  1.0460000  1
  17680  17683  17691  17694     1  0.0000000  0.6694400  3
  17680  17679  17693  17697     1  0.0000000  0.6508444  3
  17680  17679  17693  17698     1  0.0000000  0.6508444  3
  17681  17679  17680  17683     1  0.0000000  0.6508444  3
  17681  17679  17680  17692     1  0.0000000  1.0460000  1
  17681  17679  17680  17692     1  0.0000000  0.0000000  3
  17681  17679  17680  17682     1  0.0000000  0.6508444  3
  17681  17679  17693  17699     1  0.0000000  1.0460000  1
  17681  17679  17693  17699     1  0.0000000  0.0000000  3
  17681  17679  17693  17697     1  0.0000000  0.6508444  3
  17681  17679  17693  17698     1  0.0000000  0.6508444  3
  17681  17679  17701  17685     1  0.0000000  1.6038667  3
  17682  17680  17683  17684     1  0.0000000  0.6508444  3
  17682  17680  17683  17691     1  0.0000000  1.0460000  1
  17682  17680  17683  17691     1  0.0000000  0.0000000  3
  17682  17680  17683  17687     1  0.0000000  0.6508444  3
  17682  17680  17692  17695     1  0.0000000  0.6973333  3
  17682  17680  17679  17693     1  0.0000000  0.6508444  3
  17682  17680  17679  17701     1  0.0000000  1.0460000  1
  17682  17680  17679  17701     1  0.0000000  0.0000000  3
  17683  17684  17685  17688     1  0.0000000  0.6508444  3
  17683  17684  17690  17696     1  0.0000000  1.0460000  1
  17683  17684  17690  17696     1  0.0000000  0.6694400  3
  17683  17680  17692  17695     1  0.0000000  1.0460000  1
  17683  17680  17692  17695     1  0.0000000  0.6694400  3
  17684  17683  17691  17694     1  0.0000000  1.0460000  1
  17684  17683  17691  17694     1  0.0000000  0.6694400  3
  17685  17684  17690  17696     1  0.0000000  1.0460000  1
  17685  17684  17690  17696     1  0.0000000  0.6694400  3
  17685  17684  17683  17687     1  0.0000000  0.6508444  3
  17686  17684  17685  17689     1  0.0000000  1.0460000  1
  17686  17684  17685  17689     1  0.0000000  0.0000000  3
  17686  17684  17685  17701     1  0.0000000  1.0460000  1
  17686  17684  17685  17701     1  0.0000000  0.0000000  3
  17686  17684  17685  17688     1  0.0000000  0.6508444  3
  17686  17684  17690  17696     1  0.0000000  0.6973333  3
  17686  17684  17683  17691     1  0.0000000  1.0460000  1
  17686  17684  17683  17691     1  0.0000000  0.0000000  3
  17686  17684  17683  17687     1  0.0000000  0.6508444  3
  17687  17683  17684  17690     1  0.0000000  1.0460000  1
  17687  17683  17684  17690     1  0.0000000  0.0000000  3
  17687  17683  17691  17694     1  0.0000000  0.6973333  3
  17687  17683  17680  17692     1  0.0000000  1.0460000  1
  17687  17683  17680  17692     1  0.0000000  0.0000000  3
  17688  17685  17684  17690     1  0.0000000  0.6508444  3
  17697  17693  17699  17700     1  0.0000000  0.6973333  3
  17697  17693  17679  17701     1  0.0000000  1.0460000  1
  17697  17693  17679  17701     1  0.0000000  0.0000000  3
  17698  17693  17699  17700     1  0.0000000  0.6973333  3
  17698  17693  17679  17701     1  0.0000000  1.0460000  1
  17698  17693  17679  17701     1  0.0000000  0.0000000  3
  17702  17703  17706  17710     1  0.0000000  0.6508444  3
  17702  17703  17715  17718     1  0.0000000  1.0460000  1
  17702  17703  17715  17718     1  0.0000000  0.6694400  3
  17702  17716  17722  17723     1  0.0000000  1.0460000  1
  17702  17716  17722  17723     1  0.0000000  0.6694400  3
  17702  17724  17708  17711     1  0.0000000  1.6038667  3
  17703  17702  17716  17720     1  0.0000000  0.6508444  3
  17703  17702  17716  17721     1  0.0000000  0.6508444  3
  17703  17706  17707  17709     1  0.0000000  0.6508444  3
  17703  17706  17714  17717     1  0.0000000  1.0460000  1
  17703  17706  17714  17717     1  0.0000000  0.6694400  3
  17704  17702  17703  17706     1  0.0000000  0.6508444  3
  17704  17702  17703  17715     1  0.0000000  1.0460000  1
  17704  17702  17703  17715     1  0.0000000  0.0000000  3
  17704  17702  17703  17705     1  0.0000000  0.6508444  3
  17704  17702  17716  17722     1  0.0000000  1.0460000  1
  17704  17702  17716  17722     1  0.0000000  0.0000000  3
  17704  17702  17716  17720     1  0.0000000  0.6508444  3
  17704  17702  17716  17721     1  0.0000000  0.6508444  3
  17704  17702  17724  17708     1  0.0000000  1.6038667  3
  17705  17703  17702  17716     1  0.0000000  0.6508444  3
  17705  17703  17702  17724     1  0.0000000  1.0460000  1
  17705  17703  17702  17724     1  0.0000000  0.0000000  3
  17705  17703  17706  17707     1  0.0000000  0.6508444  3
  17705  17703  17706  17714     1  0.0000000  1.0460000  1
  17705  17703  17706  17714     1  0.0000000  0.0000000  3
  17705  17703  17706  17710     1  0.0000000  0.6508444  3
  17705  17703  17715  17718     1  0.0000000  0.6973333  3
  17706  17703  17715  17718     1  0.0000000  1.0460000  1
  17706  17703  17715  17718     1  0.0000000  0.6694400  3
  17706  17707  17708  17711     1  0.0000000  0.6508444  3
  17706  17707  17713  17719     1  0.0000000  1.0460000  1
  17706  17707  17713  17719     1  0.0000000  0.6694400  3
  17707  17706  17714  17717     1  0.0000000  1.0460000  1
  17707  17706  17714  17717     1  0.0000000  0.6694400  3
  17708  17707  17706  17710     1  0.0000000  0.6508444  3
  17708  17707  17713  17719     1  0.0000000  1.0460000  1
  17708  17707  17713  17719     1  0.0000000  0.6694400  3
  17709  17707  17706  17714     1  0.0000000  1.0460000  1
  17709  17707  17706  17714     1  0.0000000  0.0000000  3
  17709  17707  17706  17710     1  0.0000000  0.6508444  3
  17709  17707  17708  17712     1  0.0000000  1.0460000  1
  17709  17707  17708  17712     1  0.0000000  0.0000000  3
  17709  17707  17708  17724     1  0.0000000  1.0460000  1
  17709  17707  17708  17724     1  0.0000000  0.0000000  3
  17709  17707  17708  17711     1  0.0000000  0.6508444  3
  17709  17707  17713  17719     1  0.0000000  0.6973333  3
  17710  17706  17703  17715     1  0.0000000  1.0460000  1
  17710  17706  17703  17715     1  0.0000000  0.0000000  3
  17710  17706  17707  17713     1  0.0000000  1.0460000  1
  17710  17706  17707  17713     1  0.0000000  0.0000000  3
  17710  17706  17714  17717     1  0.0000000  0.6973333  3
  17711  17708  17707  17713     1  0.0000000  0.6508444  3
  17720  17716  17702  17724     1  0.0000000  1.0460000  1
  17720  17716  17702  17724     1  0.0000000  0.0000000  3
  17720  17716  17722  17723     1  0.0000000  0.6973333  3
  17721  17716  17702  17724     1  0.0000000  1.0460000  1
  17721  17716  17702  17724     1  0.0000000  0.0000000  3
  17721  17716  17722  17723     1  0.0000000  0.6973333  3
  17725  17726  17729  17733     1  0.0000000  0.6508444  3
  17725  17726  17738  17741     1  0.0000000  1.0460000  1
  17725  17726  17738  17741     1  0.0000000  0.6694400  3
  17725  17739  17745  17746     1  0.0000000  1.0460000  1
  17725  17739  17745  17746     1  0.0000000  0.6694400  3
  17725  17747  17731  17734     1  0.0000000  1.6038667  3
  17726  17729  17730  17732     1  0.0000000  0.6508444  3
  17726  17729  17737  17740     1  0.0000000  1.0460000  1
  17726  17729  17737  17740     1  0.0000000  0.6694400  3
  17726  17725  17739  17743     1  0.0000000  0.6508444  3
  17726  17725  17739  17744     1  0.0000000  0.6508444  3
  17727  17725  17726  17729     1  0.0000000  0.6508444  3
  17727  17725  17726  17738     1  0.0000000  1.0460000  1
  17727  17725  17726  17738     1  0.0000000  0.0000000  3
  17727  17725  17726  17728     1  0.0000000  0.6508444  3
  17727  17725  17739  17745     1  0.0000000  1.0460000  1
  17727  17725  17739  17745     1  0.0000000  0.0000000  3
  17727  17725  17739  17743     1  0.0000000  0.6508444  3
  17727  17725  17739  17744     1  0.0000000  0.6508444  3
  17727  17725  17747  17731     1  0.0000000  1.6038667  3
  17728  17726  17729  17730     1  0.0000000  0.6508444  3
  17728  17726  17729  17737     1  0.0000000  1.0460000  1
  17728  17726  17729  17737     1  0.0000000  0.0000000  3
  17728  17726  17729  17733     1  0.0000000  0.6508444  3
  17728  17726  17738  17741     1  0.0000000  0.6973333  3
  17728  17726  17725  17739     1  0.0000000  0.6508444  3
  17728  17726  17725  17747     1  0.0000000  1.0460000  1
  17728  17726  17725  17747     1  0.0000000  0.0000000  3
  17729  17730  17731  17734     1  0.0000000  0.6508444  3
  17729  17730  17736  17742     1  0.0000000  1.0460000  1
  17729  17730  17736  17742     1  0.0000000  0.6694400  3
  17729  17726  17738  17741     1  0.0000000  1.0460000  1
  17729  17726  17738  17741     1  0.0000000  0.6694400  3
  17730  17729  17737  17740     1  0.0000000  1.0460000  1
  17730  17729  17737  17740     1  0.0000000  0.6694400  3
  17731  17730  17736  17742     1  0.0000000  1.0460000  1
  17731  17730  17736  17742     1  0.0000000  0.6694400  3
  17731  17730  17729  17733     1  0.0000000  0.6508444  3
  17732  17730  17731  17735     1  0.0000000  1.0460000  1
  17732  17730  17731  17735     1  0.0000000  0.0000000  3
  17732  17730  17731  17747     1  0.0000000  1.0460000  1
  17732  17730  17731  17747     1  0.0000000  0.0000000  3
  17732  17730  17731  17734     1  0.0000000  0.6508444  3
  17732  17730  17736  17742     1  0.0000000  0.6973333  3
  17732  17730  17729  17737     1  0.0000000  1.0460000  1
  17732  17730  17729  17737     1  0.0000000  0.0000000  3
  17732  17730  17729  17733     1  0.0000000  0.6508444  3
  17733  17729  17730  17736     1  0.0000000  1.0460000  1
  17733  17729  17730  17736     1  0.0000000  0.0000000  3
  17733  17729  17737  17740     1  0.0000000  0.6973333  3
  17733  17729  17726  17738     1  0.0000000  1.0460000  1
  17733  17729  17726  17738     1  0.0000000  0.0000000  3
  17734  17731  17730  17736     1  0.0000000  0.6508444  3
  17743  17739  17745  17746     1  0.0000000  0.6973333  3
  17743  17739  17725  17747     1  0.0000000  1.0460000  1
  17743  17739  17725  17747     1  0.0000000  0.0000000  3
  17744  17739  17745  17746     1  0.0000000  0.6973333  3
  17744  17739  17725  17747     1  0.0000000  1.0460000  1
  17744  17739  17725  17747     1  0.0000000  0.0000000  3
  17748  17749  17752  17756     1  0.0000000  0.6508444  3
  17748  17749  17761  17764     1  0.0000000  1.0460000  1
  17748  17749  17761  17764     1  0.0000000  0.6694400  3
  17748  17762  17768  17769     1  0.0000000  1.0460000  1
  17748  17762  17768  17769     1  0.0000000  0.6694400  3
  17748  17770  17754  17757     1  0.0000000  1.6038667  3
  17749  17748  17762  17766     1  0.0000000  0.6508444  3
  17749  17748  17762  17767     1  0.0000000  0.6508444  3
  17749  17752  17753  17755     1  0.0000000  0.6508444  3
  17749  17752  17760  17763     1  0.0000000  1.0460000  1
  17749  17752  17760  17763     1  0.0000000  0.6694400  3
  17750  17748  17749  17752     1  0.0000000  0.6508444  3
  17750  17748  17749  17761     1  0.0000000  1.0460000  1
  17750  17748  17749  17761     1  0.0000000  0.0000000  3
  17750  17748  17749  17751     1  0.0000000  0.6508444  3
  17750  17748  17762  17768     1  0.0000000  1.0460000  1
  17750  17748  17762  17768     1  0.0000000  0.0000000  3
  17750  17748  17762  17766     1  0.0000000  0.6508444  3
  17750  17748  17762  17767     1  0.0000000  0.6508444  3
  17750  17748  17770  17754     1  0.0000000  1.6038667  3
  17751  17749  17748  17762     1  0.0000000  0.6508444  3
  17751  17749  17748  17770     1  0.0000000  1.0460000  1
  17751  17749  17748  17770     1  0.0000000  0.0000000  3
  17751  17749  17752  17753     1  0.0000000  0.6508444  3
  17751  17749  17752  17760     1  0.0000000  1.0460000  1
  17751  17749  17752  17760     1  0.0000000  0.0000000  3
  17751  17749  17752  17756     1  0.0000000  0.6508444  3
  17751  17749  17761  17764     1  0.0000000  0.6973333  3
  17752  17749  17761  17764     1  0.0000000  1.0460000  1
  17752  17749  17761  17764     1  0.0000000  0.6694400  3
  17752  17753  17754  17757     1  0.0000000  0.6508444  3
  17752  17753  17759  17765     1  0.0000000  1.0460000  1
  17752  17753  17759  17765     1  0.0000000  0.6694400  3
  17753  17752  17760  17763     1  0.0000000  1.0460000  1
  17753  17752  17760  17763     1  0.0000000  0.6694400  3
  17754  17753  17752  17756     1  0.0000000  0.6508444  3
  17754  17753  17759  17765     1  0.0000000  1.0460000  1
  17754  17753  17759  17765     1  0.0000000  0.6694400  3
  17755  17753  17752  17760     1  0.0000000  1.0460000  1
  17755  17753  17752  17760     1  0.0000000  0.0000000  3
  17755  17753  17752  17756     1  0.0000000  0.6508444  3
  17755  17753  17754  17758     1  0.0000000  1.0460000  1
  17755  17753  17754  17758     1  0.0000000  0.0000000  3
  17755  17753  17754  17770     1  0.0000000  1.0460000  1
  17755  17753  17754  17770     1  0.0000000  0.0000000  3
  17755  17753  17754  17757     1  0.0000000  0.6508444  3
  17755  17753  17759  17765     1  0.0000000  0.6973333  3
  17756  17752  17749  17761     1  0.0000000  1.0460000  1
  17756  17752  17749  17761     1  0.0000000  0.0000000  3
  17756  17752  17753  17759     1  0.0000000  1.0460000  1
  17756  17752  17753  17759     1  0.0000000  0.0000000  3
  17756  17752  17760  17763     1  0.0000000  0.6973333  3
  17757  17754  17753  17759     1  0.0000000  0.6508444  3
  17766  17762  17748  17770     1  0.0000000  1.0460000  1
  17766  17762  17748  17770     1  0.0000000  0.0000000  3
  17766  17762  17768  17769     1  0.0000000  0.6973333  3
  17767  17762  17748  17770     1  0.0000000  1.0460000  1
  17767  17762  17748  17770     1  0.0000000  0.0000000  3
  17767  17762  17768  17769     1  0.0000000  0.6973333  3
  17771  17772  17775  17779     1  0.0000000  0.6508444  3
  17771  17772  17784  17787     1  0.0000000  1.0460000  1
  17771  17772  17784  17787     1  0.0000000  0.6694400  3
  17771  17785  17791  17792     1  0.0000000  1.0460000  1
  17771  17785  17791  17792     1  0.0000000  0.6694400  3
  17771  17793  17777  17780     1  0.0000000  1.6038667  3
  17772  17775  17776  17778     1  0.0000000  0.6508444  3
  17772  17775  17783  17786     1  0.0000000  1.0460000  1
  17772  17775  17783  17786     1  0.0000000  0.6694400  3
  17772  17771  17785  17789     1  0.0000000  0.6508444  3
  17772  17771  17785  17790     1  0.0000000  0.6508444  3
  17773  17771  17772  17775     1  0.0000000  0.6508444  3
  17773  17771  17772  17784     1  0.0000000  1.0460000  1
  17773  17771  17772  17784     1  0.0000000  0.0000000  3
  17773  17771  17772  17774     1  0.0000000  0.6508444  3
  17773  17771  17785  17791     1  0.0000000  1.0460000  1
  17773  17771  17785  17791     1  0.0000000  0.0000000  3
  17773  17771  17785  17789     1  0.0000000  0.6508444  3
  17773  17771  17785  17790     1  0.0000000  0.6508444  3
  17773  17771  17793  17777     1  0.0000000  1.6038667  3
  17774  17772  17775  17776     1  0.0000000  0.6508444  3
  17774  17772  17775  17783     1  0.0000000  1.0460000  1
  17774  17772  17775  17783     1  0.0000000  0.0000000  3
  17774  17772  17775  17779     1  0.0000000  0.6508444  3
  17774  17772  17784  17787     1  0.0000000  0.6973333  3
  17774  17772  17771  17785     1  0.0000000  0.6508444  3
  17774  17772  17771  17793     1  0.0000000  1.0460000  1
  17774  17772  17771  17793     1  0.0000000  0.0000000  3
  17775  17776  17777  17780     1  0.0000000  0.6508444  3
  17775  17776  17782  17788     1  0.0000000  1.0460000  1
  17775  17776  17782  17788     1  0.0000000  0.6694400  3
  17775  17772  17784  17787     1  0.0000000  1.0460000  1
  17775  17772  17784  17787     1  0.0000000  0.6694400  3
  17776  17775  17783  17786     1  0.0000000  1.0460000  1
  17776  17775  17783  17786     1  0.0000000  0.6694400  3
  17777  17776  17782  17788     1  0.0000000  1.0460000  1
  17777  17776  17782  17788     1  0.0000000  0.6694400  3
  17777  17776  17775  17779     1  0.0000000  0.6508444  3
  17778  17776  17777  17781     1  0.0000000  1.0460000  1
  17778  17776  17777  17781     1  0.0000000  0.0000000  3
  17778  17776  17777  17793     1  0.0000000  1.0460000  1
  17778  17776  17777  17793     1  0.0000000  0.0000000  3
  17778  17776  17777  17780     1  0.0000000  0.6508444  3
  17778  17776  17782  17788     1  0.0000000  0.6973333  3
  17778  17776  17775  17783     1  0.0000000  1.0460000  1
  17778  17776  17775  17783     1  0.0000000  0.0000000  3
  17778  17776  17775  17779     1  0.0000000  0.6508444  3
  17779  17775  17776  17782     1  0.0000000  1.0460000  1
  17779  17775  17776  17782     1  0.0000000  0.0000000  3
  17779  17775  17783  17786     1  0.0000000  0.6973333  3
  17779  17775  17772  17784     1  0.0000000  1.0460000  1
  17779  17775  17772  17784     1  0.0000000  0.0000000  3
  17780  17777  17776  17782     1  0.0000000  0.6508444  3
  17789  17785  17791  17792     1  0.0000000  0.6973333  3
  17789  17785  17771  17793     1  0.0000000  1.0460000  1
  17789  17785  17771  17793     1  0.0000000  0.0000000  3
  17790  17785  17791  17792     1  0.0000000  0.6973333  3
  17790  17785  17771  17793     1  0.0000000  1.0460000  1
  17790  17785  17771  17793     1  0.0000000  0.0000000  3
  17794  17795  17798  17802     1  0.0000000  0.6508444  3
  17794  17795  17807  17810     1  0.0000000  1.0460000  1
  17794  17795  17807  17810     1  0.0000000  0.6694400  3
  17794  17808  17814  17815     1  0.0000000  1.0460000  1
  17794  17808  17814  17815     1  0.0000000  0.6694400  3
  17794  17816  17800  17803     1  0.0000000  1.6038667  3
  17795  17794  17808  17812     1  0.0000000  0.6508444  3
  17795  17794  17808  17813     1  0.0000000  0.6508444  3
  17795  17798  17799  17801     1  0.0000000  0.6508444  3
  17795  17798  17806  17809     1  0.0000000  1.0460000  1
  17795  17798  17806  17809     1  0.0000000  0.6694400  3
  17796  17794  17795  17798     1  0.0000000  0.6508444  3
  17796  17794  17795  17807     1  0.0000000  1.0460000  1
  17796  17794  17795  17807     1  0.0000000  0.0000000  3
  17796  17794  17795  17797     1  0.0000000  0.6508444  3
  17796  17794  17808  17814     1  0.0000000  1.0460000  1
  17796  17794  17808  17814     1  0.0000000  0.0000000  3
  17796  17794  17808  17812     1  0.0000000  0.6508444  3
  17796  17794  17808  17813     1  0.0000000  0.6508444  3
  17796  17794  17816  17800     1  0.0000000  1.6038667  3
  17797  17795  17794  17808     1  0.0000000  0.6508444  3
  17797  17795  17794  17816     1  0.0000000  1.0460000  1
  17797  17795  17794  17816     1  0.0000000  0.0000000  3
  17797  17795  17798  17799     1  0.0000000  0.6508444  3
  17797  17795  17798  17806     1  0.0000000  1.0460000  1
  17797  17795  17798  17806     1  0.0000000  0.0000000  3
  17797  17795  17798  17802     1  0.0000000  0.6508444  3
  17797  17795  17807  17810     1  0.0000000  0.6973333  3
  17798  17795  17807  17810     1  0.0000000  1.0460000  1
  17798  17795  17807  17810     1  0.0000000  0.6694400  3
  17798  17799  17800  17803     1  0.0000000  0.6508444  3
  17798  17799  17805  17811     1  0.0000000  1.0460000  1
  17798  17799  17805  17811     1  0.0000000  0.6694400  3
  17799  17798  17806  17809     1  0.0000000  1.0460000  1
  17799  17798  17806  17809     1  0.0000000  0.6694400  3
  17800  17799  17798  17802     1  0.0000000  0.6508444  3
  17800  17799  17805  17811     1  0.0000000  1.0460000  1
  17800  17799  17805  17811     1  0.0000000  0.6694400  3
  17801  17799  17798  17806     1  0.0000000  1.0460000  1
  17801  17799  17798  17806     1  0.0000000  0.0000000  3
  17801  17799  17798  17802     1  0.0000000  0.6508444  3
  17801  17799  17800  17804     1  0.0000000  1.0460000  1
  17801  17799  17800  17804     1  0.0000000  0.0000000  3
  17801  17799  17800  17816     1  0.0000000  1.0460000  1
  17801  17799  17800  17816     1  0.0000000  0.0000000  3
  17801  17799  17800  17803     1  0.0000000  0.6508444  3
  17801  17799  17805  17811     1  0.0000000  0.6973333  3
  17802  17798  17795  17807     1  0.0000000  1.0460000  1
  17802  17798  17795  17807     1  0.0000000  0.0000000  3
  17802  17798  17799  17805     1  0.0000000  1.0460000  1
  17802  17798  17799  17805     1  0.0000000  0.0000000  3
  17802  17798  17806  17809     1  0.0000000  0.6973333  3
  17803  17800  17799  17805     1  0.0000000  0.6508444  3
  17812  17808  17794  17816     1  0.0000000  1.0460000  1
  17812  17808  17794  17816     1  0.0000000  0.0000000  3
  17812  17808  17814  17815     1  0.0000000  0.6973333  3
  17813  17808  17794  17816     1  0.0000000  1.0460000  1
  17813  17808  17794  17816     1  0.0000000  0.0000000  3
  17813  17808  17814  17815     1  0.0000000  0.6973333  3
  17817  17818  17821  17825     1  0.0000000  0.6508444  3
  17817  17818  17830  17833     1  0.0000000  1.0460000  1
  17817  17818  17830  17833     1  0.0000000  0.6694400  3
  17817  17831  17837  17838     1  0.0000000  1.0460000  1
  17817  17831  17837  17838     1  0.0000000  0.6694400  3
  17817  17839  17823  17826     1  0.0000000  1.6038667  3
  17818  17821  17822  17824     1  0.0000000  0.6508444  3
  17818  17821  17829  17832     1  0.0000000  1.0460000  1
  17818  17821  17829  17832     1  0.0000000  0.6694400  3
  17818  17817  17831  17835     1  0.0000000  0.6508444  3
  17818  17817  17831  17836     1  0.0000000  0.6508444  3
  17819  17817  17818  17821     1  0.0000000  0.6508444  3
  17819  17817  17818  17830     1  0.0000000  1.0460000  1
  17819  17817  17818  17830     1  0.0000000  0.0000000  3
  17819  17817  17818  17820     1  0.0000000  0.6508444  3
  17819  17817  17831  17837     1  0.0000000  1.0460000  1
  17819  17817  17831  17837     1  0.0000000  0.0000000  3
  17819  17817  17831  17835     1  0.0000000  0.6508444  3
  17819  17817  17831  17836     1  0.0000000  0.6508444  3
  17819  17817  17839  17823     1  0.0000000  1.6038667  3
  17820  17818  17821  17822     1  0.0000000  0.6508444  3
  17820  17818  17821  17829     1  0.0000000  1.0460000  1
  17820  17818  17821  17829     1  0.0000000  0.0000000  3
  17820  17818  17821  17825     1  0.0000000  0.6508444  3
  17820  17818  17830  17833     1  0.0000000  0.6973333  3
  17820  17818  17817  17831     1  0.0000000  0.6508444  3
  17820  17818  17817  17839     1  0.0000000  1.0460000  1
  17820  17818  17817  17839     1  0.0000000  0.0000000  3
  17821  17822  17823  17826     1  0.0000000  0.6508444  3
  17821  17822  17828  17834     1  0.0000000  1.0460000  1
  17821  17822  17828  17834     1  0.0000000  0.6694400  3
  17821  17818  17830  17833     1  0.0000000  1.0460000  1
  17821  17818  17830  17833     1  0.0000000  0.6694400  3
  17822  17821  17829  17832     1  0.0000000  1.0460000  1
  17822  17821  17829  17832     1  0.0000000  0.6694400  3
  17823  17822  17828  17834     1  0.0000000  1.0460000  1
  17823  17822  17828  17834     1  0.0000000  0.6694400  3
  17823  17822  17821  17825     1  0.0000000  0.6508444  3
  17824  17822  17823  17827     1  0.0000000  1.0460000  1
  17824  17822  17823  17827     1  0.0000000  0.0000000  3
  17824  17822  17823  17839     1  0.0000000  1.0460000  1
  17824  17822  17823  17839     1  0.0000000  0.0000000  3
  17824  17822  17823  17826     1  0.0000000  0.6508444  3
  17824  17822  17828  17834     1  0.0000000  0.6973333  3
  17824  17822  17821  17829     1  0.0000000  1.0460000  1
  17824  17822  17821  17829     1  0.0000000  0.0000000  3
  17824  17822  17821  17825     1  0.0000000  0.6508444  3
  17825  17821  17822  17828     1  0.0000000  1.0460000  1
  17825  17821  17822  17828     1  0.0000000  0.0000000  3
  17825  17821  17829  17832     1  0.0000000  0.6973333  3
  17825  17821  17818  17830     1  0.0000000  1.0460000  1
  17825  17821  17818  17830     1  0.0000000  0.0000000  3
  17826  17823  17822  17828     1  0.0000000  0.6508444  3
  17835  17831  17837  17838     1  0.0000000  0.6973333  3
  17835  17831  17817  17839     1  0.0000000  1.0460000  1
  17835  17831  17817  17839     1  0.0000000  0.0000000  3
  17836  17831  17837  17838     1  0.0000000  0.6973333  3
  17836  17831  17817  17839     1  0.0000000  1.0460000  1
  17836  17831  17817  17839     1  0.0000000  0.0000000  3
  17840  17841  17844  17848     1  0.0000000  0.6508444  3
  17840  17841  17853  17856     1  0.0000000  1.0460000  1
  17840  17841  17853  17856     1  0.0000000  0.6694400  3
  17840  17854  17860  17861     1  0.0000000  1.0460000  1
  17840  17854  17860  17861     1  0.0000000  0.6694400  3
  17840  17862  17846  17849     1  0.0000000  1.6038667  3
  17841  17840  17854  17858     1  0.0000000  0.6508444  3
  17841  17840  17854  17859     1  0.0000000  0.6508444  3
  17841  17844  17845  17847     1  0.0000000  0.6508444  3
  17841  17844  17852  17855     1  0.0000000  1.0460000  1
  17841  17844  17852  17855     1  0.0000000  0.6694400  3
  17842  17840  17841  17844     1  0.0000000  0.6508444  3
  17842  17840  17841  17853     1  0.0000000  1.0460000  1
  17842  17840  17841  17853     1  0.0000000  0.0000000  3
  17842  17840  17841  17843     1  0.0000000  0.6508444  3
  17842  17840  17854  17860     1  0.0000000  1.0460000  1
  17842  17840  17854  17860     1  0.0000000  0.0000000  3
  17842  17840  17854  17858     1  0.0000000  0.6508444  3
  17842  17840  17854  17859     1  0.0000000  0.6508444  3
  17842  17840  17862  17846     1  0.0000000  1.6038667  3
  17843  17841  17840  17854     1  0.0000000  0.6508444  3
  17843  17841  17840  17862     1  0.0000000  1.0460000  1
  17843  17841  17840  17862     1  0.0000000  0.0000000  3
  17843  17841  17844  17845     1  0.0000000  0.6508444  3
  17843  17841  17844  17852     1  0.0000000  1.0460000  1
  17843  17841  17844  17852     1  0.0000000  0.0000000  3
  17843  17841  17844  17848     1  0.0000000  0.6508444  3
  17843  17841  17853  17856     1  0.0000000  0.6973333  3
  17844  17841  17853  17856     1  0.0000000  1.0460000  1
  17844  17841  17853  17856     1  0.0000000  0.6694400  3
  17844  17845  17846  17849     1  0.0000000  0.6508444  3
  17844  17845  17851  17857     1  0.0000000  1.0460000  1
  17844  17845  17851  17857     1  0.0000000  0.6694400  3
  17845  17844  17852  17855     1  0.0000000  1.0460000  1
  17845  17844  17852  17855     1  0.0000000  0.6694400  3
  17846  17845  17844  17848     1  0.0000000  0.6508444  3
  17846  17845  17851  17857     1  0.0000000  1.0460000  1
  17846  17845  17851  17857     1  0.0000000  0.6694400  3
  17847  17845  17844  17852     1  0.0000000  1.0460000  1
  17847  17845  17844  17852     1  0.0000000  0.0000000  3
  17847  17845  17844  17848     1  0.0000000  0.6508444  3
  17847  17845  17846  17850     1  0.0000000  1.0460000  1
  17847  17845  17846  17850     1  0.0000000  0.0000000  3
  17847  17845  17846  17862     1  0.0000000  1.0460000  1
  17847  17845  17846  17862     1  0.0000000  0.0000000  3
  17847  17845  17846  17849     1  0.0000000  0.6508444  3
  17847  17845  17851  17857     1  0.0000000  0.6973333  3
  17848  17844  17841  17853     1  0.0000000  1.0460000  1
  17848  17844  17841  17853     1  0.0000000  0.0000000  3
  17848  17844  17845  17851     1  0.0000000  1.0460000  1
  17848  17844  17845  17851     1  0.0000000  0.0000000  3
  17848  17844  17852  17855     1  0.0000000  0.6973333  3
  17849  17846  17845  17851     1  0.0000000  0.6508444  3
  17858  17854  17840  17862     1  0.0000000  1.0460000  1
  17858  17854  17840  17862     1  0.0000000  0.0000000  3
  17858  17854  17860  17861     1  0.0000000  0.6973333  3
  17859  17854  17840  17862     1  0.0000000  1.0460000  1
  17859  17854  17840  17862     1  0.0000000  0.0000000  3
  17859  17854  17860  17861     1  0.0000000  0.6973333  3
  17863  17864  17867  17871     1  0.0000000  0.6508444  3
  17863  17864  17876  17879     1  0.0000000  1.0460000  1
  17863  17864  17876  17879     1  0.0000000  0.6694400  3
  17863  17877  17883  17884     1  0.0000000  1.0460000  1
  17863  17877  17883  17884     1  0.0000000  0.6694400  3
  17863  17885  17869  17872     1  0.0000000  1.6038667  3
  17864  17867  17868  17870     1  0.0000000  0.6508444  3
  17864  17867  17875  17878     1  0.0000000  1.0460000  1
  17864  17867  17875  17878     1  0.0000000  0.6694400  3
  17864  17863  17877  17881     1  0.0000000  0.6508444  3
  17864  17863  17877  17882     1  0.0000000  0.6508444  3
  17865  17863  17864  17867     1  0.0000000  0.6508444  3
  17865  17863  17864  17876     1  0.0000000  1.0460000  1
  17865  17863  17864  17876     1  0.0000000  0.0000000  3
  17865  17863  17864  17866     1  0.0000000  0.6508444  3
  17865  17863  17877  17883     1  0.0000000  1.0460000  1
  17865  17863  17877  17883     1  0.0000000  0.0000000  3
  17865  17863  17877  17881     1  0.0000000  0.6508444  3
  17865  17863  17877  17882     1  0.0000000  0.6508444  3
  17865  17863  17885  17869     1  0.0000000  1.6038667  3
  17866  17864  17867  17868     1  0.0000000  0.6508444  3
  17866  17864  17867  17875     1  0.0000000  1.0460000  1
  17866  17864  17867  17875     1  0.0000000  0.0000000  3
  17866  17864  17867  17871     1  0.0000000  0.6508444  3
  17866  17864  17876  17879     1  0.0000000  0.6973333  3
  17866  17864  17863  17877     1  0.0000000  0.6508444  3
  17866  17864  17863  17885     1  0.0000000  1.0460000  1
  17866  17864  17863  17885     1  0.0000000  0.0000000  3
  17867  17868  17869  17872     1  0.0000000  0.6508444  3
  17867  17868  17874  17880     1  0.0000000  1.0460000  1
  17867  17868  17874  17880     1  0.0000000  0.6694400  3
  17867  17864  17876  17879     1  0.0000000  1.0460000  1
  17867  17864  17876  17879     1  0.0000000  0.6694400  3
  17868  17867  17875  17878     1  0.0000000  1.0460000  1
  17868  17867  17875  17878     1  0.0000000  0.6694400  3
  17869  17868  17874  17880     1  0.0000000  1.0460000  1
  17869  17868  17874  17880     1  0.0000000  0.6694400  3
  17869  17868  17867  17871     1  0.0000000  0.6508444  3
  17870  17868  17869  17873     1  0.0000000  1.0460000  1
  17870  17868  17869  17873     1  0.0000000  0.0000000  3
  17870  17868  17869  17885     1  0.0000000  1.0460000  1
  17870  17868  17869  17885     1  0.0000000  0.0000000  3
  17870  17868  17869  17872     1  0.0000000  0.6508444  3
  17870  17868  17874  17880     1  0.0000000  0.6973333  3
  17870  17868  17867  17875     1  0.0000000  1.0460000  1
  17870  17868  17867  17875     1  0.0000000  0.0000000  3
  17870  17868  17867  17871     1  0.0000000  0.6508444  3
  17871  17867  17868  17874     1  0.0000000  1.0460000  1
  17871  17867  17868  17874     1  0.0000000  0.0000000  3
  17871  17867  17875  17878     1  0.0000000  0.6973333  3
  17871  17867  17864  17876     1  0.0000000  1.0460000  1
  17871  17867  17864  17876     1  0.0000000  0.0000000  3
  17872  17869  17868  17874     1  0.0000000  0.6508444  3
  17881  17877  17883  17884     1  0.0000000  0.6973333  3
  17881  17877  17863  17885     1  0.0000000  1.0460000  1
  17881  17877  17863  17885     1  0.0000000  0.0000000  3
  17882  17877  17883  17884     1  0.0000000  0.6973333  3
  17882  17877  17863  17885     1  0.0000000  1.0460000  1
  17882  17877  17863  17885     1  0.0000000  0.0000000  3
  17886  17887  17890  17894     1  0.0000000  0.6508444  3
  17886  17887  17899  17902     1  0.0000000  1.0460000  1
  17886  17887  17899  17902     1  0.0000000  0.6694400  3
  17886  17900  17906  17907     1  0.0000000  1.0460000  1
  17886  17900  17906  17907     1  0.0000000  0.6694400  3
  17886  17908  17892  17895     1  0.0000000  1.6038667  3
  17887  17886  17900  17904     1  0.0000000  0.6508444  3
  17887  17886  17900  17905     1  0.0000000  0.6508444  3
  17887  17890  17891  17893     1  0.0000000  0.6508444  3
  17887  17890  17898  17901     1  0.0000000  1.0460000  1
  17887  17890  17898  17901     1  0.0000000  0.6694400  3
  17888  17886  17887  17890     1  0.0000000  0.6508444  3
  17888  17886  17887  17899     1  0.0000000  1.0460000  1
  17888  17886  17887  17899     1  0.0000000  0.0000000  3
  17888  17886  17887  17889     1  0.0000000  0.6508444  3
  17888  17886  17900  17906     1  0.0000000  1.0460000  1
  17888  17886  17900  17906     1  0.0000000  0.0000000  3
  17888  17886  17900  17904     1  0.0000000  0.6508444  3
  17888  17886  17900  17905     1  0.0000000  0.6508444  3
  17888  17886  17908  17892     1  0.0000000  1.6038667  3
  17889  17887  17886  17900     1  0.0000000  0.6508444  3
  17889  17887  17886  17908     1  0.0000000  1.0460000  1
  17889  17887  17886  17908     1  0.0000000  0.0000000  3
  17889  17887  17890  17891     1  0.0000000  0.6508444  3
  17889  17887  17890  17898     1  0.0000000  1.0460000  1
  17889  17887  17890  17898     1  0.0000000  0.0000000  3
  17889  17887  17890  17894     1  0.0000000  0.6508444  3
  17889  17887  17899  17902     1  0.0000000  0.6973333  3
  17890  17887  17899  17902     1  0.0000000  1.0460000  1
  17890  17887  17899  17902     1  0.0000000  0.6694400  3
  17890  17891  17892  17895     1  0.0000000  0.6508444  3
  17890  17891  17897  17903     1  0.0000000  1.0460000  1
  17890  17891  17897  17903     1  0.0000000  0.6694400  3
  17891  17890  17898  17901     1  0.0000000  1.0460000  1
  17891  17890  17898  17901     1  0.0000000  0.6694400  3
  17892  17891  17890  17894     1  0.0000000  0.6508444  3
  17892  17891  17897  17903     1  0.0000000  1.0460000  1
  17892  17891  17897  17903     1  0.0000000  0.6694400  3
  17893  17891  17890  17898     1  0.0000000  1.0460000  1
  17893  17891  17890  17898     1  0.0000000  0.0000000  3
  17893  17891  17890  17894     1  0.0000000  0.6508444  3
  17893  17891  17892  17896     1  0.0000000  1.0460000  1
  17893  17891  17892  17896     1  0.0000000  0.0000000  3
  17893  17891  17892  17908     1  0.0000000  1.0460000  1
  17893  17891  17892  17908     1  0.0000000  0.0000000  3
  17893  17891  17892  17895     1  0.0000000  0.6508444  3
  17893  17891  17897  17903     1  0.0000000  0.6973333  3
  17894  17890  17887  17899     1  0.0000000  1.0460000  1
  17894  17890  17887  17899     1  0.0000000  0.0000000  3
  17894  17890  17891  17897     1  0.0000000  1.0460000  1
  17894  17890  17891  17897     1  0.0000000  0.0000000  3
  17894  17890  17898  17901     1  0.0000000  0.6973333  3
  17895  17892  17891  17897     1  0.0000000  0.6508444  3
  17904  17900  17886  17908     1  0.0000000  1.0460000  1
  17904  17900  17886  17908     1  0.0000000  0.0000000  3
  17904  17900  17906  17907     1  0.0000000  0.6973333  3
  17905  17900  17886  17908     1  0.0000000  1.0460000  1
  17905  17900  17886  17908     1  0.0000000  0.0000000  3
  17905  17900  17906  17907     1  0.0000000  0.6973333  3
  17909  17910  17913  17917     1  0.0000000  0.6508444  3
  17909  17910  17922  17925     1  0.0000000  1.0460000  1
  17909  17910  17922  17925     1  0.0000000  0.6694400  3
  17909  17923  17929  17930     1  0.0000000  1.0460000  1
  17909  17923  17929  17930     1  0.0000000  0.6694400  3
  17909  17931  17915  17918     1  0.0000000  1.6038667  3
  17910  17913  17914  17916     1  0.0000000  0.6508444  3
  17910  17913  17921  17924     1  0.0000000  1.0460000  1
  17910  17913  17921  17924     1  0.0000000  0.6694400  3
  17910  17909  17923  17927     1  0.0000000  0.6508444  3
  17910  17909  17923  17928     1  0.0000000  0.6508444  3
  17911  17909  17910  17913     1  0.0000000  0.6508444  3
  17911  17909  17910  17922     1  0.0000000  1.0460000  1
  17911  17909  17910  17922     1  0.0000000  0.0000000  3
  17911  17909  17910  17912     1  0.0000000  0.6508444  3
  17911  17909  17923  17929     1  0.0000000  1.0460000  1
  17911  17909  17923  17929     1  0.0000000  0.0000000  3
  17911  17909  17923  17927     1  0.0000000  0.6508444  3
  17911  17909  17923  17928     1  0.0000000  0.6508444  3
  17911  17909  17931  17915     1  0.0000000  1.6038667  3
  17912  17910  17913  17914     1  0.0000000  0.6508444  3
  17912  17910  17913  17921     1  0.0000000  1.0460000  1
  17912  17910  17913  17921     1  0.0000000  0.0000000  3
  17912  17910  17913  17917     1  0.0000000  0.6508444  3
  17912  17910  17922  17925     1  0.0000000  0.6973333  3
  17912  17910  17909  17923     1  0.0000000  0.6508444  3
  17912  17910  17909  17931     1  0.0000000  1.0460000  1
  17912  17910  17909  17931     1  0.0000000  0.0000000  3
  17913  17914  17915  17918     1  0.0000000  0.6508444  3
  17913  17914  17920  17926     1  0.0000000  1.0460000  1
  17913  17914  17920  17926     1  0.0000000  0.6694400  3
  17913  17910  17922  17925     1  0.0000000  1.0460000  1
  17913  17910  17922  17925     1  0.0000000  0.6694400  3
  17914  17913  17921  17924     1  0.0000000  1.0460000  1
  17914  17913  17921  17924     1  0.0000000  0.6694400  3
  17915  17914  17920  17926     1  0.0000000  1.0460000  1
  17915  17914  17920  17926     1  0.0000000  0.6694400  3
  17915  17914  17913  17917     1  0.0000000  0.6508444  3
  17916  17914  17915  17919     1  0.0000000  1.0460000  1
  17916  17914  17915  17919     1  0.0000000  0.0000000  3
  17916  17914  17915  17931     1  0.0000000  1.0460000  1
  17916  17914  17915  17931     1  0.0000000  0.0000000  3
  17916  17914  17915  17918     1  0.0000000  0.6508444  3
  17916  17914  17920  17926     1  0.0000000  0.6973333  3
  17916  17914  17913  17921     1  0.0000000  1.0460000  1
  17916  17914  17913  17921     1  0.0000000  0.0000000  3
  17916  17914  17913  17917     1  0.0000000  0.6508444  3
  17917  17913  17914  17920     1  0.0000000  1.0460000  1
  17917  17913  17914  17920     1  0.0000000  0.0000000  3
  17917  17913  17921  17924     1  0.0000000  0.6973333  3
  17917  17913  17910  17922     1  0.0000000  1.0460000  1
  17917  17913  17910  17922     1  0.0000000  0.0000000  3
  17918  17915  17914  17920     1  0.0000000  0.6508444  3
  17927  17923  17929  17930     1  0.0000000  0.6973333  3
  17927  17923  17909  17931     1  0.0000000  1.0460000  1
  17927  17923  17909  17931     1  0.0000000  0.0000000  3
  17928  17923  17929  17930     1  0.0000000  0.6973333  3
  17928  17923  17909  17931     1  0.0000000  1.0460000  1
  17928  17923  17909  17931     1  0.0000000  0.0000000  3
  17932  17933  17936  17940     1  0.0000000  0.6508444  3
  17932  17933  17945  17948     1  0.0000000  1.0460000  1
  17932  17933  17945  17948     1  0.0000000  0.6694400  3
  17932  17946  17952  17953     1  0.0000000  1.0460000  1
  17932  17946  17952  17953     1  0.0000000  0.6694400  3
  17932  17954  17938  17941     1  0.0000000  1.6038667  3
  17933  17932  17946  17950     1  0.0000000  0.6508444  3
  17933  17932  17946  17951     1  0.0000000  0.6508444  3
  17933  17936  17937  17939     1  0.0000000  0.6508444  3
  17933  17936  17944  17947     1  0.0000000  1.0460000  1
  17933  17936  17944  17947     1  0.0000000  0.6694400  3
  17934  17932  17933  17936     1  0.0000000  0.6508444  3
  17934  17932  17933  17945     1  0.0000000  1.0460000  1
  17934  17932  17933  17945     1  0.0000000  0.0000000  3
  17934  17932  17933  17935     1  0.0000000  0.6508444  3
  17934  17932  17946  17952     1  0.0000000  1.0460000  1
  17934  17932  17946  17952     1  0.0000000  0.0000000  3
  17934  17932  17946  17950     1  0.0000000  0.6508444  3
  17934  17932  17946  17951     1  0.0000000  0.6508444  3
  17934  17932  17954  17938     1  0.0000000  1.6038667  3
  17935  17933  17932  17946     1  0.0000000  0.6508444  3
  17935  17933  17932  17954     1  0.0000000  1.0460000  1
  17935  17933  17932  17954     1  0.0000000  0.0000000  3
  17935  17933  17936  17937     1  0.0000000  0.6508444  3
  17935  17933  17936  17944     1  0.0000000  1.0460000  1
  17935  17933  17936  17944     1  0.0000000  0.0000000  3
  17935  17933  17936  17940     1  0.0000000  0.6508444  3
  17935  17933  17945  17948     1  0.0000000  0.6973333  3
  17936  17933  17945  17948     1  0.0000000  1.0460000  1
  17936  17933  17945  17948     1  0.0000000  0.6694400  3
  17936  17937  17938  17941     1  0.0000000  0.6508444  3
  17936  17937  17943  17949     1  0.0000000  1.0460000  1
  17936  17937  17943  17949     1  0.0000000  0.6694400  3
  17937  17936  17944  17947     1  0.0000000  1.0460000  1
  17937  17936  17944  17947     1  0.0000000  0.6694400  3
  17938  17937  17936  17940     1  0.0000000  0.6508444  3
  17938  17937  17943  17949     1  0.0000000  1.0460000  1
  17938  17937  17943  17949     1  0.0000000  0.6694400  3
  17939  17937  17936  17944     1  0.0000000  1.0460000  1
  17939  17937  17936  17944     1  0.0000000  0.0000000  3
  17939  17937  17936  17940     1  0.0000000  0.6508444  3
  17939  17937  17938  17942     1  0.0000000  1.0460000  1
  17939  17937  17938  17942     1  0.0000000  0.0000000  3
  17939  17937  17938  17954     1  0.0000000  1.0460000  1
  17939  17937  17938  17954     1  0.0000000  0.0000000  3
  17939  17937  17938  17941     1  0.0000000  0.6508444  3
  17939  17937  17943  17949     1  0.0000000  0.6973333  3
  17940  17936  17933  17945     1  0.0000000  1.0460000  1
  17940  17936  17933  17945     1  0.0000000  0.0000000  3
  17940  17936  17937  17943     1  0.0000000  1.0460000  1
  17940  17936  17937  17943     1  0.0000000  0.0000000  3
  17940  17936  17944  17947     1  0.0000000  0.6973333  3
  17941  17938  17937  17943     1  0.0000000  0.6508444  3
  17950  17946  17932  17954     1  0.0000000  1.0460000  1
  17950  17946  17932  17954     1  0.0000000  0.0000000  3
  17950  17946  17952  17953     1  0.0000000  0.6973333  3
  17951  17946  17932  17954     1  0.0000000  1.0460000  1
  17951  17946  17932  17954     1  0.0000000  0.0000000  3
  17951  17946  17952  17953     1  0.0000000  0.6973333  3
  17955  17956  17959  17963     1  0.0000000  0.6508444  3
  17955  17956  17968  17971     1  0.0000000  1.0460000  1
  17955  17956  17968  17971     1  0.0000000  0.6694400  3
  17955  17969  17975  17976     1  0.0000000  1.0460000  1
  17955  17969  17975  17976     1  0.0000000  0.6694400  3
  17955  17977  17961  17964     1  0.0000000  1.6038667  3
  17956  17959  17960  17962     1  0.0000000  0.6508444  3
  17956  17959  17967  17970     1  0.0000000  1.0460000  1
  17956  17959  17967  17970     1  0.0000000  0.6694400  3
  17956  17955  17969  17973     1  0.0000000  0.6508444  3
  17956  17955  17969  17974     1  0.0000000  0.6508444  3
  17957  17955  17956  17959     1  0.0000000  0.6508444  3
  17957  17955  17956  17968     1  0.0000000  1.0460000  1
  17957  17955  17956  17968     1  0.0000000  0.0000000  3
  17957  17955  17956  17958     1  0.0000000  0.6508444  3
  17957  17955  17969  17975     1  0.0000000  1.0460000  1
  17957  17955  17969  17975     1  0.0000000  0.0000000  3
  17957  17955  17969  17973     1  0.0000000  0.6508444  3
  17957  17955  17969  17974     1  0.0000000  0.6508444  3
  17957  17955  17977  17961     1  0.0000000  1.6038667  3
  17958  17956  17959  17960     1  0.0000000  0.6508444  3
  17958  17956  17959  17967     1  0.0000000  1.0460000  1
  17958  17956  17959  17967     1  0.0000000  0.0000000  3
  17958  17956  17959  17963     1  0.0000000  0.6508444  3
  17958  17956  17968  17971     1  0.0000000  0.6973333  3
  17958  17956  17955  17969     1  0.0000000  0.6508444  3
  17958  17956  17955  17977     1  0.0000000  1.0460000  1
  17958  17956  17955  17977     1  0.0000000  0.0000000  3
  17959  17960  17961  17964     1  0.0000000  0.6508444  3
  17959  17960  17966  17972     1  0.0000000  1.0460000  1
  17959  17960  17966  17972     1  0.0000000  0.6694400  3
  17959  17956  17968  17971     1  0.0000000  1.0460000  1
  17959  17956  17968  17971     1  0.0000000  0.6694400  3
  17960  17959  17967  17970     1  0.0000000  1.0460000  1
  17960  17959  17967  17970     1  0.0000000  0.6694400  3
  17961  17960  17966  17972     1  0.0000000  1.0460000  1
  17961  17960  17966  17972     1  0.0000000  0.6694400  3
  17961  17960  17959  17963     1  0.0000000  0.6508444  3
  17962  17960  17961  17965     1  0.0000000  1.0460000  1
  17962  17960  17961  17965     1  0.0000000  0.0000000  3
  17962  17960  17961  17977     1  0.0000000  1.0460000  1
  17962  17960  17961  17977     1  0.0000000  0.0000000  3
  17962  17960  17961  17964     1  0.0000000  0.6508444  3
  17962  17960  17966  17972     1  0.0000000  0.6973333  3
  17962  17960  17959  17967     1  0.0000000  1.0460000  1
  17962  17960  17959  17967     1  0.0000000  0.0000000  3
  17962  17960  17959  17963     1  0.0000000  0.6508444  3
  17963  17959  17960  17966     1  0.0000000  1.0460000  1
  17963  17959  17960  17966     1  0.0000000  0.0000000  3
  17963  17959  17967  17970     1  0.0000000  0.6973333  3
  17963  17959  17956  17968     1  0.0000000  1.0460000  1
  17963  17959  17956  17968     1  0.0000000  0.0000000  3
  17964  17961  17960  17966     1  0.0000000  0.6508444  3
  17973  17969  17975  17976     1  0.0000000  0.6973333  3
  17973  17969  17955  17977     1  0.0000000  1.0460000  1
  17973  17969  17955  17977     1  0.0000000  0.0000000  3
  17974  17969  17975  17976     1  0.0000000  0.6973333  3
  17974  17969  17955  17977     1  0.0000000  1.0460000  1
  17974  17969  17955  17977     1  0.0000000  0.0000000  3
  17978  17979  17982  17986     1  0.0000000  0.6508444  3
  17978  17979  17991  17994     1  0.0000000  1.0460000  1
  17978  17979  17991  17994     1  0.0000000  0.6694400  3
  17978  17992  17998  17999     1  0.0000000  1.0460000  1
  17978  17992  17998  17999     1  0.0000000  0.6694400  3
  17978  18000  17984  17987     1  0.0000000  1.6038667  3
  17979  17978  17992  17996     1  0.0000000  0.6508444  3
  17979  17978  17992  17997     1  0.0000000  0.6508444  3
  17979  17982  17983  17985     1  0.0000000  0.6508444  3
  17979  17982  17990  17993     1  0.0000000  1.0460000  1
  17979  17982  17990  17993     1  0.0000000  0.6694400  3
  17980  17978  17979  17982     1  0.0000000  0.6508444  3
  17980  17978  17979  17991     1  0.0000000  1.0460000  1
  17980  17978  17979  17991     1  0.0000000  0.0000000  3
  17980  17978  17979  17981     1  0.0000000  0.6508444  3
  17980  17978  17992  17998     1  0.0000000  1.0460000  1
  17980  17978  17992  17998     1  0.0000000  0.0000000  3
  17980  17978  17992  17996     1  0.0000000  0.6508444  3
  17980  17978  17992  17997     1  0.0000000  0.6508444  3
  17980  17978  18000  17984     1  0.0000000  1.6038667  3
  17981  17979  17978  17992     1  0.0000000  0.6508444  3
  17981  17979  17978  18000     1  0.0000000  1.0460000  1
  17981  17979  17978  18000     1  0.0000000  0.0000000  3
  17981  17979  17982  17983     1  0.0000000  0.6508444  3
  17981  17979  17982  17990     1  0.0000000  1.0460000  1
  17981  17979  17982  17990     1  0.0000000  0.0000000  3
  17981  17979  17982  17986     1  0.0000000  0.6508444  3
  17981  17979  17991  17994     1  0.0000000  0.6973333  3
  17982  17979  17991  17994     1  0.0000000  1.0460000  1
  17982  17979  17991  17994     1  0.0000000  0.6694400  3
  17982  17983  17984  17987     1  0.0000000  0.6508444  3
  17982  17983  17989  17995     1  0.0000000  1.0460000  1
  17982  17983  17989  17995     1  0.0000000  0.6694400  3
  17983  17982  17990  17993     1  0.0000000  1.0460000  1
  17983  17982  17990  17993     1  0.0000000  0.6694400  3
  17984  17983  17982  17986     1  0.0000000  0.6508444  3
  17984  17983  17989  17995     1  0.0000000  1.0460000  1
  17984  17983  17989  17995     1  0.0000000  0.6694400  3
  17985  17983  17982  17990     1  0.0000000  1.0460000  1
  17985  17983  17982  17990     1  0.0000000  0.0000000  3
  17985  17983  17982  17986     1  0.0000000  0.6508444  3
  17985  17983  17984  17988     1  0.0000000  1.0460000  1
  17985  17983  17984  17988     1  0.0000000  0.0000000  3
  17985  17983  17984  18000     1  0.0000000  1.0460000  1
  17985  17983  17984  18000     1  0.0000000  0.0000000  3
  17985  17983  17984  17987     1  0.0000000  0.6508444  3
  17985  17983  17989  17995     1  0.0000000  0.6973333  3
  17986  17982  17979  17991     1  0.0000000  1.0460000  1
  17986  17982  17979  17991     1  0.0000000  0.0000000  3
  17986  17982  17983  17989     1  0.0000000  1.0460000  1
  17986  17982  17983  17989     1  0.0000000  0.0000000  3
  17986  17982  17990  17993     1  0.0000000  0.6973333  3
  17987  17984  17983  17989     1  0.0000000  0.6508444  3
  17996  17992  17978  18000     1  0.0000000  1.0460000  1
  17996  17992  17978  18000     1  0.0000000  0.0000000  3
  17996  17992  17998  17999     1  0.0000000  0.6973333  3
  17997  17992  17978  18000     1  0.0000000  1.0460000  1
  17997  17992  17978  18000     1  0.0000000  0.0000000  3
  17997  17992  17998  17999     1  0.0000000  0.6973333  3
  18001  18002  18005  18009     1  0.0000000  0.6508444  3
  18001  18002  18014  18017     1  0.0000000  1.0460000  1
  18001  18002  18014  18017     1  0.0000000  0.6694400  3
  18001  18015  18021  18022     1  0.0000000  1.0460000  1
  18001  18015  18021  18022     1  0.0000000  0.6694400  3
  18001  18023  18007  18010     1  0.0000000  1.6038667  3
  18002  18005  18006  18008     1  0.0000000  0.6508444  3
  18002  18005  18013  18016     1  0.0000000  1.0460000  1
  18002  18005  18013  18016     1  0.0000000  0.6694400  3
  18002  18001  18015  18019     1  0.0000000  0.6508444  3
  18002  18001  18015  18020     1  0.0000000  0.6508444  3
  18003  18001  18002  18005     1  0.0000000  0.6508444  3
  18003  18001  18002  18014     1  0.0000000  1.0460000  1
  18003  18001  18002  18014     1  0.0000000  0.0000000  3
  18003  18001  18002  18004     1  0.0000000  0.6508444  3
  18003  18001  18015  18021     1  0.0000000  1.0460000  1
  18003  18001  18015  18021     1  0.0000000  0.0000000  3
  18003  18001  18015  18019     1  0.0000000  0.6508444  3
  18003  18001  18015  18020     1  0.0000000  0.6508444  3
  18003  18001  18023  18007     1  0.0000000  1.6038667  3
  18004  18002  18005  18006     1  0.0000000  0.6508444  3
  18004  18002  18005  18013     1  0.0000000  1.0460000  1
  18004  18002  18005  18013     1  0.0000000  0.0000000  3
  18004  18002  18005  18009     1  0.0000000  0.6508444  3
  18004  18002  18014  18017     1  0.0000000  0.6973333  3
  18004  18002  18001  18015     1  0.0000000  0.6508444  3
  18004  18002  18001  18023     1  0.0000000  1.0460000  1
  18004  18002  18001  18023     1  0.0000000  0.0000000  3
  18005  18006  18007  18010     1  0.0000000  0.6508444  3
  18005  18006  18012  18018     1  0.0000000  1.0460000  1
  18005  18006  18012  18018     1  0.0000000  0.6694400  3
  18005  18002  18014  18017     1  0.0000000  1.0460000  1
  18005  18002  18014  18017     1  0.0000000  0.6694400  3
  18006  18005  18013  18016     1  0.0000000  1.0460000  1
  18006  18005  18013  18016     1  0.0000000  0.6694400  3
  18007  18006  18012  18018     1  0.0000000  1.0460000  1
  18007  18006  18012  18018     1  0.0000000  0.6694400  3
  18007  18006  18005  18009     1  0.0000000  0.6508444  3
  18008  18006  18007  18011     1  0.0000000  1.0460000  1
  18008  18006  18007  18011     1  0.0000000  0.0000000  3
  18008  18006  18007  18023     1  0.0000000  1.0460000  1
  18008  18006  18007  18023     1  0.0000000  0.0000000  3
  18008  18006  18007  18010     1  0.0000000  0.6508444  3
  18008  18006  18012  18018     1  0.0000000  0.6973333  3
  18008  18006  18005  18013     1  0.0000000  1.0460000  1
  18008  18006  18005  18013     1  0.0000000  0.0000000  3
  18008  18006  18005  18009     1  0.0000000  0.6508444  3
  18009  18005  18006  18012     1  0.0000000  1.0460000  1
  18009  18005  18006  18012     1  0.0000000  0.0000000  3
  18009  18005  18013  18016     1  0.0000000  0.6973333  3
  18009  18005  18002  18014     1  0.0000000  1.0460000  1
  18009  18005  18002  18014     1  0.0000000  0.0000000  3
  18010  18007  18006  18012     1  0.0000000  0.6508444  3
  18019  18015  18021  18022     1  0.0000000  0.6973333  3
  18019  18015  18001  18023     1  0.0000000  1.0460000  1
  18019  18015  18001  18023     1  0.0000000  0.0000000  3
  18020  18015  18021  18022     1  0.0000000  0.6973333  3
  18020  18015  18001  18023     1  0.0000000  1.0460000  1
  18020  18015  18001  18023     1  0.0000000  0.0000000  3
  18024  18025  18028  18032     1  0.0000000  0.6508444  3
  18024  18025  18037  18040     1  0.0000000  1.0460000  1
  18024  18025  18037  18040     1  0.0000000  0.6694400  3
  18024  18038  18044  18045     1  0.0000000  1.0460000  1
  18024  18038  18044  18045     1  0.0000000  0.6694400  3
  18024  18046  18030  18033     1  0.0000000  1.6038667  3
  18025  18024  18038  18042     1  0.0000000  0.6508444  3
  18025  18024  18038  18043     1  0.0000000  0.6508444  3
  18025  18028  18029  18031     1  0.0000000  0.6508444  3
  18025  18028  18036  18039     1  0.0000000  1.0460000  1
  18025  18028  18036  18039     1  0.0000000  0.6694400  3
  18026  18024  18025  18028     1  0.0000000  0.6508444  3
  18026  18024  18025  18037     1  0.0000000  1.0460000  1
  18026  18024  18025  18037     1  0.0000000  0.0000000  3
  18026  18024  18025  18027     1  0.0000000  0.6508444  3
  18026  18024  18038  18044     1  0.0000000  1.0460000  1
  18026  18024  18038  18044     1  0.0000000  0.0000000  3
  18026  18024  18038  18042     1  0.0000000  0.6508444  3
  18026  18024  18038  18043     1  0.0000000  0.6508444  3
  18026  18024  18046  18030     1  0.0000000  1.6038667  3
  18027  18025  18024  18038     1  0.0000000  0.6508444  3
  18027  18025  18024  18046     1  0.0000000  1.0460000  1
  18027  18025  18024  18046     1  0.0000000  0.0000000  3
  18027  18025  18028  18029     1  0.0000000  0.6508444  3
  18027  18025  18028  18036     1  0.0000000  1.0460000  1
  18027  18025  18028  18036     1  0.0000000  0.0000000  3
  18027  18025  18028  18032     1  0.0000000  0.6508444  3
  18027  18025  18037  18040     1  0.0000000  0.6973333  3
  18028  18025  18037  18040     1  0.0000000  1.0460000  1
  18028  18025  18037  18040     1  0.0000000  0.6694400  3
  18028  18029  18030  18033     1  0.0000000  0.6508444  3
  18028  18029  18035  18041     1  0.0000000  1.0460000  1
  18028  18029  18035  18041     1  0.0000000  0.6694400  3
  18029  18028  18036  18039     1  0.0000000  1.0460000  1
  18029  18028  18036  18039     1  0.0000000  0.6694400  3
  18030  18029  18028  18032     1  0.0000000  0.6508444  3
  18030  18029  18035  18041     1  0.0000000  1.0460000  1
  18030  18029  18035  18041     1  0.0000000  0.6694400  3
  18031  18029  18028  18036     1  0.0000000  1.0460000  1
  18031  18029  18028  18036     1  0.0000000  0.0000000  3
  18031  18029  18028  18032     1  0.0000000  0.6508444  3
  18031  18029  18030  18034     1  0.0000000  1.0460000  1
  18031  18029  18030  18034     1  0.0000000  0.0000000  3
  18031  18029  18030  18046     1  0.0000000  1.0460000  1
  18031  18029  18030  18046     1  0.0000000  0.0000000  3
  18031  18029  18030  18033     1  0.0000000  0.6508444  3
  18031  18029  18035  18041     1  0.0000000  0.6973333  3
  18032  18028  18025  18037     1  0.0000000  1.0460000  1
  18032  18028  18025  18037     1  0.0000000  0.0000000  3
  18032  18028  18029  18035     1  0.0000000  1.0460000  1
  18032  18028  18029  18035     1  0.0000000  0.0000000  3
  18032  18028  18036  18039     1  0.0000000  0.6973333  3
  18033  18030  18029  18035     1  0.0000000  0.6508444  3
  18042  18038  18024  18046     1  0.0000000  1.0460000  1
  18042  18038  18024  18046     1  0.0000000  0.0000000  3
  18042  18038  18044  18045     1  0.0000000  0.6973333  3
  18043  18038  18024  18046     1  0.0000000  1.0460000  1
  18043  18038  18024  18046     1  0.0000000  0.0000000  3
  18043  18038  18044  18045     1  0.0000000  0.6973333  3
  18047  18048  18051  18055     1  0.0000000  0.6508444  3
  18047  18048  18060  18063     1  0.0000000  1.0460000  1
  18047  18048  18060  18063     1  0.0000000  0.6694400  3
  18047  18061  18067  18068     1  0.0000000  1.0460000  1
  18047  18061  18067  18068     1  0.0000000  0.6694400  3
  18047  18069  18053  18056     1  0.0000000  1.6038667  3
  18048  18051  18052  18054     1  0.0000000  0.6508444  3
  18048  18051  18059  18062     1  0.0000000  1.0460000  1
  18048  18051  18059  18062     1  0.0000000  0.6694400  3
  18048  18047  18061  18065     1  0.0000000  0.6508444  3
  18048  18047  18061  18066     1  0.0000000  0.6508444  3
  18049  18047  18048  18051     1  0.0000000  0.6508444  3
  18049  18047  18048  18060     1  0.0000000  1.0460000  1
  18049  18047  18048  18060     1  0.0000000  0.0000000  3
  18049  18047  18048  18050     1  0.0000000  0.6508444  3
  18049  18047  18061  18067     1  0.0000000  1.0460000  1
  18049  18047  18061  18067     1  0.0000000  0.0000000  3
  18049  18047  18061  18065     1  0.0000000  0.6508444  3
  18049  18047  18061  18066     1  0.0000000  0.6508444  3
  18049  18047  18069  18053     1  0.0000000  1.6038667  3
  18050  18048  18051  18052     1  0.0000000  0.6508444  3
  18050  18048  18051  18059     1  0.0000000  1.0460000  1
  18050  18048  18051  18059     1  0.0000000  0.0000000  3
  18050  18048  18051  18055     1  0.0000000  0.6508444  3
  18050  18048  18060  18063     1  0.0000000  0.6973333  3
  18050  18048  18047  18061     1  0.0000000  0.6508444  3
  18050  18048  18047  18069     1  0.0000000  1.0460000  1
  18050  18048  18047  18069     1  0.0000000  0.0000000  3
  18051  18052  18053  18056     1  0.0000000  0.6508444  3
  18051  18052  18058  18064     1  0.0000000  1.0460000  1
  18051  18052  18058  18064     1  0.0000000  0.6694400  3
  18051  18048  18060  18063     1  0.0000000  1.0460000  1
  18051  18048  18060  18063     1  0.0000000  0.6694400  3
  18052  18051  18059  18062     1  0.0000000  1.0460000  1
  18052  18051  18059  18062     1  0.0000000  0.6694400  3
  18053  18052  18058  18064     1  0.0000000  1.0460000  1
  18053  18052  18058  18064     1  0.0000000  0.6694400  3
  18053  18052  18051  18055     1  0.0000000  0.6508444  3
  18054  18052  18053  18057     1  0.0000000  1.0460000  1
  18054  18052  18053  18057     1  0.0000000  0.0000000  3
  18054  18052  18053  18069     1  0.0000000  1.0460000  1
  18054  18052  18053  18069     1  0.0000000  0.0000000  3
  18054  18052  18053  18056     1  0.0000000  0.6508444  3
  18054  18052  18058  18064     1  0.0000000  0.6973333  3
  18054  18052  18051  18059     1  0.0000000  1.0460000  1
  18054  18052  18051  18059     1  0.0000000  0.0000000  3
  18054  18052  18051  18055     1  0.0000000  0.6508444  3
  18055  18051  18052  18058     1  0.0000000  1.0460000  1
  18055  18051  18052  18058     1  0.0000000  0.0000000  3
  18055  18051  18059  18062     1  0.0000000  0.6973333  3
  18055  18051  18048  18060     1  0.0000000  1.0460000  1
  18055  18051  18048  18060     1  0.0000000  0.0000000  3
  18056  18053  18052  18058     1  0.0000000  0.6508444  3
  18065  18061  18067  18068     1  0.0000000  0.6973333  3
  18065  18061  18047  18069     1  0.0000000  1.0460000  1
  18065  18061  18047  18069     1  0.0000000  0.0000000  3
  18066  18061  18067  18068     1  0.0000000  0.6973333  3
  18066  18061  18047  18069     1  0.0000000  1.0460000  1
  18066  18061  18047  18069     1  0.0000000  0.0000000  3
  18070  18071  18074  18078     1  0.0000000  0.6508444  3
  18070  18071  18083  18086     1  0.0000000  1.0460000  1
  18070  18071  18083  18086     1  0.0000000  0.6694400  3
  18070  18084  18090  18091     1  0.0000000  1.0460000  1
  18070  18084  18090  18091     1  0.0000000  0.6694400  3
  18070  18092  18076  18079     1  0.0000000  1.6038667  3
  18071  18070  18084  18088     1  0.0000000  0.6508444  3
  18071  18070  18084  18089     1  0.0000000  0.6508444  3
  18071  18074  18075  18077     1  0.0000000  0.6508444  3
  18071  18074  18082  18085     1  0.0000000  1.0460000  1
  18071  18074  18082  18085     1  0.0000000  0.6694400  3
  18072  18070  18071  18074     1  0.0000000  0.6508444  3
  18072  18070  18071  18083     1  0.0000000  1.0460000  1
  18072  18070  18071  18083     1  0.0000000  0.0000000  3
  18072  18070  18071  18073     1  0.0000000  0.6508444  3
  18072  18070  18084  18090     1  0.0000000  1.0460000  1
  18072  18070  18084  18090     1  0.0000000  0.0000000  3
  18072  18070  18084  18088     1  0.0000000  0.6508444  3
  18072  18070  18084  18089     1  0.0000000  0.6508444  3
  18072  18070  18092  18076     1  0.0000000  1.6038667  3
  18073  18071  18070  18084     1  0.0000000  0.6508444  3
  18073  18071  18070  18092     1  0.0000000  1.0460000  1
  18073  18071  18070  18092     1  0.0000000  0.0000000  3
  18073  18071  18074  18075     1  0.0000000  0.6508444  3
  18073  18071  18074  18082     1  0.0000000  1.0460000  1
  18073  18071  18074  18082     1  0.0000000  0.0000000  3
  18073  18071  18074  18078     1  0.0000000  0.6508444  3
  18073  18071  18083  18086     1  0.0000000  0.6973333  3
  18074  18071  18083  18086     1  0.0000000  1.0460000  1
  18074  18071  18083  18086     1  0.0000000  0.6694400  3
  18074  18075  18076  18079     1  0.0000000  0.6508444  3
  18074  18075  18081  18087     1  0.0000000  1.0460000  1
  18074  18075  18081  18087     1  0.0000000  0.6694400  3
  18075  18074  18082  18085     1  0.0000000  1.0460000  1
  18075  18074  18082  18085     1  0.0000000  0.6694400  3
  18076  18075  18074  18078     1  0.0000000  0.6508444  3
  18076  18075  18081  18087     1  0.0000000  1.0460000  1
  18076  18075  18081  18087     1  0.0000000  0.6694400  3
  18077  18075  18074  18082     1  0.0000000  1.0460000  1
  18077  18075  18074  18082     1  0.0000000  0.0000000  3
  18077  18075  18074  18078     1  0.0000000  0.6508444  3
  18077  18075  18076  18080     1  0.0000000  1.0460000  1
  18077  18075  18076  18080     1  0.0000000  0.0000000  3
  18077  18075  18076  18092     1  0.0000000  1.0460000  1
  18077  18075  18076  18092     1  0.0000000  0.0000000  3
  18077  18075  18076  18079     1  0.0000000  0.6508444  3
  18077  18075  18081  18087     1  0.0000000  0.6973333  3
  18078  18074  18071  18083     1  0.0000000  1.0460000  1
  18078  18074  18071  18083     1  0.0000000  0.0000000  3
  18078  18074  18075  18081     1  0.0000000  1.0460000  1
  18078  18074  18075  18081     1  0.0000000  0.0000000  3
  18078  18074  18082  18085     1  0.0000000  0.6973333  3
  18079  18076  18075  18081     1  0.0000000  0.6508444  3
  18088  18084  18070  18092     1  0.0000000  1.0460000  1
  18088  18084  18070  18092     1  0.0000000  0.0000000  3
  18088  18084  18090  18091     1  0.0000000  0.6973333  3
  18089  18084  18070  18092     1  0.0000000  1.0460000  1
  18089  18084  18070  18092     1  0.0000000  0.0000000  3
  18089  18084  18090  18091     1  0.0000000  0.6973333  3
  18093  18094  18097  18101     1  0.0000000  0.6508444  3
  18093  18094  18106  18109     1  0.0000000  1.0460000  1
  18093  18094  18106  18109     1  0.0000000  0.6694400  3
  18093  18107  18113  18114     1  0.0000000  1.0460000  1
  18093  18107  18113  18114     1  0.0000000  0.6694400  3
  18093  18115  18099  18102     1  0.0000000  1.6038667  3
  18094  18097  18098  18100     1  0.0000000  0.6508444  3
  18094  18097  18105  18108     1  0.0000000  1.0460000  1
  18094  18097  18105  18108     1  0.0000000  0.6694400  3
  18094  18093  18107  18111     1  0.0000000  0.6508444  3
  18094  18093  18107  18112     1  0.0000000  0.6508444  3
  18095  18093  18094  18097     1  0.0000000  0.6508444  3
  18095  18093  18094  18106     1  0.0000000  1.0460000  1
  18095  18093  18094  18106     1  0.0000000  0.0000000  3
  18095  18093  18094  18096     1  0.0000000  0.6508444  3
  18095  18093  18107  18113     1  0.0000000  1.0460000  1
  18095  18093  18107  18113     1  0.0000000  0.0000000  3
  18095  18093  18107  18111     1  0.0000000  0.6508444  3
  18095  18093  18107  18112     1  0.0000000  0.6508444  3
  18095  18093  18115  18099     1  0.0000000  1.6038667  3
  18096  18094  18097  18098     1  0.0000000  0.6508444  3
  18096  18094  18097  18105     1  0.0000000  1.0460000  1
  18096  18094  18097  18105     1  0.0000000  0.0000000  3
  18096  18094  18097  18101     1  0.0000000  0.6508444  3
  18096  18094  18106  18109     1  0.0000000  0.6973333  3
  18096  18094  18093  18107     1  0.0000000  0.6508444  3
  18096  18094  18093  18115     1  0.0000000  1.0460000  1
  18096  18094  18093  18115     1  0.0000000  0.0000000  3
  18097  18098  18099  18102     1  0.0000000  0.6508444  3
  18097  18098  18104  18110     1  0.0000000  1.0460000  1
  18097  18098  18104  18110     1  0.0000000  0.6694400  3
  18097  18094  18106  18109     1  0.0000000  1.0460000  1
  18097  18094  18106  18109     1  0.0000000  0.6694400  3
  18098  18097  18105  18108     1  0.0000000  1.0460000  1
  18098  18097  18105  18108     1  0.0000000  0.6694400  3
  18099  18098  18104  18110     1  0.0000000  1.0460000  1
  18099  18098  18104  18110     1  0.0000000  0.6694400  3
  18099  18098  18097  18101     1  0.0000000  0.6508444  3
  18100  18098  18099  18103     1  0.0000000  1.0460000  1
  18100  18098  18099  18103     1  0.0000000  0.0000000  3
  18100  18098  18099  18115     1  0.0000000  1.0460000  1
  18100  18098  18099  18115     1  0.0000000  0.0000000  3
  18100  18098  18099  18102     1  0.0000000  0.6508444  3
  18100  18098  18104  18110     1  0.0000000  0.6973333  3
  18100  18098  18097  18105     1  0.0000000  1.0460000  1
  18100  18098  18097  18105     1  0.0000000  0.0000000  3
  18100  18098  18097  18101     1  0.0000000  0.6508444  3
  18101  18097  18098  18104     1  0.0000000  1.0460000  1
  18101  18097  18098  18104     1  0.0000000  0.0000000  3
  18101  18097  18105  18108     1  0.0000000  0.6973333  3
  18101  18097  18094  18106     1  0.0000000  1.0460000  1
  18101  18097  18094  18106     1  0.0000000  0.0000000  3
  18102  18099  18098  18104     1  0.0000000  0.6508444  3
  18111  18107  18113  18114     1  0.0000000  0.6973333  3
  18111  18107  18093  18115     1  0.0000000  1.0460000  1
  18111  18107  18093  18115     1  0.0000000  0.0000000  3
  18112  18107  18113  18114     1  0.0000000  0.6973333  3
  18112  18107  18093  18115     1  0.0000000  1.0460000  1
  18112  18107  18093  18115     1  0.0000000  0.0000000  3
  18116  18117  18120  18124     1  0.0000000  0.6508444  3
  18116  18117  18129  18132     1  0.0000000  1.0460000  1
  18116  18117  18129  18132     1  0.0000000  0.6694400  3
  18116  18130  18136  18137     1  0.0000000  1.0460000  1
  18116  18130  18136  18137     1  0.0000000  0.6694400  3
  18116  18138  18122  18125     1  0.0000000  1.6038667  3
  18117  18116  18130  18134     1  0.0000000  0.6508444  3
  18117  18116  18130  18135     1  0.0000000  0.6508444  3
  18117  18120  18121  18123     1  0.0000000  0.6508444  3
  18117  18120  18128  18131     1  0.0000000  1.0460000  1
  18117  18120  18128  18131     1  0.0000000  0.6694400  3
  18118  18116  18117  18120     1  0.0000000  0.6508444  3
  18118  18116  18117  18129     1  0.0000000  1.0460000  1
  18118  18116  18117  18129     1  0.0000000  0.0000000  3
  18118  18116  18117  18119     1  0.0000000  0.6508444  3
  18118  18116  18130  18136     1  0.0000000  1.0460000  1
  18118  18116  18130  18136     1  0.0000000  0.0000000  3
  18118  18116  18130  18134     1  0.0000000  0.6508444  3
  18118  18116  18130  18135     1  0.0000000  0.6508444  3
  18118  18116  18138  18122     1  0.0000000  1.6038667  3
  18119  18117  18116  18130     1  0.0000000  0.6508444  3
  18119  18117  18116  18138     1  0.0000000  1.0460000  1
  18119  18117  18116  18138     1  0.0000000  0.0000000  3
  18119  18117  18120  18121     1  0.0000000  0.6508444  3
  18119  18117  18120  18128     1  0.0000000  1.0460000  1
  18119  18117  18120  18128     1  0.0000000  0.0000000  3
  18119  18117  18120  18124     1  0.0000000  0.6508444  3
  18119  18117  18129  18132     1  0.0000000  0.6973333  3
  18120  18117  18129  18132     1  0.0000000  1.0460000  1
  18120  18117  18129  18132     1  0.0000000  0.6694400  3
  18120  18121  18122  18125     1  0.0000000  0.6508444  3
  18120  18121  18127  18133     1  0.0000000  1.0460000  1
  18120  18121  18127  18133     1  0.0000000  0.6694400  3
  18121  18120  18128  18131     1  0.0000000  1.0460000  1
  18121  18120  18128  18131     1  0.0000000  0.6694400  3
  18122  18121  18120  18124     1  0.0000000  0.6508444  3
  18122  18121  18127  18133     1  0.0000000  1.0460000  1
  18122  18121  18127  18133     1  0.0000000  0.6694400  3
  18123  18121  18120  18128     1  0.0000000  1.0460000  1
  18123  18121  18120  18128     1  0.0000000  0.0000000  3
  18123  18121  18120  18124     1  0.0000000  0.6508444  3
  18123  18121  18122  18126     1  0.0000000  1.0460000  1
  18123  18121  18122  18126     1  0.0000000  0.0000000  3
  18123  18121  18122  18138     1  0.0000000  1.0460000  1
  18123  18121  18122  18138     1  0.0000000  0.0000000  3
  18123  18121  18122  18125     1  0.0000000  0.6508444  3
  18123  18121  18127  18133     1  0.0000000  0.6973333  3
  18124  18120  18117  18129     1  0.0000000  1.0460000  1
  18124  18120  18117  18129     1  0.0000000  0.0000000  3
  18124  18120  18121  18127     1  0.0000000  1.0460000  1
  18124  18120  18121  18127     1  0.0000000  0.0000000  3
  18124  18120  18128  18131     1  0.0000000  0.6973333  3
  18125  18122  18121  18127     1  0.0000000  0.6508444  3
  18134  18130  18116  18138     1  0.0000000  1.0460000  1
  18134  18130  18116  18138     1  0.0000000  0.0000000  3
  18134  18130  18136  18137     1  0.0000000  0.6973333  3
  18135  18130  18116  18138     1  0.0000000  1.0460000  1
  18135  18130  18116  18138     1  0.0000000  0.0000000  3
  18135  18130  18136  18137     1  0.0000000  0.6973333  3
  18139  18140  18143  18147     1  0.0000000  0.6508444  3
  18139  18140  18152  18155     1  0.0000000  1.0460000  1
  18139  18140  18152  18155     1  0.0000000  0.6694400  3
  18139  18153  18159  18160     1  0.0000000  1.0460000  1
  18139  18153  18159  18160     1  0.0000000  0.6694400  3
  18139  18161  18145  18148     1  0.0000000  1.6038667  3
  18140  18143  18144  18146     1  0.0000000  0.6508444  3
  18140  18143  18151  18154     1  0.0000000  1.0460000  1
  18140  18143  18151  18154     1  0.0000000  0.6694400  3
  18140  18139  18153  18157     1  0.0000000  0.6508444  3
  18140  18139  18153  18158     1  0.0000000  0.6508444  3
  18141  18139  18140  18143     1  0.0000000  0.6508444  3
  18141  18139  18140  18152     1  0.0000000  1.0460000  1
  18141  18139  18140  18152     1  0.0000000  0.0000000  3
  18141  18139  18140  18142     1  0.0000000  0.6508444  3
  18141  18139  18153  18159     1  0.0000000  1.0460000  1
  18141  18139  18153  18159     1  0.0000000  0.0000000  3
  18141  18139  18153  18157     1  0.0000000  0.6508444  3
  18141  18139  18153  18158     1  0.0000000  0.6508444  3
  18141  18139  18161  18145     1  0.0000000  1.6038667  3
  18142  18140  18143  18144     1  0.0000000  0.6508444  3
  18142  18140  18143  18151     1  0.0000000  1.0460000  1
  18142  18140  18143  18151     1  0.0000000  0.0000000  3
  18142  18140  18143  18147     1  0.0000000  0.6508444  3
  18142  18140  18152  18155     1  0.0000000  0.6973333  3
  18142  18140  18139  18153     1  0.0000000  0.6508444  3
  18142  18140  18139  18161     1  0.0000000  1.0460000  1
  18142  18140  18139  18161     1  0.0000000  0.0000000  3
  18143  18144  18145  18148     1  0.0000000  0.6508444  3
  18143  18144  18150  18156     1  0.0000000  1.0460000  1
  18143  18144  18150  18156     1  0.0000000  0.6694400  3
  18143  18140  18152  18155     1  0.0000000  1.0460000  1
  18143  18140  18152  18155     1  0.0000000  0.6694400  3
  18144  18143  18151  18154     1  0.0000000  1.0460000  1
  18144  18143  18151  18154     1  0.0000000  0.6694400  3
  18145  18144  18150  18156     1  0.0000000  1.0460000  1
  18145  18144  18150  18156     1  0.0000000  0.6694400  3
  18145  18144  18143  18147     1  0.0000000  0.6508444  3
  18146  18144  18145  18149     1  0.0000000  1.0460000  1
  18146  18144  18145  18149     1  0.0000000  0.0000000  3
  18146  18144  18145  18161     1  0.0000000  1.0460000  1
  18146  18144  18145  18161     1  0.0000000  0.0000000  3
  18146  18144  18145  18148     1  0.0000000  0.6508444  3
  18146  18144  18150  18156     1  0.0000000  0.6973333  3
  18146  18144  18143  18151     1  0.0000000  1.0460000  1
  18146  18144  18143  18151     1  0.0000000  0.0000000  3
  18146  18144  18143  18147     1  0.0000000  0.6508444  3
  18147  18143  18144  18150     1  0.0000000  1.0460000  1
  18147  18143  18144  18150     1  0.0000000  0.0000000  3
  18147  18143  18151  18154     1  0.0000000  0.6973333  3
  18147  18143  18140  18152     1  0.0000000  1.0460000  1
  18147  18143  18140  18152     1  0.0000000  0.0000000  3
  18148  18145  18144  18150     1  0.0000000  0.6508444  3
  18157  18153  18159  18160     1  0.0000000  0.6973333  3
  18157  18153  18139  18161     1  0.0000000  1.0460000  1
  18157  18153  18139  18161     1  0.0000000  0.0000000  3
  18158  18153  18159  18160     1  0.0000000  0.6973333  3
  18158  18153  18139  18161     1  0.0000000  1.0460000  1
  18158  18153  18139  18161     1  0.0000000  0.0000000  3
  18162  18163  18166  18170     1  0.0000000  0.6508444  3
  18162  18163  18175  18178     1  0.0000000  1.0460000  1
  18162  18163  18175  18178     1  0.0000000  0.6694400  3
  18162  18176  18182  18183     1  0.0000000  1.0460000  1
  18162  18176  18182  18183     1  0.0000000  0.6694400  3
  18162  18184  18168  18171     1  0.0000000  1.6038667  3
  18163  18162  18176  18180     1  0.0000000  0.6508444  3
  18163  18162  18176  18181     1  0.0000000  0.6508444  3
  18163  18166  18167  18169     1  0.0000000  0.6508444  3
  18163  18166  18174  18177     1  0.0000000  1.0460000  1
  18163  18166  18174  18177     1  0.0000000  0.6694400  3
  18164  18162  18163  18166     1  0.0000000  0.6508444  3
  18164  18162  18163  18175     1  0.0000000  1.0460000  1
  18164  18162  18163  18175     1  0.0000000  0.0000000  3
  18164  18162  18163  18165     1  0.0000000  0.6508444  3
  18164  18162  18176  18182     1  0.0000000  1.0460000  1
  18164  18162  18176  18182     1  0.0000000  0.0000000  3
  18164  18162  18176  18180     1  0.0000000  0.6508444  3
  18164  18162  18176  18181     1  0.0000000  0.6508444  3
  18164  18162  18184  18168     1  0.0000000  1.6038667  3
  18165  18163  18162  18176     1  0.0000000  0.6508444  3
  18165  18163  18162  18184     1  0.0000000  1.0460000  1
  18165  18163  18162  18184     1  0.0000000  0.0000000  3
  18165  18163  18166  18167     1  0.0000000  0.6508444  3
  18165  18163  18166  18174     1  0.0000000  1.0460000  1
  18165  18163  18166  18174     1  0.0000000  0.0000000  3
  18165  18163  18166  18170     1  0.0000000  0.6508444  3
  18165  18163  18175  18178     1  0.0000000  0.6973333  3
  18166  18163  18175  18178     1  0.0000000  1.0460000  1
  18166  18163  18175  18178     1  0.0000000  0.6694400  3
  18166  18167  18168  18171     1  0.0000000  0.6508444  3
  18166  18167  18173  18179     1  0.0000000  1.0460000  1
  18166  18167  18173  18179     1  0.0000000  0.6694400  3
  18167  18166  18174  18177     1  0.0000000  1.0460000  1
  18167  18166  18174  18177     1  0.0000000  0.6694400  3
  18168  18167  18166  18170     1  0.0000000  0.6508444  3
  18168  18167  18173  18179     1  0.0000000  1.0460000  1
  18168  18167  18173  18179     1  0.0000000  0.6694400  3
  18169  18167  18166  18174     1  0.0000000  1.0460000  1
  18169  18167  18166  18174     1  0.0000000  0.0000000  3
  18169  18167  18166  18170     1  0.0000000  0.6508444  3
  18169  18167  18168  18172     1  0.0000000  1.0460000  1
  18169  18167  18168  18172     1  0.0000000  0.0000000  3
  18169  18167  18168  18184     1  0.0000000  1.0460000  1
  18169  18167  18168  18184     1  0.0000000  0.0000000  3
  18169  18167  18168  18171     1  0.0000000  0.6508444  3
  18169  18167  18173  18179     1  0.0000000  0.6973333  3
  18170  18166  18163  18175     1  0.0000000  1.0460000  1
  18170  18166  18163  18175     1  0.0000000  0.0000000  3
  18170  18166  18167  18173     1  0.0000000  1.0460000  1
  18170  18166  18167  18173     1  0.0000000  0.0000000  3
  18170  18166  18174  18177     1  0.0000000  0.6973333  3
  18171  18168  18167  18173     1  0.0000000  0.6508444  3
  18180  18176  18162  18184     1  0.0000000  1.0460000  1
  18180  18176  18162  18184     1  0.0000000  0.0000000  3
  18180  18176  18182  18183     1  0.0000000  0.6973333  3
  18181  18176  18162  18184     1  0.0000000  1.0460000  1
  18181  18176  18162  18184     1  0.0000000  0.0000000  3
  18181  18176  18182  18183     1  0.0000000  0.6973333  3
  18185  18186  18189  18193     1  0.0000000  0.6508444  3
  18185  18186  18198  18201     1  0.0000000  1.0460000  1
  18185  18186  18198  18201     1  0.0000000  0.6694400  3
  18185  18199  18205  18206     1  0.0000000  1.0460000  1
  18185  18199  18205  18206     1  0.0000000  0.6694400  3
  18185  18207  18191  18194     1  0.0000000  1.6038667  3
  18186  18189  18190  18192     1  0.0000000  0.6508444  3
  18186  18189  18197  18200     1  0.0000000  1.0460000  1
  18186  18189  18197  18200     1  0.0000000  0.6694400  3
  18186  18185  18199  18203     1  0.0000000  0.6508444  3
  18186  18185  18199  18204     1  0.0000000  0.6508444  3
  18187  18185  18186  18189     1  0.0000000  0.6508444  3
  18187  18185  18186  18198     1  0.0000000  1.0460000  1
  18187  18185  18186  18198     1  0.0000000  0.0000000  3
  18187  18185  18186  18188     1  0.0000000  0.6508444  3
  18187  18185  18199  18205     1  0.0000000  1.0460000  1
  18187  18185  18199  18205     1  0.0000000  0.0000000  3
  18187  18185  18199  18203     1  0.0000000  0.6508444  3
  18187  18185  18199  18204     1  0.0000000  0.6508444  3
  18187  18185  18207  18191     1  0.0000000  1.6038667  3
  18188  18186  18189  18190     1  0.0000000  0.6508444  3
  18188  18186  18189  18197     1  0.0000000  1.0460000  1
  18188  18186  18189  18197     1  0.0000000  0.0000000  3
  18188  18186  18189  18193     1  0.0000000  0.6508444  3
  18188  18186  18198  18201     1  0.0000000  0.6973333  3
  18188  18186  18185  18199     1  0.0000000  0.6508444  3
  18188  18186  18185  18207     1  0.0000000  1.0460000  1
  18188  18186  18185  18207     1  0.0000000  0.0000000  3
  18189  18190  18191  18194     1  0.0000000  0.6508444  3
  18189  18190  18196  18202     1  0.0000000  1.0460000  1
  18189  18190  18196  18202     1  0.0000000  0.6694400  3
  18189  18186  18198  18201     1  0.0000000  1.0460000  1
  18189  18186  18198  18201     1  0.0000000  0.6694400  3
  18190  18189  18197  18200     1  0.0000000  1.0460000  1
  18190  18189  18197  18200     1  0.0000000  0.6694400  3
  18191  18190  18196  18202     1  0.0000000  1.0460000  1
  18191  18190  18196  18202     1  0.0000000  0.6694400  3
  18191  18190  18189  18193     1  0.0000000  0.6508444  3
  18192  18190  18191  18195     1  0.0000000  1.0460000  1
  18192  18190  18191  18195     1  0.0000000  0.0000000  3
  18192  18190  18191  18207     1  0.0000000  1.0460000  1
  18192  18190  18191  18207     1  0.0000000  0.0000000  3
  18192  18190  18191  18194     1  0.0000000  0.6508444  3
  18192  18190  18196  18202     1  0.0000000  0.6973333  3
  18192  18190  18189  18197     1  0.0000000  1.0460000  1
  18192  18190  18189  18197     1  0.0000000  0.0000000  3
  18192  18190  18189  18193     1  0.0000000  0.6508444  3
  18193  18189  18190  18196     1  0.0000000  1.0460000  1
  18193  18189  18190  18196     1  0.0000000  0.0000000  3
  18193  18189  18197  18200     1  0.0000000  0.6973333  3
  18193  18189  18186  18198     1  0.0000000  1.0460000  1
  18193  18189  18186  18198     1  0.0000000  0.0000000  3
  18194  18191  18190  18196     1  0.0000000  0.6508444  3
  18203  18199  18205  18206     1  0.0000000  0.6973333  3
  18203  18199  18185  18207     1  0.0000000  1.0460000  1
  18203  18199  18185  18207     1  0.0000000  0.0000000  3
  18204  18199  18205  18206     1  0.0000000  0.6973333  3
  18204  18199  18185  18207     1  0.0000000  1.0460000  1
  18204  18199  18185  18207     1  0.0000000  0.0000000  3
  18208  18209  18212  18216     1  0.0000000  0.6508444  3
  18208  18209  18221  18224     1  0.0000000  1.0460000  1
  18208  18209  18221  18224     1  0.0000000  0.6694400  3
  18208  18222  18228  18229     1  0.0000000  1.0460000  1
  18208  18222  18228  18229     1  0.0000000  0.6694400  3
  18208  18230  18214  18217     1  0.0000000  1.6038667  3
  18209  18208  18222  18226     1  0.0000000  0.6508444  3
  18209  18208  18222  18227     1  0.0000000  0.6508444  3
  18209  18212  18213  18215     1  0.0000000  0.6508444  3
  18209  18212  18220  18223     1  0.0000000  1.0460000  1
  18209  18212  18220  18223     1  0.0000000  0.6694400  3
  18210  18208  18209  18212     1  0.0000000  0.6508444  3
  18210  18208  18209  18221     1  0.0000000  1.0460000  1
  18210  18208  18209  18221     1  0.0000000  0.0000000  3
  18210  18208  18209  18211     1  0.0000000  0.6508444  3
  18210  18208  18222  18228     1  0.0000000  1.0460000  1
  18210  18208  18222  18228     1  0.0000000  0.0000000  3
  18210  18208  18222  18226     1  0.0000000  0.6508444  3
  18210  18208  18222  18227     1  0.0000000  0.6508444  3
  18210  18208  18230  18214     1  0.0000000  1.6038667  3
  18211  18209  18208  18222     1  0.0000000  0.6508444  3
  18211  18209  18208  18230     1  0.0000000  1.0460000  1
  18211  18209  18208  18230     1  0.0000000  0.0000000  3
  18211  18209  18212  18213     1  0.0000000  0.6508444  3
  18211  18209  18212  18220     1  0.0000000  1.0460000  1
  18211  18209  18212  18220     1  0.0000000  0.0000000  3
  18211  18209  18212  18216     1  0.0000000  0.6508444  3
  18211  18209  18221  18224     1  0.0000000  0.6973333  3
  18212  18209  18221  18224     1  0.0000000  1.0460000  1
  18212  18209  18221  18224     1  0.0000000  0.6694400  3
  18212  18213  18214  18217     1  0.0000000  0.6508444  3
  18212  18213  18219  18225     1  0.0000000  1.0460000  1
  18212  18213  18219  18225     1  0.0000000  0.6694400  3
  18213  18212  18220  18223     1  0.0000000  1.0460000  1
  18213  18212  18220  18223     1  0.0000000  0.6694400  3
  18214  18213  18212  18216     1  0.0000000  0.6508444  3
  18214  18213  18219  18225     1  0.0000000  1.0460000  1
  18214  18213  18219  18225     1  0.0000000  0.6694400  3
  18215  18213  18212  18220     1  0.0000000  1.0460000  1
  18215  18213  18212  18220     1  0.0000000  0.0000000  3
  18215  18213  18212  18216     1  0.0000000  0.6508444  3
  18215  18213  18214  18218     1  0.0000000  1.0460000  1
  18215  18213  18214  18218     1  0.0000000  0.0000000  3
  18215  18213  18214  18230     1  0.0000000  1.0460000  1
  18215  18213  18214  18230     1  0.0000000  0.0000000  3
  18215  18213  18214  18217     1  0.0000000  0.6508444  3
  18215  18213  18219  18225     1  0.0000000  0.6973333  3
  18216  18212  18209  18221     1  0.0000000  1.0460000  1
  18216  18212  18209  18221     1  0.0000000  0.0000000  3
  18216  18212  18213  18219     1  0.0000000  1.0460000  1
  18216  18212  18213  18219     1  0.0000000  0.0000000  3
  18216  18212  18220  18223     1  0.0000000  0.6973333  3
  18217  18214  18213  18219     1  0.0000000  0.6508444  3
  18226  18222  18208  18230     1  0.0000000  1.0460000  1
  18226  18222  18208  18230     1  0.0000000  0.0000000  3
  18226  18222  18228  18229     1  0.0000000  0.6973333  3
  18227  18222  18208  18230     1  0.0000000  1.0460000  1
  18227  18222  18208  18230     1  0.0000000  0.0000000  3
  18227  18222  18228  18229     1  0.0000000  0.6973333  3
  18231  18232  18235  18239     1  0.0000000  0.6508444  3
  18231  18232  18244  18247     1  0.0000000  1.0460000  1
  18231  18232  18244  18247     1  0.0000000  0.6694400  3
  18231  18245  18251  18252     1  0.0000000  1.0460000  1
  18231  18245  18251  18252     1  0.0000000  0.6694400  3
  18231  18253  18237  18240     1  0.0000000  1.6038667  3
  18232  18235  18236  18238     1  0.0000000  0.6508444  3
  18232  18235  18243  18246     1  0.0000000  1.0460000  1
  18232  18235  18243  18246     1  0.0000000  0.6694400  3
  18232  18231  18245  18249     1  0.0000000  0.6508444  3
  18232  18231  18245  18250     1  0.0000000  0.6508444  3
  18233  18231  18232  18235     1  0.0000000  0.6508444  3
  18233  18231  18232  18244     1  0.0000000  1.0460000  1
  18233  18231  18232  18244     1  0.0000000  0.0000000  3
  18233  18231  18232  18234     1  0.0000000  0.6508444  3
  18233  18231  18245  18251     1  0.0000000  1.0460000  1
  18233  18231  18245  18251     1  0.0000000  0.0000000  3
  18233  18231  18245  18249     1  0.0000000  0.6508444  3
  18233  18231  18245  18250     1  0.0000000  0.6508444  3
  18233  18231  18253  18237     1  0.0000000  1.6038667  3
  18234  18232  18235  18236     1  0.0000000  0.6508444  3
  18234  18232  18235  18243     1  0.0000000  1.0460000  1
  18234  18232  18235  18243     1  0.0000000  0.0000000  3
  18234  18232  18235  18239     1  0.0000000  0.6508444  3
  18234  18232  18244  18247     1  0.0000000  0.6973333  3
  18234  18232  18231  18245     1  0.0000000  0.6508444  3
  18234  18232  18231  18253     1  0.0000000  1.0460000  1
  18234  18232  18231  18253     1  0.0000000  0.0000000  3
  18235  18236  18237  18240     1  0.0000000  0.6508444  3
  18235  18236  18242  18248     1  0.0000000  1.0460000  1
  18235  18236  18242  18248     1  0.0000000  0.6694400  3
  18235  18232  18244  18247     1  0.0000000  1.0460000  1
  18235  18232  18244  18247     1  0.0000000  0.6694400  3
  18236  18235  18243  18246     1  0.0000000  1.0460000  1
  18236  18235  18243  18246     1  0.0000000  0.6694400  3
  18237  18236  18242  18248     1  0.0000000  1.0460000  1
  18237  18236  18242  18248     1  0.0000000  0.6694400  3
  18237  18236  18235  18239     1  0.0000000  0.6508444  3
  18238  18236  18237  18241     1  0.0000000  1.0460000  1
  18238  18236  18237  18241     1  0.0000000  0.0000000  3
  18238  18236  18237  18253     1  0.0000000  1.0460000  1
  18238  18236  18237  18253     1  0.0000000  0.0000000  3
  18238  18236  18237  18240     1  0.0000000  0.6508444  3
  18238  18236  18242  18248     1  0.0000000  0.6973333  3
  18238  18236  18235  18243     1  0.0000000  1.0460000  1
  18238  18236  18235  18243     1  0.0000000  0.0000000  3
  18238  18236  18235  18239     1  0.0000000  0.6508444  3
  18239  18235  18236  18242     1  0.0000000  1.0460000  1
  18239  18235  18236  18242     1  0.0000000  0.0000000  3
  18239  18235  18243  18246     1  0.0000000  0.6973333  3
  18239  18235  18232  18244     1  0.0000000  1.0460000  1
  18239  18235  18232  18244     1  0.0000000  0.0000000  3
  18240  18237  18236  18242     1  0.0000000  0.6508444  3
  18249  18245  18251  18252     1  0.0000000  0.6973333  3
  18249  18245  18231  18253     1  0.0000000  1.0460000  1
  18249  18245  18231  18253     1  0.0000000  0.0000000  3
  18250  18245  18251  18252     1  0.0000000  0.6973333  3
  18250  18245  18231  18253     1  0.0000000  1.0460000  1
  18250  18245  18231  18253     1  0.0000000  0.0000000  3
  18254  18255  18258  18262     1  0.0000000  0.6508444  3
  18254  18255  18267  18270     1  0.0000000  1.0460000  1
  18254  18255  18267  18270     1  0.0000000  0.6694400  3
  18254  18268  18274  18275     1  0.0000000  1.0460000  1
  18254  18268  18274  18275     1  0.0000000  0.6694400  3
  18254  18276  18260  18263     1  0.0000000  1.6038667  3
  18255  18254  18268  18272     1  0.0000000  0.6508444  3
  18255  18254  18268  18273     1  0.0000000  0.6508444  3
  18255  18258  18259  18261     1  0.0000000  0.6508444  3
  18255  18258  18266  18269     1  0.0000000  1.0460000  1
  18255  18258  18266  18269     1  0.0000000  0.6694400  3
  18256  18254  18255  18258     1  0.0000000  0.6508444  3
  18256  18254  18255  18267     1  0.0000000  1.0460000  1
  18256  18254  18255  18267     1  0.0000000  0.0000000  3
  18256  18254  18255  18257     1  0.0000000  0.6508444  3
  18256  18254  18268  18274     1  0.0000000  1.0460000  1
  18256  18254  18268  18274     1  0.0000000  0.0000000  3
  18256  18254  18268  18272     1  0.0000000  0.6508444  3
  18256  18254  18268  18273     1  0.0000000  0.6508444  3
  18256  18254  18276  18260     1  0.0000000  1.6038667  3
  18257  18255  18254  18268     1  0.0000000  0.6508444  3
  18257  18255  18254  18276     1  0.0000000  1.0460000  1
  18257  18255  18254  18276     1  0.0000000  0.0000000  3
  18257  18255  18258  18259     1  0.0000000  0.6508444  3
  18257  18255  18258  18266     1  0.0000000  1.0460000  1
  18257  18255  18258  18266     1  0.0000000  0.0000000  3
  18257  18255  18258  18262     1  0.0000000  0.6508444  3
  18257  18255  18267  18270     1  0.0000000  0.6973333  3
  18258  18255  18267  18270     1  0.0000000  1.0460000  1
  18258  18255  18267  18270     1  0.0000000  0.6694400  3
  18258  18259  18260  18263     1  0.0000000  0.6508444  3
  18258  18259  18265  18271     1  0.0000000  1.0460000  1
  18258  18259  18265  18271     1  0.0000000  0.6694400  3
  18259  18258  18266  18269     1  0.0000000  1.0460000  1
  18259  18258  18266  18269     1  0.0000000  0.6694400  3
  18260  18259  18258  18262     1  0.0000000  0.6508444  3
  18260  18259  18265  18271     1  0.0000000  1.0460000  1
  18260  18259  18265  18271     1  0.0000000  0.6694400  3
  18261  18259  18258  18266     1  0.0000000  1.0460000  1
  18261  18259  18258  18266     1  0.0000000  0.0000000  3
  18261  18259  18258  18262     1  0.0000000  0.6508444  3
  18261  18259  18260  18264     1  0.0000000  1.0460000  1
  18261  18259  18260  18264     1  0.0000000  0.0000000  3
  18261  18259  18260  18276     1  0.0000000  1.0460000  1
  18261  18259  18260  18276     1  0.0000000  0.0000000  3
  18261  18259  18260  18263     1  0.0000000  0.6508444  3
  18261  18259  18265  18271     1  0.0000000  0.6973333  3
  18262  18258  18255  18267     1  0.0000000  1.0460000  1
  18262  18258  18255  18267     1  0.0000000  0.0000000  3
  18262  18258  18259  18265     1  0.0000000  1.0460000  1
  18262  18258  18259  18265     1  0.0000000  0.0000000  3
  18262  18258  18266  18269     1  0.0000000  0.6973333  3
  18263  18260  18259  18265     1  0.0000000  0.6508444  3
  18272  18268  18254  18276     1  0.0000000  1.0460000  1
  18272  18268  18254  18276     1  0.0000000  0.0000000  3
  18272  18268  18274  18275     1  0.0000000  0.6973333  3
  18273  18268  18254  18276     1  0.0000000  1.0460000  1
  18273  18268  18254  18276     1  0.0000000  0.0000000  3
  18273  18268  18274  18275     1  0.0000000  0.6973333  3
  18277  18278  18281  18285     1  0.0000000  0.6508444  3
  18277  18278  18290  18293     1  0.0000000  1.0460000  1
  18277  18278  18290  18293     1  0.0000000  0.6694400  3
  18277  18291  18297  18298     1  0.0000000  1.0460000  1
  18277  18291  18297  18298     1  0.0000000  0.6694400  3
  18277  18299  18283  18286     1  0.0000000  1.6038667  3
  18278  18281  18282  18284     1  0.0000000  0.6508444  3
  18278  18281  18289  18292     1  0.0000000  1.0460000  1
  18278  18281  18289  18292     1  0.0000000  0.6694400  3
  18278  18277  18291  18295     1  0.0000000  0.6508444  3
  18278  18277  18291  18296     1  0.0000000  0.6508444  3
  18279  18277  18278  18281     1  0.0000000  0.6508444  3
  18279  18277  18278  18290     1  0.0000000  1.0460000  1
  18279  18277  18278  18290     1  0.0000000  0.0000000  3
  18279  18277  18278  18280     1  0.0000000  0.6508444  3
  18279  18277  18291  18297     1  0.0000000  1.0460000  1
  18279  18277  18291  18297     1  0.0000000  0.0000000  3
  18279  18277  18291  18295     1  0.0000000  0.6508444  3
  18279  18277  18291  18296     1  0.0000000  0.6508444  3
  18279  18277  18299  18283     1  0.0000000  1.6038667  3
  18280  18278  18281  18282     1  0.0000000  0.6508444  3
  18280  18278  18281  18289     1  0.0000000  1.0460000  1
  18280  18278  18281  18289     1  0.0000000  0.0000000  3
  18280  18278  18281  18285     1  0.0000000  0.6508444  3
  18280  18278  18290  18293     1  0.0000000  0.6973333  3
  18280  18278  18277  18291     1  0.0000000  0.6508444  3
  18280  18278  18277  18299     1  0.0000000  1.0460000  1
  18280  18278  18277  18299     1  0.0000000  0.0000000  3
  18281  18282  18283  18286     1  0.0000000  0.6508444  3
  18281  18282  18288  18294     1  0.0000000  1.0460000  1
  18281  18282  18288  18294     1  0.0000000  0.6694400  3
  18281  18278  18290  18293     1  0.0000000  1.0460000  1
  18281  18278  18290  18293     1  0.0000000  0.6694400  3
  18282  18281  18289  18292     1  0.0000000  1.0460000  1
  18282  18281  18289  18292     1  0.0000000  0.6694400  3
  18283  18282  18288  18294     1  0.0000000  1.0460000  1
  18283  18282  18288  18294     1  0.0000000  0.6694400  3
  18283  18282  18281  18285     1  0.0000000  0.6508444  3
  18284  18282  18283  18287     1  0.0000000  1.0460000  1
  18284  18282  18283  18287     1  0.0000000  0.0000000  3
  18284  18282  18283  18299     1  0.0000000  1.0460000  1
  18284  18282  18283  18299     1  0.0000000  0.0000000  3
  18284  18282  18283  18286     1  0.0000000  0.6508444  3
  18284  18282  18288  18294     1  0.0000000  0.6973333  3
  18284  18282  18281  18289     1  0.0000000  1.0460000  1
  18284  18282  18281  18289     1  0.0000000  0.0000000  3
  18284  18282  18281  18285     1  0.0000000  0.6508444  3
  18285  18281  18282  18288     1  0.0000000  1.0460000  1
  18285  18281  18282  18288     1  0.0000000  0.0000000  3
  18285  18281  18289  18292     1  0.0000000  0.6973333  3
  18285  18281  18278  18290     1  0.0000000  1.0460000  1
  18285  18281  18278  18290     1  0.0000000  0.0000000  3
  18286  18283  18282  18288     1  0.0000000  0.6508444  3
  18295  18291  18297  18298     1  0.0000000  0.6973333  3
  18295  18291  18277  18299     1  0.0000000  1.0460000  1
  18295  18291  18277  18299     1  0.0000000  0.0000000  3
  18296  18291  18297  18298     1  0.0000000  0.6973333  3
  18296  18291  18277  18299     1  0.0000000  1.0460000  1
  18296  18291  18277  18299     1  0.0000000  0.0000000  3
  18300  18301  18304  18308     1  0.0000000  0.6508444  3
  18300  18301  18313  18316     1  0.0000000  1.0460000  1
  18300  18301  18313  18316     1  0.0000000  0.6694400  3
  18300  18314  18320  18321     1  0.0000000  1.0460000  1
  18300  18314  18320  18321     1  0.0000000  0.6694400  3
  18300  18322  18306  18309     1  0.0000000  1.6038667  3
  18301  18300  18314  18318     1  0.0000000  0.6508444  3
  18301  18300  18314  18319     1  0.0000000  0.6508444  3
  18301  18304  18305  18307     1  0.0000000  0.6508444  3
  18301  18304  18312  18315     1  0.0000000  1.0460000  1
  18301  18304  18312  18315     1  0.0000000  0.6694400  3
  18302  18300  18301  18304     1  0.0000000  0.6508444  3
  18302  18300  18301  18313     1  0.0000000  1.0460000  1
  18302  18300  18301  18313     1  0.0000000  0.0000000  3
  18302  18300  18301  18303     1  0.0000000  0.6508444  3
  18302  18300  18314  18320     1  0.0000000  1.0460000  1
  18302  18300  18314  18320     1  0.0000000  0.0000000  3
  18302  18300  18314  18318     1  0.0000000  0.6508444  3
  18302  18300  18314  18319     1  0.0000000  0.6508444  3
  18302  18300  18322  18306     1  0.0000000  1.6038667  3
  18303  18301  18300  18314     1  0.0000000  0.6508444  3
  18303  18301  18300  18322     1  0.0000000  1.0460000  1
  18303  18301  18300  18322     1  0.0000000  0.0000000  3
  18303  18301  18304  18305     1  0.0000000  0.6508444  3
  18303  18301  18304  18312     1  0.0000000  1.0460000  1
  18303  18301  18304  18312     1  0.0000000  0.0000000  3
  18303  18301  18304  18308     1  0.0000000  0.6508444  3
  18303  18301  18313  18316     1  0.0000000  0.6973333  3
  18304  18301  18313  18316     1  0.0000000  1.0460000  1
  18304  18301  18313  18316     1  0.0000000  0.6694400  3
  18304  18305  18306  18309     1  0.0000000  0.6508444  3
  18304  18305  18311  18317     1  0.0000000  1.0460000  1
  18304  18305  18311  18317     1  0.0000000  0.6694400  3
  18305  18304  18312  18315     1  0.0000000  1.0460000  1
  18305  18304  18312  18315     1  0.0000000  0.6694400  3
  18306  18305  18304  18308     1  0.0000000  0.6508444  3
  18306  18305  18311  18317     1  0.0000000  1.0460000  1
  18306  18305  18311  18317     1  0.0000000  0.6694400  3
  18307  18305  18304  18312     1  0.0000000  1.0460000  1
  18307  18305  18304  18312     1  0.0000000  0.0000000  3
  18307  18305  18304  18308     1  0.0000000  0.6508444  3
  18307  18305  18306  18310     1  0.0000000  1.0460000  1
  18307  18305  18306  18310     1  0.0000000  0.0000000  3
  18307  18305  18306  18322     1  0.0000000  1.0460000  1
  18307  18305  18306  18322     1  0.0000000  0.0000000  3
  18307  18305  18306  18309     1  0.0000000  0.6508444  3
  18307  18305  18311  18317     1  0.0000000  0.6973333  3
  18308  18304  18301  18313     1  0.0000000  1.0460000  1
  18308  18304  18301  18313     1  0.0000000  0.0000000  3
  18308  18304  18305  18311     1  0.0000000  1.0460000  1
  18308  18304  18305  18311     1  0.0000000  0.0000000  3
  18308  18304  18312  18315     1  0.0000000  0.6973333  3
  18309  18306  18305  18311     1  0.0000000  0.6508444  3
  18318  18314  18300  18322     1  0.0000000  1.0460000  1
  18318  18314  18300  18322     1  0.0000000  0.0000000  3
  18318  18314  18320  18321     1  0.0000000  0.6973333  3
  18319  18314  18300  18322     1  0.0000000  1.0460000  1
  18319  18314  18300  18322     1  0.0000000  0.0000000  3
  18319  18314  18320  18321     1  0.0000000  0.6973333  3
  18323  18324  18327  18331     1  0.0000000  0.6508444  3
  18323  18324  18336  18339     1  0.0000000  1.0460000  1
  18323  18324  18336  18339     1  0.0000000  0.6694400  3
  18323  18337  18343  18344     1  0.0000000  1.0460000  1
  18323  18337  18343  18344     1  0.0000000  0.6694400  3
  18323  18345  18329  18332     1  0.0000000  1.6038667  3
  18324  18327  18328  18330     1  0.0000000  0.6508444  3
  18324  18327  18335  18338     1  0.0000000  1.0460000  1
  18324  18327  18335  18338     1  0.0000000  0.6694400  3
  18324  18323  18337  18341     1  0.0000000  0.6508444  3
  18324  18323  18337  18342     1  0.0000000  0.6508444  3
  18325  18323  18324  18327     1  0.0000000  0.6508444  3
  18325  18323  18324  18336     1  0.0000000  1.0460000  1
  18325  18323  18324  18336     1  0.0000000  0.0000000  3
  18325  18323  18324  18326     1  0.0000000  0.6508444  3
  18325  18323  18337  18343     1  0.0000000  1.0460000  1
  18325  18323  18337  18343     1  0.0000000  0.0000000  3
  18325  18323  18337  18341     1  0.0000000  0.6508444  3
  18325  18323  18337  18342     1  0.0000000  0.6508444  3
  18325  18323  18345  18329     1  0.0000000  1.6038667  3
  18326  18324  18327  18328     1  0.0000000  0.6508444  3
  18326  18324  18327  18335     1  0.0000000  1.0460000  1
  18326  18324  18327  18335     1  0.0000000  0.0000000  3
  18326  18324  18327  18331     1  0.0000000  0.6508444  3
  18326  18324  18336  18339     1  0.0000000  0.6973333  3
  18326  18324  18323  18337     1  0.0000000  0.6508444  3
  18326  18324  18323  18345     1  0.0000000  1.0460000  1
  18326  18324  18323  18345     1  0.0000000  0.0000000  3
  18327  18328  18329  18332     1  0.0000000  0.6508444  3
  18327  18328  18334  18340     1  0.0000000  1.0460000  1
  18327  18328  18334  18340     1  0.0000000  0.6694400  3
  18327  18324  18336  18339     1  0.0000000  1.0460000  1
  18327  18324  18336  18339     1  0.0000000  0.6694400  3
  18328  18327  18335  18338     1  0.0000000  1.0460000  1
  18328  18327  18335  18338     1  0.0000000  0.6694400  3
  18329  18328  18334  18340     1  0.0000000  1.0460000  1
  18329  18328  18334  18340     1  0.0000000  0.6694400  3
  18329  18328  18327  18331     1  0.0000000  0.6508444  3
  18330  18328  18329  18333     1  0.0000000  1.0460000  1
  18330  18328  18329  18333     1  0.0000000  0.0000000  3
  18330  18328  18329  18345     1  0.0000000  1.0460000  1
  18330  18328  18329  18345     1  0.0000000  0.0000000  3
  18330  18328  18329  18332     1  0.0000000  0.6508444  3
  18330  18328  18334  18340     1  0.0000000  0.6973333  3
  18330  18328  18327  18335     1  0.0000000  1.0460000  1
  18330  18328  18327  18335     1  0.0000000  0.0000000  3
  18330  18328  18327  18331     1  0.0000000  0.6508444  3
  18331  18327  18328  18334     1  0.0000000  1.0460000  1
  18331  18327  18328  18334     1  0.0000000  0.0000000  3
  18331  18327  18335  18338     1  0.0000000  0.6973333  3
  18331  18327  18324  18336     1  0.0000000  1.0460000  1
  18331  18327  18324  18336     1  0.0000000  0.0000000  3
  18332  18329  18328  18334     1  0.0000000  0.6508444  3
  18341  18337  18343  18344     1  0.0000000  0.6973333  3
  18341  18337  18323  18345     1  0.0000000  1.0460000  1
  18341  18337  18323  18345     1  0.0000000  0.0000000  3
  18342  18337  18343  18344     1  0.0000000  0.6973333  3
  18342  18337  18323  18345     1  0.0000000  1.0460000  1
  18342  18337  18323  18345     1  0.0000000  0.0000000  3
  18346  18347  18350  18354     1  0.0000000  0.6508444  3
  18346  18347  18359  18362     1  0.0000000  1.0460000  1
  18346  18347  18359  18362     1  0.0000000  0.6694400  3
  18346  18360  18366  18367     1  0.0000000  1.0460000  1
  18346  18360  18366  18367     1  0.0000000  0.6694400  3
  18346  18368  18352  18355     1  0.0000000  1.6038667  3
  18347  18346  18360  18364     1  0.0000000  0.6508444  3
  18347  18346  18360  18365     1  0.0000000  0.6508444  3
  18347  18350  18351  18353     1  0.0000000  0.6508444  3
  18347  18350  18358  18361     1  0.0000000  1.0460000  1
  18347  18350  18358  18361     1  0.0000000  0.6694400  3
  18348  18346  18347  18350     1  0.0000000  0.6508444  3
  18348  18346  18347  18359     1  0.0000000  1.0460000  1
  18348  18346  18347  18359     1  0.0000000  0.0000000  3
  18348  18346  18347  18349     1  0.0000000  0.6508444  3
  18348  18346  18360  18366     1  0.0000000  1.0460000  1
  18348  18346  18360  18366     1  0.0000000  0.0000000  3
  18348  18346  18360  18364     1  0.0000000  0.6508444  3
  18348  18346  18360  18365     1  0.0000000  0.6508444  3
  18348  18346  18368  18352     1  0.0000000  1.6038667  3
  18349  18347  18346  18360     1  0.0000000  0.6508444  3
  18349  18347  18346  18368     1  0.0000000  1.0460000  1
  18349  18347  18346  18368     1  0.0000000  0.0000000  3
  18349  18347  18350  18351     1  0.0000000  0.6508444  3
  18349  18347  18350  18358     1  0.0000000  1.0460000  1
  18349  18347  18350  18358     1  0.0000000  0.0000000  3
  18349  18347  18350  18354     1  0.0000000  0.6508444  3
  18349  18347  18359  18362     1  0.0000000  0.6973333  3
  18350  18347  18359  18362     1  0.0000000  1.0460000  1
  18350  18347  18359  18362     1  0.0000000  0.6694400  3
  18350  18351  18352  18355     1  0.0000000  0.6508444  3
  18350  18351  18357  18363     1  0.0000000  1.0460000  1
  18350  18351  18357  18363     1  0.0000000  0.6694400  3
  18351  18350  18358  18361     1  0.0000000  1.0460000  1
  18351  18350  18358  18361     1  0.0000000  0.6694400  3
  18352  18351  18350  18354     1  0.0000000  0.6508444  3
  18352  18351  18357  18363     1  0.0000000  1.0460000  1
  18352  18351  18357  18363     1  0.0000000  0.6694400  3
  18353  18351  18350  18358     1  0.0000000  1.0460000  1
  18353  18351  18350  18358     1  0.0000000  0.0000000  3
  18353  18351  18350  18354     1  0.0000000  0.6508444  3
  18353  18351  18352  18356     1  0.0000000  1.0460000  1
  18353  18351  18352  18356     1  0.0000000  0.0000000  3
  18353  18351  18352  18368     1  0.0000000  1.0460000  1
  18353  18351  18352  18368     1  0.0000000  0.0000000  3
  18353  18351  18352  18355     1  0.0000000  0.6508444  3
  18353  18351  18357  18363     1  0.0000000  0.6973333  3
  18354  18350  18347  18359     1  0.0000000  1.0460000  1
  18354  18350  18347  18359     1  0.0000000  0.0000000  3
  18354  18350  18351  18357     1  0.0000000  1.0460000  1
  18354  18350  18351  18357     1  0.0000000  0.0000000  3
  18354  18350  18358  18361     1  0.0000000  0.6973333  3
  18355  18352  18351  18357     1  0.0000000  0.6508444  3
  18364  18360  18346  18368     1  0.0000000  1.0460000  1
  18364  18360  18346  18368     1  0.0000000  0.0000000  3
  18364  18360  18366  18367     1  0.0000000  0.6973333  3
  18365  18360  18346  18368     1  0.0000000  1.0460000  1
  18365  18360  18346  18368     1  0.0000000  0.0000000  3
  18365  18360  18366  18367     1  0.0000000  0.6973333  3
  18369  18370  18373  18377     1  0.0000000  0.6508444  3
  18369  18370  18382  18385     1  0.0000000  1.0460000  1
  18369  18370  18382  18385     1  0.0000000  0.6694400  3
  18369  18383  18389  18390     1  0.0000000  1.0460000  1
  18369  18383  18389  18390     1  0.0000000  0.6694400  3
  18369  18391  18375  18378     1  0.0000000  1.6038667  3
  18370  18373  18374  18376     1  0.0000000  0.6508444  3
  18370  18373  18381  18384     1  0.0000000  1.0460000  1
  18370  18373  18381  18384     1  0.0000000  0.6694400  3
  18370  18369  18383  18387     1  0.0000000  0.6508444  3
  18370  18369  18383  18388     1  0.0000000  0.6508444  3
  18371  18369  18370  18373     1  0.0000000  0.6508444  3
  18371  18369  18370  18382     1  0.0000000  1.0460000  1
  18371  18369  18370  18382     1  0.0000000  0.0000000  3
  18371  18369  18370  18372     1  0.0000000  0.6508444  3
  18371  18369  18383  18389     1  0.0000000  1.0460000  1
  18371  18369  18383  18389     1  0.0000000  0.0000000  3
  18371  18369  18383  18387     1  0.0000000  0.6508444  3
  18371  18369  18383  18388     1  0.0000000  0.6508444  3
  18371  18369  18391  18375     1  0.0000000  1.6038667  3
  18372  18370  18373  18374     1  0.0000000  0.6508444  3
  18372  18370  18373  18381     1  0.0000000  1.0460000  1
  18372  18370  18373  18381     1  0.0000000  0.0000000  3
  18372  18370  18373  18377     1  0.0000000  0.6508444  3
  18372  18370  18382  18385     1  0.0000000  0.6973333  3
  18372  18370  18369  18383     1  0.0000000  0.6508444  3
  18372  18370  18369  18391     1  0.0000000  1.0460000  1
  18372  18370  18369  18391     1  0.0000000  0.0000000  3
  18373  18374  18375  18378     1  0.0000000  0.6508444  3
  18373  18374  18380  18386     1  0.0000000  1.0460000  1
  18373  18374  18380  18386     1  0.0000000  0.6694400  3
  18373  18370  18382  18385     1  0.0000000  1.0460000  1
  18373  18370  18382  18385     1  0.0000000  0.6694400  3
  18374  18373  18381  18384     1  0.0000000  1.0460000  1
  18374  18373  18381  18384     1  0.0000000  0.6694400  3
  18375  18374  18380  18386     1  0.0000000  1.0460000  1
  18375  18374  18380  18386     1  0.0000000  0.6694400  3
  18375  18374  18373  18377     1  0.0000000  0.6508444  3
  18376  18374  18375  18379     1  0.0000000  1.0460000  1
  18376  18374  18375  18379     1  0.0000000  0.0000000  3
  18376  18374  18375  18391     1  0.0000000  1.0460000  1
  18376  18374  18375  18391     1  0.0000000  0.0000000  3
  18376  18374  18375  18378     1  0.0000000  0.6508444  3
  18376  18374  18380  18386     1  0.0000000  0.6973333  3
  18376  18374  18373  18381     1  0.0000000  1.0460000  1
  18376  18374  18373  18381     1  0.0000000  0.0000000  3
  18376  18374  18373  18377     1  0.0000000  0.6508444  3
  18377  18373  18374  18380     1  0.0000000  1.0460000  1
  18377  18373  18374  18380     1  0.0000000  0.0000000  3
  18377  18373  18381  18384     1  0.0000000  0.6973333  3
  18377  18373  18370  18382     1  0.0000000  1.0460000  1
  18377  18373  18370  18382     1  0.0000000  0.0000000  3
  18378  18375  18374  18380     1  0.0000000  0.6508444  3
  18387  18383  18389  18390     1  0.0000000  0.6973333  3
  18387  18383  18369  18391     1  0.0000000  1.0460000  1
  18387  18383  18369  18391     1  0.0000000  0.0000000  3
  18388  18383  18389  18390     1  0.0000000  0.6973333  3
  18388  18383  18369  18391     1  0.0000000  1.0460000  1
  18388  18383  18369  18391     1  0.0000000  0.0000000  3
  18392  18393  18396  18400     1  0.0000000  0.6508444  3
  18392  18393  18405  18408     1  0.0000000  1.0460000  1
  18392  18393  18405  18408     1  0.0000000  0.6694400  3
  18392  18406  18412  18413     1  0.0000000  1.0460000  1
  18392  18406  18412  18413     1  0.0000000  0.6694400  3
  18392  18414  18398  18401     1  0.0000000  1.6038667  3
  18393  18392  18406  18410     1  0.0000000  0.6508444  3
  18393  18392  18406  18411     1  0.0000000  0.6508444  3
  18393  18396  18397  18399     1  0.0000000  0.6508444  3
  18393  18396  18404  18407     1  0.0000000  1.0460000  1
  18393  18396  18404  18407     1  0.0000000  0.6694400  3
  18394  18392  18393  18396     1  0.0000000  0.6508444  3
  18394  18392  18393  18405     1  0.0000000  1.0460000  1
  18394  18392  18393  18405     1  0.0000000  0.0000000  3
  18394  18392  18393  18395     1  0.0000000  0.6508444  3
  18394  18392  18406  18412     1  0.0000000  1.0460000  1
  18394  18392  18406  18412     1  0.0000000  0.0000000  3
  18394  18392  18406  18410     1  0.0000000  0.6508444  3
  18394  18392  18406  18411     1  0.0000000  0.6508444  3
  18394  18392  18414  18398     1  0.0000000  1.6038667  3
  18395  18393  18392  18406     1  0.0000000  0.6508444  3
  18395  18393  18392  18414     1  0.0000000  1.0460000  1
  18395  18393  18392  18414     1  0.0000000  0.0000000  3
  18395  18393  18396  18397     1  0.0000000  0.6508444  3
  18395  18393  18396  18404     1  0.0000000  1.0460000  1
  18395  18393  18396  18404     1  0.0000000  0.0000000  3
  18395  18393  18396  18400     1  0.0000000  0.6508444  3
  18395  18393  18405  18408     1  0.0000000  0.6973333  3
  18396  18393  18405  18408     1  0.0000000  1.0460000  1
  18396  18393  18405  18408     1  0.0000000  0.6694400  3
  18396  18397  18398  18401     1  0.0000000  0.6508444  3
  18396  18397  18403  18409     1  0.0000000  1.0460000  1
  18396  18397  18403  18409     1  0.0000000  0.6694400  3
  18397  18396  18404  18407     1  0.0000000  1.0460000  1
  18397  18396  18404  18407     1  0.0000000  0.6694400  3
  18398  18397  18396  18400     1  0.0000000  0.6508444  3
  18398  18397  18403  18409     1  0.0000000  1.0460000  1
  18398  18397  18403  18409     1  0.0000000  0.6694400  3
  18399  18397  18396  18404     1  0.0000000  1.0460000  1
  18399  18397  18396  18404     1  0.0000000  0.0000000  3
  18399  18397  18396  18400     1  0.0000000  0.6508444  3
  18399  18397  18398  18402     1  0.0000000  1.0460000  1
  18399  18397  18398  18402     1  0.0000000  0.0000000  3
  18399  18397  18398  18414     1  0.0000000  1.0460000  1
  18399  18397  18398  18414     1  0.0000000  0.0000000  3
  18399  18397  18398  18401     1  0.0000000  0.6508444  3
  18399  18397  18403  18409     1  0.0000000  0.6973333  3
  18400  18396  18393  18405     1  0.0000000  1.0460000  1
  18400  18396  18393  18405     1  0.0000000  0.0000000  3
  18400  18396  18397  18403     1  0.0000000  1.0460000  1
  18400  18396  18397  18403     1  0.0000000  0.0000000  3
  18400  18396  18404  18407     1  0.0000000  0.6973333  3
  18401  18398  18397  18403     1  0.0000000  0.6508444  3
  18410  18406  18392  18414     1  0.0000000  1.0460000  1
  18410  18406  18392  18414     1  0.0000000  0.0000000  3
  18410  18406  18412  18413     1  0.0000000  0.6973333  3
  18411  18406  18392  18414     1  0.0000000  1.0460000  1
  18411  18406  18392  18414     1  0.0000000  0.0000000  3
  18411  18406  18412  18413     1  0.0000000  0.6973333  3
  18415  18416  18419  18423     1  0.0000000  0.6508444  3
  18415  18416  18428  18431     1  0.0000000  1.0460000  1
  18415  18416  18428  18431     1  0.0000000  0.6694400  3
  18415  18429  18435  18436     1  0.0000000  1.0460000  1
  18415  18429  18435  18436     1  0.0000000  0.6694400  3
  18415  18437  18421  18424     1  0.0000000  1.6038667  3
  18416  18419  18420  18422     1  0.0000000  0.6508444  3
  18416  18419  18427  18430     1  0.0000000  1.0460000  1
  18416  18419  18427  18430     1  0.0000000  0.6694400  3
  18416  18415  18429  18433     1  0.0000000  0.6508444  3
  18416  18415  18429  18434     1  0.0000000  0.6508444  3
  18417  18415  18416  18419     1  0.0000000  0.6508444  3
  18417  18415  18416  18428     1  0.0000000  1.0460000  1
  18417  18415  18416  18428     1  0.0000000  0.0000000  3
  18417  18415  18416  18418     1  0.0000000  0.6508444  3
  18417  18415  18429  18435     1  0.0000000  1.0460000  1
  18417  18415  18429  18435     1  0.0000000  0.0000000  3
  18417  18415  18429  18433     1  0.0000000  0.6508444  3
  18417  18415  18429  18434     1  0.0000000  0.6508444  3
  18417  18415  18437  18421     1  0.0000000  1.6038667  3
  18418  18416  18419  18420     1  0.0000000  0.6508444  3
  18418  18416  18419  18427     1  0.0000000  1.0460000  1
  18418  18416  18419  18427     1  0.0000000  0.0000000  3
  18418  18416  18419  18423     1  0.0000000  0.6508444  3
  18418  18416  18428  18431     1  0.0000000  0.6973333  3
  18418  18416  18415  18429     1  0.0000000  0.6508444  3
  18418  18416  18415  18437     1  0.0000000  1.0460000  1
  18418  18416  18415  18437     1  0.0000000  0.0000000  3
  18419  18420  18421  18424     1  0.0000000  0.6508444  3
  18419  18420  18426  18432     1  0.0000000  1.0460000  1
  18419  18420  18426  18432     1  0.0000000  0.6694400  3
  18419  18416  18428  18431     1  0.0000000  1.0460000  1
  18419  18416  18428  18431     1  0.0000000  0.6694400  3
  18420  18419  18427  18430     1  0.0000000  1.0460000  1
  18420  18419  18427  18430     1  0.0000000  0.6694400  3
  18421  18420  18426  18432     1  0.0000000  1.0460000  1
  18421  18420  18426  18432     1  0.0000000  0.6694400  3
  18421  18420  18419  18423     1  0.0000000  0.6508444  3
  18422  18420  18421  18425     1  0.0000000  1.0460000  1
  18422  18420  18421  18425     1  0.0000000  0.0000000  3
  18422  18420  18421  18437     1  0.0000000  1.0460000  1
  18422  18420  18421  18437     1  0.0000000  0.0000000  3
  18422  18420  18421  18424     1  0.0000000  0.6508444  3
  18422  18420  18426  18432     1  0.0000000  0.6973333  3
  18422  18420  18419  18427     1  0.0000000  1.0460000  1
  18422  18420  18419  18427     1  0.0000000  0.0000000  3
  18422  18420  18419  18423     1  0.0000000  0.6508444  3
  18423  18419  18420  18426     1  0.0000000  1.0460000  1
  18423  18419  18420  18426     1  0.0000000  0.0000000  3
  18423  18419  18427  18430     1  0.0000000  0.6973333  3
  18423  18419  18416  18428     1  0.0000000  1.0460000  1
  18423  18419  18416  18428     1  0.0000000  0.0000000  3
  18424  18421  18420  18426     1  0.0000000  0.6508444  3
  18433  18429  18435  18436     1  0.0000000  0.6973333  3
  18433  18429  18415  18437     1  0.0000000  1.0460000  1
  18433  18429  18415  18437     1  0.0000000  0.0000000  3
  18434  18429  18435  18436     1  0.0000000  0.6973333  3
  18434  18429  18415  18437     1  0.0000000  1.0460000  1
  18434  18429  18415  18437     1  0.0000000  0.0000000  3
  18438  18439  18442  18446     1  0.0000000  0.6508444  3
  18438  18439  18451  18454     1  0.0000000  1.0460000  1
  18438  18439  18451  18454     1  0.0000000  0.6694400  3
  18438  18452  18458  18459     1  0.0000000  1.0460000  1
  18438  18452  18458  18459     1  0.0000000  0.6694400  3
  18438  18460  18444  18447     1  0.0000000  1.6038667  3
  18439  18438  18452  18456     1  0.0000000  0.6508444  3
  18439  18438  18452  18457     1  0.0000000  0.6508444  3
  18439  18442  18443  18445     1  0.0000000  0.6508444  3
  18439  18442  18450  18453     1  0.0000000  1.0460000  1
  18439  18442  18450  18453     1  0.0000000  0.6694400  3
  18440  18438  18439  18442     1  0.0000000  0.6508444  3
  18440  18438  18439  18451     1  0.0000000  1.0460000  1
  18440  18438  18439  18451     1  0.0000000  0.0000000  3
  18440  18438  18439  18441     1  0.0000000  0.6508444  3
  18440  18438  18452  18458     1  0.0000000  1.0460000  1
  18440  18438  18452  18458     1  0.0000000  0.0000000  3
  18440  18438  18452  18456     1  0.0000000  0.6508444  3
  18440  18438  18452  18457     1  0.0000000  0.6508444  3
  18440  18438  18460  18444     1  0.0000000  1.6038667  3
  18441  18439  18438  18452     1  0.0000000  0.6508444  3
  18441  18439  18438  18460     1  0.0000000  1.0460000  1
  18441  18439  18438  18460     1  0.0000000  0.0000000  3
  18441  18439  18442  18443     1  0.0000000  0.6508444  3
  18441  18439  18442  18450     1  0.0000000  1.0460000  1
  18441  18439  18442  18450     1  0.0000000  0.0000000  3
  18441  18439  18442  18446     1  0.0000000  0.6508444  3
  18441  18439  18451  18454     1  0.0000000  0.6973333  3
  18442  18439  18451  18454     1  0.0000000  1.0460000  1
  18442  18439  18451  18454     1  0.0000000  0.6694400  3
  18442  18443  18444  18447     1  0.0000000  0.6508444  3
  18442  18443  18449  18455     1  0.0000000  1.0460000  1
  18442  18443  18449  18455     1  0.0000000  0.6694400  3
  18443  18442  18450  18453     1  0.0000000  1.0460000  1
  18443  18442  18450  18453     1  0.0000000  0.6694400  3
  18444  18443  18442  18446     1  0.0000000  0.6508444  3
  18444  18443  18449  18455     1  0.0000000  1.0460000  1
  18444  18443  18449  18455     1  0.0000000  0.6694400  3
  18445  18443  18442  18450     1  0.0000000  1.0460000  1
  18445  18443  18442  18450     1  0.0000000  0.0000000  3
  18445  18443  18442  18446     1  0.0000000  0.6508444  3
  18445  18443  18444  18448     1  0.0000000  1.0460000  1
  18445  18443  18444  18448     1  0.0000000  0.0000000  3
  18445  18443  18444  18460     1  0.0000000  1.0460000  1
  18445  18443  18444  18460     1  0.0000000  0.0000000  3
  18445  18443  18444  18447     1  0.0000000  0.6508444  3
  18445  18443  18449  18455     1  0.0000000  0.6973333  3
  18446  18442  18439  18451     1  0.0000000  1.0460000  1
  18446  18442  18439  18451     1  0.0000000  0.0000000  3
  18446  18442  18443  18449     1  0.0000000  1.0460000  1
  18446  18442  18443  18449     1  0.0000000  0.0000000  3
  18446  18442  18450  18453     1  0.0000000  0.6973333  3
  18447  18444  18443  18449     1  0.0000000  0.6508444  3
  18456  18452  18438  18460     1  0.0000000  1.0460000  1
  18456  18452  18438  18460     1  0.0000000  0.0000000  3
  18456  18452  18458  18459     1  0.0000000  0.6973333  3
  18457  18452  18438  18460     1  0.0000000  1.0460000  1
  18457  18452  18438  18460     1  0.0000000  0.0000000  3
  18457  18452  18458  18459     1  0.0000000  0.6973333  3
  18461  18462  18465  18469     1  0.0000000  0.6508444  3
  18461  18462  18474  18477     1  0.0000000  1.0460000  1
  18461  18462  18474  18477     1  0.0000000  0.6694400  3
  18461  18475  18481  18482     1  0.0000000  1.0460000  1
  18461  18475  18481  18482     1  0.0000000  0.6694400  3
  18461  18483  18467  18470     1  0.0000000  1.6038667  3
  18462  18465  18466  18468     1  0.0000000  0.6508444  3
  18462  18465  18473  18476     1  0.0000000  1.0460000  1
  18462  18465  18473  18476     1  0.0000000  0.6694400  3
  18462  18461  18475  18479     1  0.0000000  0.6508444  3
  18462  18461  18475  18480     1  0.0000000  0.6508444  3
  18463  18461  18462  18465     1  0.0000000  0.6508444  3
  18463  18461  18462  18474     1  0.0000000  1.0460000  1
  18463  18461  18462  18474     1  0.0000000  0.0000000  3
  18463  18461  18462  18464     1  0.0000000  0.6508444  3
  18463  18461  18475  18481     1  0.0000000  1.0460000  1
  18463  18461  18475  18481     1  0.0000000  0.0000000  3
  18463  18461  18475  18479     1  0.0000000  0.6508444  3
  18463  18461  18475  18480     1  0.0000000  0.6508444  3
  18463  18461  18483  18467     1  0.0000000  1.6038667  3
  18464  18462  18465  18466     1  0.0000000  0.6508444  3
  18464  18462  18465  18473     1  0.0000000  1.0460000  1
  18464  18462  18465  18473     1  0.0000000  0.0000000  3
  18464  18462  18465  18469     1  0.0000000  0.6508444  3
  18464  18462  18474  18477     1  0.0000000  0.6973333  3
  18464  18462  18461  18475     1  0.0000000  0.6508444  3
  18464  18462  18461  18483     1  0.0000000  1.0460000  1
  18464  18462  18461  18483     1  0.0000000  0.0000000  3
  18465  18466  18467  18470     1  0.0000000  0.6508444  3
  18465  18466  18472  18478     1  0.0000000  1.0460000  1
  18465  18466  18472  18478     1  0.0000000  0.6694400  3
  18465  18462  18474  18477     1  0.0000000  1.0460000  1
  18465  18462  18474  18477     1  0.0000000  0.6694400  3
  18466  18465  18473  18476     1  0.0000000  1.0460000  1
  18466  18465  18473  18476     1  0.0000000  0.6694400  3
  18467  18466  18472  18478     1  0.0000000  1.0460000  1
  18467  18466  18472  18478     1  0.0000000  0.6694400  3
  18467  18466  18465  18469     1  0.0000000  0.6508444  3
  18468  18466  18467  18471     1  0.0000000  1.0460000  1
  18468  18466  18467  18471     1  0.0000000  0.0000000  3
  18468  18466  18467  18483     1  0.0000000  1.0460000  1
  18468  18466  18467  18483     1  0.0000000  0.0000000  3
  18468  18466  18467  18470     1  0.0000000  0.6508444  3
  18468  18466  18472  18478     1  0.0000000  0.6973333  3
  18468  18466  18465  18473     1  0.0000000  1.0460000  1
  18468  18466  18465  18473     1  0.0000000  0.0000000  3
  18468  18466  18465  18469     1  0.0000000  0.6508444  3
  18469  18465  18466  18472     1  0.0000000  1.0460000  1
  18469  18465  18466  18472     1  0.0000000  0.0000000  3
  18469  18465  18473  18476     1  0.0000000  0.6973333  3
  18469  18465  18462  18474     1  0.0000000  1.0460000  1
  18469  18465  18462  18474     1  0.0000000  0.0000000  3
  18470  18467  18466  18472     1  0.0000000  0.6508444  3
  18479  18475  18481  18482     1  0.0000000  0.6973333  3
  18479  18475  18461  18483     1  0.0000000  1.0460000  1
  18479  18475  18461  18483     1  0.0000000  0.0000000  3
  18480  18475  18481  18482     1  0.0000000  0.6973333  3
  18480  18475  18461  18483     1  0.0000000  1.0460000  1
  18480  18475  18461  18483     1  0.0000000  0.0000000  3
  18484  18485  18488  18492     1  0.0000000  0.6508444  3
  18484  18485  18497  18500     1  0.0000000  1.0460000  1
  18484  18485  18497  18500     1  0.0000000  0.6694400  3
  18484  18498  18504  18505     1  0.0000000  1.0460000  1
  18484  18498  18504  18505     1  0.0000000  0.6694400  3
  18484  18506  18490  18493     1  0.0000000  1.6038667  3
  18485  18484  18498  18502     1  0.0000000  0.6508444  3
  18485  18484  18498  18503     1  0.0000000  0.6508444  3
  18485  18488  18489  18491     1  0.0000000  0.6508444  3
  18485  18488  18496  18499     1  0.0000000  1.0460000  1
  18485  18488  18496  18499     1  0.0000000  0.6694400  3
  18486  18484  18485  18488     1  0.0000000  0.6508444  3
  18486  18484  18485  18497     1  0.0000000  1.0460000  1
  18486  18484  18485  18497     1  0.0000000  0.0000000  3
  18486  18484  18485  18487     1  0.0000000  0.6508444  3
  18486  18484  18498  18504     1  0.0000000  1.0460000  1
  18486  18484  18498  18504     1  0.0000000  0.0000000  3
  18486  18484  18498  18502     1  0.0000000  0.6508444  3
  18486  18484  18498  18503     1  0.0000000  0.6508444  3
  18486  18484  18506  18490     1  0.0000000  1.6038667  3
  18487  18485  18484  18498     1  0.0000000  0.6508444  3
  18487  18485  18484  18506     1  0.0000000  1.0460000  1
  18487  18485  18484  18506     1  0.0000000  0.0000000  3
  18487  18485  18488  18489     1  0.0000000  0.6508444  3
  18487  18485  18488  18496     1  0.0000000  1.0460000  1
  18487  18485  18488  18496     1  0.0000000  0.0000000  3
  18487  18485  18488  18492     1  0.0000000  0.6508444  3
  18487  18485  18497  18500     1  0.0000000  0.6973333  3
  18488  18485  18497  18500     1  0.0000000  1.0460000  1
  18488  18485  18497  18500     1  0.0000000  0.6694400  3
  18488  18489  18490  18493     1  0.0000000  0.6508444  3
  18488  18489  18495  18501     1  0.0000000  1.0460000  1
  18488  18489  18495  18501     1  0.0000000  0.6694400  3
  18489  18488  18496  18499     1  0.0000000  1.0460000  1
  18489  18488  18496  18499     1  0.0000000  0.6694400  3
  18490  18489  18488  18492     1  0.0000000  0.6508444  3
  18490  18489  18495  18501     1  0.0000000  1.0460000  1
  18490  18489  18495  18501     1  0.0000000  0.6694400  3
  18491  18489  18488  18496     1  0.0000000  1.0460000  1
  18491  18489  18488  18496     1  0.0000000  0.0000000  3
  18491  18489  18488  18492     1  0.0000000  0.6508444  3
  18491  18489  18490  18494     1  0.0000000  1.0460000  1
  18491  18489  18490  18494     1  0.0000000  0.0000000  3
  18491  18489  18490  18506     1  0.0000000  1.0460000  1
  18491  18489  18490  18506     1  0.0000000  0.0000000  3
  18491  18489  18490  18493     1  0.0000000  0.6508444  3
  18491  18489  18495  18501     1  0.0000000  0.6973333  3
  18492  18488  18485  18497     1  0.0000000  1.0460000  1
  18492  18488  18485  18497     1  0.0000000  0.0000000  3
  18492  18488  18489  18495     1  0.0000000  1.0460000  1
  18492  18488  18489  18495     1  0.0000000  0.0000000  3
  18492  18488  18496  18499     1  0.0000000  0.6973333  3
  18493  18490  18489  18495     1  0.0000000  0.6508444  3
  18502  18498  18484  18506     1  0.0000000  1.0460000  1
  18502  18498  18484  18506     1  0.0000000  0.0000000  3
  18502  18498  18504  18505     1  0.0000000  0.6973333  3
  18503  18498  18484  18506     1  0.0000000  1.0460000  1
  18503  18498  18484  18506     1  0.0000000  0.0000000  3
  18503  18498  18504  18505     1  0.0000000  0.6973333  3
  18507  18508  18511  18515     1  0.0000000  0.6508444  3
  18507  18508  18520  18523     1  0.0000000  1.0460000  1
  18507  18508  18520  18523     1  0.0000000  0.6694400  3
  18507  18521  18527  18528     1  0.0000000  1.0460000  1
  18507  18521  18527  18528     1  0.0000000  0.6694400  3
  18507  18529  18513  18516     1  0.0000000  1.6038667  3
  18508  18511  18512  18514     1  0.0000000  0.6508444  3
  18508  18511  18519  18522     1  0.0000000  1.0460000  1
  18508  18511  18519  18522     1  0.0000000  0.6694400  3
  18508  18507  18521  18525     1  0.0000000  0.6508444  3
  18508  18507  18521  18526     1  0.0000000  0.6508444  3
  18509  18507  18508  18511     1  0.0000000  0.6508444  3
  18509  18507  18508  18520     1  0.0000000  1.0460000  1
  18509  18507  18508  18520     1  0.0000000  0.0000000  3
  18509  18507  18508  18510     1  0.0000000  0.6508444  3
  18509  18507  18521  18527     1  0.0000000  1.0460000  1
  18509  18507  18521  18527     1  0.0000000  0.0000000  3
  18509  18507  18521  18525     1  0.0000000  0.6508444  3
  18509  18507  18521  18526     1  0.0000000  0.6508444  3
  18509  18507  18529  18513     1  0.0000000  1.6038667  3
  18510  18508  18511  18512     1  0.0000000  0.6508444  3
  18510  18508  18511  18519     1  0.0000000  1.0460000  1
  18510  18508  18511  18519     1  0.0000000  0.0000000  3
  18510  18508  18511  18515     1  0.0000000  0.6508444  3
  18510  18508  18520  18523     1  0.0000000  0.6973333  3
  18510  18508  18507  18521     1  0.0000000  0.6508444  3
  18510  18508  18507  18529     1  0.0000000  1.0460000  1
  18510  18508  18507  18529     1  0.0000000  0.0000000  3
  18511  18512  18513  18516     1  0.0000000  0.6508444  3
  18511  18512  18518  18524     1  0.0000000  1.0460000  1
  18511  18512  18518  18524     1  0.0000000  0.6694400  3
  18511  18508  18520  18523     1  0.0000000  1.0460000  1
  18511  18508  18520  18523     1  0.0000000  0.6694400  3
  18512  18511  18519  18522     1  0.0000000  1.0460000  1
  18512  18511  18519  18522     1  0.0000000  0.6694400  3
  18513  18512  18518  18524     1  0.0000000  1.0460000  1
  18513  18512  18518  18524     1  0.0000000  0.6694400  3
  18513  18512  18511  18515     1  0.0000000  0.6508444  3
  18514  18512  18513  18517     1  0.0000000  1.0460000  1
  18514  18512  18513  18517     1  0.0000000  0.0000000  3
  18514  18512  18513  18529     1  0.0000000  1.0460000  1
  18514  18512  18513  18529     1  0.0000000  0.0000000  3
  18514  18512  18513  18516     1  0.0000000  0.6508444  3
  18514  18512  18518  18524     1  0.0000000  0.6973333  3
  18514  18512  18511  18519     1  0.0000000  1.0460000  1
  18514  18512  18511  18519     1  0.0000000  0.0000000  3
  18514  18512  18511  18515     1  0.0000000  0.6508444  3
  18515  18511  18512  18518     1  0.0000000  1.0460000  1
  18515  18511  18512  18518     1  0.0000000  0.0000000  3
  18515  18511  18519  18522     1  0.0000000  0.6973333  3
  18515  18511  18508  18520     1  0.0000000  1.0460000  1
  18515  18511  18508  18520     1  0.0000000  0.0000000  3
  18516  18513  18512  18518     1  0.0000000  0.6508444  3
  18525  18521  18527  18528     1  0.0000000  0.6973333  3
  18525  18521  18507  18529     1  0.0000000  1.0460000  1
  18525  18521  18507  18529     1  0.0000000  0.0000000  3
  18526  18521  18527  18528     1  0.0000000  0.6973333  3
  18526  18521  18507  18529     1  0.0000000  1.0460000  1
  18526  18521  18507  18529     1  0.0000000  0.0000000  3
  18530  18531  18534  18538     1  0.0000000  0.6508444  3
  18530  18531  18543  18546     1  0.0000000  1.0460000  1
  18530  18531  18543  18546     1  0.0000000  0.6694400  3
  18530  18544  18550  18551     1  0.0000000  1.0460000  1
  18530  18544  18550  18551     1  0.0000000  0.6694400  3
  18530  18552  18536  18539     1  0.0000000  1.6038667  3
  18531  18530  18544  18548     1  0.0000000  0.6508444  3
  18531  18530  18544  18549     1  0.0000000  0.6508444  3
  18531  18534  18535  18537     1  0.0000000  0.6508444  3
  18531  18534  18542  18545     1  0.0000000  1.0460000  1
  18531  18534  18542  18545     1  0.0000000  0.6694400  3
  18532  18530  18531  18534     1  0.0000000  0.6508444  3
  18532  18530  18531  18543     1  0.0000000  1.0460000  1
  18532  18530  18531  18543     1  0.0000000  0.0000000  3
  18532  18530  18531  18533     1  0.0000000  0.6508444  3
  18532  18530  18544  18550     1  0.0000000  1.0460000  1
  18532  18530  18544  18550     1  0.0000000  0.0000000  3
  18532  18530  18544  18548     1  0.0000000  0.6508444  3
  18532  18530  18544  18549     1  0.0000000  0.6508444  3
  18532  18530  18552  18536     1  0.0000000  1.6038667  3
  18533  18531  18530  18544     1  0.0000000  0.6508444  3
  18533  18531  18530  18552     1  0.0000000  1.0460000  1
  18533  18531  18530  18552     1  0.0000000  0.0000000  3
  18533  18531  18534  18535     1  0.0000000  0.6508444  3
  18533  18531  18534  18542     1  0.0000000  1.0460000  1
  18533  18531  18534  18542     1  0.0000000  0.0000000  3
  18533  18531  18534  18538     1  0.0000000  0.6508444  3
  18533  18531  18543  18546     1  0.0000000  0.6973333  3
  18534  18531  18543  18546     1  0.0000000  1.0460000  1
  18534  18531  18543  18546     1  0.0000000  0.6694400  3
  18534  18535  18536  18539     1  0.0000000  0.6508444  3
  18534  18535  18541  18547     1  0.0000000  1.0460000  1
  18534  18535  18541  18547     1  0.0000000  0.6694400  3
  18535  18534  18542  18545     1  0.0000000  1.0460000  1
  18535  18534  18542  18545     1  0.0000000  0.6694400  3
  18536  18535  18534  18538     1  0.0000000  0.6508444  3
  18536  18535  18541  18547     1  0.0000000  1.0460000  1
  18536  18535  18541  18547     1  0.0000000  0.6694400  3
  18537  18535  18534  18542     1  0.0000000  1.0460000  1
  18537  18535  18534  18542     1  0.0000000  0.0000000  3
  18537  18535  18534  18538     1  0.0000000  0.6508444  3
  18537  18535  18536  18540     1  0.0000000  1.0460000  1
  18537  18535  18536  18540     1  0.0000000  0.0000000  3
  18537  18535  18536  18552     1  0.0000000  1.0460000  1
  18537  18535  18536  18552     1  0.0000000  0.0000000  3
  18537  18535  18536  18539     1  0.0000000  0.6508444  3
  18537  18535  18541  18547     1  0.0000000  0.6973333  3
  18538  18534  18531  18543     1  0.0000000  1.0460000  1
  18538  18534  18531  18543     1  0.0000000  0.0000000  3
  18538  18534  18535  18541     1  0.0000000  1.0460000  1
  18538  18534  18535  18541     1  0.0000000  0.0000000  3
  18538  18534  18542  18545     1  0.0000000  0.6973333  3
  18539  18536  18535  18541     1  0.0000000  0.6508444  3
  18548  18544  18530  18552     1  0.0000000  1.0460000  1
  18548  18544  18530  18552     1  0.0000000  0.0000000  3
  18548  18544  18550  18551     1  0.0000000  0.6973333  3
  18549  18544  18530  18552     1  0.0000000  1.0460000  1
  18549  18544  18530  18552     1  0.0000000  0.0000000  3
  18549  18544  18550  18551     1  0.0000000  0.6973333  3
  18553  18554  18557  18561     1  0.0000000  0.6508444  3
  18553  18554  18566  18569     1  0.0000000  1.0460000  1
  18553  18554  18566  18569     1  0.0000000  0.6694400  3
  18553  18567  18573  18574     1  0.0000000  1.0460000  1
  18553  18567  18573  18574     1  0.0000000  0.6694400  3
  18553  18575  18559  18562     1  0.0000000  1.6038667  3
  18554  18557  18558  18560     1  0.0000000  0.6508444  3
  18554  18557  18565  18568     1  0.0000000  1.0460000  1
  18554  18557  18565  18568     1  0.0000000  0.6694400  3
  18554  18553  18567  18571     1  0.0000000  0.6508444  3
  18554  18553  18567  18572     1  0.0000000  0.6508444  3
  18555  18553  18554  18557     1  0.0000000  0.6508444  3
  18555  18553  18554  18566     1  0.0000000  1.0460000  1
  18555  18553  18554  18566     1  0.0000000  0.0000000  3
  18555  18553  18554  18556     1  0.0000000  0.6508444  3
  18555  18553  18567  18573     1  0.0000000  1.0460000  1
  18555  18553  18567  18573     1  0.0000000  0.0000000  3
  18555  18553  18567  18571     1  0.0000000  0.6508444  3
  18555  18553  18567  18572     1  0.0000000  0.6508444  3
  18555  18553  18575  18559     1  0.0000000  1.6038667  3
  18556  18554  18557  18558     1  0.0000000  0.6508444  3
  18556  18554  18557  18565     1  0.0000000  1.0460000  1
  18556  18554  18557  18565     1  0.0000000  0.0000000  3
  18556  18554  18557  18561     1  0.0000000  0.6508444  3
  18556  18554  18566  18569     1  0.0000000  0.6973333  3
  18556  18554  18553  18567     1  0.0000000  0.6508444  3
  18556  18554  18553  18575     1  0.0000000  1.0460000  1
  18556  18554  18553  18575     1  0.0000000  0.0000000  3
  18557  18558  18559  18562     1  0.0000000  0.6508444  3
  18557  18558  18564  18570     1  0.0000000  1.0460000  1
  18557  18558  18564  18570     1  0.0000000  0.6694400  3
  18557  18554  18566  18569     1  0.0000000  1.0460000  1
  18557  18554  18566  18569     1  0.0000000  0.6694400  3
  18558  18557  18565  18568     1  0.0000000  1.0460000  1
  18558  18557  18565  18568     1  0.0000000  0.6694400  3
  18559  18558  18564  18570     1  0.0000000  1.0460000  1
  18559  18558  18564  18570     1  0.0000000  0.6694400  3
  18559  18558  18557  18561     1  0.0000000  0.6508444  3
  18560  18558  18559  18563     1  0.0000000  1.0460000  1
  18560  18558  18559  18563     1  0.0000000  0.0000000  3
  18560  18558  18559  18575     1  0.0000000  1.0460000  1
  18560  18558  18559  18575     1  0.0000000  0.0000000  3
  18560  18558  18559  18562     1  0.0000000  0.6508444  3
  18560  18558  18564  18570     1  0.0000000  0.6973333  3
  18560  18558  18557  18565     1  0.0000000  1.0460000  1
  18560  18558  18557  18565     1  0.0000000  0.0000000  3
  18560  18558  18557  18561     1  0.0000000  0.6508444  3
  18561  18557  18558  18564     1  0.0000000  1.0460000  1
  18561  18557  18558  18564     1  0.0000000  0.0000000  3
  18561  18557  18565  18568     1  0.0000000  0.6973333  3
  18561  18557  18554  18566     1  0.0000000  1.0460000  1
  18561  18557  18554  18566     1  0.0000000  0.0000000  3
  18562  18559  18558  18564     1  0.0000000  0.6508444  3
  18571  18567  18573  18574     1  0.0000000  0.6973333  3
  18571  18567  18553  18575     1  0.0000000  1.0460000  1
  18571  18567  18553  18575     1  0.0000000  0.0000000  3
  18572  18567  18573  18574     1  0.0000000  0.6973333  3
  18572  18567  18553  18575     1  0.0000000  1.0460000  1
  18572  18567  18553  18575     1  0.0000000  0.0000000  3
  18576  18577  18580  18584     1  0.0000000  0.6508444  3
  18576  18577  18589  18592     1  0.0000000  1.0460000  1
  18576  18577  18589  18592     1  0.0000000  0.6694400  3
  18576  18590  18596  18597     1  0.0000000  1.0460000  1
  18576  18590  18596  18597     1  0.0000000  0.6694400  3
  18576  18598  18582  18585     1  0.0000000  1.6038667  3
  18577  18576  18590  18594     1  0.0000000  0.6508444  3
  18577  18576  18590  18595     1  0.0000000  0.6508444  3
  18577  18580  18581  18583     1  0.0000000  0.6508444  3
  18577  18580  18588  18591     1  0.0000000  1.0460000  1
  18577  18580  18588  18591     1  0.0000000  0.6694400  3
  18578  18576  18577  18580     1  0.0000000  0.6508444  3
  18578  18576  18577  18589     1  0.0000000  1.0460000  1
  18578  18576  18577  18589     1  0.0000000  0.0000000  3
  18578  18576  18577  18579     1  0.0000000  0.6508444  3
  18578  18576  18590  18596     1  0.0000000  1.0460000  1
  18578  18576  18590  18596     1  0.0000000  0.0000000  3
  18578  18576  18590  18594     1  0.0000000  0.6508444  3
  18578  18576  18590  18595     1  0.0000000  0.6508444  3
  18578  18576  18598  18582     1  0.0000000  1.6038667  3
  18579  18577  18576  18590     1  0.0000000  0.6508444  3
  18579  18577  18576  18598     1  0.0000000  1.0460000  1
  18579  18577  18576  18598     1  0.0000000  0.0000000  3
  18579  18577  18580  18581     1  0.0000000  0.6508444  3
  18579  18577  18580  18588     1  0.0000000  1.0460000  1
  18579  18577  18580  18588     1  0.0000000  0.0000000  3
  18579  18577  18580  18584     1  0.0000000  0.6508444  3
  18579  18577  18589  18592     1  0.0000000  0.6973333  3
  18580  18577  18589  18592     1  0.0000000  1.0460000  1
  18580  18577  18589  18592     1  0.0000000  0.6694400  3
  18580  18581  18582  18585     1  0.0000000  0.6508444  3
  18580  18581  18587  18593     1  0.0000000  1.0460000  1
  18580  18581  18587  18593     1  0.0000000  0.6694400  3
  18581  18580  18588  18591     1  0.0000000  1.0460000  1
  18581  18580  18588  18591     1  0.0000000  0.6694400  3
  18582  18581  18580  18584     1  0.0000000  0.6508444  3
  18582  18581  18587  18593     1  0.0000000  1.0460000  1
  18582  18581  18587  18593     1  0.0000000  0.6694400  3
  18583  18581  18580  18588     1  0.0000000  1.0460000  1
  18583  18581  18580  18588     1  0.0000000  0.0000000  3
  18583  18581  18580  18584     1  0.0000000  0.6508444  3
  18583  18581  18582  18586     1  0.0000000  1.0460000  1
  18583  18581  18582  18586     1  0.0000000  0.0000000  3
  18583  18581  18582  18598     1  0.0000000  1.0460000  1
  18583  18581  18582  18598     1  0.0000000  0.0000000  3
  18583  18581  18582  18585     1  0.0000000  0.6508444  3
  18583  18581  18587  18593     1  0.0000000  0.6973333  3
  18584  18580  18577  18589     1  0.0000000  1.0460000  1
  18584  18580  18577  18589     1  0.0000000  0.0000000  3
  18584  18580  18581  18587     1  0.0000000  1.0460000  1
  18584  18580  18581  18587     1  0.0000000  0.0000000  3
  18584  18580  18588  18591     1  0.0000000  0.6973333  3
  18585  18582  18581  18587     1  0.0000000  0.6508444  3
  18594  18590  18576  18598     1  0.0000000  1.0460000  1
  18594  18590  18576  18598     1  0.0000000  0.0000000  3
  18594  18590  18596  18597     1  0.0000000  0.6973333  3
  18595  18590  18576  18598     1  0.0000000  1.0460000  1
  18595  18590  18576  18598     1  0.0000000  0.0000000  3
  18595  18590  18596  18597     1  0.0000000  0.6973333  3
  18599  18600  18603  18607     1  0.0000000  0.6508444  3
  18599  18600  18612  18615     1  0.0000000  1.0460000  1
  18599  18600  18612  18615     1  0.0000000  0.6694400  3
  18599  18613  18619  18620     1  0.0000000  1.0460000  1
  18599  18613  18619  18620     1  0.0000000  0.6694400  3
  18599  18621  18605  18608     1  0.0000000  1.6038667  3
  18600  18603  18604  18606     1  0.0000000  0.6508444  3
  18600  18603  18611  18614     1  0.0000000  1.0460000  1
  18600  18603  18611  18614     1  0.0000000  0.6694400  3
  18600  18599  18613  18617     1  0.0000000  0.6508444  3
  18600  18599  18613  18618     1  0.0000000  0.6508444  3
  18601  18599  18600  18603     1  0.0000000  0.6508444  3
  18601  18599  18600  18612     1  0.0000000  1.0460000  1
  18601  18599  18600  18612     1  0.0000000  0.0000000  3
  18601  18599  18600  18602     1  0.0000000  0.6508444  3
  18601  18599  18613  18619     1  0.0000000  1.0460000  1
  18601  18599  18613  18619     1  0.0000000  0.0000000  3
  18601  18599  18613  18617     1  0.0000000  0.6508444  3
  18601  18599  18613  18618     1  0.0000000  0.6508444  3
  18601  18599  18621  18605     1  0.0000000  1.6038667  3
  18602  18600  18603  18604     1  0.0000000  0.6508444  3
  18602  18600  18603  18611     1  0.0000000  1.0460000  1
  18602  18600  18603  18611     1  0.0000000  0.0000000  3
  18602  18600  18603  18607     1  0.0000000  0.6508444  3
  18602  18600  18612  18615     1  0.0000000  0.6973333  3
  18602  18600  18599  18613     1  0.0000000  0.6508444  3
  18602  18600  18599  18621     1  0.0000000  1.0460000  1
  18602  18600  18599  18621     1  0.0000000  0.0000000  3
  18603  18604  18605  18608     1  0.0000000  0.6508444  3
  18603  18604  18610  18616     1  0.0000000  1.0460000  1
  18603  18604  18610  18616     1  0.0000000  0.6694400  3
  18603  18600  18612  18615     1  0.0000000  1.0460000  1
  18603  18600  18612  18615     1  0.0000000  0.6694400  3
  18604  18603  18611  18614     1  0.0000000  1.0460000  1
  18604  18603  18611  18614     1  0.0000000  0.6694400  3
  18605  18604  18610  18616     1  0.0000000  1.0460000  1
  18605  18604  18610  18616     1  0.0000000  0.6694400  3
  18605  18604  18603  18607     1  0.0000000  0.6508444  3
  18606  18604  18605  18609     1  0.0000000  1.0460000  1
  18606  18604  18605  18609     1  0.0000000  0.0000000  3
  18606  18604  18605  18621     1  0.0000000  1.0460000  1
  18606  18604  18605  18621     1  0.0000000  0.0000000  3
  18606  18604  18605  18608     1  0.0000000  0.6508444  3
  18606  18604  18610  18616     1  0.0000000  0.6973333  3
  18606  18604  18603  18611     1  0.0000000  1.0460000  1
  18606  18604  18603  18611     1  0.0000000  0.0000000  3
  18606  18604  18603  18607     1  0.0000000  0.6508444  3
  18607  18603  18604  18610     1  0.0000000  1.0460000  1
  18607  18603  18604  18610     1  0.0000000  0.0000000  3
  18607  18603  18611  18614     1  0.0000000  0.6973333  3
  18607  18603  18600  18612     1  0.0000000  1.0460000  1
  18607  18603  18600  18612     1  0.0000000  0.0000000  3
  18608  18605  18604  18610     1  0.0000000  0.6508444  3
  18617  18613  18619  18620     1  0.0000000  0.6973333  3
  18617  18613  18599  18621     1  0.0000000  1.0460000  1
  18617  18613  18599  18621     1  0.0000000  0.0000000  3
  18618  18613  18619  18620     1  0.0000000  0.6973333  3
  18618  18613  18599  18621     1  0.0000000  1.0460000  1
  18618  18613  18599  18621     1  0.0000000  0.0000000  3
  18622  18623  18626  18630     1  0.0000000  0.6508444  3
  18622  18623  18635  18638     1  0.0000000  1.0460000  1
  18622  18623  18635  18638     1  0.0000000  0.6694400  3
  18622  18636  18642  18643     1  0.0000000  1.0460000  1
  18622  18636  18642  18643     1  0.0000000  0.6694400  3
  18622  18644  18628  18631     1  0.0000000  1.6038667  3
  18623  18622  18636  18640     1  0.0000000  0.6508444  3
  18623  18622  18636  18641     1  0.0000000  0.6508444  3
  18623  18626  18627  18629     1  0.0000000  0.6508444  3
  18623  18626  18634  18637     1  0.0000000  1.0460000  1
  18623  18626  18634  18637     1  0.0000000  0.6694400  3
  18624  18622  18623  18626     1  0.0000000  0.6508444  3
  18624  18622  18623  18635     1  0.0000000  1.0460000  1
  18624  18622  18623  18635     1  0.0000000  0.0000000  3
  18624  18622  18623  18625     1  0.0000000  0.6508444  3
  18624  18622  18636  18642     1  0.0000000  1.0460000  1
  18624  18622  18636  18642     1  0.0000000  0.0000000  3
  18624  18622  18636  18640     1  0.0000000  0.6508444  3
  18624  18622  18636  18641     1  0.0000000  0.6508444  3
  18624  18622  18644  18628     1  0.0000000  1.6038667  3
  18625  18623  18622  18636     1  0.0000000  0.6508444  3
  18625  18623  18622  18644     1  0.0000000  1.0460000  1
  18625  18623  18622  18644     1  0.0000000  0.0000000  3
  18625  18623  18626  18627     1  0.0000000  0.6508444  3
  18625  18623  18626  18634     1  0.0000000  1.0460000  1
  18625  18623  18626  18634     1  0.0000000  0.0000000  3
  18625  18623  18626  18630     1  0.0000000  0.6508444  3
  18625  18623  18635  18638     1  0.0000000  0.6973333  3
  18626  18623  18635  18638     1  0.0000000  1.0460000  1
  18626  18623  18635  18638     1  0.0000000  0.6694400  3
  18626  18627  18628  18631     1  0.0000000  0.6508444  3
  18626  18627  18633  18639     1  0.0000000  1.0460000  1
  18626  18627  18633  18639     1  0.0000000  0.6694400  3
  18627  18626  18634  18637     1  0.0000000  1.0460000  1
  18627  18626  18634  18637     1  0.0000000  0.6694400  3
  18628  18627  18626  18630     1  0.0000000  0.6508444  3
  18628  18627  18633  18639     1  0.0000000  1.0460000  1
  18628  18627  18633  18639     1  0.0000000  0.6694400  3
  18629  18627  18626  18634     1  0.0000000  1.0460000  1
  18629  18627  18626  18634     1  0.0000000  0.0000000  3
  18629  18627  18626  18630     1  0.0000000  0.6508444  3
  18629  18627  18628  18632     1  0.0000000  1.0460000  1
  18629  18627  18628  18632     1  0.0000000  0.0000000  3
  18629  18627  18628  18644     1  0.0000000  1.0460000  1
  18629  18627  18628  18644     1  0.0000000  0.0000000  3
  18629  18627  18628  18631     1  0.0000000  0.6508444  3
  18629  18627  18633  18639     1  0.0000000  0.6973333  3
  18630  18626  18623  18635     1  0.0000000  1.0460000  1
  18630  18626  18623  18635     1  0.0000000  0.0000000  3
  18630  18626  18627  18633     1  0.0000000  1.0460000  1
  18630  18626  18627  18633     1  0.0000000  0.0000000  3
  18630  18626  18634  18637     1  0.0000000  0.6973333  3
  18631  18628  18627  18633     1  0.0000000  0.6508444  3
  18640  18636  18622  18644     1  0.0000000  1.0460000  1
  18640  18636  18622  18644     1  0.0000000  0.0000000  3
  18640  18636  18642  18643     1  0.0000000  0.6973333  3
  18641  18636  18622  18644     1  0.0000000  1.0460000  1
  18641  18636  18622  18644     1  0.0000000  0.0000000  3
  18641  18636  18642  18643     1  0.0000000  0.6973333  3
  18645  18646  18649  18653     1  0.0000000  0.6508444  3
  18645  18646  18658  18661     1  0.0000000  1.0460000  1
  18645  18646  18658  18661     1  0.0000000  0.6694400  3
  18645  18659  18665  18666     1  0.0000000  1.0460000  1
  18645  18659  18665  18666     1  0.0000000  0.6694400  3
  18645  18667  18651  18654     1  0.0000000  1.6038667  3
  18646  18649  18650  18652     1  0.0000000  0.6508444  3
  18646  18649  18657  18660     1  0.0000000  1.0460000  1
  18646  18649  18657  18660     1  0.0000000  0.6694400  3
  18646  18645  18659  18663     1  0.0000000  0.6508444  3
  18646  18645  18659  18664     1  0.0000000  0.6508444  3
  18647  18645  18646  18649     1  0.0000000  0.6508444  3
  18647  18645  18646  18658     1  0.0000000  1.0460000  1
  18647  18645  18646  18658     1  0.0000000  0.0000000  3
  18647  18645  18646  18648     1  0.0000000  0.6508444  3
  18647  18645  18659  18665     1  0.0000000  1.0460000  1
  18647  18645  18659  18665     1  0.0000000  0.0000000  3
  18647  18645  18659  18663     1  0.0000000  0.6508444  3
  18647  18645  18659  18664     1  0.0000000  0.6508444  3
  18647  18645  18667  18651     1  0.0000000  1.6038667  3
  18648  18646  18649  18650     1  0.0000000  0.6508444  3
  18648  18646  18649  18657     1  0.0000000  1.0460000  1
  18648  18646  18649  18657     1  0.0000000  0.0000000  3
  18648  18646  18649  18653     1  0.0000000  0.6508444  3
  18648  18646  18658  18661     1  0.0000000  0.6973333  3
  18648  18646  18645  18659     1  0.0000000  0.6508444  3
  18648  18646  18645  18667     1  0.0000000  1.0460000  1
  18648  18646  18645  18667     1  0.0000000  0.0000000  3
  18649  18650  18651  18654     1  0.0000000  0.6508444  3
  18649  18650  18656  18662     1  0.0000000  1.0460000  1
  18649  18650  18656  18662     1  0.0000000  0.6694400  3
  18649  18646  18658  18661     1  0.0000000  1.0460000  1
  18649  18646  18658  18661     1  0.0000000  0.6694400  3
  18650  18649  18657  18660     1  0.0000000  1.0460000  1
  18650  18649  18657  18660     1  0.0000000  0.6694400  3
  18651  18650  18656  18662     1  0.0000000  1.0460000  1
  18651  18650  18656  18662     1  0.0000000  0.6694400  3
  18651  18650  18649  18653     1  0.0000000  0.6508444  3
  18652  18650  18651  18655     1  0.0000000  1.0460000  1
  18652  18650  18651  18655     1  0.0000000  0.0000000  3
  18652  18650  18651  18667     1  0.0000000  1.0460000  1
  18652  18650  18651  18667     1  0.0000000  0.0000000  3
  18652  18650  18651  18654     1  0.0000000  0.6508444  3
  18652  18650  18656  18662     1  0.0000000  0.6973333  3
  18652  18650  18649  18657     1  0.0000000  1.0460000  1
  18652  18650  18649  18657     1  0.0000000  0.0000000  3
  18652  18650  18649  18653     1  0.0000000  0.6508444  3
  18653  18649  18650  18656     1  0.0000000  1.0460000  1
  18653  18649  18650  18656     1  0.0000000  0.0000000  3
  18653  18649  18657  18660     1  0.0000000  0.6973333  3
  18653  18649  18646  18658     1  0.0000000  1.0460000  1
  18653  18649  18646  18658     1  0.0000000  0.0000000  3
  18654  18651  18650  18656     1  0.0000000  0.6508444  3
  18663  18659  18665  18666     1  0.0000000  0.6973333  3
  18663  18659  18645  18667     1  0.0000000  1.0460000  1
  18663  18659  18645  18667     1  0.0000000  0.0000000  3
  18664  18659  18665  18666     1  0.0000000  0.6973333  3
  18664  18659  18645  18667     1  0.0000000  1.0460000  1
  18664  18659  18645  18667     1  0.0000000  0.0000000  3
  18668  18669  18672  18676     1  0.0000000  0.6508444  3
  18668  18669  18681  18684     1  0.0000000  1.0460000  1
  18668  18669  18681  18684     1  0.0000000  0.6694400  3
  18668  18682  18688  18689     1  0.0000000  1.0460000  1
  18668  18682  18688  18689     1  0.0000000  0.6694400  3
  18668  18690  18674  18677     1  0.0000000  1.6038667  3
  18669  18668  18682  18686     1  0.0000000  0.6508444  3
  18669  18668  18682  18687     1  0.0000000  0.6508444  3
  18669  18672  18673  18675     1  0.0000000  0.6508444  3
  18669  18672  18680  18683     1  0.0000000  1.0460000  1
  18669  18672  18680  18683     1  0.0000000  0.6694400  3
  18670  18668  18669  18672     1  0.0000000  0.6508444  3
  18670  18668  18669  18681     1  0.0000000  1.0460000  1
  18670  18668  18669  18681     1  0.0000000  0.0000000  3
  18670  18668  18669  18671     1  0.0000000  0.6508444  3
  18670  18668  18682  18688     1  0.0000000  1.0460000  1
  18670  18668  18682  18688     1  0.0000000  0.0000000  3
  18670  18668  18682  18686     1  0.0000000  0.6508444  3
  18670  18668  18682  18687     1  0.0000000  0.6508444  3
  18670  18668  18690  18674     1  0.0000000  1.6038667  3
  18671  18669  18668  18682     1  0.0000000  0.6508444  3
  18671  18669  18668  18690     1  0.0000000  1.0460000  1
  18671  18669  18668  18690     1  0.0000000  0.0000000  3
  18671  18669  18672  18673     1  0.0000000  0.6508444  3
  18671  18669  18672  18680     1  0.0000000  1.0460000  1
  18671  18669  18672  18680     1  0.0000000  0.0000000  3
  18671  18669  18672  18676     1  0.0000000  0.6508444  3
  18671  18669  18681  18684     1  0.0000000  0.6973333  3
  18672  18669  18681  18684     1  0.0000000  1.0460000  1
  18672  18669  18681  18684     1  0.0000000  0.6694400  3
  18672  18673  18674  18677     1  0.0000000  0.6508444  3
  18672  18673  18679  18685     1  0.0000000  1.0460000  1
  18672  18673  18679  18685     1  0.0000000  0.6694400  3
  18673  18672  18680  18683     1  0.0000000  1.0460000  1
  18673  18672  18680  18683     1  0.0000000  0.6694400  3
  18674  18673  18672  18676     1  0.0000000  0.6508444  3
  18674  18673  18679  18685     1  0.0000000  1.0460000  1
  18674  18673  18679  18685     1  0.0000000  0.6694400  3
  18675  18673  18672  18680     1  0.0000000  1.0460000  1
  18675  18673  18672  18680     1  0.0000000  0.0000000  3
  18675  18673  18672  18676     1  0.0000000  0.6508444  3
  18675  18673  18674  18678     1  0.0000000  1.0460000  1
  18675  18673  18674  18678     1  0.0000000  0.0000000  3
  18675  18673  18674  18690     1  0.0000000  1.0460000  1
  18675  18673  18674  18690     1  0.0000000  0.0000000  3
  18675  18673  18674  18677     1  0.0000000  0.6508444  3
  18675  18673  18679  18685     1  0.0000000  0.6973333  3
  18676  18672  18669  18681     1  0.0000000  1.0460000  1
  18676  18672  18669  18681     1  0.0000000  0.0000000  3
  18676  18672  18673  18679     1  0.0000000  1.0460000  1
  18676  18672  18673  18679     1  0.0000000  0.0000000  3
  18676  18672  18680  18683     1  0.0000000  0.6973333  3
  18677  18674  18673  18679     1  0.0000000  0.6508444  3
  18686  18682  18668  18690     1  0.0000000  1.0460000  1
  18686  18682  18668  18690     1  0.0000000  0.0000000  3
  18686  18682  18688  18689     1  0.0000000  0.6973333  3
  18687  18682  18668  18690     1  0.0000000  1.0460000  1
  18687  18682  18668  18690     1  0.0000000  0.0000000  3
  18687  18682  18688  18689     1  0.0000000  0.6973333  3
  18691  18692  18695  18699     1  0.0000000  0.6508444  3
  18691  18692  18704  18707     1  0.0000000  1.0460000  1
  18691  18692  18704  18707     1  0.0000000  0.6694400  3
  18691  18705  18711  18712     1  0.0000000  1.0460000  1
  18691  18705  18711  18712     1  0.0000000  0.6694400  3
  18691  18713  18697  18700     1  0.0000000  1.6038667  3
  18692  18695  18696  18698     1  0.0000000  0.6508444  3
  18692  18695  18703  18706     1  0.0000000  1.0460000  1
  18692  18695  18703  18706     1  0.0000000  0.6694400  3
  18692  18691  18705  18709     1  0.0000000  0.6508444  3
  18692  18691  18705  18710     1  0.0000000  0.6508444  3
  18693  18691  18692  18695     1  0.0000000  0.6508444  3
  18693  18691  18692  18704     1  0.0000000  1.0460000  1
  18693  18691  18692  18704     1  0.0000000  0.0000000  3
  18693  18691  18692  18694     1  0.0000000  0.6508444  3
  18693  18691  18705  18711     1  0.0000000  1.0460000  1
  18693  18691  18705  18711     1  0.0000000  0.0000000  3
  18693  18691  18705  18709     1  0.0000000  0.6508444  3
  18693  18691  18705  18710     1  0.0000000  0.6508444  3
  18693  18691  18713  18697     1  0.0000000  1.6038667  3
  18694  18692  18695  18696     1  0.0000000  0.6508444  3
  18694  18692  18695  18703     1  0.0000000  1.0460000  1
  18694  18692  18695  18703     1  0.0000000  0.0000000  3
  18694  18692  18695  18699     1  0.0000000  0.6508444  3
  18694  18692  18704  18707     1  0.0000000  0.6973333  3
  18694  18692  18691  18705     1  0.0000000  0.6508444  3
  18694  18692  18691  18713     1  0.0000000  1.0460000  1
  18694  18692  18691  18713     1  0.0000000  0.0000000  3
  18695  18696  18697  18700     1  0.0000000  0.6508444  3
  18695  18696  18702  18708     1  0.0000000  1.0460000  1
  18695  18696  18702  18708     1  0.0000000  0.6694400  3
  18695  18692  18704  18707     1  0.0000000  1.0460000  1
  18695  18692  18704  18707     1  0.0000000  0.6694400  3
  18696  18695  18703  18706     1  0.0000000  1.0460000  1
  18696  18695  18703  18706     1  0.0000000  0.6694400  3
  18697  18696  18702  18708     1  0.0000000  1.0460000  1
  18697  18696  18702  18708     1  0.0000000  0.6694400  3
  18697  18696  18695  18699     1  0.0000000  0.6508444  3
  18698  18696  18697  18701     1  0.0000000  1.0460000  1
  18698  18696  18697  18701     1  0.0000000  0.0000000  3
  18698  18696  18697  18713     1  0.0000000  1.0460000  1
  18698  18696  18697  18713     1  0.0000000  0.0000000  3
  18698  18696  18697  18700     1  0.0000000  0.6508444  3
  18698  18696  18702  18708     1  0.0000000  0.6973333  3
  18698  18696  18695  18703     1  0.0000000  1.0460000  1
  18698  18696  18695  18703     1  0.0000000  0.0000000  3
  18698  18696  18695  18699     1  0.0000000  0.6508444  3
  18699  18695  18696  18702     1  0.0000000  1.0460000  1
  18699  18695  18696  18702     1  0.0000000  0.0000000  3
  18699  18695  18703  18706     1  0.0000000  0.6973333  3
  18699  18695  18692  18704     1  0.0000000  1.0460000  1
  18699  18695  18692  18704     1  0.0000000  0.0000000  3
  18700  18697  18696  18702     1  0.0000000  0.6508444  3
  18709  18705  18711  18712     1  0.0000000  0.6973333  3
  18709  18705  18691  18713     1  0.0000000  1.0460000  1
  18709  18705  18691  18713     1  0.0000000  0.0000000  3
  18710  18705  18711  18712     1  0.0000000  0.6973333  3
  18710  18705  18691  18713     1  0.0000000  1.0460000  1
  18710  18705  18691  18713     1  0.0000000  0.0000000  3
  18714  18715  18718  18722     1  0.0000000  0.6508444  3
  18714  18715  18727  18730     1  0.0000000  1.0460000  1
  18714  18715  18727  18730     1  0.0000000  0.6694400  3
  18714  18728  18734  18735     1  0.0000000  1.0460000  1
  18714  18728  18734  18735     1  0.0000000  0.6694400  3
  18714  18736  18720  18723     1  0.0000000  1.6038667  3
  18715  18714  18728  18732     1  0.0000000  0.6508444  3
  18715  18714  18728  18733     1  0.0000000  0.6508444  3
  18715  18718  18719  18721     1  0.0000000  0.6508444  3
  18715  18718  18726  18729     1  0.0000000  1.0460000  1
  18715  18718  18726  18729     1  0.0000000  0.6694400  3
  18716  18714  18715  18718     1  0.0000000  0.6508444  3
  18716  18714  18715  18727     1  0.0000000  1.0460000  1
  18716  18714  18715  18727     1  0.0000000  0.0000000  3
  18716  18714  18715  18717     1  0.0000000  0.6508444  3
  18716  18714  18728  18734     1  0.0000000  1.0460000  1
  18716  18714  18728  18734     1  0.0000000  0.0000000  3
  18716  18714  18728  18732     1  0.0000000  0.6508444  3
  18716  18714  18728  18733     1  0.0000000  0.6508444  3
  18716  18714  18736  18720     1  0.0000000  1.6038667  3
  18717  18715  18714  18728     1  0.0000000  0.6508444  3
  18717  18715  18714  18736     1  0.0000000  1.0460000  1
  18717  18715  18714  18736     1  0.0000000  0.0000000  3
  18717  18715  18718  18719     1  0.0000000  0.6508444  3
  18717  18715  18718  18726     1  0.0000000  1.0460000  1
  18717  18715  18718  18726     1  0.0000000  0.0000000  3
  18717  18715  18718  18722     1  0.0000000  0.6508444  3
  18717  18715  18727  18730     1  0.0000000  0.6973333  3
  18718  18715  18727  18730     1  0.0000000  1.0460000  1
  18718  18715  18727  18730     1  0.0000000  0.6694400  3
  18718  18719  18720  18723     1  0.0000000  0.6508444  3
  18718  18719  18725  18731     1  0.0000000  1.0460000  1
  18718  18719  18725  18731     1  0.0000000  0.6694400  3
  18719  18718  18726  18729     1  0.0000000  1.0460000  1
  18719  18718  18726  18729     1  0.0000000  0.6694400  3
  18720  18719  18718  18722     1  0.0000000  0.6508444  3
  18720  18719  18725  18731     1  0.0000000  1.0460000  1
  18720  18719  18725  18731     1  0.0000000  0.6694400  3
  18721  18719  18718  18726     1  0.0000000  1.0460000  1
  18721  18719  18718  18726     1  0.0000000  0.0000000  3
  18721  18719  18718  18722     1  0.0000000  0.6508444  3
  18721  18719  18720  18724     1  0.0000000  1.0460000  1
  18721  18719  18720  18724     1  0.0000000  0.0000000  3
  18721  18719  18720  18736     1  0.0000000  1.0460000  1
  18721  18719  18720  18736     1  0.0000000  0.0000000  3
  18721  18719  18720  18723     1  0.0000000  0.6508444  3
  18721  18719  18725  18731     1  0.0000000  0.6973333  3
  18722  18718  18715  18727     1  0.0000000  1.0460000  1
  18722  18718  18715  18727     1  0.0000000  0.0000000  3
  18722  18718  18719  18725     1  0.0000000  1.0460000  1
  18722  18718  18719  18725     1  0.0000000  0.0000000  3
  18722  18718  18726  18729     1  0.0000000  0.6973333  3
  18723  18720  18719  18725     1  0.0000000  0.6508444  3
  18732  18728  18714  18736     1  0.0000000  1.0460000  1
  18732  18728  18714  18736     1  0.0000000  0.0000000  3
  18732  18728  18734  18735     1  0.0000000  0.6973333  3
  18733  18728  18714  18736     1  0.0000000  1.0460000  1
  18733  18728  18714  18736     1  0.0000000  0.0000000  3
  18733  18728  18734  18735     1  0.0000000  0.6973333  3
  18737  18738  18741  18745     1  0.0000000  0.6508444  3
  18737  18738  18750  18753     1  0.0000000  1.0460000  1
  18737  18738  18750  18753     1  0.0000000  0.6694400  3
  18737  18751  18757  18758     1  0.0000000  1.0460000  1
  18737  18751  18757  18758     1  0.0000000  0.6694400  3
  18737  18759  18743  18746     1  0.0000000  1.6038667  3
  18738  18741  18742  18744     1  0.0000000  0.6508444  3
  18738  18741  18749  18752     1  0.0000000  1.0460000  1
  18738  18741  18749  18752     1  0.0000000  0.6694400  3
  18738  18737  18751  18755     1  0.0000000  0.6508444  3
  18738  18737  18751  18756     1  0.0000000  0.6508444  3
  18739  18737  18738  18741     1  0.0000000  0.6508444  3
  18739  18737  18738  18750     1  0.0000000  1.0460000  1
  18739  18737  18738  18750     1  0.0000000  0.0000000  3
  18739  18737  18738  18740     1  0.0000000  0.6508444  3
  18739  18737  18751  18757     1  0.0000000  1.0460000  1
  18739  18737  18751  18757     1  0.0000000  0.0000000  3
  18739  18737  18751  18755     1  0.0000000  0.6508444  3
  18739  18737  18751  18756     1  0.0000000  0.6508444  3
  18739  18737  18759  18743     1  0.0000000  1.6038667  3
  18740  18738  18741  18742     1  0.0000000  0.6508444  3
  18740  18738  18741  18749     1  0.0000000  1.0460000  1
  18740  18738  18741  18749     1  0.0000000  0.0000000  3
  18740  18738  18741  18745     1  0.0000000  0.6508444  3
  18740  18738  18750  18753     1  0.0000000  0.6973333  3
  18740  18738  18737  18751     1  0.0000000  0.6508444  3
  18740  18738  18737  18759     1  0.0000000  1.0460000  1
  18740  18738  18737  18759     1  0.0000000  0.0000000  3
  18741  18742  18743  18746     1  0.0000000  0.6508444  3
  18741  18742  18748  18754     1  0.0000000  1.0460000  1
  18741  18742  18748  18754     1  0.0000000  0.6694400  3
  18741  18738  18750  18753     1  0.0000000  1.0460000  1
  18741  18738  18750  18753     1  0.0000000  0.6694400  3
  18742  18741  18749  18752     1  0.0000000  1.0460000  1
  18742  18741  18749  18752     1  0.0000000  0.6694400  3
  18743  18742  18748  18754     1  0.0000000  1.0460000  1
  18743  18742  18748  18754     1  0.0000000  0.6694400  3
  18743  18742  18741  18745     1  0.0000000  0.6508444  3
  18744  18742  18743  18747     1  0.0000000  1.0460000  1
  18744  18742  18743  18747     1  0.0000000  0.0000000  3
  18744  18742  18743  18759     1  0.0000000  1.0460000  1
  18744  18742  18743  18759     1  0.0000000  0.0000000  3
  18744  18742  18743  18746     1  0.0000000  0.6508444  3
  18744  18742  18748  18754     1  0.0000000  0.6973333  3
  18744  18742  18741  18749     1  0.0000000  1.0460000  1
  18744  18742  18741  18749     1  0.0000000  0.0000000  3
  18744  18742  18741  18745     1  0.0000000  0.6508444  3
  18745  18741  18742  18748     1  0.0000000  1.0460000  1
  18745  18741  18742  18748     1  0.0000000  0.0000000  3
  18745  18741  18749  18752     1  0.0000000  0.6973333  3
  18745  18741  18738  18750     1  0.0000000  1.0460000  1
  18745  18741  18738  18750     1  0.0000000  0.0000000  3
  18746  18743  18742  18748     1  0.0000000  0.6508444  3
  18755  18751  18757  18758     1  0.0000000  0.6973333  3
  18755  18751  18737  18759     1  0.0000000  1.0460000  1
  18755  18751  18737  18759     1  0.0000000  0.0000000  3
  18756  18751  18757  18758     1  0.0000000  0.6973333  3
  18756  18751  18737  18759     1  0.0000000  1.0460000  1
  18756  18751  18737  18759     1  0.0000000  0.0000000  3
  18760  18761  18764  18768     1  0.0000000  0.6508444  3
  18760  18761  18773  18776     1  0.0000000  1.0460000  1
  18760  18761  18773  18776     1  0.0000000  0.6694400  3
  18760  18774  18780  18781     1  0.0000000  1.0460000  1
  18760  18774  18780  18781     1  0.0000000  0.6694400  3
  18760  18782  18766  18769     1  0.0000000  1.6038667  3
  18761  18760  18774  18778     1  0.0000000  0.6508444  3
  18761  18760  18774  18779     1  0.0000000  0.6508444  3
  18761  18764  18765  18767     1  0.0000000  0.6508444  3
  18761  18764  18772  18775     1  0.0000000  1.0460000  1
  18761  18764  18772  18775     1  0.0000000  0.6694400  3
  18762  18760  18761  18764     1  0.0000000  0.6508444  3
  18762  18760  18761  18773     1  0.0000000  1.0460000  1
  18762  18760  18761  18773     1  0.0000000  0.0000000  3
  18762  18760  18761  18763     1  0.0000000  0.6508444  3
  18762  18760  18774  18780     1  0.0000000  1.0460000  1
  18762  18760  18774  18780     1  0.0000000  0.0000000  3
  18762  18760  18774  18778     1  0.0000000  0.6508444  3
  18762  18760  18774  18779     1  0.0000000  0.6508444  3
  18762  18760  18782  18766     1  0.0000000  1.6038667  3
  18763  18761  18760  18774     1  0.0000000  0.6508444  3
  18763  18761  18760  18782     1  0.0000000  1.0460000  1
  18763  18761  18760  18782     1  0.0000000  0.0000000  3
  18763  18761  18764  18765     1  0.0000000  0.6508444  3
  18763  18761  18764  18772     1  0.0000000  1.0460000  1
  18763  18761  18764  18772     1  0.0000000  0.0000000  3
  18763  18761  18764  18768     1  0.0000000  0.6508444  3
  18763  18761  18773  18776     1  0.0000000  0.6973333  3
  18764  18761  18773  18776     1  0.0000000  1.0460000  1
  18764  18761  18773  18776     1  0.0000000  0.6694400  3
  18764  18765  18766  18769     1  0.0000000  0.6508444  3
  18764  18765  18771  18777     1  0.0000000  1.0460000  1
  18764  18765  18771  18777     1  0.0000000  0.6694400  3
  18765  18764  18772  18775     1  0.0000000  1.0460000  1
  18765  18764  18772  18775     1  0.0000000  0.6694400  3
  18766  18765  18764  18768     1  0.0000000  0.6508444  3
  18766  18765  18771  18777     1  0.0000000  1.0460000  1
  18766  18765  18771  18777     1  0.0000000  0.6694400  3
  18767  18765  18764  18772     1  0.0000000  1.0460000  1
  18767  18765  18764  18772     1  0.0000000  0.0000000  3
  18767  18765  18764  18768     1  0.0000000  0.6508444  3
  18767  18765  18766  18770     1  0.0000000  1.0460000  1
  18767  18765  18766  18770     1  0.0000000  0.0000000  3
  18767  18765  18766  18782     1  0.0000000  1.0460000  1
  18767  18765  18766  18782     1  0.0000000  0.0000000  3
  18767  18765  18766  18769     1  0.0000000  0.6508444  3
  18767  18765  18771  18777     1  0.0000000  0.6973333  3
  18768  18764  18761  18773     1  0.0000000  1.0460000  1
  18768  18764  18761  18773     1  0.0000000  0.0000000  3
  18768  18764  18765  18771     1  0.0000000  1.0460000  1
  18768  18764  18765  18771     1  0.0000000  0.0000000  3
  18768  18764  18772  18775     1  0.0000000  0.6973333  3
  18769  18766  18765  18771     1  0.0000000  0.6508444  3
  18778  18774  18760  18782     1  0.0000000  1.0460000  1
  18778  18774  18760  18782     1  0.0000000  0.0000000  3
  18778  18774  18780  18781     1  0.0000000  0.6973333  3
  18779  18774  18760  18782     1  0.0000000  1.0460000  1
  18779  18774  18760  18782     1  0.0000000  0.0000000  3
  18779  18774  18780  18781     1  0.0000000  0.6973333  3
  18783  18784  18787  18791     1  0.0000000  0.6508444  3
  18783  18784  18796  18799     1  0.0000000  1.0460000  1
  18783  18784  18796  18799     1  0.0000000  0.6694400  3
  18783  18797  18803  18804     1  0.0000000  1.0460000  1
  18783  18797  18803  18804     1  0.0000000  0.6694400  3
  18783  18805  18789  18792     1  0.0000000  1.6038667  3
  18784  18787  18788  18790     1  0.0000000  0.6508444  3
  18784  18787  18795  18798     1  0.0000000  1.0460000  1
  18784  18787  18795  18798     1  0.0000000  0.6694400  3
  18784  18783  18797  18801     1  0.0000000  0.6508444  3
  18784  18783  18797  18802     1  0.0000000  0.6508444  3
  18785  18783  18784  18787     1  0.0000000  0.6508444  3
  18785  18783  18784  18796     1  0.0000000  1.0460000  1
  18785  18783  18784  18796     1  0.0000000  0.0000000  3
  18785  18783  18784  18786     1  0.0000000  0.6508444  3
  18785  18783  18797  18803     1  0.0000000  1.0460000  1
  18785  18783  18797  18803     1  0.0000000  0.0000000  3
  18785  18783  18797  18801     1  0.0000000  0.6508444  3
  18785  18783  18797  18802     1  0.0000000  0.6508444  3
  18785  18783  18805  18789     1  0.0000000  1.6038667  3
  18786  18784  18787  18788     1  0.0000000  0.6508444  3
  18786  18784  18787  18795     1  0.0000000  1.0460000  1
  18786  18784  18787  18795     1  0.0000000  0.0000000  3
  18786  18784  18787  18791     1  0.0000000  0.6508444  3
  18786  18784  18796  18799     1  0.0000000  0.6973333  3
  18786  18784  18783  18797     1  0.0000000  0.6508444  3
  18786  18784  18783  18805     1  0.0000000  1.0460000  1
  18786  18784  18783  18805     1  0.0000000  0.0000000  3
  18787  18788  18789  18792     1  0.0000000  0.6508444  3
  18787  18788  18794  18800     1  0.0000000  1.0460000  1
  18787  18788  18794  18800     1  0.0000000  0.6694400  3
  18787  18784  18796  18799     1  0.0000000  1.0460000  1
  18787  18784  18796  18799     1  0.0000000  0.6694400  3
  18788  18787  18795  18798     1  0.0000000  1.0460000  1
  18788  18787  18795  18798     1  0.0000000  0.6694400  3
  18789  18788  18794  18800     1  0.0000000  1.0460000  1
  18789  18788  18794  18800     1  0.0000000  0.6694400  3
  18789  18788  18787  18791     1  0.0000000  0.6508444  3
  18790  18788  18789  18793     1  0.0000000  1.0460000  1
  18790  18788  18789  18793     1  0.0000000  0.0000000  3
  18790  18788  18789  18805     1  0.0000000  1.0460000  1
  18790  18788  18789  18805     1  0.0000000  0.0000000  3
  18790  18788  18789  18792     1  0.0000000  0.6508444  3
  18790  18788  18794  18800     1  0.0000000  0.6973333  3
  18790  18788  18787  18795     1  0.0000000  1.0460000  1
  18790  18788  18787  18795     1  0.0000000  0.0000000  3
  18790  18788  18787  18791     1  0.0000000  0.6508444  3
  18791  18787  18788  18794     1  0.0000000  1.0460000  1
  18791  18787  18788  18794     1  0.0000000  0.0000000  3
  18791  18787  18795  18798     1  0.0000000  0.6973333  3
  18791  18787  18784  18796     1  0.0000000  1.0460000  1
  18791  18787  18784  18796     1  0.0000000  0.0000000  3
  18792  18789  18788  18794     1  0.0000000  0.6508444  3
  18801  18797  18803  18804     1  0.0000000  0.6973333  3
  18801  18797  18783  18805     1  0.0000000  1.0460000  1
  18801  18797  18783  18805     1  0.0000000  0.0000000  3
  18802  18797  18803  18804     1  0.0000000  0.6973333  3
  18802  18797  18783  18805     1  0.0000000  1.0460000  1
  18802  18797  18783  18805     1  0.0000000  0.0000000  3
  18806  18807  18810  18814     1  0.0000000  0.6508444  3
  18806  18807  18819  18822     1  0.0000000  1.0460000  1
  18806  18807  18819  18822     1  0.0000000  0.6694400  3
  18806  18820  18826  18827     1  0.0000000  1.0460000  1
  18806  18820  18826  18827     1  0.0000000  0.6694400  3
  18806  18828  18812  18815     1  0.0000000  1.6038667  3
  18807  18806  18820  18824     1  0.0000000  0.6508444  3
  18807  18806  18820  18825     1  0.0000000  0.6508444  3
  18807  18810  18811  18813     1  0.0000000  0.6508444  3
  18807  18810  18818  18821     1  0.0000000  1.0460000  1
  18807  18810  18818  18821     1  0.0000000  0.6694400  3
  18808  18806  18807  18810     1  0.0000000  0.6508444  3
  18808  18806  18807  18819     1  0.0000000  1.0460000  1
  18808  18806  18807  18819     1  0.0000000  0.0000000  3
  18808  18806  18807  18809     1  0.0000000  0.6508444  3
  18808  18806  18820  18826     1  0.0000000  1.0460000  1
  18808  18806  18820  18826     1  0.0000000  0.0000000  3
  18808  18806  18820  18824     1  0.0000000  0.6508444  3
  18808  18806  18820  18825     1  0.0000000  0.6508444  3
  18808  18806  18828  18812     1  0.0000000  1.6038667  3
  18809  18807  18806  18820     1  0.0000000  0.6508444  3
  18809  18807  18806  18828     1  0.0000000  1.0460000  1
  18809  18807  18806  18828     1  0.0000000  0.0000000  3
  18809  18807  18810  18811     1  0.0000000  0.6508444  3
  18809  18807  18810  18818     1  0.0000000  1.0460000  1
  18809  18807  18810  18818     1  0.0000000  0.0000000  3
  18809  18807  18810  18814     1  0.0000000  0.6508444  3
  18809  18807  18819  18822     1  0.0000000  0.6973333  3
  18810  18807  18819  18822     1  0.0000000  1.0460000  1
  18810  18807  18819  18822     1  0.0000000  0.6694400  3
  18810  18811  18812  18815     1  0.0000000  0.6508444  3
  18810  18811  18817  18823     1  0.0000000  1.0460000  1
  18810  18811  18817  18823     1  0.0000000  0.6694400  3
  18811  18810  18818  18821     1  0.0000000  1.0460000  1
  18811  18810  18818  18821     1  0.0000000  0.6694400  3
  18812  18811  18810  18814     1  0.0000000  0.6508444  3
  18812  18811  18817  18823     1  0.0000000  1.0460000  1
  18812  18811  18817  18823     1  0.0000000  0.6694400  3
  18813  18811  18810  18818     1  0.0000000  1.0460000  1
  18813  18811  18810  18818     1  0.0000000  0.0000000  3
  18813  18811  18810  18814     1  0.0000000  0.6508444  3
  18813  18811  18812  18816     1  0.0000000  1.0460000  1
  18813  18811  18812  18816     1  0.0000000  0.0000000  3
  18813  18811  18812  18828     1  0.0000000  1.0460000  1
  18813  18811  18812  18828     1  0.0000000  0.0000000  3
  18813  18811  18812  18815     1  0.0000000  0.6508444  3
  18813  18811  18817  18823     1  0.0000000  0.6973333  3
  18814  18810  18807  18819     1  0.0000000  1.0460000  1
  18814  18810  18807  18819     1  0.0000000  0.0000000  3
  18814  18810  18811  18817     1  0.0000000  1.0460000  1
  18814  18810  18811  18817     1  0.0000000  0.0000000  3
  18814  18810  18818  18821     1  0.0000000  0.6973333  3
  18815  18812  18811  18817     1  0.0000000  0.6508444  3
  18824  18820  18806  18828     1  0.0000000  1.0460000  1
  18824  18820  18806  18828     1  0.0000000  0.0000000  3
  18824  18820  18826  18827     1  0.0000000  0.6973333  3
  18825  18820  18806  18828     1  0.0000000  1.0460000  1
  18825  18820  18806  18828     1  0.0000000  0.0000000  3
  18825  18820  18826  18827     1  0.0000000  0.6973333  3
  18829  18830  18833  18837     1  0.0000000  0.6508444  3
  18829  18830  18842  18845     1  0.0000000  1.0460000  1
  18829  18830  18842  18845     1  0.0000000  0.6694400  3
  18829  18843  18849  18850     1  0.0000000  1.0460000  1
  18829  18843  18849  18850     1  0.0000000  0.6694400  3
  18829  18851  18835  18838     1  0.0000000  1.6038667  3
  18830  18833  18834  18836     1  0.0000000  0.6508444  3
  18830  18833  18841  18844     1  0.0000000  1.0460000  1
  18830  18833  18841  18844     1  0.0000000  0.6694400  3
  18830  18829  18843  18847     1  0.0000000  0.6508444  3
  18830  18829  18843  18848     1  0.0000000  0.6508444  3
  18831  18829  18830  18833     1  0.0000000  0.6508444  3
  18831  18829  18830  18842     1  0.0000000  1.0460000  1
  18831  18829  18830  18842     1  0.0000000  0.0000000  3
  18831  18829  18830  18832     1  0.0000000  0.6508444  3
  18831  18829  18843  18849     1  0.0000000  1.0460000  1
  18831  18829  18843  18849     1  0.0000000  0.0000000  3
  18831  18829  18843  18847     1  0.0000000  0.6508444  3
  18831  18829  18843  18848     1  0.0000000  0.6508444  3
  18831  18829  18851  18835     1  0.0000000  1.6038667  3
  18832  18830  18833  18834     1  0.0000000  0.6508444  3
  18832  18830  18833  18841     1  0.0000000  1.0460000  1
  18832  18830  18833  18841     1  0.0000000  0.0000000  3
  18832  18830  18833  18837     1  0.0000000  0.6508444  3
  18832  18830  18842  18845     1  0.0000000  0.6973333  3
  18832  18830  18829  18843     1  0.0000000  0.6508444  3
  18832  18830  18829  18851     1  0.0000000  1.0460000  1
  18832  18830  18829  18851     1  0.0000000  0.0000000  3
  18833  18834  18835  18838     1  0.0000000  0.6508444  3
  18833  18834  18840  18846     1  0.0000000  1.0460000  1
  18833  18834  18840  18846     1  0.0000000  0.6694400  3
  18833  18830  18842  18845     1  0.0000000  1.0460000  1
  18833  18830  18842  18845     1  0.0000000  0.6694400  3
  18834  18833  18841  18844     1  0.0000000  1.0460000  1
  18834  18833  18841  18844     1  0.0000000  0.6694400  3
  18835  18834  18840  18846     1  0.0000000  1.0460000  1
  18835  18834  18840  18846     1  0.0000000  0.6694400  3
  18835  18834  18833  18837     1  0.0000000  0.6508444  3
  18836  18834  18835  18839     1  0.0000000  1.0460000  1
  18836  18834  18835  18839     1  0.0000000  0.0000000  3
  18836  18834  18835  18851     1  0.0000000  1.0460000  1
  18836  18834  18835  18851     1  0.0000000  0.0000000  3
  18836  18834  18835  18838     1  0.0000000  0.6508444  3
  18836  18834  18840  18846     1  0.0000000  0.6973333  3
  18836  18834  18833  18841     1  0.0000000  1.0460000  1
  18836  18834  18833  18841     1  0.0000000  0.0000000  3
  18836  18834  18833  18837     1  0.0000000  0.6508444  3
  18837  18833  18834  18840     1  0.0000000  1.0460000  1
  18837  18833  18834  18840     1  0.0000000  0.0000000  3
  18837  18833  18841  18844     1  0.0000000  0.6973333  3
  18837  18833  18830  18842     1  0.0000000  1.0460000  1
  18837  18833  18830  18842     1  0.0000000  0.0000000  3
  18838  18835  18834  18840     1  0.0000000  0.6508444  3
  18847  18843  18849  18850     1  0.0000000  0.6973333  3
  18847  18843  18829  18851     1  0.0000000  1.0460000  1
  18847  18843  18829  18851     1  0.0000000  0.0000000  3
  18848  18843  18849  18850     1  0.0000000  0.6973333  3
  18848  18843  18829  18851     1  0.0000000  1.0460000  1
  18848  18843  18829  18851     1  0.0000000  0.0000000  3
  18852  18853  18856  18860     1  0.0000000  0.6508444  3
  18852  18853  18865  18868     1  0.0000000  1.0460000  1
  18852  18853  18865  18868     1  0.0000000  0.6694400  3
  18852  18866  18872  18873     1  0.0000000  1.0460000  1
  18852  18866  18872  18873     1  0.0000000  0.6694400  3
  18852  18874  18858  18861     1  0.0000000  1.6038667  3
  18853  18852  18866  18870     1  0.0000000  0.6508444  3
  18853  18852  18866  18871     1  0.0000000  0.6508444  3
  18853  18856  18857  18859     1  0.0000000  0.6508444  3
  18853  18856  18864  18867     1  0.0000000  1.0460000  1
  18853  18856  18864  18867     1  0.0000000  0.6694400  3
  18854  18852  18853  18856     1  0.0000000  0.6508444  3
  18854  18852  18853  18865     1  0.0000000  1.0460000  1
  18854  18852  18853  18865     1  0.0000000  0.0000000  3
  18854  18852  18853  18855     1  0.0000000  0.6508444  3
  18854  18852  18866  18872     1  0.0000000  1.0460000  1
  18854  18852  18866  18872     1  0.0000000  0.0000000  3
  18854  18852  18866  18870     1  0.0000000  0.6508444  3
  18854  18852  18866  18871     1  0.0000000  0.6508444  3
  18854  18852  18874  18858     1  0.0000000  1.6038667  3
  18855  18853  18852  18866     1  0.0000000  0.6508444  3
  18855  18853  18852  18874     1  0.0000000  1.0460000  1
  18855  18853  18852  18874     1  0.0000000  0.0000000  3
  18855  18853  18856  18857     1  0.0000000  0.6508444  3
  18855  18853  18856  18864     1  0.0000000  1.0460000  1
  18855  18853  18856  18864     1  0.0000000  0.0000000  3
  18855  18853  18856  18860     1  0.0000000  0.6508444  3
  18855  18853  18865  18868     1  0.0000000  0.6973333  3
  18856  18853  18865  18868     1  0.0000000  1.0460000  1
  18856  18853  18865  18868     1  0.0000000  0.6694400  3
  18856  18857  18858  18861     1  0.0000000  0.6508444  3
  18856  18857  18863  18869     1  0.0000000  1.0460000  1
  18856  18857  18863  18869     1  0.0000000  0.6694400  3
  18857  18856  18864  18867     1  0.0000000  1.0460000  1
  18857  18856  18864  18867     1  0.0000000  0.6694400  3
  18858  18857  18856  18860     1  0.0000000  0.6508444  3
  18858  18857  18863  18869     1  0.0000000  1.0460000  1
  18858  18857  18863  18869     1  0.0000000  0.6694400  3
  18859  18857  18856  18864     1  0.0000000  1.0460000  1
  18859  18857  18856  18864     1  0.0000000  0.0000000  3
  18859  18857  18856  18860     1  0.0000000  0.6508444  3
  18859  18857  18858  18862     1  0.0000000  1.0460000  1
  18859  18857  18858  18862     1  0.0000000  0.0000000  3
  18859  18857  18858  18874     1  0.0000000  1.0460000  1
  18859  18857  18858  18874     1  0.0000000  0.0000000  3
  18859  18857  18858  18861     1  0.0000000  0.6508444  3
  18859  18857  18863  18869     1  0.0000000  0.6973333  3
  18860  18856  18853  18865     1  0.0000000  1.0460000  1
  18860  18856  18853  18865     1  0.0000000  0.0000000  3
  18860  18856  18857  18863     1  0.0000000  1.0460000  1
  18860  18856  18857  18863     1  0.0000000  0.0000000  3
  18860  18856  18864  18867     1  0.0000000  0.6973333  3
  18861  18858  18857  18863     1  0.0000000  0.6508444  3
  18870  18866  18852  18874     1  0.0000000  1.0460000  1
  18870  18866  18852  18874     1  0.0000000  0.0000000  3
  18870  18866  18872  18873     1  0.0000000  0.6973333  3
  18871  18866  18852  18874     1  0.0000000  1.0460000  1
  18871  18866  18852  18874     1  0.0000000  0.0000000  3
  18871  18866  18872  18873     1  0.0000000  0.6973333  3
  18875  18876  18879  18883     1  0.0000000  0.6508444  3
  18875  18876  18888  18891     1  0.0000000  1.0460000  1
  18875  18876  18888  18891     1  0.0000000  0.6694400  3
  18875  18889  18895  18896     1  0.0000000  1.0460000  1
  18875  18889  18895  18896     1  0.0000000  0.6694400  3
  18875  18897  18881  18884     1  0.0000000  1.6038667  3
  18876  18879  18880  18882     1  0.0000000  0.6508444  3
  18876  18879  18887  18890     1  0.0000000  1.0460000  1
  18876  18879  18887  18890     1  0.0000000  0.6694400  3
  18876  18875  18889  18893     1  0.0000000  0.6508444  3
  18876  18875  18889  18894     1  0.0000000  0.6508444  3
  18877  18875  18876  18879     1  0.0000000  0.6508444  3
  18877  18875  18876  18888     1  0.0000000  1.0460000  1
  18877  18875  18876  18888     1  0.0000000  0.0000000  3
  18877  18875  18876  18878     1  0.0000000  0.6508444  3
  18877  18875  18889  18895     1  0.0000000  1.0460000  1
  18877  18875  18889  18895     1  0.0000000  0.0000000  3
  18877  18875  18889  18893     1  0.0000000  0.6508444  3
  18877  18875  18889  18894     1  0.0000000  0.6508444  3
  18877  18875  18897  18881     1  0.0000000  1.6038667  3
  18878  18876  18879  18880     1  0.0000000  0.6508444  3
  18878  18876  18879  18887     1  0.0000000  1.0460000  1
  18878  18876  18879  18887     1  0.0000000  0.0000000  3
  18878  18876  18879  18883     1  0.0000000  0.6508444  3
  18878  18876  18888  18891     1  0.0000000  0.6973333  3
  18878  18876  18875  18889     1  0.0000000  0.6508444  3
  18878  18876  18875  18897     1  0.0000000  1.0460000  1
  18878  18876  18875  18897     1  0.0000000  0.0000000  3
  18879  18880  18881  18884     1  0.0000000  0.6508444  3
  18879  18880  18886  18892     1  0.0000000  1.0460000  1
  18879  18880  18886  18892     1  0.0000000  0.6694400  3
  18879  18876  18888  18891     1  0.0000000  1.0460000  1
  18879  18876  18888  18891     1  0.0000000  0.6694400  3
  18880  18879  18887  18890     1  0.0000000  1.0460000  1
  18880  18879  18887  18890     1  0.0000000  0.6694400  3
  18881  18880  18886  18892     1  0.0000000  1.0460000  1
  18881  18880  18886  18892     1  0.0000000  0.6694400  3
  18881  18880  18879  18883     1  0.0000000  0.6508444  3
  18882  18880  18881  18885     1  0.0000000  1.0460000  1
  18882  18880  18881  18885     1  0.0000000  0.0000000  3
  18882  18880  18881  18897     1  0.0000000  1.0460000  1
  18882  18880  18881  18897     1  0.0000000  0.0000000  3
  18882  18880  18881  18884     1  0.0000000  0.6508444  3
  18882  18880  18886  18892     1  0.0000000  0.6973333  3
  18882  18880  18879  18887     1  0.0000000  1.0460000  1
  18882  18880  18879  18887     1  0.0000000  0.0000000  3
  18882  18880  18879  18883     1  0.0000000  0.6508444  3
  18883  18879  18880  18886     1  0.0000000  1.0460000  1
  18883  18879  18880  18886     1  0.0000000  0.0000000  3
  18883  18879  18887  18890     1  0.0000000  0.6973333  3
  18883  18879  18876  18888     1  0.0000000  1.0460000  1
  18883  18879  18876  18888     1  0.0000000  0.0000000  3
  18884  18881  18880  18886     1  0.0000000  0.6508444  3
  18893  18889  18895  18896     1  0.0000000  0.6973333  3
  18893  18889  18875  18897     1  0.0000000  1.0460000  1
  18893  18889  18875  18897     1  0.0000000  0.0000000  3
  18894  18889  18895  18896     1  0.0000000  0.6973333  3
  18894  18889  18875  18897     1  0.0000000  1.0460000  1
  18894  18889  18875  18897     1  0.0000000  0.0000000  3
  18898  18899  18902  18906     1  0.0000000  0.6508444  3
  18898  18899  18911  18914     1  0.0000000  1.0460000  1
  18898  18899  18911  18914     1  0.0000000  0.6694400  3
  18898  18912  18918  18919     1  0.0000000  1.0460000  1
  18898  18912  18918  18919     1  0.0000000  0.6694400  3
  18898  18920  18904  18907     1  0.0000000  1.6038667  3
  18899  18898  18912  18916     1  0.0000000  0.6508444  3
  18899  18898  18912  18917     1  0.0000000  0.6508444  3
  18899  18902  18903  18905     1  0.0000000  0.6508444  3
  18899  18902  18910  18913     1  0.0000000  1.0460000  1
  18899  18902  18910  18913     1  0.0000000  0.6694400  3
  18900  18898  18899  18902     1  0.0000000  0.6508444  3
  18900  18898  18899  18911     1  0.0000000  1.0460000  1
  18900  18898  18899  18911     1  0.0000000  0.0000000  3
  18900  18898  18899  18901     1  0.0000000  0.6508444  3
  18900  18898  18912  18918     1  0.0000000  1.0460000  1
  18900  18898  18912  18918     1  0.0000000  0.0000000  3
  18900  18898  18912  18916     1  0.0000000  0.6508444  3
  18900  18898  18912  18917     1  0.0000000  0.6508444  3
  18900  18898  18920  18904     1  0.0000000  1.6038667  3
  18901  18899  18898  18912     1  0.0000000  0.6508444  3
  18901  18899  18898  18920     1  0.0000000  1.0460000  1
  18901  18899  18898  18920     1  0.0000000  0.0000000  3
  18901  18899  18902  18903     1  0.0000000  0.6508444  3
  18901  18899  18902  18910     1  0.0000000  1.0460000  1
  18901  18899  18902  18910     1  0.0000000  0.0000000  3
  18901  18899  18902  18906     1  0.0000000  0.6508444  3
  18901  18899  18911  18914     1  0.0000000  0.6973333  3
  18902  18899  18911  18914     1  0.0000000  1.0460000  1
  18902  18899  18911  18914     1  0.0000000  0.6694400  3
  18902  18903  18904  18907     1  0.0000000  0.6508444  3
  18902  18903  18909  18915     1  0.0000000  1.0460000  1
  18902  18903  18909  18915     1  0.0000000  0.6694400  3
  18903  18902  18910  18913     1  0.0000000  1.0460000  1
  18903  18902  18910  18913     1  0.0000000  0.6694400  3
  18904  18903  18902  18906     1  0.0000000  0.6508444  3
  18904  18903  18909  18915     1  0.0000000  1.0460000  1
  18904  18903  18909  18915     1  0.0000000  0.6694400  3
  18905  18903  18902  18910     1  0.0000000  1.0460000  1
  18905  18903  18902  18910     1  0.0000000  0.0000000  3
  18905  18903  18902  18906     1  0.0000000  0.6508444  3
  18905  18903  18904  18908     1  0.0000000  1.0460000  1
  18905  18903  18904  18908     1  0.0000000  0.0000000  3
  18905  18903  18904  18920     1  0.0000000  1.0460000  1
  18905  18903  18904  18920     1  0.0000000  0.0000000  3
  18905  18903  18904  18907     1  0.0000000  0.6508444  3
  18905  18903  18909  18915     1  0.0000000  0.6973333  3
  18906  18902  18899  18911     1  0.0000000  1.0460000  1
  18906  18902  18899  18911     1  0.0000000  0.0000000  3
  18906  18902  18903  18909     1  0.0000000  1.0460000  1
  18906  18902  18903  18909     1  0.0000000  0.0000000  3
  18906  18902  18910  18913     1  0.0000000  0.6973333  3
  18907  18904  18903  18909     1  0.0000000  0.6508444  3
  18916  18912  18898  18920     1  0.0000000  1.0460000  1
  18916  18912  18898  18920     1  0.0000000  0.0000000  3
  18916  18912  18918  18919     1  0.0000000  0.6973333  3
  18917  18912  18898  18920     1  0.0000000  1.0460000  1
  18917  18912  18898  18920     1  0.0000000  0.0000000  3
  18917  18912  18918  18919     1  0.0000000  0.6973333  3
  18921  18922  18925  18929     1  0.0000000  0.6508444  3
  18921  18922  18934  18937     1  0.0000000  1.0460000  1
  18921  18922  18934  18937     1  0.0000000  0.6694400  3
  18921  18935  18941  18942     1  0.0000000  1.0460000  1
  18921  18935  18941  18942     1  0.0000000  0.6694400  3
  18921  18943  18927  18930     1  0.0000000  1.6038667  3
  18922  18925  18926  18928     1  0.0000000  0.6508444  3
  18922  18925  18933  18936     1  0.0000000  1.0460000  1
  18922  18925  18933  18936     1  0.0000000  0.6694400  3
  18922  18921  18935  18939     1  0.0000000  0.6508444  3
  18922  18921  18935  18940     1  0.0000000  0.6508444  3
  18923  18921  18922  18925     1  0.0000000  0.6508444  3
  18923  18921  18922  18934     1  0.0000000  1.0460000  1
  18923  18921  18922  18934     1  0.0000000  0.0000000  3
  18923  18921  18922  18924     1  0.0000000  0.6508444  3
  18923  18921  18935  18941     1  0.0000000  1.0460000  1
  18923  18921  18935  18941     1  0.0000000  0.0000000  3
  18923  18921  18935  18939     1  0.0000000  0.6508444  3
  18923  18921  18935  18940     1  0.0000000  0.6508444  3
  18923  18921  18943  18927     1  0.0000000  1.6038667  3
  18924  18922  18925  18926     1  0.0000000  0.6508444  3
  18924  18922  18925  18933     1  0.0000000  1.0460000  1
  18924  18922  18925  18933     1  0.0000000  0.0000000  3
  18924  18922  18925  18929     1  0.0000000  0.6508444  3
  18924  18922  18934  18937     1  0.0000000  0.6973333  3
  18924  18922  18921  18935     1  0.0000000  0.6508444  3
  18924  18922  18921  18943     1  0.0000000  1.0460000  1
  18924  18922  18921  18943     1  0.0000000  0.0000000  3
  18925  18926  18927  18930     1  0.0000000  0.6508444  3
  18925  18926  18932  18938     1  0.0000000  1.0460000  1
  18925  18926  18932  18938     1  0.0000000  0.6694400  3
  18925  18922  18934  18937     1  0.0000000  1.0460000  1
  18925  18922  18934  18937     1  0.0000000  0.6694400  3
  18926  18925  18933  18936     1  0.0000000  1.0460000  1
  18926  18925  18933  18936     1  0.0000000  0.6694400  3
  18927  18926  18932  18938     1  0.0000000  1.0460000  1
  18927  18926  18932  18938     1  0.0000000  0.6694400  3
  18927  18926  18925  18929     1  0.0000000  0.6508444  3
  18928  18926  18927  18931     1  0.0000000  1.0460000  1
  18928  18926  18927  18931     1  0.0000000  0.0000000  3
  18928  18926  18927  18943     1  0.0000000  1.0460000  1
  18928  18926  18927  18943     1  0.0000000  0.0000000  3
  18928  18926  18927  18930     1  0.0000000  0.6508444  3
  18928  18926  18932  18938     1  0.0000000  0.6973333  3
  18928  18926  18925  18933     1  0.0000000  1.0460000  1
  18928  18926  18925  18933     1  0.0000000  0.0000000  3
  18928  18926  18925  18929     1  0.0000000  0.6508444  3
  18929  18925  18926  18932     1  0.0000000  1.0460000  1
  18929  18925  18926  18932     1  0.0000000  0.0000000  3
  18929  18925  18933  18936     1  0.0000000  0.6973333  3
  18929  18925  18922  18934     1  0.0000000  1.0460000  1
  18929  18925  18922  18934     1  0.0000000  0.0000000  3
  18930  18927  18926  18932     1  0.0000000  0.6508444  3
  18939  18935  18941  18942     1  0.0000000  0.6973333  3
  18939  18935  18921  18943     1  0.0000000  1.0460000  1
  18939  18935  18921  18943     1  0.0000000  0.0000000  3
  18940  18935  18941  18942     1  0.0000000  0.6973333  3
  18940  18935  18921  18943     1  0.0000000  1.0460000  1
  18940  18935  18921  18943     1  0.0000000  0.0000000  3
  18944  18945  18948  18952     1  0.0000000  0.6508444  3
  18944  18945  18957  18960     1  0.0000000  1.0460000  1
  18944  18945  18957  18960     1  0.0000000  0.6694400  3
  18944  18958  18964  18965     1  0.0000000  1.0460000  1
  18944  18958  18964  18965     1  0.0000000  0.6694400  3
  18944  18966  18950  18953     1  0.0000000  1.6038667  3
  18945  18944  18958  18962     1  0.0000000  0.6508444  3
  18945  18944  18958  18963     1  0.0000000  0.6508444  3
  18945  18948  18949  18951     1  0.0000000  0.6508444  3
  18945  18948  18956  18959     1  0.0000000  1.0460000  1
  18945  18948  18956  18959     1  0.0000000  0.6694400  3
  18946  18944  18945  18948     1  0.0000000  0.6508444  3
  18946  18944  18945  18957     1  0.0000000  1.0460000  1
  18946  18944  18945  18957     1  0.0000000  0.0000000  3
  18946  18944  18945  18947     1  0.0000000  0.6508444  3
  18946  18944  18958  18964     1  0.0000000  1.0460000  1
  18946  18944  18958  18964     1  0.0000000  0.0000000  3
  18946  18944  18958  18962     1  0.0000000  0.6508444  3
  18946  18944  18958  18963     1  0.0000000  0.6508444  3
  18946  18944  18966  18950     1  0.0000000  1.6038667  3
  18947  18945  18944  18958     1  0.0000000  0.6508444  3
  18947  18945  18944  18966     1  0.0000000  1.0460000  1
  18947  18945  18944  18966     1  0.0000000  0.0000000  3
  18947  18945  18948  18949     1  0.0000000  0.6508444  3
  18947  18945  18948  18956     1  0.0000000  1.0460000  1
  18947  18945  18948  18956     1  0.0000000  0.0000000  3
  18947  18945  18948  18952     1  0.0000000  0.6508444  3
  18947  18945  18957  18960     1  0.0000000  0.6973333  3
  18948  18945  18957  18960     1  0.0000000  1.0460000  1
  18948  18945  18957  18960     1  0.0000000  0.6694400  3
  18948  18949  18950  18953     1  0.0000000  0.6508444  3
  18948  18949  18955  18961     1  0.0000000  1.0460000  1
  18948  18949  18955  18961     1  0.0000000  0.6694400  3
  18949  18948  18956  18959     1  0.0000000  1.0460000  1
  18949  18948  18956  18959     1  0.0000000  0.6694400  3
  18950  18949  18948  18952     1  0.0000000  0.6508444  3
  18950  18949  18955  18961     1  0.0000000  1.0460000  1
  18950  18949  18955  18961     1  0.0000000  0.6694400  3
  18951  18949  18948  18956     1  0.0000000  1.0460000  1
  18951  18949  18948  18956     1  0.0000000  0.0000000  3
  18951  18949  18948  18952     1  0.0000000  0.6508444  3
  18951  18949  18950  18954     1  0.0000000  1.0460000  1
  18951  18949  18950  18954     1  0.0000000  0.0000000  3
  18951  18949  18950  18966     1  0.0000000  1.0460000  1
  18951  18949  18950  18966     1  0.0000000  0.0000000  3
  18951  18949  18950  18953     1  0.0000000  0.6508444  3
  18951  18949  18955  18961     1  0.0000000  0.6973333  3
  18952  18948  18945  18957     1  0.0000000  1.0460000  1
  18952  18948  18945  18957     1  0.0000000  0.0000000  3
  18952  18948  18949  18955     1  0.0000000  1.0460000  1
  18952  18948  18949  18955     1  0.0000000  0.0000000  3
  18952  18948  18956  18959     1  0.0000000  0.6973333  3
  18953  18950  18949  18955     1  0.0000000  0.6508444  3
  18962  18958  18944  18966     1  0.0000000  1.0460000  1
  18962  18958  18944  18966     1  0.0000000  0.0000000  3
  18962  18958  18964  18965     1  0.0000000  0.6973333  3
  18963  18958  18944  18966     1  0.0000000  1.0460000  1
  18963  18958  18944  18966     1  0.0000000  0.0000000  3
  18963  18958  18964  18965     1  0.0000000  0.6973333  3
  18967  18968  18971  18975     1  0.0000000  0.6508444  3
  18967  18968  18980  18983     1  0.0000000  1.0460000  1
  18967  18968  18980  18983     1  0.0000000  0.6694400  3
  18967  18981  18987  18988     1  0.0000000  1.0460000  1
  18967  18981  18987  18988     1  0.0000000  0.6694400  3
  18967  18989  18973  18976     1  0.0000000  1.6038667  3
  18968  18971  18972  18974     1  0.0000000  0.6508444  3
  18968  18971  18979  18982     1  0.0000000  1.0460000  1
  18968  18971  18979  18982     1  0.0000000  0.6694400  3
  18968  18967  18981  18985     1  0.0000000  0.6508444  3
  18968  18967  18981  18986     1  0.0000000  0.6508444  3
  18969  18967  18968  18971     1  0.0000000  0.6508444  3
  18969  18967  18968  18980     1  0.0000000  1.0460000  1
  18969  18967  18968  18980     1  0.0000000  0.0000000  3
  18969  18967  18968  18970     1  0.0000000  0.6508444  3
  18969  18967  18981  18987     1  0.0000000  1.0460000  1
  18969  18967  18981  18987     1  0.0000000  0.0000000  3
  18969  18967  18981  18985     1  0.0000000  0.6508444  3
  18969  18967  18981  18986     1  0.0000000  0.6508444  3
  18969  18967  18989  18973     1  0.0000000  1.6038667  3
  18970  18968  18971  18972     1  0.0000000  0.6508444  3
  18970  18968  18971  18979     1  0.0000000  1.0460000  1
  18970  18968  18971  18979     1  0.0000000  0.0000000  3
  18970  18968  18971  18975     1  0.0000000  0.6508444  3
  18970  18968  18980  18983     1  0.0000000  0.6973333  3
  18970  18968  18967  18981     1  0.0000000  0.6508444  3
  18970  18968  18967  18989     1  0.0000000  1.0460000  1
  18970  18968  18967  18989     1  0.0000000  0.0000000  3
  18971  18972  18973  18976     1  0.0000000  0.6508444  3
  18971  18972  18978  18984     1  0.0000000  1.0460000  1
  18971  18972  18978  18984     1  0.0000000  0.6694400  3
  18971  18968  18980  18983     1  0.0000000  1.0460000  1
  18971  18968  18980  18983     1  0.0000000  0.6694400  3
  18972  18971  18979  18982     1  0.0000000  1.0460000  1
  18972  18971  18979  18982     1  0.0000000  0.6694400  3
  18973  18972  18978  18984     1  0.0000000  1.0460000  1
  18973  18972  18978  18984     1  0.0000000  0.6694400  3
  18973  18972  18971  18975     1  0.0000000  0.6508444  3
  18974  18972  18973  18977     1  0.0000000  1.0460000  1
  18974  18972  18973  18977     1  0.0000000  0.0000000  3
  18974  18972  18973  18989     1  0.0000000  1.0460000  1
  18974  18972  18973  18989     1  0.0000000  0.0000000  3
  18974  18972  18973  18976     1  0.0000000  0.6508444  3
  18974  18972  18978  18984     1  0.0000000  0.6973333  3
  18974  18972  18971  18979     1  0.0000000  1.0460000  1
  18974  18972  18971  18979     1  0.0000000  0.0000000  3
  18974  18972  18971  18975     1  0.0000000  0.6508444  3
  18975  18971  18972  18978     1  0.0000000  1.0460000  1
  18975  18971  18972  18978     1  0.0000000  0.0000000  3
  18975  18971  18979  18982     1  0.0000000  0.6973333  3
  18975  18971  18968  18980     1  0.0000000  1.0460000  1
  18975  18971  18968  18980     1  0.0000000  0.0000000  3
  18976  18973  18972  18978     1  0.0000000  0.6508444  3
  18985  18981  18987  18988     1  0.0000000  0.6973333  3
  18985  18981  18967  18989     1  0.0000000  1.0460000  1
  18985  18981  18967  18989     1  0.0000000  0.0000000  3
  18986  18981  18987  18988     1  0.0000000  0.6973333  3
  18986  18981  18967  18989     1  0.0000000  1.0460000  1
  18986  18981  18967  18989     1  0.0000000  0.0000000  3
  18990  18991  18994  18998     1  0.0000000  0.6508444  3
  18990  18991  19003  19006     1  0.0000000  1.0460000  1
  18990  18991  19003  19006     1  0.0000000  0.6694400  3
  18990  19004  19010  19011     1  0.0000000  1.0460000  1
  18990  19004  19010  19011     1  0.0000000  0.6694400  3
  18990  19012  18996  18999     1  0.0000000  1.6038667  3
  18991  18990  19004  19008     1  0.0000000  0.6508444  3
  18991  18990  19004  19009     1  0.0000000  0.6508444  3
  18991  18994  18995  18997     1  0.0000000  0.6508444  3
  18991  18994  19002  19005     1  0.0000000  1.0460000  1
  18991  18994  19002  19005     1  0.0000000  0.6694400  3
  18992  18990  18991  18994     1  0.0000000  0.6508444  3
  18992  18990  18991  19003     1  0.0000000  1.0460000  1
  18992  18990  18991  19003     1  0.0000000  0.0000000  3
  18992  18990  18991  18993     1  0.0000000  0.6508444  3
  18992  18990  19004  19010     1  0.0000000  1.0460000  1
  18992  18990  19004  19010     1  0.0000000  0.0000000  3
  18992  18990  19004  19008     1  0.0000000  0.6508444  3
  18992  18990  19004  19009     1  0.0000000  0.6508444  3
  18992  18990  19012  18996     1  0.0000000  1.6038667  3
  18993  18991  18990  19004     1  0.0000000  0.6508444  3
  18993  18991  18990  19012     1  0.0000000  1.0460000  1
  18993  18991  18990  19012     1  0.0000000  0.0000000  3
  18993  18991  18994  18995     1  0.0000000  0.6508444  3
  18993  18991  18994  19002     1  0.0000000  1.0460000  1
  18993  18991  18994  19002     1  0.0000000  0.0000000  3
  18993  18991  18994  18998     1  0.0000000  0.6508444  3
  18993  18991  19003  19006     1  0.0000000  0.6973333  3
  18994  18991  19003  19006     1  0.0000000  1.0460000  1
  18994  18991  19003  19006     1  0.0000000  0.6694400  3
  18994  18995  18996  18999     1  0.0000000  0.6508444  3
  18994  18995  19001  19007     1  0.0000000  1.0460000  1
  18994  18995  19001  19007     1  0.0000000  0.6694400  3
  18995  18994  19002  19005     1  0.0000000  1.0460000  1
  18995  18994  19002  19005     1  0.0000000  0.6694400  3
  18996  18995  18994  18998     1  0.0000000  0.6508444  3
  18996  18995  19001  19007     1  0.0000000  1.0460000  1
  18996  18995  19001  19007     1  0.0000000  0.6694400  3
  18997  18995  18994  19002     1  0.0000000  1.0460000  1
  18997  18995  18994  19002     1  0.0000000  0.0000000  3
  18997  18995  18994  18998     1  0.0000000  0.6508444  3
  18997  18995  18996  19000     1  0.0000000  1.0460000  1
  18997  18995  18996  19000     1  0.0000000  0.0000000  3
  18997  18995  18996  19012     1  0.0000000  1.0460000  1
  18997  18995  18996  19012     1  0.0000000  0.0000000  3
  18997  18995  18996  18999     1  0.0000000  0.6508444  3
  18997  18995  19001  19007     1  0.0000000  0.6973333  3
  18998  18994  18991  19003     1  0.0000000  1.0460000  1
  18998  18994  18991  19003     1  0.0000000  0.0000000  3
  18998  18994  18995  19001     1  0.0000000  1.0460000  1
  18998  18994  18995  19001     1  0.0000000  0.0000000  3
  18998  18994  19002  19005     1  0.0000000  0.6973333  3
  18999  18996  18995  19001     1  0.0000000  0.6508444  3
  19008  19004  18990  19012     1  0.0000000  1.0460000  1
  19008  19004  18990  19012     1  0.0000000  0.0000000  3
  19008  19004  19010  19011     1  0.0000000  0.6973333  3
  19009  19004  18990  19012     1  0.0000000  1.0460000  1
  19009  19004  18990  19012     1  0.0000000  0.0000000  3
  19009  19004  19010  19011     1  0.0000000  0.6973333  3
  19013  19014  19017  19021     1  0.0000000  0.6508444  3
  19013  19014  19026  19029     1  0.0000000  1.0460000  1
  19013  19014  19026  19029     1  0.0000000  0.6694400  3
  19013  19027  19033  19034     1  0.0000000  1.0460000  1
  19013  19027  19033  19034     1  0.0000000  0.6694400  3
  19013  19035  19019  19022     1  0.0000000  1.6038667  3
  19014  19017  19018  19020     1  0.0000000  0.6508444  3
  19014  19017  19025  19028     1  0.0000000  1.0460000  1
  19014  19017  19025  19028     1  0.0000000  0.6694400  3
  19014  19013  19027  19031     1  0.0000000  0.6508444  3
  19014  19013  19027  19032     1  0.0000000  0.6508444  3
  19015  19013  19014  19017     1  0.0000000  0.6508444  3
  19015  19013  19014  19026     1  0.0000000  1.0460000  1
  19015  19013  19014  19026     1  0.0000000  0.0000000  3
  19015  19013  19014  19016     1  0.0000000  0.6508444  3
  19015  19013  19027  19033     1  0.0000000  1.0460000  1
  19015  19013  19027  19033     1  0.0000000  0.0000000  3
  19015  19013  19027  19031     1  0.0000000  0.6508444  3
  19015  19013  19027  19032     1  0.0000000  0.6508444  3
  19015  19013  19035  19019     1  0.0000000  1.6038667  3
  19016  19014  19017  19018     1  0.0000000  0.6508444  3
  19016  19014  19017  19025     1  0.0000000  1.0460000  1
  19016  19014  19017  19025     1  0.0000000  0.0000000  3
  19016  19014  19017  19021     1  0.0000000  0.6508444  3
  19016  19014  19026  19029     1  0.0000000  0.6973333  3
  19016  19014  19013  19027     1  0.0000000  0.6508444  3
  19016  19014  19013  19035     1  0.0000000  1.0460000  1
  19016  19014  19013  19035     1  0.0000000  0.0000000  3
  19017  19018  19019  19022     1  0.0000000  0.6508444  3
  19017  19018  19024  19030     1  0.0000000  1.0460000  1
  19017  19018  19024  19030     1  0.0000000  0.6694400  3
  19017  19014  19026  19029     1  0.0000000  1.0460000  1
  19017  19014  19026  19029     1  0.0000000  0.6694400  3
  19018  19017  19025  19028     1  0.0000000  1.0460000  1
  19018  19017  19025  19028     1  0.0000000  0.6694400  3
  19019  19018  19024  19030     1  0.0000000  1.0460000  1
  19019  19018  19024  19030     1  0.0000000  0.6694400  3
  19019  19018  19017  19021     1  0.0000000  0.6508444  3
  19020  19018  19019  19023     1  0.0000000  1.0460000  1
  19020  19018  19019  19023     1  0.0000000  0.0000000  3
  19020  19018  19019  19035     1  0.0000000  1.0460000  1
  19020  19018  19019  19035     1  0.0000000  0.0000000  3
  19020  19018  19019  19022     1  0.0000000  0.6508444  3
  19020  19018  19024  19030     1  0.0000000  0.6973333  3
  19020  19018  19017  19025     1  0.0000000  1.0460000  1
  19020  19018  19017  19025     1  0.0000000  0.0000000  3
  19020  19018  19017  19021     1  0.0000000  0.6508444  3
  19021  19017  19018  19024     1  0.0000000  1.0460000  1
  19021  19017  19018  19024     1  0.0000000  0.0000000  3
  19021  19017  19025  19028     1  0.0000000  0.6973333  3
  19021  19017  19014  19026     1  0.0000000  1.0460000  1
  19021  19017  19014  19026     1  0.0000000  0.0000000  3
  19022  19019  19018  19024     1  0.0000000  0.6508444  3
  19031  19027  19033  19034     1  0.0000000  0.6973333  3
  19031  19027  19013  19035     1  0.0000000  1.0460000  1
  19031  19027  19013  19035     1  0.0000000  0.0000000  3
  19032  19027  19033  19034     1  0.0000000  0.6973333  3
  19032  19027  19013  19035     1  0.0000000  1.0460000  1
  19032  19027  19013  19035     1  0.0000000  0.0000000  3
  19036  19037  19040  19044     1  0.0000000  0.6508444  3
  19036  19037  19049  19052     1  0.0000000  1.0460000  1
  19036  19037  19049  19052     1  0.0000000  0.6694400  3
  19036  19050  19056  19057     1  0.0000000  1.0460000  1
  19036  19050  19056  19057     1  0.0000000  0.6694400  3
  19036  19058  19042  19045     1  0.0000000  1.6038667  3
  19037  19036  19050  19054     1  0.0000000  0.6508444  3
  19037  19036  19050  19055     1  0.0000000  0.6508444  3
  19037  19040  19041  19043     1  0.0000000  0.6508444  3
  19037  19040  19048  19051     1  0.0000000  1.0460000  1
  19037  19040  19048  19051     1  0.0000000  0.6694400  3
  19038  19036  19037  19040     1  0.0000000  0.6508444  3
  19038  19036  19037  19049     1  0.0000000  1.0460000  1
  19038  19036  19037  19049     1  0.0000000  0.0000000  3
  19038  19036  19037  19039     1  0.0000000  0.6508444  3
  19038  19036  19050  19056     1  0.0000000  1.0460000  1
  19038  19036  19050  19056     1  0.0000000  0.0000000  3
  19038  19036  19050  19054     1  0.0000000  0.6508444  3
  19038  19036  19050  19055     1  0.0000000  0.6508444  3
  19038  19036  19058  19042     1  0.0000000  1.6038667  3
  19039  19037  19036  19050     1  0.0000000  0.6508444  3
  19039  19037  19036  19058     1  0.0000000  1.0460000  1
  19039  19037  19036  19058     1  0.0000000  0.0000000  3
  19039  19037  19040  19041     1  0.0000000  0.6508444  3
  19039  19037  19040  19048     1  0.0000000  1.0460000  1
  19039  19037  19040  19048     1  0.0000000  0.0000000  3
  19039  19037  19040  19044     1  0.0000000  0.6508444  3
  19039  19037  19049  19052     1  0.0000000  0.6973333  3
  19040  19037  19049  19052     1  0.0000000  1.0460000  1
  19040  19037  19049  19052     1  0.0000000  0.6694400  3
  19040  19041  19042  19045     1  0.0000000  0.6508444  3
  19040  19041  19047  19053     1  0.0000000  1.0460000  1
  19040  19041  19047  19053     1  0.0000000  0.6694400  3
  19041  19040  19048  19051     1  0.0000000  1.0460000  1
  19041  19040  19048  19051     1  0.0000000  0.6694400  3
  19042  19041  19040  19044     1  0.0000000  0.6508444  3
  19042  19041  19047  19053     1  0.0000000  1.0460000  1
  19042  19041  19047  19053     1  0.0000000  0.6694400  3
  19043  19041  19040  19048     1  0.0000000  1.0460000  1
  19043  19041  19040  19048     1  0.0000000  0.0000000  3
  19043  19041  19040  19044     1  0.0000000  0.6508444  3
  19043  19041  19042  19046     1  0.0000000  1.0460000  1
  19043  19041  19042  19046     1  0.0000000  0.0000000  3
  19043  19041  19042  19058     1  0.0000000  1.0460000  1
  19043  19041  19042  19058     1  0.0000000  0.0000000  3
  19043  19041  19042  19045     1  0.0000000  0.6508444  3
  19043  19041  19047  19053     1  0.0000000  0.6973333  3
  19044  19040  19037  19049     1  0.0000000  1.0460000  1
  19044  19040  19037  19049     1  0.0000000  0.0000000  3
  19044  19040  19041  19047     1  0.0000000  1.0460000  1
  19044  19040  19041  19047     1  0.0000000  0.0000000  3
  19044  19040  19048  19051     1  0.0000000  0.6973333  3
  19045  19042  19041  19047     1  0.0000000  0.6508444  3
  19054  19050  19036  19058     1  0.0000000  1.0460000  1
  19054  19050  19036  19058     1  0.0000000  0.0000000  3
  19054  19050  19056  19057     1  0.0000000  0.6973333  3
  19055  19050  19036  19058     1  0.0000000  1.0460000  1
  19055  19050  19036  19058     1  0.0000000  0.0000000  3
  19055  19050  19056  19057     1  0.0000000  0.6973333  3
  19059  19060  19063  19067     1  0.0000000  0.6508444  3
  19059  19060  19072  19075     1  0.0000000  1.0460000  1
  19059  19060  19072  19075     1  0.0000000  0.6694400  3
  19059  19073  19079  19080     1  0.0000000  1.0460000  1
  19059  19073  19079  19080     1  0.0000000  0.6694400  3
  19059  19081  19065  19068     1  0.0000000  1.6038667  3
  19060  19063  19064  19066     1  0.0000000  0.6508444  3
  19060  19063  19071  19074     1  0.0000000  1.0460000  1
  19060  19063  19071  19074     1  0.0000000  0.6694400  3
  19060  19059  19073  19077     1  0.0000000  0.6508444  3
  19060  19059  19073  19078     1  0.0000000  0.6508444  3
  19061  19059  19060  19063     1  0.0000000  0.6508444  3
  19061  19059  19060  19072     1  0.0000000  1.0460000  1
  19061  19059  19060  19072     1  0.0000000  0.0000000  3
  19061  19059  19060  19062     1  0.0000000  0.6508444  3
  19061  19059  19073  19079     1  0.0000000  1.0460000  1
  19061  19059  19073  19079     1  0.0000000  0.0000000  3
  19061  19059  19073  19077     1  0.0000000  0.6508444  3
  19061  19059  19073  19078     1  0.0000000  0.6508444  3
  19061  19059  19081  19065     1  0.0000000  1.6038667  3
  19062  19060  19063  19064     1  0.0000000  0.6508444  3
  19062  19060  19063  19071     1  0.0000000  1.0460000  1
  19062  19060  19063  19071     1  0.0000000  0.0000000  3
  19062  19060  19063  19067     1  0.0000000  0.6508444  3
  19062  19060  19072  19075     1  0.0000000  0.6973333  3
  19062  19060  19059  19073     1  0.0000000  0.6508444  3
  19062  19060  19059  19081     1  0.0000000  1.0460000  1
  19062  19060  19059  19081     1  0.0000000  0.0000000  3
  19063  19064  19065  19068     1  0.0000000  0.6508444  3
  19063  19064  19070  19076     1  0.0000000  1.0460000  1
  19063  19064  19070  19076     1  0.0000000  0.6694400  3
  19063  19060  19072  19075     1  0.0000000  1.0460000  1
  19063  19060  19072  19075     1  0.0000000  0.6694400  3
  19064  19063  19071  19074     1  0.0000000  1.0460000  1
  19064  19063  19071  19074     1  0.0000000  0.6694400  3
  19065  19064  19070  19076     1  0.0000000  1.0460000  1
  19065  19064  19070  19076     1  0.0000000  0.6694400  3
  19065  19064  19063  19067     1  0.0000000  0.6508444  3
  19066  19064  19065  19069     1  0.0000000  1.0460000  1
  19066  19064  19065  19069     1  0.0000000  0.0000000  3
  19066  19064  19065  19081     1  0.0000000  1.0460000  1
  19066  19064  19065  19081     1  0.0000000  0.0000000  3
  19066  19064  19065  19068     1  0.0000000  0.6508444  3
  19066  19064  19070  19076     1  0.0000000  0.6973333  3
  19066  19064  19063  19071     1  0.0000000  1.0460000  1
  19066  19064  19063  19071     1  0.0000000  0.0000000  3
  19066  19064  19063  19067     1  0.0000000  0.6508444  3
  19067  19063  19064  19070     1  0.0000000  1.0460000  1
  19067  19063  19064  19070     1  0.0000000  0.0000000  3
  19067  19063  19071  19074     1  0.0000000  0.6973333  3
  19067  19063  19060  19072     1  0.0000000  1.0460000  1
  19067  19063  19060  19072     1  0.0000000  0.0000000  3
  19068  19065  19064  19070     1  0.0000000  0.6508444  3
  19077  19073  19079  19080     1  0.0000000  0.6973333  3
  19077  19073  19059  19081     1  0.0000000  1.0460000  1
  19077  19073  19059  19081     1  0.0000000  0.0000000  3
  19078  19073  19079  19080     1  0.0000000  0.6973333  3
  19078  19073  19059  19081     1  0.0000000  1.0460000  1
  19078  19073  19059  19081     1  0.0000000  0.0000000  3
  19082  19083  19086  19090     1  0.0000000  0.6508444  3
  19082  19083  19095  19098     1  0.0000000  1.0460000  1
  19082  19083  19095  19098     1  0.0000000  0.6694400  3
  19082  19096  19102  19103     1  0.0000000  1.0460000  1
  19082  19096  19102  19103     1  0.0000000  0.6694400  3
  19082  19104  19088  19091     1  0.0000000  1.6038667  3
  19083  19082  19096  19100     1  0.0000000  0.6508444  3
  19083  19082  19096  19101     1  0.0000000  0.6508444  3
  19083  19086  19087  19089     1  0.0000000  0.6508444  3
  19083  19086  19094  19097     1  0.0000000  1.0460000  1
  19083  19086  19094  19097     1  0.0000000  0.6694400  3
  19084  19082  19083  19086     1  0.0000000  0.6508444  3
  19084  19082  19083  19095     1  0.0000000  1.0460000  1
  19084  19082  19083  19095     1  0.0000000  0.0000000  3
  19084  19082  19083  19085     1  0.0000000  0.6508444  3
  19084  19082  19096  19102     1  0.0000000  1.0460000  1
  19084  19082  19096  19102     1  0.0000000  0.0000000  3
  19084  19082  19096  19100     1  0.0000000  0.6508444  3
  19084  19082  19096  19101     1  0.0000000  0.6508444  3
  19084  19082  19104  19088     1  0.0000000  1.6038667  3
  19085  19083  19082  19096     1  0.0000000  0.6508444  3
  19085  19083  19082  19104     1  0.0000000  1.0460000  1
  19085  19083  19082  19104     1  0.0000000  0.0000000  3
  19085  19083  19086  19087     1  0.0000000  0.6508444  3
  19085  19083  19086  19094     1  0.0000000  1.0460000  1
  19085  19083  19086  19094     1  0.0000000  0.0000000  3
  19085  19083  19086  19090     1  0.0000000  0.6508444  3
  19085  19083  19095  19098     1  0.0000000  0.6973333  3
  19086  19083  19095  19098     1  0.0000000  1.0460000  1
  19086  19083  19095  19098     1  0.0000000  0.6694400  3
  19086  19087  19088  19091     1  0.0000000  0.6508444  3
  19086  19087  19093  19099     1  0.0000000  1.0460000  1
  19086  19087  19093  19099     1  0.0000000  0.6694400  3
  19087  19086  19094  19097     1  0.0000000  1.0460000  1
  19087  19086  19094  19097     1  0.0000000  0.6694400  3
  19088  19087  19086  19090     1  0.0000000  0.6508444  3
  19088  19087  19093  19099     1  0.0000000  1.0460000  1
  19088  19087  19093  19099     1  0.0000000  0.6694400  3
  19089  19087  19086  19094     1  0.0000000  1.0460000  1
  19089  19087  19086  19094     1  0.0000000  0.0000000  3
  19089  19087  19086  19090     1  0.0000000  0.6508444  3
  19089  19087  19088  19092     1  0.0000000  1.0460000  1
  19089  19087  19088  19092     1  0.0000000  0.0000000  3
  19089  19087  19088  19104     1  0.0000000  1.0460000  1
  19089  19087  19088  19104     1  0.0000000  0.0000000  3
  19089  19087  19088  19091     1  0.0000000  0.6508444  3
  19089  19087  19093  19099     1  0.0000000  0.6973333  3
  19090  19086  19083  19095     1  0.0000000  1.0460000  1
  19090  19086  19083  19095     1  0.0000000  0.0000000  3
  19090  19086  19087  19093     1  0.0000000  1.0460000  1
  19090  19086  19087  19093     1  0.0000000  0.0000000  3
  19090  19086  19094  19097     1  0.0000000  0.6973333  3
  19091  19088  19087  19093     1  0.0000000  0.6508444  3
  19100  19096  19082  19104     1  0.0000000  1.0460000  1
  19100  19096  19082  19104     1  0.0000000  0.0000000  3
  19100  19096  19102  19103     1  0.0000000  0.6973333  3
  19101  19096  19082  19104     1  0.0000000  1.0460000  1
  19101  19096  19082  19104     1  0.0000000  0.0000000  3
  19101  19096  19102  19103     1  0.0000000  0.6973333  3
  19105  19106  19109  19113     1  0.0000000  0.6508444  3
  19105  19106  19118  19121     1  0.0000000  1.0460000  1
  19105  19106  19118  19121     1  0.0000000  0.6694400  3
  19105  19119  19125  19126     1  0.0000000  1.0460000  1
  19105  19119  19125  19126     1  0.0000000  0.6694400  3
  19105  19127  19111  19114     1  0.0000000  1.6038667  3
  19106  19109  19110  19112     1  0.0000000  0.6508444  3
  19106  19109  19117  19120     1  0.0000000  1.0460000  1
  19106  19109  19117  19120     1  0.0000000  0.6694400  3
  19106  19105  19119  19123     1  0.0000000  0.6508444  3
  19106  19105  19119  19124     1  0.0000000  0.6508444  3
  19107  19105  19106  19109     1  0.0000000  0.6508444  3
  19107  19105  19106  19118     1  0.0000000  1.0460000  1
  19107  19105  19106  19118     1  0.0000000  0.0000000  3
  19107  19105  19106  19108     1  0.0000000  0.6508444  3
  19107  19105  19119  19125     1  0.0000000  1.0460000  1
  19107  19105  19119  19125     1  0.0000000  0.0000000  3
  19107  19105  19119  19123     1  0.0000000  0.6508444  3
  19107  19105  19119  19124     1  0.0000000  0.6508444  3
  19107  19105  19127  19111     1  0.0000000  1.6038667  3
  19108  19106  19109  19110     1  0.0000000  0.6508444  3
  19108  19106  19109  19117     1  0.0000000  1.0460000  1
  19108  19106  19109  19117     1  0.0000000  0.0000000  3
  19108  19106  19109  19113     1  0.0000000  0.6508444  3
  19108  19106  19118  19121     1  0.0000000  0.6973333  3
  19108  19106  19105  19119     1  0.0000000  0.6508444  3
  19108  19106  19105  19127     1  0.0000000  1.0460000  1
  19108  19106  19105  19127     1  0.0000000  0.0000000  3
  19109  19110  19111  19114     1  0.0000000  0.6508444  3
  19109  19110  19116  19122     1  0.0000000  1.0460000  1
  19109  19110  19116  19122     1  0.0000000  0.6694400  3
  19109  19106  19118  19121     1  0.0000000  1.0460000  1
  19109  19106  19118  19121     1  0.0000000  0.6694400  3
  19110  19109  19117  19120     1  0.0000000  1.0460000  1
  19110  19109  19117  19120     1  0.0000000  0.6694400  3
  19111  19110  19116  19122     1  0.0000000  1.0460000  1
  19111  19110  19116  19122     1  0.0000000  0.6694400  3
  19111  19110  19109  19113     1  0.0000000  0.6508444  3
  19112  19110  19111  19115     1  0.0000000  1.0460000  1
  19112  19110  19111  19115     1  0.0000000  0.0000000  3
  19112  19110  19111  19127     1  0.0000000  1.0460000  1
  19112  19110  19111  19127     1  0.0000000  0.0000000  3
  19112  19110  19111  19114     1  0.0000000  0.6508444  3
  19112  19110  19116  19122     1  0.0000000  0.6973333  3
  19112  19110  19109  19117     1  0.0000000  1.0460000  1
  19112  19110  19109  19117     1  0.0000000  0.0000000  3
  19112  19110  19109  19113     1  0.0000000  0.6508444  3
  19113  19109  19110  19116     1  0.0000000  1.0460000  1
  19113  19109  19110  19116     1  0.0000000  0.0000000  3
  19113  19109  19117  19120     1  0.0000000  0.6973333  3
  19113  19109  19106  19118     1  0.0000000  1.0460000  1
  19113  19109  19106  19118     1  0.0000000  0.0000000  3
  19114  19111  19110  19116     1  0.0000000  0.6508444  3
  19123  19119  19125  19126     1  0.0000000  0.6973333  3
  19123  19119  19105  19127     1  0.0000000  1.0460000  1
  19123  19119  19105  19127     1  0.0000000  0.0000000  3
  19124  19119  19125  19126     1  0.0000000  0.6973333  3
  19124  19119  19105  19127     1  0.0000000  1.0460000  1
  19124  19119  19105  19127     1  0.0000000  0.0000000  3
  19128  19129  19132  19136     1  0.0000000  0.6508444  3
  19128  19129  19141  19144     1  0.0000000  1.0460000  1
  19128  19129  19141  19144     1  0.0000000  0.6694400  3
  19128  19142  19148  19149     1  0.0000000  1.0460000  1
  19128  19142  19148  19149     1  0.0000000  0.6694400  3
  19128  19150  19134  19137     1  0.0000000  1.6038667  3
  19129  19128  19142  19146     1  0.0000000  0.6508444  3
  19129  19128  19142  19147     1  0.0000000  0.6508444  3
  19129  19132  19133  19135     1  0.0000000  0.6508444  3
  19129  19132  19140  19143     1  0.0000000  1.0460000  1
  19129  19132  19140  19143     1  0.0000000  0.6694400  3
  19130  19128  19129  19132     1  0.0000000  0.6508444  3
  19130  19128  19129  19141     1  0.0000000  1.0460000  1
  19130  19128  19129  19141     1  0.0000000  0.0000000  3
  19130  19128  19129  19131     1  0.0000000  0.6508444  3
  19130  19128  19142  19148     1  0.0000000  1.0460000  1
  19130  19128  19142  19148     1  0.0000000  0.0000000  3
  19130  19128  19142  19146     1  0.0000000  0.6508444  3
  19130  19128  19142  19147     1  0.0000000  0.6508444  3
  19130  19128  19150  19134     1  0.0000000  1.6038667  3
  19131  19129  19128  19142     1  0.0000000  0.6508444  3
  19131  19129  19128  19150     1  0.0000000  1.0460000  1
  19131  19129  19128  19150     1  0.0000000  0.0000000  3
  19131  19129  19132  19133     1  0.0000000  0.6508444  3
  19131  19129  19132  19140     1  0.0000000  1.0460000  1
  19131  19129  19132  19140     1  0.0000000  0.0000000  3
  19131  19129  19132  19136     1  0.0000000  0.6508444  3
  19131  19129  19141  19144     1  0.0000000  0.6973333  3
  19132  19129  19141  19144     1  0.0000000  1.0460000  1
  19132  19129  19141  19144     1  0.0000000  0.6694400  3
  19132  19133  19134  19137     1  0.0000000  0.6508444  3
  19132  19133  19139  19145     1  0.0000000  1.0460000  1
  19132  19133  19139  19145     1  0.0000000  0.6694400  3
  19133  19132  19140  19143     1  0.0000000  1.0460000  1
  19133  19132  19140  19143     1  0.0000000  0.6694400  3
  19134  19133  19132  19136     1  0.0000000  0.6508444  3
  19134  19133  19139  19145     1  0.0000000  1.0460000  1
  19134  19133  19139  19145     1  0.0000000  0.6694400  3
  19135  19133  19132  19140     1  0.0000000  1.0460000  1
  19135  19133  19132  19140     1  0.0000000  0.0000000  3
  19135  19133  19132  19136     1  0.0000000  0.6508444  3
  19135  19133  19134  19138     1  0.0000000  1.0460000  1
  19135  19133  19134  19138     1  0.0000000  0.0000000  3
  19135  19133  19134  19150     1  0.0000000  1.0460000  1
  19135  19133  19134  19150     1  0.0000000  0.0000000  3
  19135  19133  19134  19137     1  0.0000000  0.6508444  3
  19135  19133  19139  19145     1  0.0000000  0.6973333  3
  19136  19132  19129  19141     1  0.0000000  1.0460000  1
  19136  19132  19129  19141     1  0.0000000  0.0000000  3
  19136  19132  19133  19139     1  0.0000000  1.0460000  1
  19136  19132  19133  19139     1  0.0000000  0.0000000  3
  19136  19132  19140  19143     1  0.0000000  0.6973333  3
  19137  19134  19133  19139     1  0.0000000  0.6508444  3
  19146  19142  19128  19150     1  0.0000000  1.0460000  1
  19146  19142  19128  19150     1  0.0000000  0.0000000  3
  19146  19142  19148  19149     1  0.0000000  0.6973333  3
  19147  19142  19128  19150     1  0.0000000  1.0460000  1
  19147  19142  19128  19150     1  0.0000000  0.0000000  3
  19147  19142  19148  19149     1  0.0000000  0.6973333  3
  19151  19152  19155  19159     1  0.0000000  0.6508444  3
  19151  19152  19164  19167     1  0.0000000  1.0460000  1
  19151  19152  19164  19167     1  0.0000000  0.6694400  3
  19151  19165  19171  19172     1  0.0000000  1.0460000  1
  19151  19165  19171  19172     1  0.0000000  0.6694400  3
  19151  19173  19157  19160     1  0.0000000  1.6038667  3
  19152  19155  19156  19158     1  0.0000000  0.6508444  3
  19152  19155  19163  19166     1  0.0000000  1.0460000  1
  19152  19155  19163  19166     1  0.0000000  0.6694400  3
  19152  19151  19165  19169     1  0.0000000  0.6508444  3
  19152  19151  19165  19170     1  0.0000000  0.6508444  3
  19153  19151  19152  19155     1  0.0000000  0.6508444  3
  19153  19151  19152  19164     1  0.0000000  1.0460000  1
  19153  19151  19152  19164     1  0.0000000  0.0000000  3
  19153  19151  19152  19154     1  0.0000000  0.6508444  3
  19153  19151  19165  19171     1  0.0000000  1.0460000  1
  19153  19151  19165  19171     1  0.0000000  0.0000000  3
  19153  19151  19165  19169     1  0.0000000  0.6508444  3
  19153  19151  19165  19170     1  0.0000000  0.6508444  3
  19153  19151  19173  19157     1  0.0000000  1.6038667  3
  19154  19152  19155  19156     1  0.0000000  0.6508444  3
  19154  19152  19155  19163     1  0.0000000  1.0460000  1
  19154  19152  19155  19163     1  0.0000000  0.0000000  3
  19154  19152  19155  19159     1  0.0000000  0.6508444  3
  19154  19152  19164  19167     1  0.0000000  0.6973333  3
  19154  19152  19151  19165     1  0.0000000  0.6508444  3
  19154  19152  19151  19173     1  0.0000000  1.0460000  1
  19154  19152  19151  19173     1  0.0000000  0.0000000  3
  19155  19156  19157  19160     1  0.0000000  0.6508444  3
  19155  19156  19162  19168     1  0.0000000  1.0460000  1
  19155  19156  19162  19168     1  0.0000000  0.6694400  3
  19155  19152  19164  19167     1  0.0000000  1.0460000  1
  19155  19152  19164  19167     1  0.0000000  0.6694400  3
  19156  19155  19163  19166     1  0.0000000  1.0460000  1
  19156  19155  19163  19166     1  0.0000000  0.6694400  3
  19157  19156  19162  19168     1  0.0000000  1.0460000  1
  19157  19156  19162  19168     1  0.0000000  0.6694400  3
  19157  19156  19155  19159     1  0.0000000  0.6508444  3
  19158  19156  19157  19161     1  0.0000000  1.0460000  1
  19158  19156  19157  19161     1  0.0000000  0.0000000  3
  19158  19156  19157  19173     1  0.0000000  1.0460000  1
  19158  19156  19157  19173     1  0.0000000  0.0000000  3
  19158  19156  19157  19160     1  0.0000000  0.6508444  3
  19158  19156  19162  19168     1  0.0000000  0.6973333  3
  19158  19156  19155  19163     1  0.0000000  1.0460000  1
  19158  19156  19155  19163     1  0.0000000  0.0000000  3
  19158  19156  19155  19159     1  0.0000000  0.6508444  3
  19159  19155  19156  19162     1  0.0000000  1.0460000  1
  19159  19155  19156  19162     1  0.0000000  0.0000000  3
  19159  19155  19163  19166     1  0.0000000  0.6973333  3
  19159  19155  19152  19164     1  0.0000000  1.0460000  1
  19159  19155  19152  19164     1  0.0000000  0.0000000  3
  19160  19157  19156  19162     1  0.0000000  0.6508444  3
  19169  19165  19171  19172     1  0.0000000  0.6973333  3
  19169  19165  19151  19173     1  0.0000000  1.0460000  1
  19169  19165  19151  19173     1  0.0000000  0.0000000  3
  19170  19165  19171  19172     1  0.0000000  0.6973333  3
  19170  19165  19151  19173     1  0.0000000  1.0460000  1
  19170  19165  19151  19173     1  0.0000000  0.0000000  3
  19174  19175  19178  19182     1  0.0000000  0.6508444  3
  19174  19175  19187  19190     1  0.0000000  1.0460000  1
  19174  19175  19187  19190     1  0.0000000  0.6694400  3
  19174  19188  19194  19195     1  0.0000000  1.0460000  1
  19174  19188  19194  19195     1  0.0000000  0.6694400  3
  19174  19196  19180  19183     1  0.0000000  1.6038667  3
  19175  19174  19188  19192     1  0.0000000  0.6508444  3
  19175  19174  19188  19193     1  0.0000000  0.6508444  3
  19175  19178  19179  19181     1  0.0000000  0.6508444  3
  19175  19178  19186  19189     1  0.0000000  1.0460000  1
  19175  19178  19186  19189     1  0.0000000  0.6694400  3
  19176  19174  19175  19178     1  0.0000000  0.6508444  3
  19176  19174  19175  19187     1  0.0000000  1.0460000  1
  19176  19174  19175  19187     1  0.0000000  0.0000000  3
  19176  19174  19175  19177     1  0.0000000  0.6508444  3
  19176  19174  19188  19194     1  0.0000000  1.0460000  1
  19176  19174  19188  19194     1  0.0000000  0.0000000  3
  19176  19174  19188  19192     1  0.0000000  0.6508444  3
  19176  19174  19188  19193     1  0.0000000  0.6508444  3
  19176  19174  19196  19180     1  0.0000000  1.6038667  3
  19177  19175  19174  19188     1  0.0000000  0.6508444  3
  19177  19175  19174  19196     1  0.0000000  1.0460000  1
  19177  19175  19174  19196     1  0.0000000  0.0000000  3
  19177  19175  19178  19179     1  0.0000000  0.6508444  3
  19177  19175  19178  19186     1  0.0000000  1.0460000  1
  19177  19175  19178  19186     1  0.0000000  0.0000000  3
  19177  19175  19178  19182     1  0.0000000  0.6508444  3
  19177  19175  19187  19190     1  0.0000000  0.6973333  3
  19178  19175  19187  19190     1  0.0000000  1.0460000  1
  19178  19175  19187  19190     1  0.0000000  0.6694400  3
  19178  19179  19180  19183     1  0.0000000  0.6508444  3
  19178  19179  19185  19191     1  0.0000000  1.0460000  1
  19178  19179  19185  19191     1  0.0000000  0.6694400  3
  19179  19178  19186  19189     1  0.0000000  1.0460000  1
  19179  19178  19186  19189     1  0.0000000  0.6694400  3
  19180  19179  19178  19182     1  0.0000000  0.6508444  3
  19180  19179  19185  19191     1  0.0000000  1.0460000  1
  19180  19179  19185  19191     1  0.0000000  0.6694400  3
  19181  19179  19178  19186     1  0.0000000  1.0460000  1
  19181  19179  19178  19186     1  0.0000000  0.0000000  3
  19181  19179  19178  19182     1  0.0000000  0.6508444  3
  19181  19179  19180  19184     1  0.0000000  1.0460000  1
  19181  19179  19180  19184     1  0.0000000  0.0000000  3
  19181  19179  19180  19196     1  0.0000000  1.0460000  1
  19181  19179  19180  19196     1  0.0000000  0.0000000  3
  19181  19179  19180  19183     1  0.0000000  0.6508444  3
  19181  19179  19185  19191     1  0.0000000  0.6973333  3
  19182  19178  19175  19187     1  0.0000000  1.0460000  1
  19182  19178  19175  19187     1  0.0000000  0.0000000  3
  19182  19178  19179  19185     1  0.0000000  1.0460000  1
  19182  19178  19179  19185     1  0.0000000  0.0000000  3
  19182  19178  19186  19189     1  0.0000000  0.6973333  3
  19183  19180  19179  19185     1  0.0000000  0.6508444  3
  19192  19188  19174  19196     1  0.0000000  1.0460000  1
  19192  19188  19174  19196     1  0.0000000  0.0000000  3
  19192  19188  19194  19195     1  0.0000000  0.6973333  3
  19193  19188  19174  19196     1  0.0000000  1.0460000  1
  19193  19188  19174  19196     1  0.0000000  0.0000000  3
  19193  19188  19194  19195     1  0.0000000  0.6973333  3
  19197  19198  19201  19205     1  0.0000000  0.6508444  3
  19197  19198  19210  19213     1  0.0000000  1.0460000  1
  19197  19198  19210  19213     1  0.0000000  0.6694400  3
  19197  19211  19217  19218     1  0.0000000  1.0460000  1
  19197  19211  19217  19218     1  0.0000000  0.6694400  3
  19197  19219  19203  19206     1  0.0000000  1.6038667  3
  19198  19201  19202  19204     1  0.0000000  0.6508444  3
  19198  19201  19209  19212     1  0.0000000  1.0460000  1
  19198  19201  19209  19212     1  0.0000000  0.6694400  3
  19198  19197  19211  19215     1  0.0000000  0.6508444  3
  19198  19197  19211  19216     1  0.0000000  0.6508444  3
  19199  19197  19198  19201     1  0.0000000  0.6508444  3
  19199  19197  19198  19210     1  0.0000000  1.0460000  1
  19199  19197  19198  19210     1  0.0000000  0.0000000  3
  19199  19197  19198  19200     1  0.0000000  0.6508444  3
  19199  19197  19211  19217     1  0.0000000  1.0460000  1
  19199  19197  19211  19217     1  0.0000000  0.0000000  3
  19199  19197  19211  19215     1  0.0000000  0.6508444  3
  19199  19197  19211  19216     1  0.0000000  0.6508444  3
  19199  19197  19219  19203     1  0.0000000  1.6038667  3
  19200  19198  19201  19202     1  0.0000000  0.6508444  3
  19200  19198  19201  19209     1  0.0000000  1.0460000  1
  19200  19198  19201  19209     1  0.0000000  0.0000000  3
  19200  19198  19201  19205     1  0.0000000  0.6508444  3
  19200  19198  19210  19213     1  0.0000000  0.6973333  3
  19200  19198  19197  19211     1  0.0000000  0.6508444  3
  19200  19198  19197  19219     1  0.0000000  1.0460000  1
  19200  19198  19197  19219     1  0.0000000  0.0000000  3
  19201  19202  19203  19206     1  0.0000000  0.6508444  3
  19201  19202  19208  19214     1  0.0000000  1.0460000  1
  19201  19202  19208  19214     1  0.0000000  0.6694400  3
  19201  19198  19210  19213     1  0.0000000  1.0460000  1
  19201  19198  19210  19213     1  0.0000000  0.6694400  3
  19202  19201  19209  19212     1  0.0000000  1.0460000  1
  19202  19201  19209  19212     1  0.0000000  0.6694400  3
  19203  19202  19208  19214     1  0.0000000  1.0460000  1
  19203  19202  19208  19214     1  0.0000000  0.6694400  3
  19203  19202  19201  19205     1  0.0000000  0.6508444  3
  19204  19202  19203  19207     1  0.0000000  1.0460000  1
  19204  19202  19203  19207     1  0.0000000  0.0000000  3
  19204  19202  19203  19219     1  0.0000000  1.0460000  1
  19204  19202  19203  19219     1  0.0000000  0.0000000  3
  19204  19202  19203  19206     1  0.0000000  0.6508444  3
  19204  19202  19208  19214     1  0.0000000  0.6973333  3
  19204  19202  19201  19209     1  0.0000000  1.0460000  1
  19204  19202  19201  19209     1  0.0000000  0.0000000  3
  19204  19202  19201  19205     1  0.0000000  0.6508444  3
  19205  19201  19202  19208     1  0.0000000  1.0460000  1
  19205  19201  19202  19208     1  0.0000000  0.0000000  3
  19205  19201  19209  19212     1  0.0000000  0.6973333  3
  19205  19201  19198  19210     1  0.0000000  1.0460000  1
  19205  19201  19198  19210     1  0.0000000  0.0000000  3
  19206  19203  19202  19208     1  0.0000000  0.6508444  3
  19215  19211  19217  19218     1  0.0000000  0.6973333  3
  19215  19211  19197  19219     1  0.0000000  1.0460000  1
  19215  19211  19197  19219     1  0.0000000  0.0000000  3
  19216  19211  19217  19218     1  0.0000000  0.6973333  3
  19216  19211  19197  19219     1  0.0000000  1.0460000  1
  19216  19211  19197  19219     1  0.0000000  0.0000000  3
  19220  19221  19224  19228     1  0.0000000  0.6508444  3
  19220  19221  19233  19236     1  0.0000000  1.0460000  1
  19220  19221  19233  19236     1  0.0000000  0.6694400  3
  19220  19234  19240  19241     1  0.0000000  1.0460000  1
  19220  19234  19240  19241     1  0.0000000  0.6694400  3
  19220  19242  19226  19229     1  0.0000000  1.6038667  3
  19221  19220  19234  19238     1  0.0000000  0.6508444  3
  19221  19220  19234  19239     1  0.0000000  0.6508444  3
  19221  19224  19225  19227     1  0.0000000  0.6508444  3
  19221  19224  19232  19235     1  0.0000000  1.0460000  1
  19221  19224  19232  19235     1  0.0000000  0.6694400  3
  19222  19220  19221  19224     1  0.0000000  0.6508444  3
  19222  19220  19221  19233     1  0.0000000  1.0460000  1
  19222  19220  19221  19233     1  0.0000000  0.0000000  3
  19222  19220  19221  19223     1  0.0000000  0.6508444  3
  19222  19220  19234  19240     1  0.0000000  1.0460000  1
  19222  19220  19234  19240     1  0.0000000  0.0000000  3
  19222  19220  19234  19238     1  0.0000000  0.6508444  3
  19222  19220  19234  19239     1  0.0000000  0.6508444  3
  19222  19220  19242  19226     1  0.0000000  1.6038667  3
  19223  19221  19220  19234     1  0.0000000  0.6508444  3
  19223  19221  19220  19242     1  0.0000000  1.0460000  1
  19223  19221  19220  19242     1  0.0000000  0.0000000  3
  19223  19221  19224  19225     1  0.0000000  0.6508444  3
  19223  19221  19224  19232     1  0.0000000  1.0460000  1
  19223  19221  19224  19232     1  0.0000000  0.0000000  3
  19223  19221  19224  19228     1  0.0000000  0.6508444  3
  19223  19221  19233  19236     1  0.0000000  0.6973333  3
  19224  19221  19233  19236     1  0.0000000  1.0460000  1
  19224  19221  19233  19236     1  0.0000000  0.6694400  3
  19224  19225  19226  19229     1  0.0000000  0.6508444  3
  19224  19225  19231  19237     1  0.0000000  1.0460000  1
  19224  19225  19231  19237     1  0.0000000  0.6694400  3
  19225  19224  19232  19235     1  0.0000000  1.0460000  1
  19225  19224  19232  19235     1  0.0000000  0.6694400  3
  19226  19225  19224  19228     1  0.0000000  0.6508444  3
  19226  19225  19231  19237     1  0.0000000  1.0460000  1
  19226  19225  19231  19237     1  0.0000000  0.6694400  3
  19227  19225  19224  19232     1  0.0000000  1.0460000  1
  19227  19225  19224  19232     1  0.0000000  0.0000000  3
  19227  19225  19224  19228     1  0.0000000  0.6508444  3
  19227  19225  19226  19230     1  0.0000000  1.0460000  1
  19227  19225  19226  19230     1  0.0000000  0.0000000  3
  19227  19225  19226  19242     1  0.0000000  1.0460000  1
  19227  19225  19226  19242     1  0.0000000  0.0000000  3
  19227  19225  19226  19229     1  0.0000000  0.6508444  3
  19227  19225  19231  19237     1  0.0000000  0.6973333  3
  19228  19224  19221  19233     1  0.0000000  1.0460000  1
  19228  19224  19221  19233     1  0.0000000  0.0000000  3
  19228  19224  19225  19231     1  0.0000000  1.0460000  1
  19228  19224  19225  19231     1  0.0000000  0.0000000  3
  19228  19224  19232  19235     1  0.0000000  0.6973333  3
  19229  19226  19225  19231     1  0.0000000  0.6508444  3
  19238  19234  19220  19242     1  0.0000000  1.0460000  1
  19238  19234  19220  19242     1  0.0000000  0.0000000  3
  19238  19234  19240  19241     1  0.0000000  0.6973333  3
  19239  19234  19220  19242     1  0.0000000  1.0460000  1
  19239  19234  19220  19242     1  0.0000000  0.0000000  3
  19239  19234  19240  19241     1  0.0000000  0.6973333  3
  19243  19244  19247  19251     1  0.0000000  0.6508444  3
  19243  19244  19256  19259     1  0.0000000  1.0460000  1
  19243  19244  19256  19259     1  0.0000000  0.6694400  3
  19243  19257  19263  19264     1  0.0000000  1.0460000  1
  19243  19257  19263  19264     1  0.0000000  0.6694400  3
  19243  19265  19249  19252     1  0.0000000  1.6038667  3
  19244  19247  19248  19250     1  0.0000000  0.6508444  3
  19244  19247  19255  19258     1  0.0000000  1.0460000  1
  19244  19247  19255  19258     1  0.0000000  0.6694400  3
  19244  19243  19257  19261     1  0.0000000  0.6508444  3
  19244  19243  19257  19262     1  0.0000000  0.6508444  3
  19245  19243  19244  19247     1  0.0000000  0.6508444  3
  19245  19243  19244  19256     1  0.0000000  1.0460000  1
  19245  19243  19244  19256     1  0.0000000  0.0000000  3
  19245  19243  19244  19246     1  0.0000000  0.6508444  3
  19245  19243  19257  19263     1  0.0000000  1.0460000  1
  19245  19243  19257  19263     1  0.0000000  0.0000000  3
  19245  19243  19257  19261     1  0.0000000  0.6508444  3
  19245  19243  19257  19262     1  0.0000000  0.6508444  3
  19245  19243  19265  19249     1  0.0000000  1.6038667  3
  19246  19244  19247  19248     1  0.0000000  0.6508444  3
  19246  19244  19247  19255     1  0.0000000  1.0460000  1
  19246  19244  19247  19255     1  0.0000000  0.0000000  3
  19246  19244  19247  19251     1  0.0000000  0.6508444  3
  19246  19244  19256  19259     1  0.0000000  0.6973333  3
  19246  19244  19243  19257     1  0.0000000  0.6508444  3
  19246  19244  19243  19265     1  0.0000000  1.0460000  1
  19246  19244  19243  19265     1  0.0000000  0.0000000  3
  19247  19248  19249  19252     1  0.0000000  0.6508444  3
  19247  19248  19254  19260     1  0.0000000  1.0460000  1
  19247  19248  19254  19260     1  0.0000000  0.6694400  3
  19247  19244  19256  19259     1  0.0000000  1.0460000  1
  19247  19244  19256  19259     1  0.0000000  0.6694400  3
  19248  19247  19255  19258     1  0.0000000  1.0460000  1
  19248  19247  19255  19258     1  0.0000000  0.6694400  3
  19249  19248  19254  19260     1  0.0000000  1.0460000  1
  19249  19248  19254  19260     1  0.0000000  0.6694400  3
  19249  19248  19247  19251     1  0.0000000  0.6508444  3
  19250  19248  19249  19253     1  0.0000000  1.0460000  1
  19250  19248  19249  19253     1  0.0000000  0.0000000  3
  19250  19248  19249  19265     1  0.0000000  1.0460000  1
  19250  19248  19249  19265     1  0.0000000  0.0000000  3
  19250  19248  19249  19252     1  0.0000000  0.6508444  3
  19250  19248  19254  19260     1  0.0000000  0.6973333  3
  19250  19248  19247  19255     1  0.0000000  1.0460000  1
  19250  19248  19247  19255     1  0.0000000  0.0000000  3
  19250  19248  19247  19251     1  0.0000000  0.6508444  3
  19251  19247  19248  19254     1  0.0000000  1.0460000  1
  19251  19247  19248  19254     1  0.0000000  0.0000000  3
  19251  19247  19255  19258     1  0.0000000  0.6973333  3
  19251  19247  19244  19256     1  0.0000000  1.0460000  1
  19251  19247  19244  19256     1  0.0000000  0.0000000  3
  19252  19249  19248  19254     1  0.0000000  0.6508444  3
  19261  19257  19263  19264     1  0.0000000  0.6973333  3
  19261  19257  19243  19265     1  0.0000000  1.0460000  1
  19261  19257  19243  19265     1  0.0000000  0.0000000  3
  19262  19257  19263  19264     1  0.0000000  0.6973333  3
  19262  19257  19243  19265     1  0.0000000  1.0460000  1
  19262  19257  19243  19265     1  0.0000000  0.0000000  3
  19266  19267  19270  19274     1  0.0000000  0.6508444  3
  19266  19267  19279  19282     1  0.0000000  1.0460000  1
  19266  19267  19279  19282     1  0.0000000  0.6694400  3
  19266  19280  19286  19287     1  0.0000000  1.0460000  1
  19266  19280  19286  19287     1  0.0000000  0.6694400  3
  19266  19288  19272  19275     1  0.0000000  1.6038667  3
  19267  19266  19280  19284     1  0.0000000  0.6508444  3
  19267  19266  19280  19285     1  0.0000000  0.6508444  3
  19267  19270  19271  19273     1  0.0000000  0.6508444  3
  19267  19270  19278  19281     1  0.0000000  1.0460000  1
  19267  19270  19278  19281     1  0.0000000  0.6694400  3
  19268  19266  19267  19270     1  0.0000000  0.6508444  3
  19268  19266  19267  19279     1  0.0000000  1.0460000  1
  19268  19266  19267  19279     1  0.0000000  0.0000000  3
  19268  19266  19267  19269     1  0.0000000  0.6508444  3
  19268  19266  19280  19286     1  0.0000000  1.0460000  1
  19268  19266  19280  19286     1  0.0000000  0.0000000  3
  19268  19266  19280  19284     1  0.0000000  0.6508444  3
  19268  19266  19280  19285     1  0.0000000  0.6508444  3
  19268  19266  19288  19272     1  0.0000000  1.6038667  3
  19269  19267  19266  19280     1  0.0000000  0.6508444  3
  19269  19267  19266  19288     1  0.0000000  1.0460000  1
  19269  19267  19266  19288     1  0.0000000  0.0000000  3
  19269  19267  19270  19271     1  0.0000000  0.6508444  3
  19269  19267  19270  19278     1  0.0000000  1.0460000  1
  19269  19267  19270  19278     1  0.0000000  0.0000000  3
  19269  19267  19270  19274     1  0.0000000  0.6508444  3
  19269  19267  19279  19282     1  0.0000000  0.6973333  3
  19270  19267  19279  19282     1  0.0000000  1.0460000  1
  19270  19267  19279  19282     1  0.0000000  0.6694400  3
  19270  19271  19272  19275     1  0.0000000  0.6508444  3
  19270  19271  19277  19283     1  0.0000000  1.0460000  1
  19270  19271  19277  19283     1  0.0000000  0.6694400  3
  19271  19270  19278  19281     1  0.0000000  1.0460000  1
  19271  19270  19278  19281     1  0.0000000  0.6694400  3
  19272  19271  19270  19274     1  0.0000000  0.6508444  3
  19272  19271  19277  19283     1  0.0000000  1.0460000  1
  19272  19271  19277  19283     1  0.0000000  0.6694400  3
  19273  19271  19270  19278     1  0.0000000  1.0460000  1
  19273  19271  19270  19278     1  0.0000000  0.0000000  3
  19273  19271  19270  19274     1  0.0000000  0.6508444  3
  19273  19271  19272  19276     1  0.0000000  1.0460000  1
  19273  19271  19272  19276     1  0.0000000  0.0000000  3
  19273  19271  19272  19288     1  0.0000000  1.0460000  1
  19273  19271  19272  19288     1  0.0000000  0.0000000  3
  19273  19271  19272  19275     1  0.0000000  0.6508444  3
  19273  19271  19277  19283     1  0.0000000  0.6973333  3
  19274  19270  19267  19279     1  0.0000000  1.0460000  1
  19274  19270  19267  19279     1  0.0000000  0.0000000  3
  19274  19270  19271  19277     1  0.0000000  1.0460000  1
  19274  19270  19271  19277     1  0.0000000  0.0000000  3
  19274  19270  19278  19281     1  0.0000000  0.6973333  3
  19275  19272  19271  19277     1  0.0000000  0.6508444  3
  19284  19280  19266  19288     1  0.0000000  1.0460000  1
  19284  19280  19266  19288     1  0.0000000  0.0000000  3
  19284  19280  19286  19287     1  0.0000000  0.6973333  3
  19285  19280  19266  19288     1  0.0000000  1.0460000  1
  19285  19280  19266  19288     1  0.0000000  0.0000000  3
  19285  19280  19286  19287     1  0.0000000  0.6973333  3
  19289  19290  19293  19297     1  0.0000000  0.6508444  3
  19289  19290  19302  19305     1  0.0000000  1.0460000  1
  19289  19290  19302  19305     1  0.0000000  0.6694400  3
  19289  19303  19309  19310     1  0.0000000  1.0460000  1
  19289  19303  19309  19310     1  0.0000000  0.6694400  3
  19289  19311  19295  19298     1  0.0000000  1.6038667  3
  19290  19293  19294  19296     1  0.0000000  0.6508444  3
  19290  19293  19301  19304     1  0.0000000  1.0460000  1
  19290  19293  19301  19304     1  0.0000000  0.6694400  3
  19290  19289  19303  19307     1  0.0000000  0.6508444  3
  19290  19289  19303  19308     1  0.0000000  0.6508444  3
  19291  19289  19290  19293     1  0.0000000  0.6508444  3
  19291  19289  19290  19302     1  0.0000000  1.0460000  1
  19291  19289  19290  19302     1  0.0000000  0.0000000  3
  19291  19289  19290  19292     1  0.0000000  0.6508444  3
  19291  19289  19303  19309     1  0.0000000  1.0460000  1
  19291  19289  19303  19309     1  0.0000000  0.0000000  3
  19291  19289  19303  19307     1  0.0000000  0.6508444  3
  19291  19289  19303  19308     1  0.0000000  0.6508444  3
  19291  19289  19311  19295     1  0.0000000  1.6038667  3
  19292  19290  19293  19294     1  0.0000000  0.6508444  3
  19292  19290  19293  19301     1  0.0000000  1.0460000  1
  19292  19290  19293  19301     1  0.0000000  0.0000000  3
  19292  19290  19293  19297     1  0.0000000  0.6508444  3
  19292  19290  19302  19305     1  0.0000000  0.6973333  3
  19292  19290  19289  19303     1  0.0000000  0.6508444  3
  19292  19290  19289  19311     1  0.0000000  1.0460000  1
  19292  19290  19289  19311     1  0.0000000  0.0000000  3
  19293  19294  19295  19298     1  0.0000000  0.6508444  3
  19293  19294  19300  19306     1  0.0000000  1.0460000  1
  19293  19294  19300  19306     1  0.0000000  0.6694400  3
  19293  19290  19302  19305     1  0.0000000  1.0460000  1
  19293  19290  19302  19305     1  0.0000000  0.6694400  3
  19294  19293  19301  19304     1  0.0000000  1.0460000  1
  19294  19293  19301  19304     1  0.0000000  0.6694400  3
  19295  19294  19300  19306     1  0.0000000  1.0460000  1
  19295  19294  19300  19306     1  0.0000000  0.6694400  3
  19295  19294  19293  19297     1  0.0000000  0.6508444  3
  19296  19294  19295  19299     1  0.0000000  1.0460000  1
  19296  19294  19295  19299     1  0.0000000  0.0000000  3
  19296  19294  19295  19311     1  0.0000000  1.0460000  1
  19296  19294  19295  19311     1  0.0000000  0.0000000  3
  19296  19294  19295  19298     1  0.0000000  0.6508444  3
  19296  19294  19300  19306     1  0.0000000  0.6973333  3
  19296  19294  19293  19301     1  0.0000000  1.0460000  1
  19296  19294  19293  19301     1  0.0000000  0.0000000  3
  19296  19294  19293  19297     1  0.0000000  0.6508444  3
  19297  19293  19294  19300     1  0.0000000  1.0460000  1
  19297  19293  19294  19300     1  0.0000000  0.0000000  3
  19297  19293  19301  19304     1  0.0000000  0.6973333  3
  19297  19293  19290  19302     1  0.0000000  1.0460000  1
  19297  19293  19290  19302     1  0.0000000  0.0000000  3
  19298  19295  19294  19300     1  0.0000000  0.6508444  3
  19307  19303  19309  19310     1  0.0000000  0.6973333  3
  19307  19303  19289  19311     1  0.0000000  1.0460000  1
  19307  19303  19289  19311     1  0.0000000  0.0000000  3
  19308  19303  19309  19310     1  0.0000000  0.6973333  3
  19308  19303  19289  19311     1  0.0000000  1.0460000  1
  19308  19303  19289  19311     1  0.0000000  0.0000000  3
  19312  19313  19316  19320     1  0.0000000  0.6508444  3
  19312  19313  19325  19328     1  0.0000000  1.0460000  1
  19312  19313  19325  19328     1  0.0000000  0.6694400  3
  19312  19326  19332  19333     1  0.0000000  1.0460000  1
  19312  19326  19332  19333     1  0.0000000  0.6694400  3
  19312  19334  19318  19321     1  0.0000000  1.6038667  3
  19313  19312  19326  19330     1  0.0000000  0.6508444  3
  19313  19312  19326  19331     1  0.0000000  0.6508444  3
  19313  19316  19317  19319     1  0.0000000  0.6508444  3
  19313  19316  19324  19327     1  0.0000000  1.0460000  1
  19313  19316  19324  19327     1  0.0000000  0.6694400  3
  19314  19312  19313  19316     1  0.0000000  0.6508444  3
  19314  19312  19313  19325     1  0.0000000  1.0460000  1
  19314  19312  19313  19325     1  0.0000000  0.0000000  3
  19314  19312  19313  19315     1  0.0000000  0.6508444  3
  19314  19312  19326  19332     1  0.0000000  1.0460000  1
  19314  19312  19326  19332     1  0.0000000  0.0000000  3
  19314  19312  19326  19330     1  0.0000000  0.6508444  3
  19314  19312  19326  19331     1  0.0000000  0.6508444  3
  19314  19312  19334  19318     1  0.0000000  1.6038667  3
  19315  19313  19312  19326     1  0.0000000  0.6508444  3
  19315  19313  19312  19334     1  0.0000000  1.0460000  1
  19315  19313  19312  19334     1  0.0000000  0.0000000  3
  19315  19313  19316  19317     1  0.0000000  0.6508444  3
  19315  19313  19316  19324     1  0.0000000  1.0460000  1
  19315  19313  19316  19324     1  0.0000000  0.0000000  3
  19315  19313  19316  19320     1  0.0000000  0.6508444  3
  19315  19313  19325  19328     1  0.0000000  0.6973333  3
  19316  19313  19325  19328     1  0.0000000  1.0460000  1
  19316  19313  19325  19328     1  0.0000000  0.6694400  3
  19316  19317  19318  19321     1  0.0000000  0.6508444  3
  19316  19317  19323  19329     1  0.0000000  1.0460000  1
  19316  19317  19323  19329     1  0.0000000  0.6694400  3
  19317  19316  19324  19327     1  0.0000000  1.0460000  1
  19317  19316  19324  19327     1  0.0000000  0.6694400  3
  19318  19317  19316  19320     1  0.0000000  0.6508444  3
  19318  19317  19323  19329     1  0.0000000  1.0460000  1
  19318  19317  19323  19329     1  0.0000000  0.6694400  3
  19319  19317  19316  19324     1  0.0000000  1.0460000  1
  19319  19317  19316  19324     1  0.0000000  0.0000000  3
  19319  19317  19316  19320     1  0.0000000  0.6508444  3
  19319  19317  19318  19322     1  0.0000000  1.0460000  1
  19319  19317  19318  19322     1  0.0000000  0.0000000  3
  19319  19317  19318  19334     1  0.0000000  1.0460000  1
  19319  19317  19318  19334     1  0.0000000  0.0000000  3
  19319  19317  19318  19321     1  0.0000000  0.6508444  3
  19319  19317  19323  19329     1  0.0000000  0.6973333  3
  19320  19316  19313  19325     1  0.0000000  1.0460000  1
  19320  19316  19313  19325     1  0.0000000  0.0000000  3
  19320  19316  19317  19323     1  0.0000000  1.0460000  1
  19320  19316  19317  19323     1  0.0000000  0.0000000  3
  19320  19316  19324  19327     1  0.0000000  0.6973333  3
  19321  19318  19317  19323     1  0.0000000  0.6508444  3
  19330  19326  19312  19334     1  0.0000000  1.0460000  1
  19330  19326  19312  19334     1  0.0000000  0.0000000  3
  19330  19326  19332  19333     1  0.0000000  0.6973333  3
  19331  19326  19312  19334     1  0.0000000  1.0460000  1
  19331  19326  19312  19334     1  0.0000000  0.0000000  3
  19331  19326  19332  19333     1  0.0000000  0.6973333  3
  19335  19336  19339  19343     1  0.0000000  0.6508444  3
  19335  19336  19348  19351     1  0.0000000  1.0460000  1
  19335  19336  19348  19351     1  0.0000000  0.6694400  3
  19335  19349  19355  19356     1  0.0000000  1.0460000  1
  19335  19349  19355  19356     1  0.0000000  0.6694400  3
  19335  19357  19341  19344     1  0.0000000  1.6038667  3
  19336  19339  19340  19342     1  0.0000000  0.6508444  3
  19336  19339  19347  19350     1  0.0000000  1.0460000  1
  19336  19339  19347  19350     1  0.0000000  0.6694400  3
  19336  19335  19349  19353     1  0.0000000  0.6508444  3
  19336  19335  19349  19354     1  0.0000000  0.6508444  3
  19337  19335  19336  19339     1  0.0000000  0.6508444  3
  19337  19335  19336  19348     1  0.0000000  1.0460000  1
  19337  19335  19336  19348     1  0.0000000  0.0000000  3
  19337  19335  19336  19338     1  0.0000000  0.6508444  3
  19337  19335  19349  19355     1  0.0000000  1.0460000  1
  19337  19335  19349  19355     1  0.0000000  0.0000000  3
  19337  19335  19349  19353     1  0.0000000  0.6508444  3
  19337  19335  19349  19354     1  0.0000000  0.6508444  3
  19337  19335  19357  19341     1  0.0000000  1.6038667  3
  19338  19336  19339  19340     1  0.0000000  0.6508444  3
  19338  19336  19339  19347     1  0.0000000  1.0460000  1
  19338  19336  19339  19347     1  0.0000000  0.0000000  3
  19338  19336  19339  19343     1  0.0000000  0.6508444  3
  19338  19336  19348  19351     1  0.0000000  0.6973333  3
  19338  19336  19335  19349     1  0.0000000  0.6508444  3
  19338  19336  19335  19357     1  0.0000000  1.0460000  1
  19338  19336  19335  19357     1  0.0000000  0.0000000  3
  19339  19340  19341  19344     1  0.0000000  0.6508444  3
  19339  19340  19346  19352     1  0.0000000  1.0460000  1
  19339  19340  19346  19352     1  0.0000000  0.6694400  3
  19339  19336  19348  19351     1  0.0000000  1.0460000  1
  19339  19336  19348  19351     1  0.0000000  0.6694400  3
  19340  19339  19347  19350     1  0.0000000  1.0460000  1
  19340  19339  19347  19350     1  0.0000000  0.6694400  3
  19341  19340  19346  19352     1  0.0000000  1.0460000  1
  19341  19340  19346  19352     1  0.0000000  0.6694400  3
  19341  19340  19339  19343     1  0.0000000  0.6508444  3
  19342  19340  19341  19345     1  0.0000000  1.0460000  1
  19342  19340  19341  19345     1  0.0000000  0.0000000  3
  19342  19340  19341  19357     1  0.0000000  1.0460000  1
  19342  19340  19341  19357     1  0.0000000  0.0000000  3
  19342  19340  19341  19344     1  0.0000000  0.6508444  3
  19342  19340  19346  19352     1  0.0000000  0.6973333  3
  19342  19340  19339  19347     1  0.0000000  1.0460000  1
  19342  19340  19339  19347     1  0.0000000  0.0000000  3
  19342  19340  19339  19343     1  0.0000000  0.6508444  3
  19343  19339  19340  19346     1  0.0000000  1.0460000  1
  19343  19339  19340  19346     1  0.0000000  0.0000000  3
  19343  19339  19347  19350     1  0.0000000  0.6973333  3
  19343  19339  19336  19348     1  0.0000000  1.0460000  1
  19343  19339  19336  19348     1  0.0000000  0.0000000  3
  19344  19341  19340  19346     1  0.0000000  0.6508444  3
  19353  19349  19355  19356     1  0.0000000  0.6973333  3
  19353  19349  19335  19357     1  0.0000000  1.0460000  1
  19353  19349  19335  19357     1  0.0000000  0.0000000  3
  19354  19349  19355  19356     1  0.0000000  0.6973333  3
  19354  19349  19335  19357     1  0.0000000  1.0460000  1
  19354  19349  19335  19357     1  0.0000000  0.0000000  3
  19358  19359  19362  19366     1  0.0000000  0.6508444  3
  19358  19359  19371  19374     1  0.0000000  1.0460000  1
  19358  19359  19371  19374     1  0.0000000  0.6694400  3
  19358  19372  19378  19379     1  0.0000000  1.0460000  1
  19358  19372  19378  19379     1  0.0000000  0.6694400  3
  19358  19380  19364  19367     1  0.0000000  1.6038667  3
  19359  19358  19372  19376     1  0.0000000  0.6508444  3
  19359  19358  19372  19377     1  0.0000000  0.6508444  3
  19359  19362  19363  19365     1  0.0000000  0.6508444  3
  19359  19362  19370  19373     1  0.0000000  1.0460000  1
  19359  19362  19370  19373     1  0.0000000  0.6694400  3
  19360  19358  19359  19362     1  0.0000000  0.6508444  3
  19360  19358  19359  19371     1  0.0000000  1.0460000  1
  19360  19358  19359  19371     1  0.0000000  0.0000000  3
  19360  19358  19359  19361     1  0.0000000  0.6508444  3
  19360  19358  19372  19378     1  0.0000000  1.0460000  1
  19360  19358  19372  19378     1  0.0000000  0.0000000  3
  19360  19358  19372  19376     1  0.0000000  0.6508444  3
  19360  19358  19372  19377     1  0.0000000  0.6508444  3
  19360  19358  19380  19364     1  0.0000000  1.6038667  3
  19361  19359  19358  19372     1  0.0000000  0.6508444  3
  19361  19359  19358  19380     1  0.0000000  1.0460000  1
  19361  19359  19358  19380     1  0.0000000  0.0000000  3
  19361  19359  19362  19363     1  0.0000000  0.6508444  3
  19361  19359  19362  19370     1  0.0000000  1.0460000  1
  19361  19359  19362  19370     1  0.0000000  0.0000000  3
  19361  19359  19362  19366     1  0.0000000  0.6508444  3
  19361  19359  19371  19374     1  0.0000000  0.6973333  3
  19362  19359  19371  19374     1  0.0000000  1.0460000  1
  19362  19359  19371  19374     1  0.0000000  0.6694400  3
  19362  19363  19364  19367     1  0.0000000  0.6508444  3
  19362  19363  19369  19375     1  0.0000000  1.0460000  1
  19362  19363  19369  19375     1  0.0000000  0.6694400  3
  19363  19362  19370  19373     1  0.0000000  1.0460000  1
  19363  19362  19370  19373     1  0.0000000  0.6694400  3
  19364  19363  19362  19366     1  0.0000000  0.6508444  3
  19364  19363  19369  19375     1  0.0000000  1.0460000  1
  19364  19363  19369  19375     1  0.0000000  0.6694400  3
  19365  19363  19362  19370     1  0.0000000  1.0460000  1
  19365  19363  19362  19370     1  0.0000000  0.0000000  3
  19365  19363  19362  19366     1  0.0000000  0.6508444  3
  19365  19363  19364  19368     1  0.0000000  1.0460000  1
  19365  19363  19364  19368     1  0.0000000  0.0000000  3
  19365  19363  19364  19380     1  0.0000000  1.0460000  1
  19365  19363  19364  19380     1  0.0000000  0.0000000  3
  19365  19363  19364  19367     1  0.0000000  0.6508444  3
  19365  19363  19369  19375     1  0.0000000  0.6973333  3
  19366  19362  19359  19371     1  0.0000000  1.0460000  1
  19366  19362  19359  19371     1  0.0000000  0.0000000  3
  19366  19362  19363  19369     1  0.0000000  1.0460000  1
  19366  19362  19363  19369     1  0.0000000  0.0000000  3
  19366  19362  19370  19373     1  0.0000000  0.6973333  3
  19367  19364  19363  19369     1  0.0000000  0.6508444  3
  19376  19372  19358  19380     1  0.0000000  1.0460000  1
  19376  19372  19358  19380     1  0.0000000  0.0000000  3
  19376  19372  19378  19379     1  0.0000000  0.6973333  3
  19377  19372  19358  19380     1  0.0000000  1.0460000  1
  19377  19372  19358  19380     1  0.0000000  0.0000000  3
  19377  19372  19378  19379     1  0.0000000  0.6973333  3
  19381  19382  19385  19389     1  0.0000000  0.6508444  3
  19381  19382  19394  19397     1  0.0000000  1.0460000  1
  19381  19382  19394  19397     1  0.0000000  0.6694400  3
  19381  19395  19401  19402     1  0.0000000  1.0460000  1
  19381  19395  19401  19402     1  0.0000000  0.6694400  3
  19381  19403  19387  19390     1  0.0000000  1.6038667  3
  19382  19385  19386  19388     1  0.0000000  0.6508444  3
  19382  19385  19393  19396     1  0.0000000  1.0460000  1
  19382  19385  19393  19396     1  0.0000000  0.6694400  3
  19382  19381  19395  19399     1  0.0000000  0.6508444  3
  19382  19381  19395  19400     1  0.0000000  0.6508444  3
  19383  19381  19382  19385     1  0.0000000  0.6508444  3
  19383  19381  19382  19394     1  0.0000000  1.0460000  1
  19383  19381  19382  19394     1  0.0000000  0.0000000  3
  19383  19381  19382  19384     1  0.0000000  0.6508444  3
  19383  19381  19395  19401     1  0.0000000  1.0460000  1
  19383  19381  19395  19401     1  0.0000000  0.0000000  3
  19383  19381  19395  19399     1  0.0000000  0.6508444  3
  19383  19381  19395  19400     1  0.0000000  0.6508444  3
  19383  19381  19403  19387     1  0.0000000  1.6038667  3
  19384  19382  19385  19386     1  0.0000000  0.6508444  3
  19384  19382  19385  19393     1  0.0000000  1.0460000  1
  19384  19382  19385  19393     1  0.0000000  0.0000000  3
  19384  19382  19385  19389     1  0.0000000  0.6508444  3
  19384  19382  19394  19397     1  0.0000000  0.6973333  3
  19384  19382  19381  19395     1  0.0000000  0.6508444  3
  19384  19382  19381  19403     1  0.0000000  1.0460000  1
  19384  19382  19381  19403     1  0.0000000  0.0000000  3
  19385  19386  19387  19390     1  0.0000000  0.6508444  3
  19385  19386  19392  19398     1  0.0000000  1.0460000  1
  19385  19386  19392  19398     1  0.0000000  0.6694400  3
  19385  19382  19394  19397     1  0.0000000  1.0460000  1
  19385  19382  19394  19397     1  0.0000000  0.6694400  3
  19386  19385  19393  19396     1  0.0000000  1.0460000  1
  19386  19385  19393  19396     1  0.0000000  0.6694400  3
  19387  19386  19392  19398     1  0.0000000  1.0460000  1
  19387  19386  19392  19398     1  0.0000000  0.6694400  3
  19387  19386  19385  19389     1  0.0000000  0.6508444  3
  19388  19386  19387  19391     1  0.0000000  1.0460000  1
  19388  19386  19387  19391     1  0.0000000  0.0000000  3
  19388  19386  19387  19403     1  0.0000000  1.0460000  1
  19388  19386  19387  19403     1  0.0000000  0.0000000  3
  19388  19386  19387  19390     1  0.0000000  0.6508444  3
  19388  19386  19392  19398     1  0.0000000  0.6973333  3
  19388  19386  19385  19393     1  0.0000000  1.0460000  1
  19388  19386  19385  19393     1  0.0000000  0.0000000  3
  19388  19386  19385  19389     1  0.0000000  0.6508444  3
  19389  19385  19386  19392     1  0.0000000  1.0460000  1
  19389  19385  19386  19392     1  0.0000000  0.0000000  3
  19389  19385  19393  19396     1  0.0000000  0.6973333  3
  19389  19385  19382  19394     1  0.0000000  1.0460000  1
  19389  19385  19382  19394     1  0.0000000  0.0000000  3
  19390  19387  19386  19392     1  0.0000000  0.6508444  3
  19399  19395  19401  19402     1  0.0000000  0.6973333  3
  19399  19395  19381  19403     1  0.0000000  1.0460000  1
  19399  19395  19381  19403     1  0.0000000  0.0000000  3
  19400  19395  19401  19402     1  0.0000000  0.6973333  3
  19400  19395  19381  19403     1  0.0000000  1.0460000  1
  19400  19395  19381  19403     1  0.0000000  0.0000000  3
  19404  19405  19408  19412     1  0.0000000  0.6508444  3
  19404  19405  19417  19420     1  0.0000000  1.0460000  1
  19404  19405  19417  19420     1  0.0000000  0.6694400  3
  19404  19418  19424  19425     1  0.0000000  1.0460000  1
  19404  19418  19424  19425     1  0.0000000  0.6694400  3
  19404  19426  19410  19413     1  0.0000000  1.6038667  3
  19405  19404  19418  19422     1  0.0000000  0.6508444  3
  19405  19404  19418  19423     1  0.0000000  0.6508444  3
  19405  19408  19409  19411     1  0.0000000  0.6508444  3
  19405  19408  19416  19419     1  0.0000000  1.0460000  1
  19405  19408  19416  19419     1  0.0000000  0.6694400  3
  19406  19404  19405  19408     1  0.0000000  0.6508444  3
  19406  19404  19405  19417     1  0.0000000  1.0460000  1
  19406  19404  19405  19417     1  0.0000000  0.0000000  3
  19406  19404  19405  19407     1  0.0000000  0.6508444  3
  19406  19404  19418  19424     1  0.0000000  1.0460000  1
  19406  19404  19418  19424     1  0.0000000  0.0000000  3
  19406  19404  19418  19422     1  0.0000000  0.6508444  3
  19406  19404  19418  19423     1  0.0000000  0.6508444  3
  19406  19404  19426  19410     1  0.0000000  1.6038667  3
  19407  19405  19404  19418     1  0.0000000  0.6508444  3
  19407  19405  19404  19426     1  0.0000000  1.0460000  1
  19407  19405  19404  19426     1  0.0000000  0.0000000  3
  19407  19405  19408  19409     1  0.0000000  0.6508444  3
  19407  19405  19408  19416     1  0.0000000  1.0460000  1
  19407  19405  19408  19416     1  0.0000000  0.0000000  3
  19407  19405  19408  19412     1  0.0000000  0.6508444  3
  19407  19405  19417  19420     1  0.0000000  0.6973333  3
  19408  19405  19417  19420     1  0.0000000  1.0460000  1
  19408  19405  19417  19420     1  0.0000000  0.6694400  3
  19408  19409  19410  19413     1  0.0000000  0.6508444  3
  19408  19409  19415  19421     1  0.0000000  1.0460000  1
  19408  19409  19415  19421     1  0.0000000  0.6694400  3
  19409  19408  19416  19419     1  0.0000000  1.0460000  1
  19409  19408  19416  19419     1  0.0000000  0.6694400  3
  19410  19409  19408  19412     1  0.0000000  0.6508444  3
  19410  19409  19415  19421     1  0.0000000  1.0460000  1
  19410  19409  19415  19421     1  0.0000000  0.6694400  3
  19411  19409  19408  19416     1  0.0000000  1.0460000  1
  19411  19409  19408  19416     1  0.0000000  0.0000000  3
  19411  19409  19408  19412     1  0.0000000  0.6508444  3
  19411  19409  19410  19414     1  0.0000000  1.0460000  1
  19411  19409  19410  19414     1  0.0000000  0.0000000  3
  19411  19409  19410  19426     1  0.0000000  1.0460000  1
  19411  19409  19410  19426     1  0.0000000  0.0000000  3
  19411  19409  19410  19413     1  0.0000000  0.6508444  3
  19411  19409  19415  19421     1  0.0000000  0.6973333  3
  19412  19408  19405  19417     1  0.0000000  1.0460000  1
  19412  19408  19405  19417     1  0.0000000  0.0000000  3
  19412  19408  19409  19415     1  0.0000000  1.0460000  1
  19412  19408  19409  19415     1  0.0000000  0.0000000  3
  19412  19408  19416  19419     1  0.0000000  0.6973333  3
  19413  19410  19409  19415     1  0.0000000  0.6508444  3
  19422  19418  19404  19426     1  0.0000000  1.0460000  1
  19422  19418  19404  19426     1  0.0000000  0.0000000  3
  19422  19418  19424  19425     1  0.0000000  0.6973333  3
  19423  19418  19404  19426     1  0.0000000  1.0460000  1
  19423  19418  19404  19426     1  0.0000000  0.0000000  3
  19423  19418  19424  19425     1  0.0000000  0.6973333  3
  19427  19428  19431  19435     1  0.0000000  0.6508444  3
  19427  19428  19440  19443     1  0.0000000  1.0460000  1
  19427  19428  19440  19443     1  0.0000000  0.6694400  3
  19427  19441  19447  19448     1  0.0000000  1.0460000  1
  19427  19441  19447  19448     1  0.0000000  0.6694400  3
  19427  19449  19433  19436     1  0.0000000  1.6038667  3
  19428  19431  19432  19434     1  0.0000000  0.6508444  3
  19428  19431  19439  19442     1  0.0000000  1.0460000  1
  19428  19431  19439  19442     1  0.0000000  0.6694400  3
  19428  19427  19441  19445     1  0.0000000  0.6508444  3
  19428  19427  19441  19446     1  0.0000000  0.6508444  3
  19429  19427  19428  19431     1  0.0000000  0.6508444  3
  19429  19427  19428  19440     1  0.0000000  1.0460000  1
  19429  19427  19428  19440     1  0.0000000  0.0000000  3
  19429  19427  19428  19430     1  0.0000000  0.6508444  3
  19429  19427  19441  19447     1  0.0000000  1.0460000  1
  19429  19427  19441  19447     1  0.0000000  0.0000000  3
  19429  19427  19441  19445     1  0.0000000  0.6508444  3
  19429  19427  19441  19446     1  0.0000000  0.6508444  3
  19429  19427  19449  19433     1  0.0000000  1.6038667  3
  19430  19428  19431  19432     1  0.0000000  0.6508444  3
  19430  19428  19431  19439     1  0.0000000  1.0460000  1
  19430  19428  19431  19439     1  0.0000000  0.0000000  3
  19430  19428  19431  19435     1  0.0000000  0.6508444  3
  19430  19428  19440  19443     1  0.0000000  0.6973333  3
  19430  19428  19427  19441     1  0.0000000  0.6508444  3
  19430  19428  19427  19449     1  0.0000000  1.0460000  1
  19430  19428  19427  19449     1  0.0000000  0.0000000  3
  19431  19432  19433  19436     1  0.0000000  0.6508444  3
  19431  19432  19438  19444     1  0.0000000  1.0460000  1
  19431  19432  19438  19444     1  0.0000000  0.6694400  3
  19431  19428  19440  19443     1  0.0000000  1.0460000  1
  19431  19428  19440  19443     1  0.0000000  0.6694400  3
  19432  19431  19439  19442     1  0.0000000  1.0460000  1
  19432  19431  19439  19442     1  0.0000000  0.6694400  3
  19433  19432  19438  19444     1  0.0000000  1.0460000  1
  19433  19432  19438  19444     1  0.0000000  0.6694400  3
  19433  19432  19431  19435     1  0.0000000  0.6508444  3
  19434  19432  19433  19437     1  0.0000000  1.0460000  1
  19434  19432  19433  19437     1  0.0000000  0.0000000  3
  19434  19432  19433  19449     1  0.0000000  1.0460000  1
  19434  19432  19433  19449     1  0.0000000  0.0000000  3
  19434  19432  19433  19436     1  0.0000000  0.6508444  3
  19434  19432  19438  19444     1  0.0000000  0.6973333  3
  19434  19432  19431  19439     1  0.0000000  1.0460000  1
  19434  19432  19431  19439     1  0.0000000  0.0000000  3
  19434  19432  19431  19435     1  0.0000000  0.6508444  3
  19435  19431  19432  19438     1  0.0000000  1.0460000  1
  19435  19431  19432  19438     1  0.0000000  0.0000000  3
  19435  19431  19439  19442     1  0.0000000  0.6973333  3
  19435  19431  19428  19440     1  0.0000000  1.0460000  1
  19435  19431  19428  19440     1  0.0000000  0.0000000  3
  19436  19433  19432  19438     1  0.0000000  0.6508444  3
  19445  19441  19447  19448     1  0.0000000  0.6973333  3
  19445  19441  19427  19449     1  0.0000000  1.0460000  1
  19445  19441  19427  19449     1  0.0000000  0.0000000  3
  19446  19441  19447  19448     1  0.0000000  0.6973333  3
  19446  19441  19427  19449     1  0.0000000  1.0460000  1
  19446  19441  19427  19449     1  0.0000000  0.0000000  3
  19450  19451  19454  19458     1  0.0000000  0.6508444  3
  19450  19451  19463  19466     1  0.0000000  1.0460000  1
  19450  19451  19463  19466     1  0.0000000  0.6694400  3
  19450  19464  19470  19471     1  0.0000000  1.0460000  1
  19450  19464  19470  19471     1  0.0000000  0.6694400  3
  19450  19472  19456  19459     1  0.0000000  1.6038667  3
  19451  19450  19464  19468     1  0.0000000  0.6508444  3
  19451  19450  19464  19469     1  0.0000000  0.6508444  3
  19451  19454  19455  19457     1  0.0000000  0.6508444  3
  19451  19454  19462  19465     1  0.0000000  1.0460000  1
  19451  19454  19462  19465     1  0.0000000  0.6694400  3
  19452  19450  19451  19454     1  0.0000000  0.6508444  3
  19452  19450  19451  19463     1  0.0000000  1.0460000  1
  19452  19450  19451  19463     1  0.0000000  0.0000000  3
  19452  19450  19451  19453     1  0.0000000  0.6508444  3
  19452  19450  19464  19470     1  0.0000000  1.0460000  1
  19452  19450  19464  19470     1  0.0000000  0.0000000  3
  19452  19450  19464  19468     1  0.0000000  0.6508444  3
  19452  19450  19464  19469     1  0.0000000  0.6508444  3
  19452  19450  19472  19456     1  0.0000000  1.6038667  3
  19453  19451  19450  19464     1  0.0000000  0.6508444  3
  19453  19451  19450  19472     1  0.0000000  1.0460000  1
  19453  19451  19450  19472     1  0.0000000  0.0000000  3
  19453  19451  19454  19455     1  0.0000000  0.6508444  3
  19453  19451  19454  19462     1  0.0000000  1.0460000  1
  19453  19451  19454  19462     1  0.0000000  0.0000000  3
  19453  19451  19454  19458     1  0.0000000  0.6508444  3
  19453  19451  19463  19466     1  0.0000000  0.6973333  3
  19454  19451  19463  19466     1  0.0000000  1.0460000  1
  19454  19451  19463  19466     1  0.0000000  0.6694400  3
  19454  19455  19456  19459     1  0.0000000  0.6508444  3
  19454  19455  19461  19467     1  0.0000000  1.0460000  1
  19454  19455  19461  19467     1  0.0000000  0.6694400  3
  19455  19454  19462  19465     1  0.0000000  1.0460000  1
  19455  19454  19462  19465     1  0.0000000  0.6694400  3
  19456  19455  19454  19458     1  0.0000000  0.6508444  3
  19456  19455  19461  19467     1  0.0000000  1.0460000  1
  19456  19455  19461  19467     1  0.0000000  0.6694400  3
  19457  19455  19454  19462     1  0.0000000  1.0460000  1
  19457  19455  19454  19462     1  0.0000000  0.0000000  3
  19457  19455  19454  19458     1  0.0000000  0.6508444  3
  19457  19455  19456  19460     1  0.0000000  1.0460000  1
  19457  19455  19456  19460     1  0.0000000  0.0000000  3
  19457  19455  19456  19472     1  0.0000000  1.0460000  1
  19457  19455  19456  19472     1  0.0000000  0.0000000  3
  19457  19455  19456  19459     1  0.0000000  0.6508444  3
  19457  19455  19461  19467     1  0.0000000  0.6973333  3
  19458  19454  19451  19463     1  0.0000000  1.0460000  1
  19458  19454  19451  19463     1  0.0000000  0.0000000  3
  19458  19454  19455  19461     1  0.0000000  1.0460000  1
  19458  19454  19455  19461     1  0.0000000  0.0000000  3
  19458  19454  19462  19465     1  0.0000000  0.6973333  3
  19459  19456  19455  19461     1  0.0000000  0.6508444  3
  19468  19464  19450  19472     1  0.0000000  1.0460000  1
  19468  19464  19450  19472     1  0.0000000  0.0000000  3
  19468  19464  19470  19471     1  0.0000000  0.6973333  3
  19469  19464  19450  19472     1  0.0000000  1.0460000  1
  19469  19464  19450  19472     1  0.0000000  0.0000000  3
  19469  19464  19470  19471     1  0.0000000  0.6973333  3
  19473  19474  19477  19481     1  0.0000000  0.6508444  3
  19473  19474  19486  19489     1  0.0000000  1.0460000  1
  19473  19474  19486  19489     1  0.0000000  0.6694400  3
  19473  19487  19493  19494     1  0.0000000  1.0460000  1
  19473  19487  19493  19494     1  0.0000000  0.6694400  3
  19473  19495  19479  19482     1  0.0000000  1.6038667  3
  19474  19477  19478  19480     1  0.0000000  0.6508444  3
  19474  19477  19485  19488     1  0.0000000  1.0460000  1
  19474  19477  19485  19488     1  0.0000000  0.6694400  3
  19474  19473  19487  19491     1  0.0000000  0.6508444  3
  19474  19473  19487  19492     1  0.0000000  0.6508444  3
  19475  19473  19474  19477     1  0.0000000  0.6508444  3
  19475  19473  19474  19486     1  0.0000000  1.0460000  1
  19475  19473  19474  19486     1  0.0000000  0.0000000  3
  19475  19473  19474  19476     1  0.0000000  0.6508444  3
  19475  19473  19487  19493     1  0.0000000  1.0460000  1
  19475  19473  19487  19493     1  0.0000000  0.0000000  3
  19475  19473  19487  19491     1  0.0000000  0.6508444  3
  19475  19473  19487  19492     1  0.0000000  0.6508444  3
  19475  19473  19495  19479     1  0.0000000  1.6038667  3
  19476  19474  19477  19478     1  0.0000000  0.6508444  3
  19476  19474  19477  19485     1  0.0000000  1.0460000  1
  19476  19474  19477  19485     1  0.0000000  0.0000000  3
  19476  19474  19477  19481     1  0.0000000  0.6508444  3
  19476  19474  19486  19489     1  0.0000000  0.6973333  3
  19476  19474  19473  19487     1  0.0000000  0.6508444  3
  19476  19474  19473  19495     1  0.0000000  1.0460000  1
  19476  19474  19473  19495     1  0.0000000  0.0000000  3
  19477  19478  19479  19482     1  0.0000000  0.6508444  3
  19477  19478  19484  19490     1  0.0000000  1.0460000  1
  19477  19478  19484  19490     1  0.0000000  0.6694400  3
  19477  19474  19486  19489     1  0.0000000  1.0460000  1
  19477  19474  19486  19489     1  0.0000000  0.6694400  3
  19478  19477  19485  19488     1  0.0000000  1.0460000  1
  19478  19477  19485  19488     1  0.0000000  0.6694400  3
  19479  19478  19484  19490     1  0.0000000  1.0460000  1
  19479  19478  19484  19490     1  0.0000000  0.6694400  3
  19479  19478  19477  19481     1  0.0000000  0.6508444  3
  19480  19478  19479  19483     1  0.0000000  1.0460000  1
  19480  19478  19479  19483     1  0.0000000  0.0000000  3
  19480  19478  19479  19495     1  0.0000000  1.0460000  1
  19480  19478  19479  19495     1  0.0000000  0.0000000  3
  19480  19478  19479  19482     1  0.0000000  0.6508444  3
  19480  19478  19484  19490     1  0.0000000  0.6973333  3
  19480  19478  19477  19485     1  0.0000000  1.0460000  1
  19480  19478  19477  19485     1  0.0000000  0.0000000  3
  19480  19478  19477  19481     1  0.0000000  0.6508444  3
  19481  19477  19478  19484     1  0.0000000  1.0460000  1
  19481  19477  19478  19484     1  0.0000000  0.0000000  3
  19481  19477  19485  19488     1  0.0000000  0.6973333  3
  19481  19477  19474  19486     1  0.0000000  1.0460000  1
  19481  19477  19474  19486     1  0.0000000  0.0000000  3
  19482  19479  19478  19484     1  0.0000000  0.6508444  3
  19491  19487  19493  19494     1  0.0000000  0.6973333  3
  19491  19487  19473  19495     1  0.0000000  1.0460000  1
  19491  19487  19473  19495     1  0.0000000  0.0000000  3
  19492  19487  19493  19494     1  0.0000000  0.6973333  3
  19492  19487  19473  19495     1  0.0000000  1.0460000  1
  19492  19487  19473  19495     1  0.0000000  0.0000000  3
  19496  19497  19500  19504     1  0.0000000  0.6508444  3
  19496  19497  19509  19512     1  0.0000000  1.0460000  1
  19496  19497  19509  19512     1  0.0000000  0.6694400  3
  19496  19510  19516  19517     1  0.0000000  1.0460000  1
  19496  19510  19516  19517     1  0.0000000  0.6694400  3
  19496  19518  19502  19505     1  0.0000000  1.6038667  3
  19497  19496  19510  19514     1  0.0000000  0.6508444  3
  19497  19496  19510  19515     1  0.0000000  0.6508444  3
  19497  19500  19501  19503     1  0.0000000  0.6508444  3
  19497  19500  19508  19511     1  0.0000000  1.0460000  1
  19497  19500  19508  19511     1  0.0000000  0.6694400  3
  19498  19496  19497  19500     1  0.0000000  0.6508444  3
  19498  19496  19497  19509     1  0.0000000  1.0460000  1
  19498  19496  19497  19509     1  0.0000000  0.0000000  3
  19498  19496  19497  19499     1  0.0000000  0.6508444  3
  19498  19496  19510  19516     1  0.0000000  1.0460000  1
  19498  19496  19510  19516     1  0.0000000  0.0000000  3
  19498  19496  19510  19514     1  0.0000000  0.6508444  3
  19498  19496  19510  19515     1  0.0000000  0.6508444  3
  19498  19496  19518  19502     1  0.0000000  1.6038667  3
  19499  19497  19496  19510     1  0.0000000  0.6508444  3
  19499  19497  19496  19518     1  0.0000000  1.0460000  1
  19499  19497  19496  19518     1  0.0000000  0.0000000  3
  19499  19497  19500  19501     1  0.0000000  0.6508444  3
  19499  19497  19500  19508     1  0.0000000  1.0460000  1
  19499  19497  19500  19508     1  0.0000000  0.0000000  3
  19499  19497  19500  19504     1  0.0000000  0.6508444  3
  19499  19497  19509  19512     1  0.0000000  0.6973333  3
  19500  19497  19509  19512     1  0.0000000  1.0460000  1
  19500  19497  19509  19512     1  0.0000000  0.6694400  3
  19500  19501  19502  19505     1  0.0000000  0.6508444  3
  19500  19501  19507  19513     1  0.0000000  1.0460000  1
  19500  19501  19507  19513     1  0.0000000  0.6694400  3
  19501  19500  19508  19511     1  0.0000000  1.0460000  1
  19501  19500  19508  19511     1  0.0000000  0.6694400  3
  19502  19501  19500  19504     1  0.0000000  0.6508444  3
  19502  19501  19507  19513     1  0.0000000  1.0460000  1
  19502  19501  19507  19513     1  0.0000000  0.6694400  3
  19503  19501  19500  19508     1  0.0000000  1.0460000  1
  19503  19501  19500  19508     1  0.0000000  0.0000000  3
  19503  19501  19500  19504     1  0.0000000  0.6508444  3
  19503  19501  19502  19506     1  0.0000000  1.0460000  1
  19503  19501  19502  19506     1  0.0000000  0.0000000  3
  19503  19501  19502  19518     1  0.0000000  1.0460000  1
  19503  19501  19502  19518     1  0.0000000  0.0000000  3
  19503  19501  19502  19505     1  0.0000000  0.6508444  3
  19503  19501  19507  19513     1  0.0000000  0.6973333  3
  19504  19500  19497  19509     1  0.0000000  1.0460000  1
  19504  19500  19497  19509     1  0.0000000  0.0000000  3
  19504  19500  19501  19507     1  0.0000000  1.0460000  1
  19504  19500  19501  19507     1  0.0000000  0.0000000  3
  19504  19500  19508  19511     1  0.0000000  0.6973333  3
  19505  19502  19501  19507     1  0.0000000  0.6508444  3
  19514  19510  19496  19518     1  0.0000000  1.0460000  1
  19514  19510  19496  19518     1  0.0000000  0.0000000  3
  19514  19510  19516  19517     1  0.0000000  0.6973333  3
  19515  19510  19496  19518     1  0.0000000  1.0460000  1
  19515  19510  19496  19518     1  0.0000000  0.0000000  3
  19515  19510  19516  19517     1  0.0000000  0.6973333  3
  19519  19520  19523  19527     1  0.0000000  0.6508444  3
  19519  19520  19532  19535     1  0.0000000  1.0460000  1
  19519  19520  19532  19535     1  0.0000000  0.6694400  3
  19519  19533  19539  19540     1  0.0000000  1.0460000  1
  19519  19533  19539  19540     1  0.0000000  0.6694400  3
  19519  19541  19525  19528     1  0.0000000  1.6038667  3
  19520  19523  19524  19526     1  0.0000000  0.6508444  3
  19520  19523  19531  19534     1  0.0000000  1.0460000  1
  19520  19523  19531  19534     1  0.0000000  0.6694400  3
  19520  19519  19533  19537     1  0.0000000  0.6508444  3
  19520  19519  19533  19538     1  0.0000000  0.6508444  3
  19521  19519  19520  19523     1  0.0000000  0.6508444  3
  19521  19519  19520  19532     1  0.0000000  1.0460000  1
  19521  19519  19520  19532     1  0.0000000  0.0000000  3
  19521  19519  19520  19522     1  0.0000000  0.6508444  3
  19521  19519  19533  19539     1  0.0000000  1.0460000  1
  19521  19519  19533  19539     1  0.0000000  0.0000000  3
  19521  19519  19533  19537     1  0.0000000  0.6508444  3
  19521  19519  19533  19538     1  0.0000000  0.6508444  3
  19521  19519  19541  19525     1  0.0000000  1.6038667  3
  19522  19520  19523  19524     1  0.0000000  0.6508444  3
  19522  19520  19523  19531     1  0.0000000  1.0460000  1
  19522  19520  19523  19531     1  0.0000000  0.0000000  3
  19522  19520  19523  19527     1  0.0000000  0.6508444  3
  19522  19520  19532  19535     1  0.0000000  0.6973333  3
  19522  19520  19519  19533     1  0.0000000  0.6508444  3
  19522  19520  19519  19541     1  0.0000000  1.0460000  1
  19522  19520  19519  19541     1  0.0000000  0.0000000  3
  19523  19524  19525  19528     1  0.0000000  0.6508444  3
  19523  19524  19530  19536     1  0.0000000  1.0460000  1
  19523  19524  19530  19536     1  0.0000000  0.6694400  3
  19523  19520  19532  19535     1  0.0000000  1.0460000  1
  19523  19520  19532  19535     1  0.0000000  0.6694400  3
  19524  19523  19531  19534     1  0.0000000  1.0460000  1
  19524  19523  19531  19534     1  0.0000000  0.6694400  3
  19525  19524  19530  19536     1  0.0000000  1.0460000  1
  19525  19524  19530  19536     1  0.0000000  0.6694400  3
  19525  19524  19523  19527     1  0.0000000  0.6508444  3
  19526  19524  19525  19529     1  0.0000000  1.0460000  1
  19526  19524  19525  19529     1  0.0000000  0.0000000  3
  19526  19524  19525  19541     1  0.0000000  1.0460000  1
  19526  19524  19525  19541     1  0.0000000  0.0000000  3
  19526  19524  19525  19528     1  0.0000000  0.6508444  3
  19526  19524  19530  19536     1  0.0000000  0.6973333  3
  19526  19524  19523  19531     1  0.0000000  1.0460000  1
  19526  19524  19523  19531     1  0.0000000  0.0000000  3
  19526  19524  19523  19527     1  0.0000000  0.6508444  3
  19527  19523  19524  19530     1  0.0000000  1.0460000  1
  19527  19523  19524  19530     1  0.0000000  0.0000000  3
  19527  19523  19531  19534     1  0.0000000  0.6973333  3
  19527  19523  19520  19532     1  0.0000000  1.0460000  1
  19527  19523  19520  19532     1  0.0000000  0.0000000  3
  19528  19525  19524  19530     1  0.0000000  0.6508444  3
  19537  19533  19539  19540     1  0.0000000  0.6973333  3
  19537  19533  19519  19541     1  0.0000000  1.0460000  1
  19537  19533  19519  19541     1  0.0000000  0.0000000  3
  19538  19533  19539  19540     1  0.0000000  0.6973333  3
  19538  19533  19519  19541     1  0.0000000  1.0460000  1
  19538  19533  19519  19541     1  0.0000000  0.0000000  3
  19542  19543  19546  19550     1  0.0000000  0.6508444  3
  19542  19543  19555  19558     1  0.0000000  1.0460000  1
  19542  19543  19555  19558     1  0.0000000  0.6694400  3
  19542  19556  19562  19563     1  0.0000000  1.0460000  1
  19542  19556  19562  19563     1  0.0000000  0.6694400  3
  19542  19564  19548  19551     1  0.0000000  1.6038667  3
  19543  19542  19556  19560     1  0.0000000  0.6508444  3
  19543  19542  19556  19561     1  0.0000000  0.6508444  3
  19543  19546  19547  19549     1  0.0000000  0.6508444  3
  19543  19546  19554  19557     1  0.0000000  1.0460000  1
  19543  19546  19554  19557     1  0.0000000  0.6694400  3
  19544  19542  19543  19546     1  0.0000000  0.6508444  3
  19544  19542  19543  19555     1  0.0000000  1.0460000  1
  19544  19542  19543  19555     1  0.0000000  0.0000000  3
  19544  19542  19543  19545     1  0.0000000  0.6508444  3
  19544  19542  19556  19562     1  0.0000000  1.0460000  1
  19544  19542  19556  19562     1  0.0000000  0.0000000  3
  19544  19542  19556  19560     1  0.0000000  0.6508444  3
  19544  19542  19556  19561     1  0.0000000  0.6508444  3
  19544  19542  19564  19548     1  0.0000000  1.6038667  3
  19545  19543  19542  19556     1  0.0000000  0.6508444  3
  19545  19543  19542  19564     1  0.0000000  1.0460000  1
  19545  19543  19542  19564     1  0.0000000  0.0000000  3
  19545  19543  19546  19547     1  0.0000000  0.6508444  3
  19545  19543  19546  19554     1  0.0000000  1.0460000  1
  19545  19543  19546  19554     1  0.0000000  0.0000000  3
  19545  19543  19546  19550     1  0.0000000  0.6508444  3
  19545  19543  19555  19558     1  0.0000000  0.6973333  3
  19546  19543  19555  19558     1  0.0000000  1.0460000  1
  19546  19543  19555  19558     1  0.0000000  0.6694400  3
  19546  19547  19548  19551     1  0.0000000  0.6508444  3
  19546  19547  19553  19559     1  0.0000000  1.0460000  1
  19546  19547  19553  19559     1  0.0000000  0.6694400  3
  19547  19546  19554  19557     1  0.0000000  1.0460000  1
  19547  19546  19554  19557     1  0.0000000  0.6694400  3
  19548  19547  19546  19550     1  0.0000000  0.6508444  3
  19548  19547  19553  19559     1  0.0000000  1.0460000  1
  19548  19547  19553  19559     1  0.0000000  0.6694400  3
  19549  19547  19546  19554     1  0.0000000  1.0460000  1
  19549  19547  19546  19554     1  0.0000000  0.0000000  3
  19549  19547  19546  19550     1  0.0000000  0.6508444  3
  19549  19547  19548  19552     1  0.0000000  1.0460000  1
  19549  19547  19548  19552     1  0.0000000  0.0000000  3
  19549  19547  19548  19564     1  0.0000000  1.0460000  1
  19549  19547  19548  19564     1  0.0000000  0.0000000  3
  19549  19547  19548  19551     1  0.0000000  0.6508444  3
  19549  19547  19553  19559     1  0.0000000  0.6973333  3
  19550  19546  19543  19555     1  0.0000000  1.0460000  1
  19550  19546  19543  19555     1  0.0000000  0.0000000  3
  19550  19546  19547  19553     1  0.0000000  1.0460000  1
  19550  19546  19547  19553     1  0.0000000  0.0000000  3
  19550  19546  19554  19557     1  0.0000000  0.6973333  3
  19551  19548  19547  19553     1  0.0000000  0.6508444  3
  19560  19556  19542  19564     1  0.0000000  1.0460000  1
  19560  19556  19542  19564     1  0.0000000  0.0000000  3
  19560  19556  19562  19563     1  0.0000000  0.6973333  3
  19561  19556  19542  19564     1  0.0000000  1.0460000  1
  19561  19556  19542  19564     1  0.0000000  0.0000000  3
  19561  19556  19562  19563     1  0.0000000  0.6973333  3
  19565  19566  19569  19573     1  0.0000000  0.6508444  3
  19565  19566  19578  19581     1  0.0000000  1.0460000  1
  19565  19566  19578  19581     1  0.0000000  0.6694400  3
  19565  19579  19585  19586     1  0.0000000  1.0460000  1
  19565  19579  19585  19586     1  0.0000000  0.6694400  3
  19565  19587  19571  19574     1  0.0000000  1.6038667  3
  19566  19569  19570  19572     1  0.0000000  0.6508444  3
  19566  19569  19577  19580     1  0.0000000  1.0460000  1
  19566  19569  19577  19580     1  0.0000000  0.6694400  3
  19566  19565  19579  19583     1  0.0000000  0.6508444  3
  19566  19565  19579  19584     1  0.0000000  0.6508444  3
  19567  19565  19566  19569     1  0.0000000  0.6508444  3
  19567  19565  19566  19578     1  0.0000000  1.0460000  1
  19567  19565  19566  19578     1  0.0000000  0.0000000  3
  19567  19565  19566  19568     1  0.0000000  0.6508444  3
  19567  19565  19579  19585     1  0.0000000  1.0460000  1
  19567  19565  19579  19585     1  0.0000000  0.0000000  3
  19567  19565  19579  19583     1  0.0000000  0.6508444  3
  19567  19565  19579  19584     1  0.0000000  0.6508444  3
  19567  19565  19587  19571     1  0.0000000  1.6038667  3
  19568  19566  19569  19570     1  0.0000000  0.6508444  3
  19568  19566  19569  19577     1  0.0000000  1.0460000  1
  19568  19566  19569  19577     1  0.0000000  0.0000000  3
  19568  19566  19569  19573     1  0.0000000  0.6508444  3
  19568  19566  19578  19581     1  0.0000000  0.6973333  3
  19568  19566  19565  19579     1  0.0000000  0.6508444  3
  19568  19566  19565  19587     1  0.0000000  1.0460000  1
  19568  19566  19565  19587     1  0.0000000  0.0000000  3
  19569  19570  19571  19574     1  0.0000000  0.6508444  3
  19569  19570  19576  19582     1  0.0000000  1.0460000  1
  19569  19570  19576  19582     1  0.0000000  0.6694400  3
  19569  19566  19578  19581     1  0.0000000  1.0460000  1
  19569  19566  19578  19581     1  0.0000000  0.6694400  3
  19570  19569  19577  19580     1  0.0000000  1.0460000  1
  19570  19569  19577  19580     1  0.0000000  0.6694400  3
  19571  19570  19576  19582     1  0.0000000  1.0460000  1
  19571  19570  19576  19582     1  0.0000000  0.6694400  3
  19571  19570  19569  19573     1  0.0000000  0.6508444  3
  19572  19570  19571  19575     1  0.0000000  1.0460000  1
  19572  19570  19571  19575     1  0.0000000  0.0000000  3
  19572  19570  19571  19587     1  0.0000000  1.0460000  1
  19572  19570  19571  19587     1  0.0000000  0.0000000  3
  19572  19570  19571  19574     1  0.0000000  0.6508444  3
  19572  19570  19576  19582     1  0.0000000  0.6973333  3
  19572  19570  19569  19577     1  0.0000000  1.0460000  1
  19572  19570  19569  19577     1  0.0000000  0.0000000  3
  19572  19570  19569  19573     1  0.0000000  0.6508444  3
  19573  19569  19570  19576     1  0.0000000  1.0460000  1
  19573  19569  19570  19576     1  0.0000000  0.0000000  3
  19573  19569  19577  19580     1  0.0000000  0.6973333  3
  19573  19569  19566  19578     1  0.0000000  1.0460000  1
  19573  19569  19566  19578     1  0.0000000  0.0000000  3
  19574  19571  19570  19576     1  0.0000000  0.6508444  3
  19583  19579  19585  19586     1  0.0000000  0.6973333  3
  19583  19579  19565  19587     1  0.0000000  1.0460000  1
  19583  19579  19565  19587     1  0.0000000  0.0000000  3
  19584  19579  19585  19586     1  0.0000000  0.6973333  3
  19584  19579  19565  19587     1  0.0000000  1.0460000  1
  19584  19579  19565  19587     1  0.0000000  0.0000000  3
  19588  19589  19592  19596     1  0.0000000  0.6508444  3
  19588  19589  19601  19604     1  0.0000000  1.0460000  1
  19588  19589  19601  19604     1  0.0000000  0.6694400  3
  19588  19602  19608  19609     1  0.0000000  1.0460000  1
  19588  19602  19608  19609     1  0.0000000  0.6694400  3
  19588  19610  19594  19597     1  0.0000000  1.6038667  3
  19589  19588  19602  19606     1  0.0000000  0.6508444  3
  19589  19588  19602  19607     1  0.0000000  0.6508444  3
  19589  19592  19593  19595     1  0.0000000  0.6508444  3
  19589  19592  19600  19603     1  0.0000000  1.0460000  1
  19589  19592  19600  19603     1  0.0000000  0.6694400  3
  19590  19588  19589  19592     1  0.0000000  0.6508444  3
  19590  19588  19589  19601     1  0.0000000  1.0460000  1
  19590  19588  19589  19601     1  0.0000000  0.0000000  3
  19590  19588  19589  19591     1  0.0000000  0.6508444  3
  19590  19588  19602  19608     1  0.0000000  1.0460000  1
  19590  19588  19602  19608     1  0.0000000  0.0000000  3
  19590  19588  19602  19606     1  0.0000000  0.6508444  3
  19590  19588  19602  19607     1  0.0000000  0.6508444  3
  19590  19588  19610  19594     1  0.0000000  1.6038667  3
  19591  19589  19588  19602     1  0.0000000  0.6508444  3
  19591  19589  19588  19610     1  0.0000000  1.0460000  1
  19591  19589  19588  19610     1  0.0000000  0.0000000  3
  19591  19589  19592  19593     1  0.0000000  0.6508444  3
  19591  19589  19592  19600     1  0.0000000  1.0460000  1
  19591  19589  19592  19600     1  0.0000000  0.0000000  3
  19591  19589  19592  19596     1  0.0000000  0.6508444  3
  19591  19589  19601  19604     1  0.0000000  0.6973333  3
  19592  19589  19601  19604     1  0.0000000  1.0460000  1
  19592  19589  19601  19604     1  0.0000000  0.6694400  3
  19592  19593  19594  19597     1  0.0000000  0.6508444  3
  19592  19593  19599  19605     1  0.0000000  1.0460000  1
  19592  19593  19599  19605     1  0.0000000  0.6694400  3
  19593  19592  19600  19603     1  0.0000000  1.0460000  1
  19593  19592  19600  19603     1  0.0000000  0.6694400  3
  19594  19593  19592  19596     1  0.0000000  0.6508444  3
  19594  19593  19599  19605     1  0.0000000  1.0460000  1
  19594  19593  19599  19605     1  0.0000000  0.6694400  3
  19595  19593  19592  19600     1  0.0000000  1.0460000  1
  19595  19593  19592  19600     1  0.0000000  0.0000000  3
  19595  19593  19592  19596     1  0.0000000  0.6508444  3
  19595  19593  19594  19598     1  0.0000000  1.0460000  1
  19595  19593  19594  19598     1  0.0000000  0.0000000  3
  19595  19593  19594  19610     1  0.0000000  1.0460000  1
  19595  19593  19594  19610     1  0.0000000  0.0000000  3
  19595  19593  19594  19597     1  0.0000000  0.6508444  3
  19595  19593  19599  19605     1  0.0000000  0.6973333  3
  19596  19592  19589  19601     1  0.0000000  1.0460000  1
  19596  19592  19589  19601     1  0.0000000  0.0000000  3
  19596  19592  19593  19599     1  0.0000000  1.0460000  1
  19596  19592  19593  19599     1  0.0000000  0.0000000  3
  19596  19592  19600  19603     1  0.0000000  0.6973333  3
  19597  19594  19593  19599     1  0.0000000  0.6508444  3
  19606  19602  19588  19610     1  0.0000000  1.0460000  1
  19606  19602  19588  19610     1  0.0000000  0.0000000  3
  19606  19602  19608  19609     1  0.0000000  0.6973333  3
  19607  19602  19588  19610     1  0.0000000  1.0460000  1
  19607  19602  19588  19610     1  0.0000000  0.0000000  3
  19607  19602  19608  19609     1  0.0000000  0.6973333  3
  19611  19612  19615  19619     1  0.0000000  0.6508444  3
  19611  19612  19624  19627     1  0.0000000  1.0460000  1
  19611  19612  19624  19627     1  0.0000000  0.6694400  3
  19611  19625  19631  19632     1  0.0000000  1.0460000  1
  19611  19625  19631  19632     1  0.0000000  0.6694400  3
  19611  19633  19617  19620     1  0.0000000  1.6038667  3
  19612  19615  19616  19618     1  0.0000000  0.6508444  3
  19612  19615  19623  19626     1  0.0000000  1.0460000  1
  19612  19615  19623  19626     1  0.0000000  0.6694400  3
  19612  19611  19625  19629     1  0.0000000  0.6508444  3
  19612  19611  19625  19630     1  0.0000000  0.6508444  3
  19613  19611  19612  19615     1  0.0000000  0.6508444  3
  19613  19611  19612  19624     1  0.0000000  1.0460000  1
  19613  19611  19612  19624     1  0.0000000  0.0000000  3
  19613  19611  19612  19614     1  0.0000000  0.6508444  3
  19613  19611  19625  19631     1  0.0000000  1.0460000  1
  19613  19611  19625  19631     1  0.0000000  0.0000000  3
  19613  19611  19625  19629     1  0.0000000  0.6508444  3
  19613  19611  19625  19630     1  0.0000000  0.6508444  3
  19613  19611  19633  19617     1  0.0000000  1.6038667  3
  19614  19612  19615  19616     1  0.0000000  0.6508444  3
  19614  19612  19615  19623     1  0.0000000  1.0460000  1
  19614  19612  19615  19623     1  0.0000000  0.0000000  3
  19614  19612  19615  19619     1  0.0000000  0.6508444  3
  19614  19612  19624  19627     1  0.0000000  0.6973333  3
  19614  19612  19611  19625     1  0.0000000  0.6508444  3
  19614  19612  19611  19633     1  0.0000000  1.0460000  1
  19614  19612  19611  19633     1  0.0000000  0.0000000  3
  19615  19616  19617  19620     1  0.0000000  0.6508444  3
  19615  19616  19622  19628     1  0.0000000  1.0460000  1
  19615  19616  19622  19628     1  0.0000000  0.6694400  3
  19615  19612  19624  19627     1  0.0000000  1.0460000  1
  19615  19612  19624  19627     1  0.0000000  0.6694400  3
  19616  19615  19623  19626     1  0.0000000  1.0460000  1
  19616  19615  19623  19626     1  0.0000000  0.6694400  3
  19617  19616  19622  19628     1  0.0000000  1.0460000  1
  19617  19616  19622  19628     1  0.0000000  0.6694400  3
  19617  19616  19615  19619     1  0.0000000  0.6508444  3
  19618  19616  19617  19621     1  0.0000000  1.0460000  1
  19618  19616  19617  19621     1  0.0000000  0.0000000  3
  19618  19616  19617  19633     1  0.0000000  1.0460000  1
  19618  19616  19617  19633     1  0.0000000  0.0000000  3
  19618  19616  19617  19620     1  0.0000000  0.6508444  3
  19618  19616  19622  19628     1  0.0000000  0.6973333  3
  19618  19616  19615  19623     1  0.0000000  1.0460000  1
  19618  19616  19615  19623     1  0.0000000  0.0000000  3
  19618  19616  19615  19619     1  0.0000000  0.6508444  3
  19619  19615  19616  19622     1  0.0000000  1.0460000  1
  19619  19615  19616  19622     1  0.0000000  0.0000000  3
  19619  19615  19623  19626     1  0.0000000  0.6973333  3
  19619  19615  19612  19624     1  0.0000000  1.0460000  1
  19619  19615  19612  19624     1  0.0000000  0.0000000  3
  19620  19617  19616  19622     1  0.0000000  0.6508444  3
  19629  19625  19631  19632     1  0.0000000  0.6973333  3
  19629  19625  19611  19633     1  0.0000000  1.0460000  1
  19629  19625  19611  19633     1  0.0000000  0.0000000  3
  19630  19625  19631  19632     1  0.0000000  0.6973333  3
  19630  19625  19611  19633     1  0.0000000  1.0460000  1
  19630  19625  19611  19633     1  0.0000000  0.0000000  3
  19634  19635  19638  19642     1  0.0000000  0.6508444  3
  19634  19635  19647  19650     1  0.0000000  1.0460000  1
  19634  19635  19647  19650     1  0.0000000  0.6694400  3
  19634  19648  19654  19655     1  0.0000000  1.0460000  1
  19634  19648  19654  19655     1  0.0000000  0.6694400  3
  19634  19656  19640  19643     1  0.0000000  1.6038667  3
  19635  19634  19648  19652     1  0.0000000  0.6508444  3
  19635  19634  19648  19653     1  0.0000000  0.6508444  3
  19635  19638  19639  19641     1  0.0000000  0.6508444  3
  19635  19638  19646  19649     1  0.0000000  1.0460000  1
  19635  19638  19646  19649     1  0.0000000  0.6694400  3
  19636  19634  19635  19638     1  0.0000000  0.6508444  3
  19636  19634  19635  19647     1  0.0000000  1.0460000  1
  19636  19634  19635  19647     1  0.0000000  0.0000000  3
  19636  19634  19635  19637     1  0.0000000  0.6508444  3
  19636  19634  19648  19654     1  0.0000000  1.0460000  1
  19636  19634  19648  19654     1  0.0000000  0.0000000  3
  19636  19634  19648  19652     1  0.0000000  0.6508444  3
  19636  19634  19648  19653     1  0.0000000  0.6508444  3
  19636  19634  19656  19640     1  0.0000000  1.6038667  3
  19637  19635  19634  19648     1  0.0000000  0.6508444  3
  19637  19635  19634  19656     1  0.0000000  1.0460000  1
  19637  19635  19634  19656     1  0.0000000  0.0000000  3
  19637  19635  19638  19639     1  0.0000000  0.6508444  3
  19637  19635  19638  19646     1  0.0000000  1.0460000  1
  19637  19635  19638  19646     1  0.0000000  0.0000000  3
  19637  19635  19638  19642     1  0.0000000  0.6508444  3
  19637  19635  19647  19650     1  0.0000000  0.6973333  3
  19638  19635  19647  19650     1  0.0000000  1.0460000  1
  19638  19635  19647  19650     1  0.0000000  0.6694400  3
  19638  19639  19640  19643     1  0.0000000  0.6508444  3
  19638  19639  19645  19651     1  0.0000000  1.0460000  1
  19638  19639  19645  19651     1  0.0000000  0.6694400  3
  19639  19638  19646  19649     1  0.0000000  1.0460000  1
  19639  19638  19646  19649     1  0.0000000  0.6694400  3
  19640  19639  19638  19642     1  0.0000000  0.6508444  3
  19640  19639  19645  19651     1  0.0000000  1.0460000  1
  19640  19639  19645  19651     1  0.0000000  0.6694400  3
  19641  19639  19638  19646     1  0.0000000  1.0460000  1
  19641  19639  19638  19646     1  0.0000000  0.0000000  3
  19641  19639  19638  19642     1  0.0000000  0.6508444  3
  19641  19639  19640  19644     1  0.0000000  1.0460000  1
  19641  19639  19640  19644     1  0.0000000  0.0000000  3
  19641  19639  19640  19656     1  0.0000000  1.0460000  1
  19641  19639  19640  19656     1  0.0000000  0.0000000  3
  19641  19639  19640  19643     1  0.0000000  0.6508444  3
  19641  19639  19645  19651     1  0.0000000  0.6973333  3
  19642  19638  19635  19647     1  0.0000000  1.0460000  1
  19642  19638  19635  19647     1  0.0000000  0.0000000  3
  19642  19638  19639  19645     1  0.0000000  1.0460000  1
  19642  19638  19639  19645     1  0.0000000  0.0000000  3
  19642  19638  19646  19649     1  0.0000000  0.6973333  3
  19643  19640  19639  19645     1  0.0000000  0.6508444  3
  19652  19648  19634  19656     1  0.0000000  1.0460000  1
  19652  19648  19634  19656     1  0.0000000  0.0000000  3
  19652  19648  19654  19655     1  0.0000000  0.6973333  3
  19653  19648  19634  19656     1  0.0000000  1.0460000  1
  19653  19648  19634  19656     1  0.0000000  0.0000000  3
  19653  19648  19654  19655     1  0.0000000  0.6973333  3
  19657  19658  19661  19665     1  0.0000000  0.6508444  3
  19657  19658  19670  19673     1  0.0000000  1.0460000  1
  19657  19658  19670  19673     1  0.0000000  0.6694400  3
  19657  19671  19677  19678     1  0.0000000  1.0460000  1
  19657  19671  19677  19678     1  0.0000000  0.6694400  3
  19657  19679  19663  19666     1  0.0000000  1.6038667  3
  19658  19661  19662  19664     1  0.0000000  0.6508444  3
  19658  19661  19669  19672     1  0.0000000  1.0460000  1
  19658  19661  19669  19672     1  0.0000000  0.6694400  3
  19658  19657  19671  19675     1  0.0000000  0.6508444  3
  19658  19657  19671  19676     1  0.0000000  0.6508444  3
  19659  19657  19658  19661     1  0.0000000  0.6508444  3
  19659  19657  19658  19670     1  0.0000000  1.0460000  1
  19659  19657  19658  19670     1  0.0000000  0.0000000  3
  19659  19657  19658  19660     1  0.0000000  0.6508444  3
  19659  19657  19671  19677     1  0.0000000  1.0460000  1
  19659  19657  19671  19677     1  0.0000000  0.0000000  3
  19659  19657  19671  19675     1  0.0000000  0.6508444  3
  19659  19657  19671  19676     1  0.0000000  0.6508444  3
  19659  19657  19679  19663     1  0.0000000  1.6038667  3
  19660  19658  19661  19662     1  0.0000000  0.6508444  3
  19660  19658  19661  19669     1  0.0000000  1.0460000  1
  19660  19658  19661  19669     1  0.0000000  0.0000000  3
  19660  19658  19661  19665     1  0.0000000  0.6508444  3
  19660  19658  19670  19673     1  0.0000000  0.6973333  3
  19660  19658  19657  19671     1  0.0000000  0.6508444  3
  19660  19658  19657  19679     1  0.0000000  1.0460000  1
  19660  19658  19657  19679     1  0.0000000  0.0000000  3
  19661  19662  19663  19666     1  0.0000000  0.6508444  3
  19661  19662  19668  19674     1  0.0000000  1.0460000  1
  19661  19662  19668  19674     1  0.0000000  0.6694400  3
  19661  19658  19670  19673     1  0.0000000  1.0460000  1
  19661  19658  19670  19673     1  0.0000000  0.6694400  3
  19662  19661  19669  19672     1  0.0000000  1.0460000  1
  19662  19661  19669  19672     1  0.0000000  0.6694400  3
  19663  19662  19668  19674     1  0.0000000  1.0460000  1
  19663  19662  19668  19674     1  0.0000000  0.6694400  3
  19663  19662  19661  19665     1  0.0000000  0.6508444  3
  19664  19662  19663  19667     1  0.0000000  1.0460000  1
  19664  19662  19663  19667     1  0.0000000  0.0000000  3
  19664  19662  19663  19679     1  0.0000000  1.0460000  1
  19664  19662  19663  19679     1  0.0000000  0.0000000  3
  19664  19662  19663  19666     1  0.0000000  0.6508444  3
  19664  19662  19668  19674     1  0.0000000  0.6973333  3
  19664  19662  19661  19669     1  0.0000000  1.0460000  1
  19664  19662  19661  19669     1  0.0000000  0.0000000  3
  19664  19662  19661  19665     1  0.0000000  0.6508444  3
  19665  19661  19662  19668     1  0.0000000  1.0460000  1
  19665  19661  19662  19668     1  0.0000000  0.0000000  3
  19665  19661  19669  19672     1  0.0000000  0.6973333  3
  19665  19661  19658  19670     1  0.0000000  1.0460000  1
  19665  19661  19658  19670     1  0.0000000  0.0000000  3
  19666  19663  19662  19668     1  0.0000000  0.6508444  3
  19675  19671  19677  19678     1  0.0000000  0.6973333  3
  19675  19671  19657  19679     1  0.0000000  1.0460000  1
  19675  19671  19657  19679     1  0.0000000  0.0000000  3
  19676  19671  19677  19678     1  0.0000000  0.6973333  3
  19676  19671  19657  19679     1  0.0000000  1.0460000  1
  19676  19671  19657  19679     1  0.0000000  0.0000000  3
  19680  19681  19684  19688     1  0.0000000  0.6508444  3
  19680  19681  19693  19696     1  0.0000000  1.0460000  1
  19680  19681  19693  19696     1  0.0000000  0.6694400  3
  19680  19694  19700  19701     1  0.0000000  1.0460000  1
  19680  19694  19700  19701     1  0.0000000  0.6694400  3
  19680  19702  19686  19689     1  0.0000000  1.6038667  3
  19681  19680  19694  19698     1  0.0000000  0.6508444  3
  19681  19680  19694  19699     1  0.0000000  0.6508444  3
  19681  19684  19685  19687     1  0.0000000  0.6508444  3
  19681  19684  19692  19695     1  0.0000000  1.0460000  1
  19681  19684  19692  19695     1  0.0000000  0.6694400  3
  19682  19680  19681  19684     1  0.0000000  0.6508444  3
  19682  19680  19681  19693     1  0.0000000  1.0460000  1
  19682  19680  19681  19693     1  0.0000000  0.0000000  3
  19682  19680  19681  19683     1  0.0000000  0.6508444  3
  19682  19680  19694  19700     1  0.0000000  1.0460000  1
  19682  19680  19694  19700     1  0.0000000  0.0000000  3
  19682  19680  19694  19698     1  0.0000000  0.6508444  3
  19682  19680  19694  19699     1  0.0000000  0.6508444  3
  19682  19680  19702  19686     1  0.0000000  1.6038667  3
  19683  19681  19680  19694     1  0.0000000  0.6508444  3
  19683  19681  19680  19702     1  0.0000000  1.0460000  1
  19683  19681  19680  19702     1  0.0000000  0.0000000  3
  19683  19681  19684  19685     1  0.0000000  0.6508444  3
  19683  19681  19684  19692     1  0.0000000  1.0460000  1
  19683  19681  19684  19692     1  0.0000000  0.0000000  3
  19683  19681  19684  19688     1  0.0000000  0.6508444  3
  19683  19681  19693  19696     1  0.0000000  0.6973333  3
  19684  19681  19693  19696     1  0.0000000  1.0460000  1
  19684  19681  19693  19696     1  0.0000000  0.6694400  3
  19684  19685  19686  19689     1  0.0000000  0.6508444  3
  19684  19685  19691  19697     1  0.0000000  1.0460000  1
  19684  19685  19691  19697     1  0.0000000  0.6694400  3
  19685  19684  19692  19695     1  0.0000000  1.0460000  1
  19685  19684  19692  19695     1  0.0000000  0.6694400  3
  19686  19685  19684  19688     1  0.0000000  0.6508444  3
  19686  19685  19691  19697     1  0.0000000  1.0460000  1
  19686  19685  19691  19697     1  0.0000000  0.6694400  3
  19687  19685  19684  19692     1  0.0000000  1.0460000  1
  19687  19685  19684  19692     1  0.0000000  0.0000000  3
  19687  19685  19684  19688     1  0.0000000  0.6508444  3
  19687  19685  19686  19690     1  0.0000000  1.0460000  1
  19687  19685  19686  19690     1  0.0000000  0.0000000  3
  19687  19685  19686  19702     1  0.0000000  1.0460000  1
  19687  19685  19686  19702     1  0.0000000  0.0000000  3
  19687  19685  19686  19689     1  0.0000000  0.6508444  3
  19687  19685  19691  19697     1  0.0000000  0.6973333  3
  19688  19684  19681  19693     1  0.0000000  1.0460000  1
  19688  19684  19681  19693     1  0.0000000  0.0000000  3
  19688  19684  19685  19691     1  0.0000000  1.0460000  1
  19688  19684  19685  19691     1  0.0000000  0.0000000  3
  19688  19684  19692  19695     1  0.0000000  0.6973333  3
  19689  19686  19685  19691     1  0.0000000  0.6508444  3
  19698  19694  19680  19702     1  0.0000000  1.0460000  1
  19698  19694  19680  19702     1  0.0000000  0.0000000  3
  19698  19694  19700  19701     1  0.0000000  0.6973333  3
  19699  19694  19680  19702     1  0.0000000  1.0460000  1
  19699  19694  19680  19702     1  0.0000000  0.0000000  3
  19699  19694  19700  19701     1  0.0000000  0.6973333  3
  19703  19704  19707  19711     1  0.0000000  0.6508444  3
  19703  19704  19716  19719     1  0.0000000  1.0460000  1
  19703  19704  19716  19719     1  0.0000000  0.6694400  3
  19703  19717  19723  19724     1  0.0000000  1.0460000  1
  19703  19717  19723  19724     1  0.0000000  0.6694400  3
  19703  19725  19709  19712     1  0.0000000  1.6038667  3
  19704  19707  19708  19710     1  0.0000000  0.6508444  3
  19704  19707  19715  19718     1  0.0000000  1.0460000  1
  19704  19707  19715  19718     1  0.0000000  0.6694400  3
  19704  19703  19717  19721     1  0.0000000  0.6508444  3
  19704  19703  19717  19722     1  0.0000000  0.6508444  3
  19705  19703  19704  19707     1  0.0000000  0.6508444  3
  19705  19703  19704  19716     1  0.0000000  1.0460000  1
  19705  19703  19704  19716     1  0.0000000  0.0000000  3
  19705  19703  19704  19706     1  0.0000000  0.6508444  3
  19705  19703  19717  19723     1  0.0000000  1.0460000  1
  19705  19703  19717  19723     1  0.0000000  0.0000000  3
  19705  19703  19717  19721     1  0.0000000  0.6508444  3
  19705  19703  19717  19722     1  0.0000000  0.6508444  3
  19705  19703  19725  19709     1  0.0000000  1.6038667  3
  19706  19704  19707  19708     1  0.0000000  0.6508444  3
  19706  19704  19707  19715     1  0.0000000  1.0460000  1
  19706  19704  19707  19715     1  0.0000000  0.0000000  3
  19706  19704  19707  19711     1  0.0000000  0.6508444  3
  19706  19704  19716  19719     1  0.0000000  0.6973333  3
  19706  19704  19703  19717     1  0.0000000  0.6508444  3
  19706  19704  19703  19725     1  0.0000000  1.0460000  1
  19706  19704  19703  19725     1  0.0000000  0.0000000  3
  19707  19708  19709  19712     1  0.0000000  0.6508444  3
  19707  19708  19714  19720     1  0.0000000  1.0460000  1
  19707  19708  19714  19720     1  0.0000000  0.6694400  3
  19707  19704  19716  19719     1  0.0000000  1.0460000  1
  19707  19704  19716  19719     1  0.0000000  0.6694400  3
  19708  19707  19715  19718     1  0.0000000  1.0460000  1
  19708  19707  19715  19718     1  0.0000000  0.6694400  3
  19709  19708  19714  19720     1  0.0000000  1.0460000  1
  19709  19708  19714  19720     1  0.0000000  0.6694400  3
  19709  19708  19707  19711     1  0.0000000  0.6508444  3
  19710  19708  19709  19713     1  0.0000000  1.0460000  1
  19710  19708  19709  19713     1  0.0000000  0.0000000  3
  19710  19708  19709  19725     1  0.0000000  1.0460000  1
  19710  19708  19709  19725     1  0.0000000  0.0000000  3
  19710  19708  19709  19712     1  0.0000000  0.6508444  3
  19710  19708  19714  19720     1  0.0000000  0.6973333  3
  19710  19708  19707  19715     1  0.0000000  1.0460000  1
  19710  19708  19707  19715     1  0.0000000  0.0000000  3
  19710  19708  19707  19711     1  0.0000000  0.6508444  3
  19711  19707  19708  19714     1  0.0000000  1.0460000  1
  19711  19707  19708  19714     1  0.0000000  0.0000000  3
  19711  19707  19715  19718     1  0.0000000  0.6973333  3
  19711  19707  19704  19716     1  0.0000000  1.0460000  1
  19711  19707  19704  19716     1  0.0000000  0.0000000  3
  19712  19709  19708  19714     1  0.0000000  0.6508444  3
  19721  19717  19723  19724     1  0.0000000  0.6973333  3
  19721  19717  19703  19725     1  0.0000000  1.0460000  1
  19721  19717  19703  19725     1  0.0000000  0.0000000  3
  19722  19717  19723  19724     1  0.0000000  0.6973333  3
  19722  19717  19703  19725     1  0.0000000  1.0460000  1
  19722  19717  19703  19725     1  0.0000000  0.0000000  3
  19726  19727  19730  19734     1  0.0000000  0.6508444  3
  19726  19727  19739  19742     1  0.0000000  1.0460000  1
  19726  19727  19739  19742     1  0.0000000  0.6694400  3
  19726  19740  19746  19747     1  0.0000000  1.0460000  1
  19726  19740  19746  19747     1  0.0000000  0.6694400  3
  19726  19748  19732  19735     1  0.0000000  1.6038667  3
  19727  19726  19740  19744     1  0.0000000  0.6508444  3
  19727  19726  19740  19745     1  0.0000000  0.6508444  3
  19727  19730  19731  19733     1  0.0000000  0.6508444  3
  19727  19730  19738  19741     1  0.0000000  1.0460000  1
  19727  19730  19738  19741     1  0.0000000  0.6694400  3
  19728  19726  19727  19730     1  0.0000000  0.6508444  3
  19728  19726  19727  19739     1  0.0000000  1.0460000  1
  19728  19726  19727  19739     1  0.0000000  0.0000000  3
  19728  19726  19727  19729     1  0.0000000  0.6508444  3
  19728  19726  19740  19746     1  0.0000000  1.0460000  1
  19728  19726  19740  19746     1  0.0000000  0.0000000  3
  19728  19726  19740  19744     1  0.0000000  0.6508444  3
  19728  19726  19740  19745     1  0.0000000  0.6508444  3
  19728  19726  19748  19732     1  0.0000000  1.6038667  3
  19729  19727  19726  19740     1  0.0000000  0.6508444  3
  19729  19727  19726  19748     1  0.0000000  1.0460000  1
  19729  19727  19726  19748     1  0.0000000  0.0000000  3
  19729  19727  19730  19731     1  0.0000000  0.6508444  3
  19729  19727  19730  19738     1  0.0000000  1.0460000  1
  19729  19727  19730  19738     1  0.0000000  0.0000000  3
  19729  19727  19730  19734     1  0.0000000  0.6508444  3
  19729  19727  19739  19742     1  0.0000000  0.6973333  3
  19730  19727  19739  19742     1  0.0000000  1.0460000  1
  19730  19727  19739  19742     1  0.0000000  0.6694400  3
  19730  19731  19732  19735     1  0.0000000  0.6508444  3
  19730  19731  19737  19743     1  0.0000000  1.0460000  1
  19730  19731  19737  19743     1  0.0000000  0.6694400  3
  19731  19730  19738  19741     1  0.0000000  1.0460000  1
  19731  19730  19738  19741     1  0.0000000  0.6694400  3
  19732  19731  19730  19734     1  0.0000000  0.6508444  3
  19732  19731  19737  19743     1  0.0000000  1.0460000  1
  19732  19731  19737  19743     1  0.0000000  0.6694400  3
  19733  19731  19730  19738     1  0.0000000  1.0460000  1
  19733  19731  19730  19738     1  0.0000000  0.0000000  3
  19733  19731  19730  19734     1  0.0000000  0.6508444  3
  19733  19731  19732  19736     1  0.0000000  1.0460000  1
  19733  19731  19732  19736     1  0.0000000  0.0000000  3
  19733  19731  19732  19748     1  0.0000000  1.0460000  1
  19733  19731  19732  19748     1  0.0000000  0.0000000  3
  19733  19731  19732  19735     1  0.0000000  0.6508444  3
  19733  19731  19737  19743     1  0.0000000  0.6973333  3
  19734  19730  19727  19739     1  0.0000000  1.0460000  1
  19734  19730  19727  19739     1  0.0000000  0.0000000  3
  19734  19730  19731  19737     1  0.0000000  1.0460000  1
  19734  19730  19731  19737     1  0.0000000  0.0000000  3
  19734  19730  19738  19741     1  0.0000000  0.6973333  3
  19735  19732  19731  19737     1  0.0000000  0.6508444  3
  19744  19740  19726  19748     1  0.0000000  1.0460000  1
  19744  19740  19726  19748     1  0.0000000  0.0000000  3
  19744  19740  19746  19747     1  0.0000000  0.6973333  3
  19745  19740  19726  19748     1  0.0000000  1.0460000  1
  19745  19740  19726  19748     1  0.0000000  0.0000000  3
  19745  19740  19746  19747     1  0.0000000  0.6973333  3
  19749  19750  19753  19757     1  0.0000000  0.6508444  3
  19749  19750  19762  19765     1  0.0000000  1.0460000  1
  19749  19750  19762  19765     1  0.0000000  0.6694400  3
  19749  19763  19769  19770     1  0.0000000  1.0460000  1
  19749  19763  19769  19770     1  0.0000000  0.6694400  3
  19749  19771  19755  19758     1  0.0000000  1.6038667  3
  19750  19753  19754  19756     1  0.0000000  0.6508444  3
  19750  19753  19761  19764     1  0.0000000  1.0460000  1
  19750  19753  19761  19764     1  0.0000000  0.6694400  3
  19750  19749  19763  19767     1  0.0000000  0.6508444  3
  19750  19749  19763  19768     1  0.0000000  0.6508444  3
  19751  19749  19750  19753     1  0.0000000  0.6508444  3
  19751  19749  19750  19762     1  0.0000000  1.0460000  1
  19751  19749  19750  19762     1  0.0000000  0.0000000  3
  19751  19749  19750  19752     1  0.0000000  0.6508444  3
  19751  19749  19763  19769     1  0.0000000  1.0460000  1
  19751  19749  19763  19769     1  0.0000000  0.0000000  3
  19751  19749  19763  19767     1  0.0000000  0.6508444  3
  19751  19749  19763  19768     1  0.0000000  0.6508444  3
  19751  19749  19771  19755     1  0.0000000  1.6038667  3
  19752  19750  19753  19754     1  0.0000000  0.6508444  3
  19752  19750  19753  19761     1  0.0000000  1.0460000  1
  19752  19750  19753  19761     1  0.0000000  0.0000000  3
  19752  19750  19753  19757     1  0.0000000  0.6508444  3
  19752  19750  19762  19765     1  0.0000000  0.6973333  3
  19752  19750  19749  19763     1  0.0000000  0.6508444  3
  19752  19750  19749  19771     1  0.0000000  1.0460000  1
  19752  19750  19749  19771     1  0.0000000  0.0000000  3
  19753  19754  19755  19758     1  0.0000000  0.6508444  3
  19753  19754  19760  19766     1  0.0000000  1.0460000  1
  19753  19754  19760  19766     1  0.0000000  0.6694400  3
  19753  19750  19762  19765     1  0.0000000  1.0460000  1
  19753  19750  19762  19765     1  0.0000000  0.6694400  3
  19754  19753  19761  19764     1  0.0000000  1.0460000  1
  19754  19753  19761  19764     1  0.0000000  0.6694400  3
  19755  19754  19760  19766     1  0.0000000  1.0460000  1
  19755  19754  19760  19766     1  0.0000000  0.6694400  3
  19755  19754  19753  19757     1  0.0000000  0.6508444  3
  19756  19754  19755  19759     1  0.0000000  1.0460000  1
  19756  19754  19755  19759     1  0.0000000  0.0000000  3
  19756  19754  19755  19771     1  0.0000000  1.0460000  1
  19756  19754  19755  19771     1  0.0000000  0.0000000  3
  19756  19754  19755  19758     1  0.0000000  0.6508444  3
  19756  19754  19760  19766     1  0.0000000  0.6973333  3
  19756  19754  19753  19761     1  0.0000000  1.0460000  1
  19756  19754  19753  19761     1  0.0000000  0.0000000  3
  19756  19754  19753  19757     1  0.0000000  0.6508444  3
  19757  19753  19754  19760     1  0.0000000  1.0460000  1
  19757  19753  19754  19760     1  0.0000000  0.0000000  3
  19757  19753  19761  19764     1  0.0000000  0.6973333  3
  19757  19753  19750  19762     1  0.0000000  1.0460000  1
  19757  19753  19750  19762     1  0.0000000  0.0000000  3
  19758  19755  19754  19760     1  0.0000000  0.6508444  3
  19767  19763  19769  19770     1  0.0000000  0.6973333  3
  19767  19763  19749  19771     1  0.0000000  1.0460000  1
  19767  19763  19749  19771     1  0.0000000  0.0000000  3
  19768  19763  19769  19770     1  0.0000000  0.6973333  3
  19768  19763  19749  19771     1  0.0000000  1.0460000  1
  19768  19763  19749  19771     1  0.0000000  0.0000000  3
  19772  19773  19776  19780     1  0.0000000  0.6508444  3
  19772  19773  19785  19788     1  0.0000000  1.0460000  1
  19772  19773  19785  19788     1  0.0000000  0.6694400  3
  19772  19786  19792  19793     1  0.0000000  1.0460000  1
  19772  19786  19792  19793     1  0.0000000  0.6694400  3
  19772  19794  19778  19781     1  0.0000000  1.6038667  3
  19773  19772  19786  19790     1  0.0000000  0.6508444  3
  19773  19772  19786  19791     1  0.0000000  0.6508444  3
  19773  19776  19777  19779     1  0.0000000  0.6508444  3
  19773  19776  19784  19787     1  0.0000000  1.0460000  1
  19773  19776  19784  19787     1  0.0000000  0.6694400  3
  19774  19772  19773  19776     1  0.0000000  0.6508444  3
  19774  19772  19773  19785     1  0.0000000  1.0460000  1
  19774  19772  19773  19785     1  0.0000000  0.0000000  3
  19774  19772  19773  19775     1  0.0000000  0.6508444  3
  19774  19772  19786  19792     1  0.0000000  1.0460000  1
  19774  19772  19786  19792     1  0.0000000  0.0000000  3
  19774  19772  19786  19790     1  0.0000000  0.6508444  3
  19774  19772  19786  19791     1  0.0000000  0.6508444  3
  19774  19772  19794  19778     1  0.0000000  1.6038667  3
  19775  19773  19772  19786     1  0.0000000  0.6508444  3
  19775  19773  19772  19794     1  0.0000000  1.0460000  1
  19775  19773  19772  19794     1  0.0000000  0.0000000  3
  19775  19773  19776  19777     1  0.0000000  0.6508444  3
  19775  19773  19776  19784     1  0.0000000  1.0460000  1
  19775  19773  19776  19784     1  0.0000000  0.0000000  3
  19775  19773  19776  19780     1  0.0000000  0.6508444  3
  19775  19773  19785  19788     1  0.0000000  0.6973333  3
  19776  19773  19785  19788     1  0.0000000  1.0460000  1
  19776  19773  19785  19788     1  0.0000000  0.6694400  3
  19776  19777  19778  19781     1  0.0000000  0.6508444  3
  19776  19777  19783  19789     1  0.0000000  1.0460000  1
  19776  19777  19783  19789     1  0.0000000  0.6694400  3
  19777  19776  19784  19787     1  0.0000000  1.0460000  1
  19777  19776  19784  19787     1  0.0000000  0.6694400  3
  19778  19777  19776  19780     1  0.0000000  0.6508444  3
  19778  19777  19783  19789     1  0.0000000  1.0460000  1
  19778  19777  19783  19789     1  0.0000000  0.6694400  3
  19779  19777  19776  19784     1  0.0000000  1.0460000  1
  19779  19777  19776  19784     1  0.0000000  0.0000000  3
  19779  19777  19776  19780     1  0.0000000  0.6508444  3
  19779  19777  19778  19782     1  0.0000000  1.0460000  1
  19779  19777  19778  19782     1  0.0000000  0.0000000  3
  19779  19777  19778  19794     1  0.0000000  1.0460000  1
  19779  19777  19778  19794     1  0.0000000  0.0000000  3
  19779  19777  19778  19781     1  0.0000000  0.6508444  3
  19779  19777  19783  19789     1  0.0000000  0.6973333  3
  19780  19776  19773  19785     1  0.0000000  1.0460000  1
  19780  19776  19773  19785     1  0.0000000  0.0000000  3
  19780  19776  19777  19783     1  0.0000000  1.0460000  1
  19780  19776  19777  19783     1  0.0000000  0.0000000  3
  19780  19776  19784  19787     1  0.0000000  0.6973333  3
  19781  19778  19777  19783     1  0.0000000  0.6508444  3
  19790  19786  19772  19794     1  0.0000000  1.0460000  1
  19790  19786  19772  19794     1  0.0000000  0.0000000  3
  19790  19786  19792  19793     1  0.0000000  0.6973333  3
  19791  19786  19772  19794     1  0.0000000  1.0460000  1
  19791  19786  19772  19794     1  0.0000000  0.0000000  3
  19791  19786  19792  19793     1  0.0000000  0.6973333  3
  19795  19796  19799  19803     1  0.0000000  0.6508444  3
  19795  19796  19808  19811     1  0.0000000  1.0460000  1
  19795  19796  19808  19811     1  0.0000000  0.6694400  3
  19795  19809  19815  19816     1  0.0000000  1.0460000  1
  19795  19809  19815  19816     1  0.0000000  0.6694400  3
  19795  19817  19801  19804     1  0.0000000  1.6038667  3
  19796  19799  19800  19802     1  0.0000000  0.6508444  3
  19796  19799  19807  19810     1  0.0000000  1.0460000  1
  19796  19799  19807  19810     1  0.0000000  0.6694400  3
  19796  19795  19809  19813     1  0.0000000  0.6508444  3
  19796  19795  19809  19814     1  0.0000000  0.6508444  3
  19797  19795  19796  19799     1  0.0000000  0.6508444  3
  19797  19795  19796  19808     1  0.0000000  1.0460000  1
  19797  19795  19796  19808     1  0.0000000  0.0000000  3
  19797  19795  19796  19798     1  0.0000000  0.6508444  3
  19797  19795  19809  19815     1  0.0000000  1.0460000  1
  19797  19795  19809  19815     1  0.0000000  0.0000000  3
  19797  19795  19809  19813     1  0.0000000  0.6508444  3
  19797  19795  19809  19814     1  0.0000000  0.6508444  3
  19797  19795  19817  19801     1  0.0000000  1.6038667  3
  19798  19796  19799  19800     1  0.0000000  0.6508444  3
  19798  19796  19799  19807     1  0.0000000  1.0460000  1
  19798  19796  19799  19807     1  0.0000000  0.0000000  3
  19798  19796  19799  19803     1  0.0000000  0.6508444  3
  19798  19796  19808  19811     1  0.0000000  0.6973333  3
  19798  19796  19795  19809     1  0.0000000  0.6508444  3
  19798  19796  19795  19817     1  0.0000000  1.0460000  1
  19798  19796  19795  19817     1  0.0000000  0.0000000  3
  19799  19800  19801  19804     1  0.0000000  0.6508444  3
  19799  19800  19806  19812     1  0.0000000  1.0460000  1
  19799  19800  19806  19812     1  0.0000000  0.6694400  3
  19799  19796  19808  19811     1  0.0000000  1.0460000  1
  19799  19796  19808  19811     1  0.0000000  0.6694400  3
  19800  19799  19807  19810     1  0.0000000  1.0460000  1
  19800  19799  19807  19810     1  0.0000000  0.6694400  3
  19801  19800  19806  19812     1  0.0000000  1.0460000  1
  19801  19800  19806  19812     1  0.0000000  0.6694400  3
  19801  19800  19799  19803     1  0.0000000  0.6508444  3
  19802  19800  19801  19805     1  0.0000000  1.0460000  1
  19802  19800  19801  19805     1  0.0000000  0.0000000  3
  19802  19800  19801  19817     1  0.0000000  1.0460000  1
  19802  19800  19801  19817     1  0.0000000  0.0000000  3
  19802  19800  19801  19804     1  0.0000000  0.6508444  3
  19802  19800  19806  19812     1  0.0000000  0.6973333  3
  19802  19800  19799  19807     1  0.0000000  1.0460000  1
  19802  19800  19799  19807     1  0.0000000  0.0000000  3
  19802  19800  19799  19803     1  0.0000000  0.6508444  3
  19803  19799  19800  19806     1  0.0000000  1.0460000  1
  19803  19799  19800  19806     1  0.0000000  0.0000000  3
  19803  19799  19807  19810     1  0.0000000  0.6973333  3
  19803  19799  19796  19808     1  0.0000000  1.0460000  1
  19803  19799  19796  19808     1  0.0000000  0.0000000  3
  19804  19801  19800  19806     1  0.0000000  0.6508444  3
  19813  19809  19815  19816     1  0.0000000  0.6973333  3
  19813  19809  19795  19817     1  0.0000000  1.0460000  1
  19813  19809  19795  19817     1  0.0000000  0.0000000  3
  19814  19809  19815  19816     1  0.0000000  0.6973333  3
  19814  19809  19795  19817     1  0.0000000  1.0460000  1
  19814  19809  19795  19817     1  0.0000000  0.0000000  3
  19818  19819  19822  19826     1  0.0000000  0.6508444  3
  19818  19819  19831  19834     1  0.0000000  1.0460000  1
  19818  19819  19831  19834     1  0.0000000  0.6694400  3
  19818  19832  19838  19839     1  0.0000000  1.0460000  1
  19818  19832  19838  19839     1  0.0000000  0.6694400  3
  19818  19840  19824  19827     1  0.0000000  1.6038667  3
  19819  19818  19832  19836     1  0.0000000  0.6508444  3
  19819  19818  19832  19837     1  0.0000000  0.6508444  3
  19819  19822  19823  19825     1  0.0000000  0.6508444  3
  19819  19822  19830  19833     1  0.0000000  1.0460000  1
  19819  19822  19830  19833     1  0.0000000  0.6694400  3
  19820  19818  19819  19822     1  0.0000000  0.6508444  3
  19820  19818  19819  19831     1  0.0000000  1.0460000  1
  19820  19818  19819  19831     1  0.0000000  0.0000000  3
  19820  19818  19819  19821     1  0.0000000  0.6508444  3
  19820  19818  19832  19838     1  0.0000000  1.0460000  1
  19820  19818  19832  19838     1  0.0000000  0.0000000  3
  19820  19818  19832  19836     1  0.0000000  0.6508444  3
  19820  19818  19832  19837     1  0.0000000  0.6508444  3
  19820  19818  19840  19824     1  0.0000000  1.6038667  3
  19821  19819  19818  19832     1  0.0000000  0.6508444  3
  19821  19819  19818  19840     1  0.0000000  1.0460000  1
  19821  19819  19818  19840     1  0.0000000  0.0000000  3
  19821  19819  19822  19823     1  0.0000000  0.6508444  3
  19821  19819  19822  19830     1  0.0000000  1.0460000  1
  19821  19819  19822  19830     1  0.0000000  0.0000000  3
  19821  19819  19822  19826     1  0.0000000  0.6508444  3
  19821  19819  19831  19834     1  0.0000000  0.6973333  3
  19822  19819  19831  19834     1  0.0000000  1.0460000  1
  19822  19819  19831  19834     1  0.0000000  0.6694400  3
  19822  19823  19824  19827     1  0.0000000  0.6508444  3
  19822  19823  19829  19835     1  0.0000000  1.0460000  1
  19822  19823  19829  19835     1  0.0000000  0.6694400  3
  19823  19822  19830  19833     1  0.0000000  1.0460000  1
  19823  19822  19830  19833     1  0.0000000  0.6694400  3
  19824  19823  19822  19826     1  0.0000000  0.6508444  3
  19824  19823  19829  19835     1  0.0000000  1.0460000  1
  19824  19823  19829  19835     1  0.0000000  0.6694400  3
  19825  19823  19822  19830     1  0.0000000  1.0460000  1
  19825  19823  19822  19830     1  0.0000000  0.0000000  3
  19825  19823  19822  19826     1  0.0000000  0.6508444  3
  19825  19823  19824  19828     1  0.0000000  1.0460000  1
  19825  19823  19824  19828     1  0.0000000  0.0000000  3
  19825  19823  19824  19840     1  0.0000000  1.0460000  1
  19825  19823  19824  19840     1  0.0000000  0.0000000  3
  19825  19823  19824  19827     1  0.0000000  0.6508444  3
  19825  19823  19829  19835     1  0.0000000  0.6973333  3
  19826  19822  19819  19831     1  0.0000000  1.0460000  1
  19826  19822  19819  19831     1  0.0000000  0.0000000  3
  19826  19822  19823  19829     1  0.0000000  1.0460000  1
  19826  19822  19823  19829     1  0.0000000  0.0000000  3
  19826  19822  19830  19833     1  0.0000000  0.6973333  3
  19827  19824  19823  19829     1  0.0000000  0.6508444  3
  19836  19832  19818  19840     1  0.0000000  1.0460000  1
  19836  19832  19818  19840     1  0.0000000  0.0000000  3
  19836  19832  19838  19839     1  0.0000000  0.6973333  3
  19837  19832  19818  19840     1  0.0000000  1.0460000  1
  19837  19832  19818  19840     1  0.0000000  0.0000000  3
  19837  19832  19838  19839     1  0.0000000  0.6973333  3
  19841  19842  19845  19849     1  0.0000000  0.6508444  3
  19841  19842  19854  19857     1  0.0000000  1.0460000  1
  19841  19842  19854  19857     1  0.0000000  0.6694400  3
  19841  19855  19861  19862     1  0.0000000  1.0460000  1
  19841  19855  19861  19862     1  0.0000000  0.6694400  3
  19841  19863  19847  19850     1  0.0000000  1.6038667  3
  19842  19845  19846  19848     1  0.0000000  0.6508444  3
  19842  19845  19853  19856     1  0.0000000  1.0460000  1
  19842  19845  19853  19856     1  0.0000000  0.6694400  3
  19842  19841  19855  19859     1  0.0000000  0.6508444  3
  19842  19841  19855  19860     1  0.0000000  0.6508444  3
  19843  19841  19842  19845     1  0.0000000  0.6508444  3
  19843  19841  19842  19854     1  0.0000000  1.0460000  1
  19843  19841  19842  19854     1  0.0000000  0.0000000  3
  19843  19841  19842  19844     1  0.0000000  0.6508444  3
  19843  19841  19855  19861     1  0.0000000  1.0460000  1
  19843  19841  19855  19861     1  0.0000000  0.0000000  3
  19843  19841  19855  19859     1  0.0000000  0.6508444  3
  19843  19841  19855  19860     1  0.0000000  0.6508444  3
  19843  19841  19863  19847     1  0.0000000  1.6038667  3
  19844  19842  19845  19846     1  0.0000000  0.6508444  3
  19844  19842  19845  19853     1  0.0000000  1.0460000  1
  19844  19842  19845  19853     1  0.0000000  0.0000000  3
  19844  19842  19845  19849     1  0.0000000  0.6508444  3
  19844  19842  19854  19857     1  0.0000000  0.6973333  3
  19844  19842  19841  19855     1  0.0000000  0.6508444  3
  19844  19842  19841  19863     1  0.0000000  1.0460000  1
  19844  19842  19841  19863     1  0.0000000  0.0000000  3
  19845  19846  19847  19850     1  0.0000000  0.6508444  3
  19845  19846  19852  19858     1  0.0000000  1.0460000  1
  19845  19846  19852  19858     1  0.0000000  0.6694400  3
  19845  19842  19854  19857     1  0.0000000  1.0460000  1
  19845  19842  19854  19857     1  0.0000000  0.6694400  3
  19846  19845  19853  19856     1  0.0000000  1.0460000  1
  19846  19845  19853  19856     1  0.0000000  0.6694400  3
  19847  19846  19852  19858     1  0.0000000  1.0460000  1
  19847  19846  19852  19858     1  0.0000000  0.6694400  3
  19847  19846  19845  19849     1  0.0000000  0.6508444  3
  19848  19846  19847  19851     1  0.0000000  1.0460000  1
  19848  19846  19847  19851     1  0.0000000  0.0000000  3
  19848  19846  19847  19863     1  0.0000000  1.0460000  1
  19848  19846  19847  19863     1  0.0000000  0.0000000  3
  19848  19846  19847  19850     1  0.0000000  0.6508444  3
  19848  19846  19852  19858     1  0.0000000  0.6973333  3
  19848  19846  19845  19853     1  0.0000000  1.0460000  1
  19848  19846  19845  19853     1  0.0000000  0.0000000  3
  19848  19846  19845  19849     1  0.0000000  0.6508444  3
  19849  19845  19846  19852     1  0.0000000  1.0460000  1
  19849  19845  19846  19852     1  0.0000000  0.0000000  3
  19849  19845  19853  19856     1  0.0000000  0.6973333  3
  19849  19845  19842  19854     1  0.0000000  1.0460000  1
  19849  19845  19842  19854     1  0.0000000  0.0000000  3
  19850  19847  19846  19852     1  0.0000000  0.6508444  3
  19859  19855  19861  19862     1  0.0000000  0.6973333  3
  19859  19855  19841  19863     1  0.0000000  1.0460000  1
  19859  19855  19841  19863     1  0.0000000  0.0000000  3
  19860  19855  19861  19862     1  0.0000000  0.6973333  3
  19860  19855  19841  19863     1  0.0000000  1.0460000  1
  19860  19855  19841  19863     1  0.0000000  0.0000000  3
  19864  19865  19868  19872     1  0.0000000  0.6508444  3
  19864  19865  19877  19880     1  0.0000000  1.0460000  1
  19864  19865  19877  19880     1  0.0000000  0.6694400  3
  19864  19878  19884  19885     1  0.0000000  1.0460000  1
  19864  19878  19884  19885     1  0.0000000  0.6694400  3
  19864  19886  19870  19873     1  0.0000000  1.6038667  3
  19865  19864  19878  19882     1  0.0000000  0.6508444  3
  19865  19864  19878  19883     1  0.0000000  0.6508444  3
  19865  19868  19869  19871     1  0.0000000  0.6508444  3
  19865  19868  19876  19879     1  0.0000000  1.0460000  1
  19865  19868  19876  19879     1  0.0000000  0.6694400  3
  19866  19864  19865  19868     1  0.0000000  0.6508444  3
  19866  19864  19865  19877     1  0.0000000  1.0460000  1
  19866  19864  19865  19877     1  0.0000000  0.0000000  3
  19866  19864  19865  19867     1  0.0000000  0.6508444  3
  19866  19864  19878  19884     1  0.0000000  1.0460000  1
  19866  19864  19878  19884     1  0.0000000  0.0000000  3
  19866  19864  19878  19882     1  0.0000000  0.6508444  3
  19866  19864  19878  19883     1  0.0000000  0.6508444  3
  19866  19864  19886  19870     1  0.0000000  1.6038667  3
  19867  19865  19864  19878     1  0.0000000  0.6508444  3
  19867  19865  19864  19886     1  0.0000000  1.0460000  1
  19867  19865  19864  19886     1  0.0000000  0.0000000  3
  19867  19865  19868  19869     1  0.0000000  0.6508444  3
  19867  19865  19868  19876     1  0.0000000  1.0460000  1
  19867  19865  19868  19876     1  0.0000000  0.0000000  3
  19867  19865  19868  19872     1  0.0000000  0.6508444  3
  19867  19865  19877  19880     1  0.0000000  0.6973333  3
  19868  19865  19877  19880     1  0.0000000  1.0460000  1
  19868  19865  19877  19880     1  0.0000000  0.6694400  3
  19868  19869  19870  19873     1  0.0000000  0.6508444  3
  19868  19869  19875  19881     1  0.0000000  1.0460000  1
  19868  19869  19875  19881     1  0.0000000  0.6694400  3
  19869  19868  19876  19879     1  0.0000000  1.0460000  1
  19869  19868  19876  19879     1  0.0000000  0.6694400  3
  19870  19869  19868  19872     1  0.0000000  0.6508444  3
  19870  19869  19875  19881     1  0.0000000  1.0460000  1
  19870  19869  19875  19881     1  0.0000000  0.6694400  3
  19871  19869  19868  19876     1  0.0000000  1.0460000  1
  19871  19869  19868  19876     1  0.0000000  0.0000000  3
  19871  19869  19868  19872     1  0.0000000  0.6508444  3
  19871  19869  19870  19874     1  0.0000000  1.0460000  1
  19871  19869  19870  19874     1  0.0000000  0.0000000  3
  19871  19869  19870  19886     1  0.0000000  1.0460000  1
  19871  19869  19870  19886     1  0.0000000  0.0000000  3
  19871  19869  19870  19873     1  0.0000000  0.6508444  3
  19871  19869  19875  19881     1  0.0000000  0.6973333  3
  19872  19868  19865  19877     1  0.0000000  1.0460000  1
  19872  19868  19865  19877     1  0.0000000  0.0000000  3
  19872  19868  19869  19875     1  0.0000000  1.0460000  1
  19872  19868  19869  19875     1  0.0000000  0.0000000  3
  19872  19868  19876  19879     1  0.0000000  0.6973333  3
  19873  19870  19869  19875     1  0.0000000  0.6508444  3
  19882  19878  19864  19886     1  0.0000000  1.0460000  1
  19882  19878  19864  19886     1  0.0000000  0.0000000  3
  19882  19878  19884  19885     1  0.0000000  0.6973333  3
  19883  19878  19864  19886     1  0.0000000  1.0460000  1
  19883  19878  19864  19886     1  0.0000000  0.0000000  3
  19883  19878  19884  19885     1  0.0000000  0.6973333  3
  19887  19888  19891  19895     1  0.0000000  0.6508444  3
  19887  19888  19900  19903     1  0.0000000  1.0460000  1
  19887  19888  19900  19903     1  0.0000000  0.6694400  3
  19887  19901  19907  19908     1  0.0000000  1.0460000  1
  19887  19901  19907  19908     1  0.0000000  0.6694400  3
  19887  19909  19893  19896     1  0.0000000  1.6038667  3
  19888  19891  19892  19894     1  0.0000000  0.6508444  3
  19888  19891  19899  19902     1  0.0000000  1.0460000  1
  19888  19891  19899  19902     1  0.0000000  0.6694400  3
  19888  19887  19901  19905     1  0.0000000  0.6508444  3
  19888  19887  19901  19906     1  0.0000000  0.6508444  3
  19889  19887  19888  19891     1  0.0000000  0.6508444  3
  19889  19887  19888  19900     1  0.0000000  1.0460000  1
  19889  19887  19888  19900     1  0.0000000  0.0000000  3
  19889  19887  19888  19890     1  0.0000000  0.6508444  3
  19889  19887  19901  19907     1  0.0000000  1.0460000  1
  19889  19887  19901  19907     1  0.0000000  0.0000000  3
  19889  19887  19901  19905     1  0.0000000  0.6508444  3
  19889  19887  19901  19906     1  0.0000000  0.6508444  3
  19889  19887  19909  19893     1  0.0000000  1.6038667  3
  19890  19888  19891  19892     1  0.0000000  0.6508444  3
  19890  19888  19891  19899     1  0.0000000  1.0460000  1
  19890  19888  19891  19899     1  0.0000000  0.0000000  3
  19890  19888  19891  19895     1  0.0000000  0.6508444  3
  19890  19888  19900  19903     1  0.0000000  0.6973333  3
  19890  19888  19887  19901     1  0.0000000  0.6508444  3
  19890  19888  19887  19909     1  0.0000000  1.0460000  1
  19890  19888  19887  19909     1  0.0000000  0.0000000  3
  19891  19892  19893  19896     1  0.0000000  0.6508444  3
  19891  19892  19898  19904     1  0.0000000  1.0460000  1
  19891  19892  19898  19904     1  0.0000000  0.6694400  3
  19891  19888  19900  19903     1  0.0000000  1.0460000  1
  19891  19888  19900  19903     1  0.0000000  0.6694400  3
  19892  19891  19899  19902     1  0.0000000  1.0460000  1
  19892  19891  19899  19902     1  0.0000000  0.6694400  3
  19893  19892  19898  19904     1  0.0000000  1.0460000  1
  19893  19892  19898  19904     1  0.0000000  0.6694400  3
  19893  19892  19891  19895     1  0.0000000  0.6508444  3
  19894  19892  19893  19897     1  0.0000000  1.0460000  1
  19894  19892  19893  19897     1  0.0000000  0.0000000  3
  19894  19892  19893  19909     1  0.0000000  1.0460000  1
  19894  19892  19893  19909     1  0.0000000  0.0000000  3
  19894  19892  19893  19896     1  0.0000000  0.6508444  3
  19894  19892  19898  19904     1  0.0000000  0.6973333  3
  19894  19892  19891  19899     1  0.0000000  1.0460000  1
  19894  19892  19891  19899     1  0.0000000  0.0000000  3
  19894  19892  19891  19895     1  0.0000000  0.6508444  3
  19895  19891  19892  19898     1  0.0000000  1.0460000  1
  19895  19891  19892  19898     1  0.0000000  0.0000000  3
  19895  19891  19899  19902     1  0.0000000  0.6973333  3
  19895  19891  19888  19900     1  0.0000000  1.0460000  1
  19895  19891  19888  19900     1  0.0000000  0.0000000  3
  19896  19893  19892  19898     1  0.0000000  0.6508444  3
  19905  19901  19907  19908     1  0.0000000  0.6973333  3
  19905  19901  19887  19909     1  0.0000000  1.0460000  1
  19905  19901  19887  19909     1  0.0000000  0.0000000  3
  19906  19901  19907  19908     1  0.0000000  0.6973333  3
  19906  19901  19887  19909     1  0.0000000  1.0460000  1
  19906  19901  19887  19909     1  0.0000000  0.0000000  3

;[ system ]
;; Name
;Generic title
;
;[ molecules ]
;; Compound       #mols
;g6npncore_petim_betagalactose       1
